<LesHouchesEvents version="3.0">
<header>
<!--
#*********************************************************************
#                                                                    *
#                        MadGraph5_aMC@NLO                           *
#                                                                    *
#                           Going Beyond                             *
#                                                                    *
#                   http://madgraph.hep.uiuc.edu                     *
#                   http://madgraph.phys.ucl.ac.be                   *
#                   http://amcatnlo.cern.ch                          *
#                                                                    *
#                     The MadGraph5_aMC@NLO team                     *
#                                                                    *
#....................................................................*
#                                                                    *
# This file contains all the information necessary to reproduce      *
# the events generated:                                              *
#                                                                    *
# 1. software version                                                *
# 2. proc_card          : code generation info including model       *
# 3. param_card         : model primary parameters in the LH format  *
# 4. run_card           : running parameters (collider and cuts)     *
# 5. pythia_card        : present only if pythia has been run        *
# 6. pgs_card           : present only if pgs has been run           *
# 7. delphes_cards      : present only if delphes has been run       *
#                                                                    *
#                                                                    *
#*********************************************************************
-->
<MGVersion>
#5.2.2.3
</MGVersion>
<MG5ProcCard>
#************************************************************
#*                     MadGraph5_aMC@NLO                    *
#*                                                          *
#*                *                       *                 *
#*                  *        * *        *                   *
#*                    * * * * 5 * * * *                     *
#*                  *        * *        *                   *
#*                *                       *                 *
#*                                                          *
#*                                                          *
#*         VERSION 2.2.3                 2015-02-10         *
#*                                                          *
#*    The MadGraph5_aMC@NLO Development Team - Find us at   *
#*    https://server06.fynu.ucl.ac.be/projects/madgraph     *
#*                                                          *
#************************************************************
#*                                                          *
#*               Command File for MadGraph5_aMC@NLO         *
#*                                                          *
#*     run as ./bin/mg5_aMC  filename                       *
#*                                                          *
#************************************************************
set group_subprocesses Auto
set ignore_six_quark_processes False
set loop_optimized_output True
set gauge unitary
set complex_mass_scheme False
import model sm
define p = g u c d s u~ c~ d~ s~
define j = g u c d s u~ c~ d~ s~
define l+ = e+ mu+
define l- = e- mu-
define vl = ve vm vt
define vl~ = ve~ vm~ vt~
import model Zprime_UFO
generate p p > zph, zph > j j
add process p p > zph, zph > b b~
output Dijet_signal
</MG5ProcCard>
<MGProcCard>
#*********************************************************************
#                        MadGraph/MadEvent                           *
#                   http://madgraph.hep.uiuc.edu                     *
#                                                                    *
#                          proc_card.dat                             *
#*********************************************************************
#                                                                    *
#            This Files is generated by MADGRAPH 5                   *
#                                                                    *
# WARNING: This Files is generated for MADEVENT (compatibility issue)*
#          This files is NOT a valid MG4 proc_card.dat               *
#          Running this in MG4 will NEVER reproduce the result of MG5*
#                                                                    *
#*********************************************************************
#*********************************************************************
# Process(es) requested : mg2 input                                  *
#*********************************************************************
# Begin PROCESS # This is TAG. Do not modify this line
p p > zph , zph > j j           #Process
# Be carefull the coupling are here in MG5 convention
          
end_coup           # End the couplings input

done               # this tells MG there are no more procs
# End PROCESS  # This is TAG. Do not modify this line
#*********************************************************************
# Model information                                                  *
#*********************************************************************
# Begin MODEL  # This is TAG. Do not modify this line
Zprime_UFO
# End   MODEL  # This is TAG. Do not modify this line
#*********************************************************************
# Start multiparticle definitions                                    *
#*********************************************************************
# Begin MULTIPARTICLES # This is TAG. Do not modify this line

# End  MULTIPARTICLES # This is TAG. Do not modify this line
</MGProcCard>
<MGRunCard>
#*********************************************************************
#                       MadGraph5_aMC@NLO                            *
#                                                                    *
#                     run_card.dat MadEvent                          *
#                                                                    *
#  This file is used to set the parameters of the run.               *
#                                                                    *
#  Some notation/conventions:                                        *
#                                                                    *
#   Lines starting with a '# ' are info or comments                  *
#                                                                    *
#   mind the format:   value    = variable     ! comment             *
#*********************************************************************
#
#*******************                                                 
# Running parameters
#*******************                                                 
#                                                                    
#*********************************************************************
# Tag name for the run (one word)                                    *
#*********************************************************************
  tag_1     = run_tag ! name of the run 
#*********************************************************************
# Run to generate the grid pack                                      *
#*********************************************************************
  .false.     = gridpack  !True = setting up the grid pack
#*********************************************************************
# Number of events and rnd seed                                      *
# Warning: Do not generate more than 1M events in a single run       *
# If you want to run Pythia, avoid more than 50k events in a run.    *
#*********************************************************************
  2000 = nevents ! Number of unweighted events requested 
 2217 = iseed   ! rnd seed (0=assigned automatically=default))
#*********************************************************************
# Collider type and energy                                           *
# lpp: 0=No PDF, 1=proton, -1=antiproton, 2=photon from proton,      *
#                                         3=photon from electron     *
#*********************************************************************
        1     = lpp1    ! beam 1 type 
        1     = lpp2    ! beam 2 type
     4000     = ebeam1  ! beam 1 total energy in GeV
     4000     = ebeam2  ! beam 2 total energy in GeV
#*********************************************************************
# Beam polarization from -100 (left-handed) to 100 (right-handed)    *
#*********************************************************************
        0     = polbeam1 ! beam polarization for beam 1
        0     = polbeam2 ! beam polarization for beam 2
#*********************************************************************
# PDF CHOICE: this automatically fixes also alpha_s and its evol.    *
#*********************************************************************
 'nn23lo1'    = pdlabel     ! PDF set                                     
 230000    = lhaid     ! if pdlabel=lhapdf, this is the lhapdf number
#*********************************************************************
# Renormalization and factorization scales                           *
#*********************************************************************
 F        = fixed_ren_scale  ! if .true. use fixed ren scale
 F        = fixed_fac_scale  ! if .true. use fixed fac scale
 91.1880  = scale            ! fixed ren scale
 91.1880  = dsqrt_q2fact1    ! fixed fact scale for pdf1
 91.1880  = dsqrt_q2fact2    ! fixed fact scale for pdf2
 1        = scalefact        ! scale factor for event-by-event scales
#*********************************************************************
# Matching - Warning! ickkw > 1 is still beta
#*********************************************************************
 0        = ickkw            ! 0 no matching, 1 MLM, 2 CKKW matching
 1        = highestmult      ! for ickkw=2, highest mult group
 1        = ktscheme         ! for ickkw=1, 1 Durham kT, 2 Pythia pTE
 1        = alpsfact         ! scale factor for QCD emission vx
 F        = chcluster        ! cluster only according to channel diag
 T        = pdfwgt           ! for ickkw=1, perform pdf reweighting
 5        = asrwgtflavor     ! highest quark flavor for a_s reweight
 T        = clusinfo         ! include clustering tag in output
 3.0      = lhe_version       ! Change the way clustering information pass to shower.        
#*********************************************************************
#**********************************************************
#
#**********************************************************
# Automatic ptj and mjj cuts if xqcut > 0
# (turn off for VBF and single top processes)
#**********************************************************
   T  = auto_ptj_mjj  ! Automatic setting of ptj and mjj
#**********************************************************
#                                                                    
#**********************************
# BW cutoff (M+/-bwcutoff*Gamma)
#**********************************
  15  = bwcutoff      ! (M+/-bwcutoff*Gamma)
#**********************************************************
# Apply pt/E/eta/dr/mij cuts on decay products or not
# (note that etmiss/ptll/ptheavy/ht/sorted cuts always apply)
#**********************************************************
   T  = cut_decays    ! Cut decay products 
#*************************************************************
# Number of helicities to sum per event (0 = all helicities)
# 0 gives more stable result, but longer run time (needed for
# long decay chains e.g.).
# Use >=2 if most helicities contribute, e.g. pure QCD.
#*************************************************************
   0  = nhel          ! Number of helicities used per event
#*******************                                                 
# Standard Cuts
#*******************                                                 
#                                                                    
#*********************************************************************
# Minimum and maximum pt's (for max, -1 means no cut)                *
#*********************************************************************
 20  = ptj       ! minimum pt for the jets 
  0  = ptb       ! minimum pt for the b 
 10  = pta       ! minimum pt for the photons 
 10  = ptl       ! minimum pt for the charged leptons 
  0  = misset    ! minimum missing Et (sum of neutrino's momenta)
  0  = ptheavy   ! minimum pt for one heavy final state
 1.0 = ptonium   ! minimum pt for the quarkonium states
 -1  = ptjmax    ! maximum pt for the jets
 -1  = ptbmax    ! maximum pt for the b
 -1  = ptamax    ! maximum pt for the photons
 -1  = ptlmax    ! maximum pt for the charged leptons
 -1  = missetmax ! maximum missing Et (sum of neutrino's momenta)
#*********************************************************************
# Minimum and maximum E's (in the center of mass frame)              *
#*********************************************************************
  0  = ej     ! minimum E for the jets 
  0  = eb     ! minimum E for the b 
  0  = ea     ! minimum E for the photons 
  0  = el     ! minimum E for the charged leptons 
 -1   = ejmax ! maximum E for the jets
 -1   = ebmax ! maximum E for the b
 -1   = eamax ! maximum E for the photons
 -1   = elmax ! maximum E for the charged leptons
#*********************************************************************
# Maximum and minimum absolute rapidity (for max, -1 means no cut)   *
#*********************************************************************
   5  = etaj    ! max rap for the jets 
  -1  = etab    ! max rap for the b
 2.5  = etaa    ! max rap for the photons 
 2.5  = etal    ! max rap for the charged leptons 
 0.6  = etaonium ! max rap for the quarkonium states
   0  = etajmin ! min rap for the jets
   0  = etabmin ! min rap for the b
   0  = etaamin ! min rap for the photons
   0  = etalmin ! main rap for the charged leptons
#*********************************************************************
# Minimum and maximum DeltaR distance                                *
#*********************************************************************
 0.4 = drjj    ! min distance between jets 
 0   = drbb    ! min distance between b's 
 0.4 = drll    ! min distance between leptons 
 0.4 = draa    ! min distance between gammas 
 0   = drbj    ! min distance between b and jet 
 0.4 = draj    ! min distance between gamma and jet 
 0.4 = drjl    ! min distance between jet and lepton 
 0   = drab    ! min distance between gamma and b 
 0   = drbl    ! min distance between b and lepton 
 0.4 = dral    ! min distance between gamma and lepton 
 -1  = drjjmax ! max distance between jets
 -1  = drbbmax ! max distance between b's
 -1  = drllmax ! max distance between leptons
 -1  = draamax ! max distance between gammas
 -1  = drbjmax ! max distance between b and jet
 -1  = drajmax ! max distance between gamma and jet
 -1  = drjlmax ! max distance between jet and lepton
 -1  = drabmax ! max distance between gamma and b
 -1  = drblmax ! max distance between b and lepton
 -1  = dralmax ! maxdistance between gamma and lepton
#*********************************************************************
# Minimum and maximum invariant mass for pairs                       *
# WARNING: for four lepton final state mmll cut require to have      *
#          different lepton masses for each flavor!                  *           
#*********************************************************************
 0   = mmjj    ! min invariant mass of a jet pair 
 0   = mmbb    ! min invariant mass of a b pair 
 0   = mmaa    ! min invariant mass of gamma gamma pair
 0   = mmll    ! min invariant mass of l+l- (same flavour) lepton pair
 -1  = mmjjmax ! max invariant mass of a jet pair
 -1  = mmbbmax ! max invariant mass of a b pair
 -1  = mmaamax ! max invariant mass of gamma gamma pair
 -1  = mmllmax ! max invariant mass of l+l- (same flavour) lepton pair
#*********************************************************************
# Minimum and maximum invariant mass for all letpons                 *
#*********************************************************************
 0   = mmnl    ! min invariant mass for all letpons (l+- and vl) 
 -1  = mmnlmax ! max invariant mass for all letpons (l+- and vl) 
#*********************************************************************
# Minimum and maximum pt for 4-momenta sum of leptons                *
#*********************************************************************
 0   = ptllmin  ! Minimum pt for 4-momenta sum of leptons(l and vl)
 -1  = ptllmax  ! Maximum pt for 4-momenta sum of leptons(l and vl)
#*********************************************************************
# Inclusive cuts                                                     *
#*********************************************************************
 0  = xptj ! minimum pt for at least one jet  
 0  = xptb ! minimum pt for at least one b 
 0  = xpta ! minimum pt for at least one photon 
 0  = xptl ! minimum pt for at least one charged lepton 
#*********************************************************************
# Control the pt's of the jets sorted by pt                          *
#*********************************************************************
 0   = ptj1min ! minimum pt for the leading jet in pt
 0   = ptj2min ! minimum pt for the second jet in pt
 0   = ptj3min ! minimum pt for the third jet in pt
 0   = ptj4min ! minimum pt for the fourth jet in pt
 -1  = ptj1max ! maximum pt for the leading jet in pt 
 -1  = ptj2max ! maximum pt for the second jet in pt
 -1  = ptj3max ! maximum pt for the third jet in pt
 -1  = ptj4max ! maximum pt for the fourth jet in pt
 0   = cutuse  ! reject event if fails any (0) / all (1) jet pt cuts
#*********************************************************************
# Control the pt's of leptons sorted by pt                           *
#*********************************************************************
 0   = ptl1min ! minimum pt for the leading lepton in pt
 0   = ptl2min ! minimum pt for the second lepton in pt
 0   = ptl3min ! minimum pt for the third lepton in pt
 0   = ptl4min ! minimum pt for the fourth lepton in pt
 -1  = ptl1max ! maximum pt for the leading lepton in pt 
 -1  = ptl2max ! maximum pt for the second lepton in pt
 -1  = ptl3max ! maximum pt for the third lepton in pt
 -1  = ptl4max ! maximum pt for the fourth lepton in pt
#*********************************************************************
# Control the Ht(k)=Sum of k leading jets                            *
#*********************************************************************
 0   = htjmin ! minimum jet HT=Sum(jet pt)
 -1  = htjmax ! maximum jet HT=Sum(jet pt)
 0   = ihtmin  !inclusive Ht for all partons (including b)
 -1  = ihtmax  !inclusive Ht for all partons (including b)
 0   = ht2min ! minimum Ht for the two leading jets
 0   = ht3min ! minimum Ht for the three leading jets
 0   = ht4min ! minimum Ht for the four leading jets
 -1  = ht2max ! maximum Ht for the two leading jets
 -1  = ht3max ! maximum Ht for the three leading jets
 -1  = ht4max ! maximum Ht for the four leading jets
#***********************************************************************
# Photon-isolation cuts, according to hep-ph/9801442                   *
# When ptgmin=0, all the other parameters are ignored                  *
# When ptgmin>0, pta and draj are not going to be used                 *
#***********************************************************************
   0 = ptgmin ! Min photon transverse momentum
 0.4 = R0gamma ! Radius of isolation code
 1.0 = xn ! n parameter of eq.(3.4) in hep-ph/9801442
 1.0 = epsgamma ! epsilon_gamma parameter of eq.(3.4) in hep-ph/9801442
 .true. = isoEM ! isolate photons from EM energy (photons and leptons)
#*********************************************************************
# WBF cuts                                                           *
#*********************************************************************
 0   = xetamin ! minimum rapidity for two jets in the WBF case  
 0   = deltaeta ! minimum rapidity for two jets in the WBF case 
#*********************************************************************
# KT DURHAM CUT                                                      *
#*********************************************************************
 -1    =  ktdurham        
 0.4  =  dparameter 
#*********************************************************************
# maximal pdg code for quark to be considered as a light jet         *
# (otherwise b cuts are applied)                                     *
#*********************************************************************
 4 = maxjetflavor    ! Maximum jet pdg code
#*********************************************************************
# Jet measure cuts                                                   *
#*********************************************************************
 0   = xqcut   ! minimum kt jet measure between partons
#*********************************************************************
#
#*********************************************************************
# Store info for systematics studies                                 *
# WARNING: If use_syst is T, matched Pythia output is                *
#          meaningful ONLY if plotted taking matchscale              *
#          reweighting into account!                                 *
#*********************************************************************
   F  = use_syst      ! Enable systematics studies
#
#**************************************
# Parameter of the systematics study
#  will be used by SysCalc (if installed)
#**************************************                                  
#
0.5 1 2 = sys_scalefact  # factorization/renormalization scale factor
0.5 1 2 = sys_alpsfact  # \alpha_s emission scale factors
30 50 = sys_matchscale # variation of merging scale
# PDF sets and number of members (0 or none for all members).
CT10nlo.LHgrid = sys_pdf # matching scales
# MSTW2008nlo68cl.LHgrid 1  = sys_pdf
</MGRunCard>
<slha>
######################################################################
## PARAM_CARD AUTOMATICALY GENERATED BY MG5 FOLLOWING UFO MODEL   ####
######################################################################
##                                                                  ##
##  Width set on Auto will be computed following the information    ##
##        present in the decay.py files of the model.               ##
##        See  arXiv:1402.1178 for more details.                    ##
##                                                                  ##
######################################################################

###################################
## INFORMATION FOR CKMBLOCK
###################################
Block ckmblock 
    1 2.277360e-01 # cabi 

###################################
## INFORMATION FOR FRBLOCK
###################################
Block frblock 
    1 1.200000e+00 # gz 

###################################
## INFORMATION FOR MASS
###################################
Block mass 
    1 5.040000e-03 # MD 
    2 2.550000e-03 # MU 
    3 1.010000e-01 # MS 
    4 1.270000e+00 # MC 
    5 4.700000e+00 # MB 
    6 1.720000e+02 # MT 
   11 5.110000e-04 # Me 
   13 1.056600e-01 # MM 
   15 1.777000e+00 # MTA 
   23 9.118760e+01 # MZ 
   25 1.200000e+02 # MH 
  10030 1.600000e+03 # MZph 
  10031 3.000000e+02 # MZpl 
## Dependent parameters, given by model restrictions.
## Those values should be edited following the 
## analytical expression. MG5 ignores those values 
## but they are important for interfacing the output of MG5
## to external program such as Pythia.
  12 0.000000 # ve : 0.0 
  14 0.000000 # vm : 0.0 
  16 0.000000 # vt : 0.0 
  21 0.000000 # g : 0.0 
  22 0.000000 # a : 0.0 
  24 79.824360 # w+ : cmath.sqrt(MZ__exp__2/2. + cmath.sqrt(MZ__exp__4/4. - (aEW*cmath.pi*MZ__exp__2)/(Gf*sqrt__2))) 

###################################
## INFORMATION FOR SMINPUTS
###################################
Block sminputs 
    1 1.279000e+02 # aEWM1 
    2 1.166370e-05 # Gf 
    3 1.184000e-01 # aS 

###################################
## INFORMATION FOR YUKAWA
###################################
Block yukawa 
    1 5.040000e-03 # ymdo 
    2 2.550000e-03 # ymup 
    3 1.010000e-01 # yms 
    4 1.270000e+00 # ymc 
    5 4.700000e+00 # ymb 
    6 1.720000e+02 # ymt 
   11 5.110000e-04 # yme 
   13 1.056600e-01 # ymm 
   15 1.777000e+00 # ymtau 

###################################
## INFORMATION FOR DECAY
###################################
DECAY   6 1.508336e+00 # WT 
DECAY  23 2.495200e+00 # WZ 
DECAY  24 2.085000e+00 # WW 
DECAY  25 5.753088e-03 # WH 
## Dependent parameters, given by model restrictions.
## Those values should be edited following the 
## analytical expression. MG5 ignores those values 
## but they are important for interfacing the output of MG5
## to external program such as Pythia.
DECAY  1 0.000000 # d : 0.0 
DECAY  2 0.000000 # u : 0.0 
DECAY  3 0.000000 # s : 0.0 
DECAY  4 0.000000 # c : 0.0 
DECAY  5 0.000000 # b : 0.0 
DECAY  11 0.000000 # e- : 0.0 
DECAY  12 0.000000 # ve : 0.0 
DECAY  13 0.000000 # mu- : 0.0 
DECAY  14 0.000000 # vm : 0.0 
DECAY  15 0.000000 # ta- : 0.0 
DECAY  16 0.000000 # vt : 0.0 
DECAY  21 0.000000 # g : 0.0 
DECAY  22 0.000000 # a : 0.0 
DECAY  10030 0.308725 # zph : (gz__exp__2*MZph*(5 + cmath.sqrt(1 - (4*MT__exp__2)/MZph__exp__2)))/(144.*cmath.pi) 
DECAY  10031 0.132629 # zpl : (5*gz__exp__2*MZpl)/(144.*cmath.pi) 
#===========================================================
# QUANTUM NUMBERS OF NEW STATE(S) (NON SM PDG CODE)
#===========================================================

Block QNUMBERS 10030  # zph 
        1 0  # 3 times electric charge
        2 3  # number of spin states (2S+1)
        3 1  # colour rep (1: singlet, 3: triplet, 8: octet)
        4 0  # Particle/Antiparticle distinction (0=own anti)
Block QNUMBERS 10031  # zpl 
        1 0  # 3 times electric charge
        2 3  # number of spin states (2S+1)
        3 1  # colour rep (1: singlet, 3: triplet, 8: octet)
        4 0  # Particle/Antiparticle distinction (0=own anti)
</slha>
## END BANNER##
<MGGenerationInfo>
#  Number of Events        :         3967
#  Integrated weight (pb)  :  0.22248E+00
#  Max wgt                 :  0.77709E-04
#  Average wgt             :  0.56083E-04
</MGGenerationInfo>
</header>
<init>
     2212     2212  0.40000000000E+04  0.40000000000E+04 0 0  247000  247000 2   1
  0.22258779434E+00  0.47556030332E-03  0.77709050000E-04   0
</init>
<event>
 5   0  0.7395088E-04  0.1433157E+04  0.7818609E-02  0.8930161E-01
        2   -1    0    0  501    0  0.00000000000E+00  0.00000000000E+00  0.51420711248E+03  0.51420711248E+03  0.25500000920E-02 0. -1.
       -2   -1    0    0    0  501  0.00000000000E+00  0.00000000000E+00 -0.99859547051E+03  0.99859547052E+03  0.25500000920E-02 0.  1.
    10030    2    1    2    0    0  0.00000000000E+00  0.00000000000E+00 -0.48438835804E+03  0.15128025830E+04  0.14331572048E+04 0.  0.
        1    1    3    3  502    0 -0.76131485893E+02  0.48465855924E+03 -0.79351780796E+03  0.93293109808E+03  0.50400001928E-02 0.  1.
       -1    1    3    3    0  502  0.76131485893E+02 -0.48465855924E+03  0.30912944992E+03  0.57987148492E+03  0.50400001928E-02 0. -1.
</event>
<event>
 5   0  0.7395088E-04  0.1599860E+04  0.7818609E-02  0.8820634E-01
       -2   -1    0    0    0  501  0.00000000000E+00  0.00000000000E+00  0.54366502835E+03  0.54366502835E+03  0.25500000920E-02 0. -1.
        2   -1    0    0  501    0  0.00000000000E+00  0.00000000000E+00 -0.11769901344E+04  0.11769901344E+04  0.25500000920E-02 0.  1.
    10030    2    1    2    0    0  0.00000000000E+00  0.00000000000E+00 -0.63332510603E+03  0.17206551627E+04  0.15998604624E+04 0.  0.
        1    1    3    3  502    0 -0.69334384187E+03 -0.36418195657E+03 -0.49185472134E+03  0.92481092526E+03  0.50400001928E-02 0.  1.
       -1    1    3    3    0  502  0.69334384187E+03  0.36418195657E+03 -0.14147038469E+03  0.79584423747E+03  0.50400001928E-02 0. -1.
</event>
<event>
 5   0  0.7488884E-04  0.1574407E+04  0.7818609E-02  0.8836427E-01
       -2   -1    0    0    0  501  0.00000000000E+00  0.00000000000E+00  0.77510562937E+03  0.77510562937E+03  0.25500000920E-02 0. -1.
        2   -1    0    0  501    0  0.00000000000E+00  0.00000000000E+00 -0.79949015305E+03  0.79949015305E+03  0.25500000920E-02 0.  1.
    10030    2    1    2    0    0  0.00000000000E+00  0.00000000000E+00 -0.24384523678E+02  0.15745957824E+04  0.15744069592E+04 0.  0.
        3    1    3    3  502    0 -0.49963833293E+02  0.36534741398E+03 -0.70777131846E+03  0.79806977576E+03  0.10100000352E+00 0.  1.
       -3    1    3    3    0  502  0.49963833293E+02 -0.36534741398E+03  0.68338679479E+03  0.77652600667E+03  0.10100000352E+00 0. -1.
</event>
<event>
 5   0  0.7395088E-04  0.1626877E+04  0.7818609E-02  0.8804205E-01
        2   -1    0    0  501    0  0.00000000000E+00  0.00000000000E+00  0.75228434006E+03  0.75228434007E+03  0.25500000920E-02 0.  1.
       -2   -1    0    0    0  501  0.00000000000E+00  0.00000000000E+00 -0.87956380225E+03  0.87956380226E+03  0.25500000920E-02 0. -1.
    10030    2    1    2    0    0  0.00000000000E+00  0.00000000000E+00 -0.12727946219E+03  0.16318481423E+04  0.16268768540E+04 0.  0.
        1    1    3    3  502    0 -0.87376376061E+02 -0.25693115127E+03 -0.83281660088E+03  0.87591765499E+03  0.50400001928E-02 0. -1.
       -1    1    3    3    0  502  0.87376376061E+02  0.25693115127E+03  0.70553713869E+03  0.75593048734E+03  0.50400001928E-02 0.  1.
</event>
<event>
 5   0  0.7488884E-04  0.1270184E+04  0.7818609E-02  0.9053550E-01
        2   -1    0    0  501    0  0.00000000000E+00  0.00000000000E+00  0.15545237649E+04  0.15545237649E+04  0.25500000920E-02 0.  1.
       -2   -1    0    0    0  501  0.00000000000E+00  0.00000000000E+00 -0.25946314314E+03  0.25946314315E+03  0.25500000920E-02 0. -1.
    10030    2    1    2    0    0  0.00000000000E+00  0.00000000000E+00  0.12950606217E+04  0.18139869080E+04  0.12701836436E+04 0.  0.
        3    1    3    3  502    0 -0.29662767303E+03 -0.36753519063E+03  0.41169406979E+02  0.47409389685E+03  0.10100000352E+00 0. -1.
       -3    1    3    3    0  502  0.29662767303E+03  0.36753519063E+03  0.12538912148E+04  0.13398930112E+04  0.10100000352E+00 0.  1.
</event>
<event>
 5   0  0.3889847E-04  0.1617767E+04  0.7818609E-02  0.8809707E-01
        1   -1    0    0  501    0  0.00000000000E+00  0.00000000000E+00  0.50162492082E+03  0.50162492084E+03  0.50400001928E-02 0. -1.
       -1   -1    0    0    0  501  0.00000000000E+00  0.00000000000E+00 -0.13043464928E+04  0.13043464928E+04  0.50400001928E-02 0.  1.
    10030    2    1    2    0    0  0.00000000000E+00  0.00000000000E+00 -0.80272157197E+03  0.18059714136E+04  0.16177672344E+04 0.  0.
        1    1    3    3  502    0  0.80065587689E+03 -0.11257305125E+03 -0.37470440153E+03  0.89113742690E+03  0.50400001928E-02 0. -1.
       -1    1    3    3    0  502 -0.80065587689E+03  0.11257305125E+03 -0.42801717044E+03  0.91483398674E+03  0.50400001928E-02 0.  1.
</event>
<event>
 5   0  0.3973227E-04  0.1547041E+04  0.7818609E-02  0.8853760E-01
        1   -1    0    0  501    0  0.00000000000E+00  0.00000000000E+00  0.13583876952E+04  0.13583876952E+04  0.50400001928E-02 0. -1.
       -1   -1    0    0    0  501  0.00000000000E+00  0.00000000000E+00 -0.44047345854E+03  0.44047345857E+03  0.50400001928E-02 0.  1.
    10030    2    1    2    0    0  0.00000000000E+00  0.00000000000E+00  0.91791423661E+03  0.17988611537E+04  0.15470406926E+04 0.  0.
        3    1    3    3  502    0 -0.39232220717E+03 -0.55448320631E+03  0.88928680019E+03  0.11190171417E+04  0.10100000352E+00 0. -1.
       -3    1    3    3    0  502  0.39232220717E+03  0.55448320631E+03  0.28627436415E+02  0.67984401199E+03  0.10100000352E+00 0.  1.
</event>
<event>
 5   0  0.7395088E-04  0.1558928E+04  0.7818609E-02  0.8846185E-01
       -2   -1    0    0    0  501  0.00000000000E+00  0.00000000000E+00  0.37092417966E+03  0.37092417967E+03  0.25500000920E-02 0. -1.
        2   -1    0    0  501    0  0.00000000000E+00  0.00000000000E+00 -0.16379739795E+04  0.16379739795E+04  0.25500000920E-02 0.  1.
    10030    2    1    2    0    0  0.00000000000E+00  0.00000000000E+00 -0.12670497998E+04  0.20088981591E+04  0.15589280351E+04 0.  0.
        1    1    3    3  502    0 -0.41114855145E+02 -0.21832185104E+03  0.32926247018E+03  0.39720100233E+03  0.50400001928E-02 0. -1.
       -1    1    3    3    0  502  0.41114855145E+02  0.21832185104E+03 -0.15963122700E+04  0.16116971568E+04  0.50400001928E-02 0.  1.
</event>
<event>
 5   0  0.3950195E-04  0.1595643E+04  0.7818609E-02  0.8823229E-01
       -1   -1    0    0    0  501  0.00000000000E+00  0.00000000000E+00  0.44484665846E+03  0.44484665849E+03  0.50400001928E-02 0.  1.
        1   -1    0    0  501    0  0.00000000000E+00  0.00000000000E+00 -0.14308724804E+04  0.14308724804E+04  0.50400001928E-02 0. -1.
    10030    2    1    2    0    0  0.00000000000E+00  0.00000000000E+00 -0.98602582196E+03  0.18757191389E+04  0.15956426187E+04 0.  0.
        2    1    3    3  502    0  0.56994213274E+03  0.54512261264E+03 -0.35133329958E+03  0.86338159865E+03  0.25500000920E-02 0.  1.
       -2    1    3    3    0  502 -0.56994213274E+03 -0.54512261264E+03 -0.63469252238E+03  0.10123375403E+04  0.25500000920E-02 0. -1.
</event>
<event>
 5   0  0.7395088E-04  0.1610873E+04  0.7818609E-02  0.8813896E-01
        2   -1    0    0  501    0  0.00000000000E+00  0.00000000000E+00  0.16573252834E+04  0.16573252834E+04  0.25500000920E-02 0.  1.
       -2   -1    0    0    0  501  0.00000000000E+00  0.00000000000E+00 -0.39143084235E+03  0.39143084236E+03  0.25500000920E-02 0. -1.
    10030    2    1    2    0    0  0.00000000000E+00  0.00000000000E+00  0.12658944411E+04  0.20487561258E+04  0.16108733429E+04 0.  0.
        1    1    3    3  502    0 -0.25249055925E+03  0.76306243986E+03  0.56670868689E+03  0.98345030655E+03  0.50400001928E-02 0. -1.
       -1    1    3    3    0  502  0.25249055925E+03 -0.76306243986E+03  0.69918575419E+03  0.10653058192E+04  0.50400001928E-02 0.  1.
</event>
<event>
 5   0  0.2781000E-04  0.1598170E+04  0.7818609E-02  0.8821673E-01
        4   -1    0    0  501    0  0.00000000000E+00  0.00000000000E+00  0.11784817023E+04  0.11784823867E+04  0.12699999809E+01 0.  1.
       -4   -1    0    0    0  501  0.00000000000E+00  0.00000000000E+00 -0.54182874069E+03  0.54183022908E+03  0.12699999809E+01 0. -1.
    10030    2    1    2    0    0  0.00000000000E+00  0.00000000000E+00  0.63665296165E+03  0.17203126157E+04  0.15981703608E+04 0.  0.
        1    1    3    3  502    0  0.13980515349E+03  0.59650024648E+03 -0.23389081034E+03  0.65579183906E+03  0.50400001928E-02 0. -1.
       -1    1    3    3    0  502 -0.13980515349E+03 -0.59650024648E+03  0.87054377200E+03  0.10645207767E+04  0.50400001928E-02 0.  1.
</event>
<event>
 5   0  0.7415102E-04  0.1581202E+04  0.7818609E-02  0.8832180E-01
       -2   -1    0    0    0  501  0.00000000000E+00  0.00000000000E+00  0.10233622503E+04  0.10233622503E+04  0.25500000920E-02 0. -1.
        2   -1    0    0  501    0  0.00000000000E+00  0.00000000000E+00 -0.61078065124E+03  0.61078065125E+03  0.25500000920E-02 0.  1.
    10030    2    1    2    0    0  0.00000000000E+00  0.00000000000E+00  0.41258159909E+03  0.16341429016E+04  0.15812018995E+04 0.  0.
        5    1    3    3  502    0  0.66891845990E+01 -0.24972892083E+03  0.98148355580E+03  0.10127888918E+04  0.46999998093E+01 0. -1.
       -5    1    3    3    0  502 -0.66891845990E+01  0.24972892083E+03 -0.56890195671E+03  0.62135400976E+03  0.46999998093E+01 0.  1.
</event>
<event>
 5   0  0.4110803E-04  0.1614112E+04  0.7818609E-02  0.8811925E-01
        1   -1    0    0  501    0  0.00000000000E+00  0.00000000000E+00  0.94145396757E+03  0.94145396759E+03  0.50400001928E-02 0. -1.
       -1   -1    0    0    0  501  0.00000000000E+00  0.00000000000E+00 -0.69184407716E+03  0.69184407718E+03  0.50400001928E-02 0.  1.
    10030    2    1    2    0    0  0.00000000000E+00  0.00000000000E+00  0.24960989041E+03  0.16332980448E+04  0.16141119557E+04 0.  0.
        5    1    3    3  502    0 -0.43067732702E+03 -0.18061798508E+02  0.81519638243E+03  0.92215856581E+03  0.46999998093E+01 0. -1.
       -5    1    3    3    0  502  0.43067732702E+03  0.18061798508E+02 -0.56558649202E+03  0.71113947896E+03  0.46999998093E+01 0.  1.
</event>
<event>
 5   0  0.3889847E-04  0.1602280E+04  0.7818609E-02  0.8819148E-01
        1   -1    0    0  501    0  0.00000000000E+00  0.00000000000E+00  0.14577278767E+04  0.14577278767E+04  0.50400001928E-02 0. -1.
       -1   -1    0    0    0  501  0.00000000000E+00  0.00000000000E+00 -0.44029182691E+03  0.44029182694E+03  0.50400001928E-02 0.  1.
    10030    2    1    2    0    0  0.00000000000E+00  0.00000000000E+00  0.10174360498E+04  0.18980197036E+04  0.16022804623E+04 0.  0.
        1    1    3    3  502    0 -0.42807711290E+02 -0.47365403832E+03  0.12724192216E+04  0.13583929195E+04  0.50400001928E-02 0. -1.
       -1    1    3    3    0  502  0.42807711290E+02  0.47365403832E+03 -0.25498317187E+03  0.53962678411E+03  0.50400001928E-02 0.  1.
</event>
<event>
 5   0  0.3973227E-04  0.1556758E+04  0.7818609E-02  0.8847563E-01
       -1   -1    0    0    0  501  0.00000000000E+00  0.00000000000E+00  0.10668582807E+04  0.10668582807E+04  0.50400001928E-02 0. -1.
        1   -1    0    0  501    0  0.00000000000E+00  0.00000000000E+00 -0.56790475783E+03  0.56790475785E+03  0.50400001928E-02 0.  1.
    10030    2    1    2    0    0  0.00000000000E+00  0.00000000000E+00  0.49895352290E+03  0.16347630386E+04  0.15567580333E+04 0.  0.
        3    1    3    3  502    0 -0.68759015318E+03  0.24895354697E+03 -0.30561087074E+02  0.73190988349E+03  0.10100000352E+00 0.  1.
       -3    1    3    3    0  502  0.68759015318E+03 -0.24895354697E+03  0.52951460997E+03  0.90285315510E+03  0.10100000352E+00 0. -1.
</event>
<event>
 5   0  0.3973227E-04  0.1502650E+04  0.7818609E-02  0.8882693E-01
       -1   -1    0    0    0  501  0.00000000000E+00  0.00000000000E+00  0.47378487357E+03  0.47378487360E+03  0.50400001928E-02 0. -1.
        1   -1    0    0  501    0  0.00000000000E+00  0.00000000000E+00 -0.11914461086E+04  0.11914461086E+04  0.50400001928E-02 0.  1.
    10030    2    1    2    0    0  0.00000000000E+00  0.00000000000E+00 -0.71766123502E+03  0.16652309822E+04  0.15026498514E+04 0.  0.
        3    1    3    3  502    0  0.34398712410E+03 -0.38015041595E+03  0.24981803571E+03  0.57030740962E+03  0.10100000352E+00 0. -1.
       -3    1    3    3    0  502 -0.34398712410E+03  0.38015041595E+03 -0.96747927073E+03  0.10949235726E+04  0.10100000352E+00 0.  1.
</event>
<event>
 5   0  0.7395088E-04  0.1573078E+04  0.7818609E-02  0.8837260E-01
        2   -1    0    0  501    0  0.00000000000E+00  0.00000000000E+00  0.14264106298E+04  0.14264106298E+04  0.25500000920E-02 0. -1.
       -2   -1    0    0    0  501  0.00000000000E+00  0.00000000000E+00 -0.43370643043E+03  0.43370643044E+03  0.25500000920E-02 0.  1.
    10030    2    1    2    0    0  0.00000000000E+00  0.00000000000E+00  0.99270419936E+03  0.18601170602E+04  0.15730778272E+04 0.  0.
        1    1    3    3  502    0  0.69067540574E+03 -0.15919502216E+03  0.89955158070E+03  0.11452373630E+04  0.50400001928E-02 0. -1.
       -1    1    3    3    0  502 -0.69067540574E+03  0.15919502216E+03  0.93152618661E+02  0.71487969727E+03  0.50400001928E-02 0.  1.
</event>
<event>
 5   0  0.3837251E-04  0.1601162E+04  0.7818609E-02  0.8819835E-01
       -1   -1    0    0    0  501  0.00000000000E+00  0.00000000000E+00  0.79937721331E+03  0.79937721333E+03  0.50400001928E-02 0.  1.
        1   -1    0    0  501    0  0.00000000000E+00  0.00000000000E+00 -0.80178649938E+03  0.80178649939E+03  0.50400001928E-02 0. -1.
    10030    2    1    2    0    0  0.00000000000E+00  0.00000000000E+00 -0.24092860635E+01  0.16011637127E+04  0.16011619001E+04 0.  0.
        4    1    3    3  502    0 -0.13009888699E+03  0.33229066751E+03  0.71544492223E+03  0.79950350703E+03  0.12699999809E+01 0.  1.
       -4    1    3    3    0  502  0.13009888699E+03 -0.33229066751E+03 -0.71785420830E+03  0.80166020569E+03  0.12699999809E+01 0. -1.
</event>
<event>
 5   0  0.3889847E-04  0.1354271E+04  0.7818609E-02  0.8987601E-01
       -1   -1    0    0    0  501  0.00000000000E+00  0.00000000000E+00  0.54079982636E+03  0.54079982639E+03  0.50400001928E-02 0. -1.
        1   -1    0    0  501    0  0.00000000000E+00  0.00000000000E+00 -0.84784110526E+03  0.84784110528E+03  0.50400001928E-02 0.  1.
    10030    2    1    2    0    0  0.00000000000E+00  0.00000000000E+00 -0.30704127890E+03  0.13886409317E+04  0.13542707595E+04 0.  0.
        1    1    3    3  502    0 -0.50724939138E+03 -0.44753279582E+03 -0.18470251924E+03  0.70121506618E+03  0.50400001928E-02 0.  1.
       -1    1    3    3    0  502  0.50724939138E+03  0.44753279582E+03 -0.12233875967E+03  0.68742586549E+03  0.50400001928E-02 0. -1.
</event>
<event>
 5   0  0.7770905E-04  0.1612201E+04  0.7818609E-02  0.8813087E-01
       -2   -1    0    0    0  501  0.00000000000E+00  0.00000000000E+00  0.51850044481E+03  0.51850044481E+03  0.25500000920E-02 0. -1.
        2   -1    0    0  501    0  0.00000000000E+00  0.00000000000E+00 -0.12532258878E+04  0.12532258878E+04  0.25500000920E-02 0.  1.
    10030    2    1    2    0    0  0.00000000000E+00  0.00000000000E+00 -0.73472544303E+03  0.17717263327E+04  0.16122012037E+04 0.  0.
        2    1    3    3  502    0  0.66631528023E+03  0.10996318831E+02  0.13105769141E+03  0.67917088437E+03  0.25500000920E-02 0. -1.
       -2    1    3    3    0  502 -0.66631528023E+03 -0.10996318831E+02 -0.86578313444E+03  0.10925554483E+04  0.25500000920E-02 0.  1.
</event>
<event>
 5   0  0.3973227E-04  0.1594636E+04  0.7818609E-02  0.8823850E-01
       -1   -1    0    0    0  501  0.00000000000E+00  0.00000000000E+00  0.34834190163E+03  0.34834190166E+03  0.50400001928E-02 0.  1.
        1   -1    0    0  501    0  0.00000000000E+00  0.00000000000E+00 -0.18249776047E+04  0.18249776047E+04  0.50400001928E-02 0. -1.
    10030    2    1    2    0    0  0.00000000000E+00  0.00000000000E+00 -0.14766357031E+04  0.21733195064E+04  0.15946362210E+04 0.  0.
        3    1    3    3  502    0  0.35866687116E+03 -0.42444061030E+03  0.40947960142E+02  0.55719700446E+03  0.10100000352E+00 0.  1.
       -3    1    3    3    0  502 -0.35866687116E+03  0.42444061030E+03 -0.15175836632E+04  0.16161225019E+04  0.10100000352E+00 0. -1.
</event>
<event>
 5   0  0.7488884E-04  0.1603811E+04  0.7818609E-02  0.8818210E-01
       -2   -1    0    0    0  501  0.00000000000E+00  0.00000000000E+00  0.48667721845E+03  0.48667721845E+03  0.25500000920E-02 0.  1.
        2   -1    0    0  501    0  0.00000000000E+00  0.00000000000E+00 -0.13213127091E+04  0.13213127091E+04  0.25500000920E-02 0. -1.
    10030    2    1    2    0    0  0.00000000000E+00  0.00000000000E+00 -0.83463549065E+03  0.18079899275E+04  0.16038114527E+04 0.  0.
        3    1    3    3  502    0 -0.24655036358E+03  0.12069561688E+03  0.43206118099E+03  0.51189001556E+03  0.10100000352E+00 0.  1.
       -3    1    3    3    0  502  0.24655036358E+03 -0.12069561688E+03 -0.12666966716E+04  0.12960999120E+04  0.10100000352E+00 0. -1.
</event>
<event>
 5   0  0.3889847E-04  0.1220752E+04  0.7818609E-02  0.9094884E-01
        1   -1    0    0  501    0  0.00000000000E+00  0.00000000000E+00  0.20729507080E+04  0.20729507080E+04  0.50400001928E-02 0. -1.
       -1   -1    0    0    0  501  0.00000000000E+00  0.00000000000E+00 -0.17972396624E+03  0.17972396632E+03  0.50400001928E-02 0.  1.
    10030    2    1    2    0    0  0.00000000000E+00  0.00000000000E+00  0.18932267417E+04  0.22526746743E+04  0.12207521012E+04 0.  0.
        1    1    3    3  502    0  0.52000710683E+02 -0.47696873691E+03  0.25037430825E+03  0.54119362908E+03  0.50400001928E-02 0.  1.
       -1    1    3    3    0  502 -0.52000710683E+02  0.47696873691E+03  0.16428524335E+04  0.17114810452E+04  0.50400001928E-02 0. -1.
</event>
<event>
 5   0  0.7770905E-04  0.1588007E+04  0.7818609E-02  0.8827950E-01
        2   -1    0    0  501    0  0.00000000000E+00  0.00000000000E+00  0.78734105941E+03  0.78734105941E+03  0.25500000920E-02 0. -1.
       -2   -1    0    0    0  501  0.00000000000E+00  0.00000000000E+00 -0.80072214494E+03  0.80072214494E+03  0.25500000920E-02 0.  1.
    10030    2    1    2    0    0  0.00000000000E+00  0.00000000000E+00 -0.13381085534E+02  0.15880632044E+04  0.15880068286E+04 0.  0.
        2    1    3    3  502    0 -0.38411973637E+03  0.11767250857E+03  0.67820356186E+03  0.78826065643E+03  0.25500000920E-02 0. -1.
       -2    1    3    3    0  502  0.38411973637E+03 -0.11767250857E+03 -0.69158464740E+03  0.79980254792E+03  0.25500000920E-02 0.  1.
</event>
<event>
 5   0  0.3950195E-04  0.1606062E+04  0.7818609E-02  0.8816833E-01
       -1   -1    0    0    0  501  0.00000000000E+00  0.00000000000E+00  0.43680295890E+03  0.43680295893E+03  0.50400001928E-02 0. -1.
        1   -1    0    0  501    0  0.00000000000E+00  0.00000000000E+00 -0.14763147159E+04  0.14763147159E+04  0.50400001928E-02 0.  1.
    10030    2    1    2    0    0  0.00000000000E+00  0.00000000000E+00 -0.10395117570E+04  0.19131176748E+04  0.16060618122E+04 0.  0.
        2    1    3    3  502    0 -0.29154540674E+03 -0.56095908937E+03  0.70073242027E+02  0.63606924418E+03  0.25500000920E-02 0. -1.
       -2    1    3    3    0  502  0.29154540674E+03  0.56095908937E+03 -0.11095849990E+04  0.12770484306E+04  0.25500000920E-02 0.  1.
</event>
<event>
 5   0  0.7488884E-04  0.1588577E+04  0.7818609E-02  0.8827597E-01
        2   -1    0    0  501    0  0.00000000000E+00  0.00000000000E+00  0.20801216610E+04  0.20801216610E+04  0.25500000920E-02 0.  1.
       -2   -1    0    0    0  501  0.00000000000E+00  0.00000000000E+00 -0.30329662256E+03  0.30329662257E+03  0.25500000920E-02 0. -1.
    10030    2    1    2    0    0  0.00000000000E+00  0.00000000000E+00  0.17768250385E+04  0.23834182836E+04  0.15885765632E+04 0.  0.
        3    1    3    3  502    0  0.58025422384E+03  0.37651642949E+03  0.30263400946E+03  0.75501452956E+03  0.10100000352E+00 0. -1.
       -3    1    3    3    0  502 -0.58025422384E+03 -0.37651642949E+03  0.14741910290E+04  0.16284037541E+04  0.10100000352E+00 0.  1.
</event>
<event>
 5   0  0.7415102E-04  0.1592795E+04  0.7818609E-02  0.8824987E-01
        2   -1    0    0  501    0  0.00000000000E+00  0.00000000000E+00  0.97521714673E+03  0.97521714673E+03  0.25500000920E-02 0. -1.
       -2   -1    0    0    0  501  0.00000000000E+00  0.00000000000E+00 -0.65036688392E+03  0.65036688393E+03  0.25500000920E-02 0.  1.
    10030    2    1    2    0    0  0.00000000000E+00  0.00000000000E+00  0.32485026280E+03  0.16255840307E+04  0.15927949484E+04 0.  0.
        5    1    3    3  502    0 -0.23884436053E+03 -0.13211614387E+03  0.92597449181E+03  0.96537668995E+03  0.46999998093E+01 0. -1.
       -5    1    3    3    0  502  0.23884436053E+03  0.13211614387E+03 -0.60112422901E+03  0.66020734071E+03  0.46999998093E+01 0.  1.
</event>
<event>
 5   0  0.3950195E-04  0.1655800E+04  0.7818609E-02  0.8786983E-01
        1   -1    0    0  501    0  0.00000000000E+00  0.00000000000E+00  0.19443156458E+04  0.19443156459E+04  0.50400001928E-02 0.  1.
       -1   -1    0    0    0  501  0.00000000000E+00  0.00000000000E+00 -0.35252412561E+03  0.35252412565E+03  0.50400001928E-02 0. -1.
    10030    2    1    2    0    0  0.00000000000E+00  0.00000000000E+00  0.15917915202E+04  0.22968397715E+04  0.16557997137E+04 0.  0.
        2    1    3    3  502    0 -0.55492026952E+02  0.39466117854E+03 -0.21070125512E+03  0.45081241089E+03  0.25500000920E-02 0. -1.
       -2    1    3    3    0  502  0.55492026952E+02 -0.39466117854E+03  0.18024927754E+04  0.18460273606E+04  0.25500000920E-02 0.  1.
</event>
<event>
 5   0  0.7488884E-04  0.1600346E+04  0.7818609E-02  0.8820336E-01
       -2   -1    0    0    0  501  0.00000000000E+00  0.00000000000E+00  0.91278789986E+03  0.91278789986E+03  0.25500000920E-02 0.  1.
        2   -1    0    0  501    0  0.00000000000E+00  0.00000000000E+00 -0.70145159985E+03  0.70145159985E+03  0.25500000920E-02 0. -1.
    10030    2    1    2    0    0  0.00000000000E+00  0.00000000000E+00  0.21133630001E+03  0.16142394997E+04  0.16003456285E+04 0.  0.
        3    1    3    3  502    0  0.23179494325E+03 -0.63272879716E+03 -0.32958931834E+03  0.75013582466E+03  0.10100000352E+00 0. -1.
       -3    1    3    3    0  502 -0.23179494325E+03  0.63272879716E+03  0.54092561834E+03  0.86410367506E+03  0.10100000352E+00 0.  1.
</event>
<event>
 5   0  0.7395088E-04  0.1583143E+04  0.7818609E-02  0.8830971E-01
       -2   -1    0    0    0  501  0.00000000000E+00  0.00000000000E+00  0.56189037107E+03  0.56189037107E+03  0.25500000920E-02 0. -1.
        2   -1    0    0  501    0  0.00000000000E+00  0.00000000000E+00 -0.11151380725E+04  0.11151380725E+04  0.25500000920E-02 0.  1.
    10030    2    1    2    0    0  0.00000000000E+00  0.00000000000E+00 -0.55324770146E+03  0.16770284436E+04  0.15831428809E+04 0.  0.
        1    1    3    3  502    0 -0.38484186705E+03  0.23219246886E+03 -0.96685463323E+03  0.10662197180E+04  0.50400001928E-02 0.  1.
       -1    1    3    3    0  502  0.38484186705E+03 -0.23219246886E+03  0.41360693177E+03  0.61080872560E+03  0.50400001928E-02 0. -1.
</event>
<event>
 5   0  0.4110803E-04  0.1613750E+04  0.7818609E-02  0.8812145E-01
       -1   -1    0    0    0  501  0.00000000000E+00  0.00000000000E+00  0.69671635270E+03  0.69671635272E+03  0.50400001928E-02 0. -1.
        1   -1    0    0  501    0  0.00000000000E+00  0.00000000000E+00 -0.93445118040E+03  0.93445118042E+03  0.50400001928E-02 0.  1.
    10030    2    1    2    0    0  0.00000000000E+00  0.00000000000E+00 -0.23773482771E+03  0.16311675331E+04  0.16137501891E+04 0.  0.
        5    1    3    3  502    0  0.37566800095E+03 -0.55559562458E+02 -0.83845839920E+03  0.92046069395E+03  0.46999998093E+01 0.  1.
       -5    1    3    3    0  502 -0.37566800095E+03  0.55559562458E+02  0.60072357149E+03  0.71070683919E+03  0.46999998093E+01 0. -1.
</event>
<event>
 5   0  0.7488884E-04  0.1595784E+04  0.7818609E-02  0.8823142E-01
       -2   -1    0    0    0  501  0.00000000000E+00  0.00000000000E+00  0.64388116786E+03  0.64388116786E+03  0.25500000920E-02 0.  1.
        2   -1    0    0  501    0  0.00000000000E+00  0.00000000000E+00 -0.98874058833E+03  0.98874058833E+03  0.25500000920E-02 0. -1.
    10030    2    1    2    0    0  0.00000000000E+00  0.00000000000E+00 -0.34485942047E+03  0.16326217562E+04  0.15957837507E+04 0.  0.
        3    1    3    3  502    0  0.43345811761E+03 -0.16870859777E+03 -0.83568756700E+03  0.95641113049E+03  0.10100000352E+00 0. -1.
       -3    1    3    3    0  502 -0.43345811761E+03  0.16870859777E+03  0.49082814654E+03  0.67621062570E+03  0.10100000352E+00 0.  1.
</event>
<event>
 5   0  0.3837251E-04  0.1592412E+04  0.7818609E-02  0.8825223E-01
        1   -1    0    0  501    0  0.00000000000E+00  0.00000000000E+00  0.88002049162E+03  0.88002049164E+03  0.50400001928E-02 0. -1.
       -1   -1    0    0    0  501  0.00000000000E+00  0.00000000000E+00 -0.72037382675E+03  0.72037382677E+03  0.50400001928E-02 0.  1.
    10030    2    1    2    0    0  0.00000000000E+00  0.00000000000E+00  0.15964666487E+03  0.16003943184E+04  0.15924116669E+04 0.  0.
        4    1    3    3  502    0 -0.60676467985E+03 -0.60665260661E+02 -0.43469859689E+03  0.74887123966E+03  0.12699999809E+01 0.  1.
       -4    1    3    3    0  502  0.60676467985E+03  0.60665260661E+02  0.59434526176E+03  0.85152307874E+03  0.12699999809E+01 0. -1.
</event>
<event>
 5   0  0.3889847E-04  0.1612891E+04  0.7818609E-02  0.8812668E-01
        1   -1    0    0  501    0  0.00000000000E+00  0.00000000000E+00  0.54142860667E+03  0.54142860669E+03  0.50400001928E-02 0.  1.
       -1   -1    0    0    0  501  0.00000000000E+00  0.00000000000E+00 -0.12011814296E+04  0.12011814296E+04  0.50400001928E-02 0. -1.
    10030    2    1    2    0    0  0.00000000000E+00  0.00000000000E+00 -0.65975282288E+03  0.17426100363E+04  0.16128905577E+04 0.  0.
        1    1    3    3  502    0 -0.14453500219E+02  0.57418307754E+03  0.28174328814E+03  0.63974556711E+03  0.50400001928E-02 0.  1.
       -1    1    3    3    0  502  0.14453500219E+02 -0.57418307754E+03 -0.94149611102E+03  0.11028644691E+04  0.50400001928E-02 0. -1.
</event>
<event>
 5   0  0.3973227E-04  0.1595210E+04  0.7818609E-02  0.8823496E-01
       -1   -1    0    0    0  501  0.00000000000E+00  0.00000000000E+00  0.61853952134E+03  0.61853952137E+03  0.50400001928E-02 0.  1.
        1   -1    0    0  501    0  0.00000000000E+00  0.00000000000E+00 -0.10285089312E+04  0.10285089313E+04  0.50400001928E-02 0. -1.
    10030    2    1    2    0    0  0.00000000000E+00  0.00000000000E+00 -0.40996940990E+03  0.16470484526E+04  0.15952096064E+04 0.  0.
        3    1    3    3  502    0 -0.60508624751E+02  0.78664158610E+03 -0.84102621752E+02  0.79343527766E+03  0.10100000352E+00 0. -1.
       -3    1    3    3    0  502  0.60508624751E+02 -0.78664158610E+03 -0.32586678815E+03  0.85361317496E+03  0.10100000352E+00 0.  1.
</event>
<event>
 5   0  0.7553070E-04  0.1550061E+04  0.7818609E-02  0.8851829E-01
       -2   -1    0    0    0  501  0.00000000000E+00  0.00000000000E+00  0.10779335349E+04  0.10779335349E+04  0.25500000920E-02 0.  1.
        2   -1    0    0  501    0  0.00000000000E+00  0.00000000000E+00 -0.55724399070E+03  0.55724399071E+03  0.25500000920E-02 0. -1.
    10030    2    1    2    0    0  0.00000000000E+00  0.00000000000E+00  0.52068954416E+03  0.16351775256E+04  0.15500606242E+04 0.  0.
        4    1    3    3  502    0 -0.34239158256E+03  0.61782155536E+03  0.59681853897E+03  0.92473209711E+03  0.12699999809E+01 0.  1.
       -4    1    3    3    0  502  0.34239158256E+03 -0.61782155536E+03 -0.76128994812E+02  0.71044542846E+03  0.12699999809E+01 0. -1.
</event>
<event>
 5   0  0.7553070E-04  0.1648233E+04  0.7818609E-02  0.8791452E-01
       -2   -1    0    0    0  501  0.00000000000E+00  0.00000000000E+00  0.59248107007E+03  0.59248107007E+03  0.25500000920E-02 0. -1.
        2   -1    0    0  501    0  0.00000000000E+00  0.00000000000E+00 -0.11463118444E+04  0.11463118444E+04  0.25500000920E-02 0.  1.
    10030    2    1    2    0    0  0.00000000000E+00  0.00000000000E+00 -0.55383077437E+03  0.17387929145E+04  0.16482330760E+04 0.  0.
        4    1    3    3  502    0  0.49801426604E+03 -0.45546262050E+03 -0.77587364680E+03  0.10283219032E+04  0.12699999809E+01 0. -1.
       -4    1    3    3    0  502 -0.49801426604E+03  0.45546262050E+03  0.22204287242E+03  0.71047101134E+03  0.12699999809E+01 0.  1.
</event>
<event>
 5   0  0.2781000E-04  0.1622754E+04  0.7818609E-02  0.8806690E-01
        4   -1    0    0  501    0  0.00000000000E+00  0.00000000000E+00  0.43679726176E+03  0.43679910803E+03  0.12699999809E+01 0. -1.
       -4   -1    0    0    0  501  0.00000000000E+00  0.00000000000E+00 -0.15071759959E+04  0.15071765310E+04  0.12699999809E+01 0.  1.
    10030    2    1    2    0    0  0.00000000000E+00  0.00000000000E+00 -0.10703787342E+04  0.19439756390E+04  0.16227540327E+04 0.  0.
        5    1    3    3  502    0 -0.31573586683E+03 -0.36026494641E+03  0.24928906298E+03  0.54004360577E+03  0.46999998093E+01 0. -1.
       -5    1    3    3    0  502  0.31573586683E+03  0.36026494641E+03 -0.13196677971E+04  0.14039320333E+04  0.46999998093E+01 0.  1.
</event>
<event>
 5   0  0.3973227E-04  0.1656216E+04  0.7818609E-02  0.8786737E-01
       -1   -1    0    0    0  501  0.00000000000E+00  0.00000000000E+00  0.49287875949E+03  0.49287875952E+03  0.50400001928E-02 0.  1.
        1   -1    0    0  501    0  0.00000000000E+00  0.00000000000E+00 -0.13913425388E+04  0.13913425388E+04  0.50400001928E-02 0. -1.
    10030    2    1    2    0    0  0.00000000000E+00  0.00000000000E+00 -0.89846377927E+03  0.18842212983E+04  0.16562163923E+04 0.  0.
        3    1    3    3  502    0 -0.41082949659E+03 -0.12576565266E+03 -0.12546202084E+04  0.13261484654E+04  0.10100000352E+00 0. -1.
       -3    1    3    3    0  502  0.41082949659E+03  0.12576565266E+03  0.35615642912E+03  0.55807283294E+03  0.10100000352E+00 0.  1.
</event>
<event>
 5   0  0.4110803E-04  0.1595180E+04  0.7818609E-02  0.8823515E-01
        1   -1    0    0  501    0  0.00000000000E+00  0.00000000000E+00  0.17013598771E+04  0.17013598771E+04  0.50400001928E-02 0. -1.
       -1   -1    0    0    0  501  0.00000000000E+00  0.00000000000E+00 -0.37390653187E+03  0.37390653191E+03  0.50400001928E-02 0.  1.
    10030    2    1    2    0    0  0.00000000000E+00  0.00000000000E+00  0.13274533452E+04  0.20752664090E+04  0.15951797029E+04 0.  0.
        5    1    3    3  502    0 -0.49297011147E+03 -0.53521790609E+03  0.23886833175E+03  0.76587068603E+03  0.46999998093E+01 0.  1.
       -5    1    3    3    0  502  0.49297011147E+03  0.53521790609E+03  0.10885850135E+04  0.13093957230E+04  0.46999998093E+01 0. -1.
</event>
<event>
 5   0  0.7770905E-04  0.1598023E+04  0.7818609E-02  0.8821764E-01
       -2   -1    0    0    0  501  0.00000000000E+00  0.00000000000E+00  0.81423992415E+03  0.81423992415E+03  0.25500000920E-02 0. -1.
        2   -1    0    0  501    0  0.00000000000E+00  0.00000000000E+00 -0.78406781201E+03  0.78406781201E+03  0.25500000920E-02 0.  1.
    10030    2    1    2    0    0  0.00000000000E+00  0.00000000000E+00  0.30172112140E+02  0.15983077362E+04  0.15980229232E+04 0.  0.
        2    1    3    3  502    0  0.15344344029E+03  0.62191049784E+02  0.79689454703E+03  0.81391248617E+03  0.25500000920E-02 0. -1.
       -2    1    3    3    0  502 -0.15344344029E+03 -0.62191049784E+02 -0.76672243490E+03  0.78439525000E+03  0.25500000920E-02 0.  1.
</event>
<event>
 5   0  0.7488884E-04  0.1600678E+04  0.7818609E-02  0.8820131E-01
        2   -1    0    0  501    0  0.00000000000E+00  0.00000000000E+00  0.18563546784E+04  0.18563546784E+04  0.25500000920E-02 0.  1.
       -2   -1    0    0    0  501  0.00000000000E+00  0.00000000000E+00 -0.34505402950E+03  0.34505402951E+03  0.25500000920E-02 0. -1.
    10030    2    1    2    0    0  0.00000000000E+00  0.00000000000E+00  0.15113006489E+04  0.22014087080E+04  0.16006781838E+04 0.  0.
        3    1    3    3  502    0 -0.10375472520E+03 -0.30012624685E+03 -0.25470376930E+03  0.40708086095E+03  0.10100000352E+00 0. -1.
       -3    1    3    3    0  502  0.10375472520E+03  0.30012624685E+03  0.17660044182E+04  0.17943278470E+04  0.10100000352E+00 0.  1.
</event>
<event>
 5   0  0.7395088E-04  0.1608278E+04  0.7818609E-02  0.8815479E-01
        2   -1    0    0  501    0  0.00000000000E+00  0.00000000000E+00  0.22565501923E+04  0.22565501923E+04  0.25500000920E-02 0.  1.
       -2   -1    0    0    0  501  0.00000000000E+00  0.00000000000E+00 -0.28656095082E+03  0.28656095083E+03  0.25500000920E-02 0. -1.
    10030    2    1    2    0    0  0.00000000000E+00  0.00000000000E+00  0.19699892415E+04  0.25431111431E+04  0.16082775490E+04 0.  0.
        1    1    3    3  502    0 -0.59891805858E+02  0.39328411305E+03  0.20900477635E+04  0.21275711682E+04  0.50400001928E-02 0.  1.
       -1    1    3    3    0  502  0.59891805858E+02 -0.39328411305E+03 -0.12005852207E+03  0.41553997489E+03  0.50400001928E-02 0. -1.
</event>
<event>
 5   0  0.7770905E-04  0.1540233E+04  0.7818609E-02  0.8858131E-01
        2   -1    0    0  501    0  0.00000000000E+00  0.00000000000E+00  0.12480211247E+04  0.12480211247E+04  0.25500000920E-02 0. -1.
       -2   -1    0    0    0  501  0.00000000000E+00  0.00000000000E+00 -0.47521582995E+03  0.47521582996E+03  0.25500000920E-02 0.  1.
    10030    2    1    2    0    0  0.00000000000E+00  0.00000000000E+00  0.77280529476E+03  0.17232369547E+04  0.15402329624E+04 0.  0.
        2    1    3    3  502    0 -0.52745940764E+03 -0.18300100254E+03  0.97987784744E+03  0.11277692094E+04  0.25500000920E-02 0.  1.
       -2    1    3    3    0  502  0.52745940764E+03  0.18300100254E+03 -0.20707255268E+03  0.59546774532E+03  0.25500000920E-02 0. -1.
</event>
<event>
 5   0  0.7488884E-04  0.1611052E+04  0.7818609E-02  0.8813787E-01
        2   -1    0    0  501    0  0.00000000000E+00  0.00000000000E+00  0.11681073834E+04  0.11681073834E+04  0.25500000920E-02 0.  1.
       -2   -1    0    0    0  501  0.00000000000E+00  0.00000000000E+00 -0.55549026658E+03  0.55549026659E+03  0.25500000920E-02 0. -1.
    10030    2    1    2    0    0  0.00000000000E+00  0.00000000000E+00  0.61261711678E+03  0.17235976500E+04  0.16110521801E+04 0.  0.
        3    1    3    3  502    0 -0.37259864766E+03 -0.64658007833E+03  0.63077161061E+03  0.97712250249E+03  0.10100000352E+00 0.  1.
       -3    1    3    3    0  502  0.37259864766E+03  0.64658007833E+03 -0.18154493828E+02  0.74647514746E+03  0.10100000352E+00 0. -1.
</event>
<event>
 5   0  0.3973227E-04  0.1579794E+04  0.7818609E-02  0.8833059E-01
       -1   -1    0    0    0  501  0.00000000000E+00  0.00000000000E+00  0.40410253744E+03  0.40410253747E+03  0.50400001928E-02 0. -1.
        1   -1    0    0  501    0  0.00000000000E+00  0.00000000000E+00 -0.15440065843E+04  0.15440065843E+04  0.50400001928E-02 0.  1.
    10030    2    1    2    0    0  0.00000000000E+00  0.00000000000E+00 -0.11399040469E+04  0.19481091218E+04  0.15797936303E+04 0.  0.
        3    1    3    3  502    0 -0.31528282405E+03 -0.69484472831E+03 -0.31806339682E+03  0.82666606935E+03  0.10100000352E+00 0. -1.
       -3    1    3    3    0  502  0.31528282405E+03  0.69484472831E+03 -0.82184065007E+03  0.11214430525E+04  0.10100000352E+00 0.  1.
</event>
<event>
 5   0  0.7415102E-04  0.1683682E+04  0.7818609E-02  0.8770726E-01
        2   -1    0    0  501    0  0.00000000000E+00  0.00000000000E+00  0.82426613174E+03  0.82426613174E+03  0.25500000920E-02 0. -1.
       -2   -1    0    0    0  501  0.00000000000E+00  0.00000000000E+00 -0.85979089213E+03  0.85979089214E+03  0.25500000920E-02 0.  1.
    10030    2    1    2    0    0  0.00000000000E+00  0.00000000000E+00 -0.35524760395E+02  0.16840570239E+04  0.16836822892E+04 0.  0.
        5    1    3    3  502    0 -0.39910773531E+03  0.47258240880E+03 -0.58890024431E+03  0.85407652189E+03  0.46999998093E+01 0.  1.
       -5    1    3    3    0  502  0.39910773531E+03 -0.47258240880E+03  0.55337548391E+03  0.82998050199E+03  0.46999998093E+01 0. -1.
</event>
<event>
 5   0  0.4110803E-04  0.1587885E+04  0.7818609E-02  0.8828025E-01
       -1   -1    0    0    0  501  0.00000000000E+00  0.00000000000E+00  0.34726612532E+03  0.34726612535E+03  0.50400001928E-02 0. -1.
        1   -1    0    0  501    0  0.00000000000E+00  0.00000000000E+00 -0.18151641391E+04  0.18151641391E+04  0.50400001928E-02 0.  1.
    10030    2    1    2    0    0  0.00000000000E+00  0.00000000000E+00 -0.14678980138E+04  0.21624302644E+04  0.15878854083E+04 0.  0.
        5    1    3    3  502    0  0.30433948067E+03 -0.68061972023E+03 -0.36234848430E+03  0.82896576354E+03  0.46999998093E+01 0. -1.
       -5    1    3    3    0  502 -0.30433948067E+03  0.68061972023E+03 -0.11055495295E+04  0.13334645009E+04  0.46999998093E+01 0.  1.
</event>
<event>
 5   0  0.3973227E-04  0.1604889E+04  0.7818609E-02  0.8817550E-01
        1   -1    0    0  501    0  0.00000000000E+00  0.00000000000E+00  0.13615962161E+04  0.13615962161E+04  0.50400001928E-02 0. -1.
       -1   -1    0    0    0  501  0.00000000000E+00  0.00000000000E+00 -0.47291341258E+03  0.47291341261E+03  0.50400001928E-02 0.  1.
    10030    2    1    2    0    0  0.00000000000E+00  0.00000000000E+00  0.88868280349E+03  0.18345096287E+04  0.16048889222E+04 0.  0.
        3    1    3    3  502    0 -0.26469453579E+03 -0.75455988881E+03  0.52096397804E+03  0.95437272577E+03  0.10100000352E+00 0. -1.
       -3    1    3    3    0  502  0.26469453579E+03  0.75455988881E+03  0.36771882546E+03  0.88013690292E+03  0.10100000352E+00 0.  1.
</event>
<event>
 5   0  0.7488884E-04  0.1593216E+04  0.7818609E-02  0.8824727E-01
       -2   -1    0    0    0  501  0.00000000000E+00  0.00000000000E+00  0.11935591706E+04  0.11935591706E+04  0.25500000920E-02 0.  1.
        2   -1    0    0  501    0  0.00000000000E+00  0.00000000000E+00 -0.53167379679E+03  0.53167379680E+03  0.25500000920E-02 0. -1.
    10030    2    1    2    0    0  0.00000000000E+00  0.00000000000E+00  0.66188537376E+03  0.17252329674E+04  0.15932157869E+04 0.  0.
        3    1    3    3  502    0  0.76809719590E+03 -0.97579130048E+02  0.12809993709E+03  0.78479589260E+03  0.10100000352E+00 0.  1.
       -3    1    3    3    0  502 -0.76809719590E+03  0.97579130048E+02  0.53378543667E+03  0.94043707475E+03  0.10100000352E+00 0. -1.
</event>
<event>
 5   0  0.3889847E-04  0.1612898E+04  0.7818609E-02  0.8812663E-01
        1   -1    0    0  501    0  0.00000000000E+00  0.00000000000E+00  0.16091793198E+04  0.16091793198E+04  0.50400001928E-02 0. -1.
       -1   -1    0    0    0  501  0.00000000000E+00  0.00000000000E+00 -0.40415611182E+03  0.40415611186E+03  0.50400001928E-02 0.  1.
    10030    2    1    2    0    0  0.00000000000E+00  0.00000000000E+00  0.12050232080E+04  0.20133354317E+04  0.16128975878E+04 0.  0.
        1    1    3    3  502    0 -0.26778616072E+03 -0.28050297435E+03 -0.28012225465E+03  0.47839295988E+03  0.50400001928E-02 0.  1.
       -1    1    3    3    0  502  0.26778616072E+03  0.28050297435E+03  0.14851454626E+04  0.15349424718E+04  0.50400001928E-02 0. -1.
</event>
<event>
 5   0  0.3973227E-04  0.1611086E+04  0.7818609E-02  0.8813766E-01
        1   -1    0    0  501    0  0.00000000000E+00  0.00000000000E+00  0.86544118961E+03  0.86544118963E+03  0.50400001928E-02 0. -1.
       -1   -1    0    0    0  501  0.00000000000E+00  0.00000000000E+00 -0.74979026381E+03  0.74979026382E+03  0.50400001928E-02 0.  1.
    10030    2    1    2    0    0  0.00000000000E+00  0.00000000000E+00  0.11565092581E+03  0.16152314534E+04  0.16110858176E+04 0.  0.
        3    1    3    3  502    0  0.19724687845E+03  0.41714205708E+02  0.83973805041E+03  0.86360083923E+03  0.10100000352E+00 0. -1.
       -3    1    3    3    0  502 -0.19724687845E+03 -0.41714205708E+02 -0.72408712460E+03  0.75163061422E+03  0.10100000352E+00 0.  1.
</event>
<event>
 5   0  0.3950195E-04  0.1597252E+04  0.7818609E-02  0.8822238E-01
        1   -1    0    0  501    0  0.00000000000E+00  0.00000000000E+00  0.13839312747E+04  0.13839312747E+04  0.50400001928E-02 0. -1.
       -1   -1    0    0    0  501  0.00000000000E+00  0.00000000000E+00 -0.46086374787E+03  0.46086374789E+03  0.50400001928E-02 0.  1.
    10030    2    1    2    0    0  0.00000000000E+00  0.00000000000E+00  0.92306752679E+03  0.18447950226E+04  0.15972523333E+04 0.  0.
        2    1    3    3  502    0  0.68700303236E+03 -0.34444114878E+03  0.71243548248E+03  0.10479394964E+04  0.25500000920E-02 0.  1.
       -2    1    3    3    0  502 -0.68700303236E+03  0.34444114878E+03  0.21063204431E+03  0.79685552614E+03  0.25500000920E-02 0. -1.
</event>
<event>
 5   0  0.4110803E-04  0.1553852E+04  0.7818609E-02  0.8849411E-01
       -1   -1    0    0    0  501  0.00000000000E+00  0.00000000000E+00  0.67297898493E+03  0.67297898495E+03  0.50400001928E-02 0.  1.
        1   -1    0    0  501    0  0.00000000000E+00  0.00000000000E+00 -0.89692864349E+03  0.89692864351E+03  0.50400001928E-02 0. -1.
    10030    2    1    2    0    0  0.00000000000E+00  0.00000000000E+00 -0.22394965856E+03  0.15699076285E+04  0.15538521527E+04 0.  0.
        5    1    3    3  502    0  0.18574709026E+03 -0.23358319062E+03  0.61274361358E+03  0.68157165028E+03  0.46999998093E+01 0.  1.
       -5    1    3    3    0  502 -0.18574709026E+03  0.23358319062E+03 -0.83669327214E+03  0.88833597818E+03  0.46999998093E+01 0. -1.
</event>
<event>
 5   0  0.7553070E-04  0.1602559E+04  0.7818609E-02  0.8818977E-01
        2   -1    0    0  501    0  0.00000000000E+00  0.00000000000E+00  0.46054706658E+03  0.46054706659E+03  0.25500000920E-02 0.  1.
       -2   -1    0    0    0  501  0.00000000000E+00  0.00000000000E+00 -0.13941011182E+04  0.13941011182E+04  0.25500000920E-02 0. -1.
    10030    2    1    2    0    0  0.00000000000E+00  0.00000000000E+00 -0.93355405160E+03  0.18546481848E+04  0.16025594286E+04 0.  0.
        4    1    3    3  502    0 -0.10229176540E+03  0.39236549964E+03 -0.12666014896E+04  0.13299230192E+04  0.12699999809E+01 0. -1.
       -4    1    3    3    0  502  0.10229176540E+03 -0.39236549964E+03  0.33304743799E+03  0.52472516561E+03  0.12699999809E+01 0.  1.
</event>
<event>
 5   0  0.7395088E-04  0.1651767E+04  0.7818609E-02  0.8789362E-01
       -2   -1    0    0    0  501  0.00000000000E+00  0.00000000000E+00  0.49641447814E+03  0.49641447814E+03  0.25500000920E-02 0.  1.
        2   -1    0    0  501    0  0.00000000000E+00  0.00000000000E+00 -0.13740196872E+04  0.13740196872E+04  0.25500000920E-02 0. -1.
    10030    2    1    2    0    0  0.00000000000E+00  0.00000000000E+00 -0.87760520907E+03  0.18704341653E+04  0.16517666494E+04 0.  0.
        1    1    3    3  502    0  0.72432885601E+03 -0.31207053218E+03 -0.71627818633E+03  0.10654082546E+04  0.50400001928E-02 0. -1.
       -1    1    3    3    0  502 -0.72432885601E+03  0.31207053218E+03 -0.16132702274E+03  0.80502591076E+03  0.50400001928E-02 0.  1.
</event>
<event>
 5   0  0.3837251E-04  0.1585484E+04  0.7818609E-02  0.8829516E-01
       -1   -1    0    0    0  501  0.00000000000E+00  0.00000000000E+00  0.61236900658E+03  0.61236900660E+03  0.50400001928E-02 0.  1.
        1   -1    0    0  501    0  0.00000000000E+00  0.00000000000E+00 -0.10262440615E+04  0.10262440615E+04  0.50400001928E-02 0. -1.
    10030    2    1    2    0    0  0.00000000000E+00  0.00000000000E+00 -0.41387505489E+03  0.16386130681E+04  0.15854842244E+04 0.  0.
        4    1    3    3  502    0  0.72979146342E+02 -0.39300178758E+03 -0.91446677624E+03  0.99801175273E+03  0.12699999809E+01 0. -1.
       -4    1    3    3    0  502 -0.72979146342E+02  0.39300178758E+03  0.50059172135E+03  0.64060131535E+03  0.12699999809E+01 0.  1.
</event>
<event>
 5   0  0.7770905E-04  0.1594327E+04  0.7818609E-02  0.8824040E-01
        2   -1    0    0  501    0  0.00000000000E+00  0.00000000000E+00  0.24286009914E+04  0.24286009914E+04  0.25500000920E-02 0.  1.
       -2   -1    0    0    0  501  0.00000000000E+00  0.00000000000E+00 -0.26166092206E+03  0.26166092207E+03  0.25500000920E-02 0. -1.
    10030    2    1    2    0    0  0.00000000000E+00  0.00000000000E+00  0.21669400693E+04  0.26902619134E+04  0.15943274127E+04 0.  0.
        2    1    3    3  502    0  0.31438383785E+03  0.34023898407E+03  0.21781600167E+04  0.22268769212E+04  0.25500000920E-02 0.  1.
       -2    1    3    3    0  502 -0.31438383785E+03 -0.34023898407E+03 -0.11219947426E+02  0.46338499221E+03  0.25500000920E-02 0. -1.
</event>
<event>
 5   0  0.4110803E-04  0.1614641E+04  0.7818609E-02  0.8811604E-01
        1   -1    0    0  501    0  0.00000000000E+00  0.00000000000E+00  0.72513769533E+03  0.72513769534E+03  0.50400001928E-02 0. -1.
       -1   -1    0    0    0  501  0.00000000000E+00  0.00000000000E+00 -0.89881727763E+03  0.89881727764E+03  0.50400001928E-02 0.  1.
    10030    2    1    2    0    0  0.00000000000E+00  0.00000000000E+00 -0.17367958230E+03  0.16239549730E+04  0.16146408755E+04 0.  0.
        5    1    3    3  502    0 -0.12242958276E+03  0.73519769980E+03 -0.39885431274E+03  0.84534697806E+03  0.46999998093E+01 0.  1.
       -5    1    3    3    0  502  0.12242958276E+03 -0.73519769980E+03  0.22517473044E+03  0.77860799492E+03  0.46999998093E+01 0. -1.
</event>
<event>
 5   0  0.7770905E-04  0.1641296E+04  0.7818609E-02  0.8795572E-01
       -2   -1    0    0    0  501  0.00000000000E+00  0.00000000000E+00  0.47326393162E+03  0.47326393162E+03  0.25500000920E-02 0. -1.
        2   -1    0    0  501    0  0.00000000000E+00  0.00000000000E+00 -0.14230177420E+04  0.14230177420E+04  0.25500000920E-02 0.  1.
    10030    2    1    2    0    0  0.00000000000E+00  0.00000000000E+00 -0.94975381040E+03  0.18962816736E+04  0.16412957946E+04 0.  0.
        2    1    3    3  502    0 -0.12980082942E+01  0.81973322185E+03 -0.51960474376E+03  0.97054280152E+03  0.25500000920E-02 0.  1.
       -2    1    3    3    0  502  0.12980082942E+01 -0.81973322185E+03 -0.43014906664E+03  0.92573887213E+03  0.25500000920E-02 0. -1.
</event>
<event>
 5   0  0.3837251E-04  0.1596922E+04  0.7818609E-02  0.8822441E-01
        1   -1    0    0  501    0  0.00000000000E+00  0.00000000000E+00  0.12331845050E+04  0.12331845050E+04  0.50400001928E-02 0. -1.
       -1   -1    0    0    0  501  0.00000000000E+00  0.00000000000E+00 -0.51698692351E+03  0.51698692353E+03  0.50400001928E-02 0.  1.
    10030    2    1    2    0    0  0.00000000000E+00  0.00000000000E+00  0.71619758153E+03  0.17501714286E+04  0.15969223693E+04 0.  0.
        4    1    3    3  502    0 -0.74180275192E+03  0.21092683123E+03  0.13142413729E+03  0.78232689308E+03  0.12699999809E+01 0. -1.
       -4    1    3    3    0  502  0.74180275192E+03 -0.21092683123E+03  0.58477344424E+03  0.96784453549E+03  0.12699999809E+01 0.  1.
</event>
<event>
 5   0  0.3950195E-04  0.1606225E+04  0.7818609E-02  0.8816733E-01
        1   -1    0    0  501    0  0.00000000000E+00  0.00000000000E+00  0.21410037675E+04  0.21410037676E+04  0.50400001928E-02 0. -1.
       -1   -1    0    0    0  501  0.00000000000E+00  0.00000000000E+00 -0.30125570560E+03  0.30125570565E+03  0.50400001928E-02 0.  1.
    10030    2    1    2    0    0  0.00000000000E+00  0.00000000000E+00  0.18397480619E+04  0.24422594732E+04  0.16062248918E+04 0.  0.
        2    1    3    3  502    0  0.13052716820E+03  0.71814785228E+03  0.14292197857E+04  0.16048186425E+04  0.25500000920E-02 0. -1.
       -2    1    3    3    0  502 -0.13052716820E+03 -0.71814785228E+03  0.41052827624E+03  0.83744083072E+03  0.25500000920E-02 0.  1.
</event>
<event>
 5   0  0.3950195E-04  0.1607336E+04  0.7818609E-02  0.8816054E-01
       -1   -1    0    0    0  501  0.00000000000E+00  0.00000000000E+00  0.75987303561E+03  0.75987303563E+03  0.50400001928E-02 0.  1.
        1   -1    0    0  501    0  0.00000000000E+00  0.00000000000E+00 -0.84998676810E+03  0.84998676812E+03  0.50400001928E-02 0. -1.
    10030    2    1    2    0    0  0.00000000000E+00  0.00000000000E+00 -0.90113732489E+02  0.16098598037E+04  0.16073357157E+04 0.  0.
        2    1    3    3  502    0 -0.44562037322E+03  0.40468386747E+03  0.48825981093E+03  0.77507689463E+03  0.25500000920E-02 0.  1.
       -2    1    3    3    0  502  0.44562037322E+03 -0.40468386747E+03 -0.57837354342E+03  0.83478290911E+03  0.25500000920E-02 0. -1.
</event>
<event>
 5   0  0.7553070E-04  0.1583303E+04  0.7818609E-02  0.8830872E-01
        2   -1    0    0  501    0  0.00000000000E+00  0.00000000000E+00  0.22664820336E+04  0.22664820336E+04  0.25500000920E-02 0. -1.
       -2   -1    0    0    0  501  0.00000000000E+00  0.00000000000E+00 -0.27651317982E+03  0.27651317984E+03  0.25500000920E-02 0.  1.
    10030    2    1    2    0    0  0.00000000000E+00  0.00000000000E+00  0.19899688538E+04  0.25429952134E+04  0.15833030716E+04 0.  0.
        4    1    3    3  502    0 -0.60557939680E+03  0.42466540334E+03  0.54171495715E+03  0.91680086078E+03  0.12699999809E+01 0.  1.
       -4    1    3    3    0  502  0.60557939680E+03 -0.42466540334E+03  0.14482538966E+04  0.16261943526E+04  0.12699999809E+01 0. -1.
</event>
<event>
 5   0  0.2781000E-04  0.1602175E+04  0.7818609E-02  0.8819213E-01
        3   -1    0    0  501    0  0.00000000000E+00  0.00000000000E+00  0.40091915627E+03  0.40091916899E+03  0.10100000352E+00 0. -1.
       -3   -1    0    0    0  501  0.00000000000E+00  0.00000000000E+00 -0.16006751570E+04  0.16006751602E+04  0.10100000352E+00 0.  1.
    10030    2    1    2    0    0  0.00000000000E+00  0.00000000000E+00 -0.11997560008E+04  0.20015943292E+04  0.16021752081E+04 0.  0.
        2    1    3    3  502    0 -0.22483023973E+03 -0.24344560920E+03 -0.15110325563E+04  0.15469433692E+04  0.25500000920E-02 0.  1.
       -2    1    3    3    0  502  0.22483023973E+03  0.24344560920E+03  0.31127655557E+03  0.45465095996E+03  0.25500000920E-02 0. -1.
</event>
<event>
 5   0  0.7415102E-04  0.1430967E+04  0.7818609E-02  0.8931703E-01
       -2   -1    0    0    0  501  0.00000000000E+00  0.00000000000E+00  0.18635107620E+03  0.18635107622E+03  0.25500000920E-02 0. -1.
        2   -1    0    0  501    0  0.00000000000E+00  0.00000000000E+00 -0.27470551459E+04  0.27470551459E+04  0.25500000920E-02 0.  1.
    10030    2    1    2    0    0  0.00000000000E+00  0.00000000000E+00 -0.25607040697E+04  0.29334062221E+04  0.14309670616E+04 0.  0.
        5    1    3    3  502    0 -0.18063633274E+03 -0.60660762325E+03 -0.59647955129E+03  0.86971963206E+03  0.46999998093E+01 0. -1.
       -5    1    3    3    0  502  0.18063633274E+03  0.60660762325E+03 -0.19642245184E+04  0.20636865900E+04  0.46999998093E+01 0.  1.
</event>
<event>
 5   0  0.7415102E-04  0.1544934E+04  0.7818609E-02  0.8855110E-01
       -2   -1    0    0    0  501  0.00000000000E+00  0.00000000000E+00  0.49634382794E+03  0.49634382795E+03  0.25500000920E-02 0.  1.
        2   -1    0    0  501    0  0.00000000000E+00  0.00000000000E+00 -0.12022016078E+04  0.12022016078E+04  0.25500000920E-02 0. -1.
    10030    2    1    2    0    0  0.00000000000E+00  0.00000000000E+00 -0.70585777990E+03  0.16985454358E+04  0.15449341060E+04 0.  0.
        5    1    3    3  502    0  0.64175734336E+03  0.46352500797E+02 -0.82283959989E+03  0.10445516451E+04  0.46999998093E+01 0. -1.
       -5    1    3    3    0  502 -0.64175734336E+03 -0.46352500797E+02  0.11698181999E+03  0.65399379071E+03  0.46999998093E+01 0.  1.
</event>
<event>
 5   0  0.7553070E-04  0.1751359E+04  0.7818609E-02  0.8732603E-01
        2   -1    0    0  501    0  0.00000000000E+00  0.00000000000E+00  0.11301000860E+04  0.11301000860E+04  0.25500000920E-02 0.  1.
       -2   -1    0    0    0  501  0.00000000000E+00  0.00000000000E+00 -0.67853656776E+03  0.67853656776E+03  0.25500000920E-02 0. -1.
    10030    2    1    2    0    0  0.00000000000E+00  0.00000000000E+00  0.45156351823E+03  0.18086366537E+04  0.17513585967E+04 0.  0.
        4    1    3    3  502    0  0.66345223453E+02  0.14782779685E+03 -0.66291941025E+03  0.68243571388E+03  0.12699999809E+01 0. -1.
       -4    1    3    3    0  502 -0.66345223453E+02 -0.14782779685E+03  0.11144829285E+04  0.11262009399E+04  0.12699999809E+01 0.  1.
</event>
<event>
 5   0  0.3837251E-04  0.1736037E+04  0.7818609E-02  0.8741074E-01
       -1   -1    0    0    0  501  0.00000000000E+00  0.00000000000E+00  0.63911382580E+03  0.63911382582E+03  0.50400001928E-02 0.  1.
        1   -1    0    0  501    0  0.00000000000E+00  0.00000000000E+00 -0.11789071617E+04  0.11789071618E+04  0.50400001928E-02 0. -1.
    10030    2    1    2    0    0  0.00000000000E+00  0.00000000000E+00 -0.53979333594E+03  0.18180209876E+04  0.17360367121E+04 0.  0.
        4    1    3    3  502    0 -0.78857643516E+03 -0.14282129020E+03  0.79323479068E+02  0.80532263240E+03  0.12699999809E+01 0.  1.
       -4    1    3    3    0  502  0.78857643516E+03  0.14282129020E+03 -0.61911681501E+03  0.10126983552E+04  0.12699999809E+01 0. -1.
</event>
<event>
 5   0  0.3950195E-04  0.1596775E+04  0.7818609E-02  0.8822531E-01
       -1   -1    0    0    0  501  0.00000000000E+00  0.00000000000E+00  0.40396264879E+03  0.40396264882E+03  0.50400001928E-02 0.  1.
        1   -1    0    0  501    0  0.00000000000E+00  0.00000000000E+00 -0.15779255066E+04  0.15779255067E+04  0.50400001928E-02 0. -1.
    10030    2    1    2    0    0  0.00000000000E+00  0.00000000000E+00 -0.11739628579E+04  0.19818881555E+04  0.15967754599E+04 0.  0.
        2    1    3    3  502    0  0.38455765724E+02  0.50550307993E+03  0.17854764177E+03  0.53748625111E+03  0.25500000920E-02 0.  1.
       -2    1    3    3    0  502 -0.38455765724E+02 -0.50550307993E+03 -0.13525104996E+04  0.14444019044E+04  0.25500000920E-02 0. -1.
</event>
<event>
 5   0  0.7770905E-04  0.1642601E+04  0.7818609E-02  0.8794796E-01
        2   -1    0    0  501    0  0.00000000000E+00  0.00000000000E+00  0.13844928752E+04  0.13844928752E+04  0.25500000920E-02 0. -1.
       -2   -1    0    0    0  501  0.00000000000E+00  0.00000000000E+00 -0.48720664591E+03  0.48720664592E+03  0.25500000920E-02 0.  1.
    10030    2    1    2    0    0  0.00000000000E+00  0.00000000000E+00  0.89728622933E+03  0.18716995212E+04  0.16426005358E+04 0.  0.
        2    1    3    3  502    0 -0.61767740459E+03 -0.45597353158E+03  0.11624311139E+03  0.77649835711E+03  0.25500000920E-02 0.  1.
       -2    1    3    3    0  502  0.61767740459E+03  0.45597353158E+03  0.78104311794E+03  0.10952011641E+04  0.25500000920E-02 0. -1.
</event>
<event>
 5   0  0.3950195E-04  0.1593415E+04  0.7818609E-02  0.8824604E-01
       -1   -1    0    0    0  501  0.00000000000E+00  0.00000000000E+00  0.62814318876E+03  0.62814318878E+03  0.50400001928E-02 0.  1.
        1   -1    0    0  501    0  0.00000000000E+00  0.00000000000E+00 -0.10105067226E+04  0.10105067227E+04  0.50400001928E-02 0. -1.
    10030    2    1    2    0    0  0.00000000000E+00  0.00000000000E+00 -0.38236353388E+03  0.16386499114E+04  0.15934150935E+04 0.  0.
        2    1    3    3  502    0 -0.65414765405E+03 -0.10600261316E+03  0.26363721059E+03  0.71319722806E+03  0.25500000920E-02 0. -1.
       -2    1    3    3    0  502  0.65414765405E+03  0.10600261316E+03 -0.64600074447E+03  0.92545268337E+03  0.25500000920E-02 0.  1.
</event>
<event>
 5   0  0.7488884E-04  0.1545172E+04  0.7818609E-02  0.8854958E-01
       -2   -1    0    0    0  501  0.00000000000E+00  0.00000000000E+00  0.76837600242E+03  0.76837600242E+03  0.25500000920E-02 0. -1.
        2   -1    0    0  501    0  0.00000000000E+00  0.00000000000E+00 -0.77681867019E+03  0.77681867019E+03  0.25500000920E-02 0.  1.
    10030    2    1    2    0    0  0.00000000000E+00  0.00000000000E+00 -0.84426677652E+01  0.15451946726E+04  0.15451716078E+04 0.  0.
        3    1    3    3  502    0  0.22708495108E+03 -0.27447364787E+03  0.68134375193E+03  0.76885153110E+03  0.10100000352E+00 0. -1.
       -3    1    3    3    0  502 -0.22708495108E+03  0.27447364787E+03 -0.68978641969E+03  0.77634314151E+03  0.10100000352E+00 0.  1.
</event>
<event>
 5   0  0.7415102E-04  0.1726932E+04  0.7818609E-02  0.8746152E-01
       -2   -1    0    0    0  501  0.00000000000E+00  0.00000000000E+00  0.44191560904E+03  0.44191560904E+03  0.25500000920E-02 0.  1.
        2   -1    0    0  501    0  0.00000000000E+00  0.00000000000E+00 -0.16871393440E+04  0.16871393440E+04  0.25500000920E-02 0. -1.
    10030    2    1    2    0    0  0.00000000000E+00  0.00000000000E+00 -0.12452237350E+04  0.21290549531E+04  0.17269316266E+04 0.  0.
        5    1    3    3  502    0  0.66558528970E+03 -0.24356339985E+03 -0.14595694396E+02  0.70891609652E+03  0.46999998093E+01 0.  1.
       -5    1    3    3    0  502 -0.66558528970E+03  0.24356339985E+03 -0.12306280406E+04  0.14201388566E+04  0.46999998093E+01 0. -1.
</event>
<event>
 5   0  0.4110803E-04  0.1581744E+04  0.7818609E-02  0.8831843E-01
        1   -1    0    0  501    0  0.00000000000E+00  0.00000000000E+00  0.96744001702E+03  0.96744001703E+03  0.50400001928E-02 0.  1.
       -1   -1    0    0    0  501  0.00000000000E+00  0.00000000000E+00 -0.64652924084E+03  0.64652924086E+03  0.50400001928E-02 0. -1.
    10030    2    1    2    0    0  0.00000000000E+00  0.00000000000E+00  0.32091077618E+03  0.16139692579E+04  0.15817436705E+04 0.  0.
        5    1    3    3  502    0  0.34694697022E+03 -0.45083679569E+03 -0.40012831116E+03  0.69552194206E+03  0.46999998093E+01 0. -1.
       -5    1    3    3    0  502 -0.34694697022E+03  0.45083679569E+03  0.72103908734E+03  0.91844731583E+03  0.46999998093E+01 0.  1.
</event>
<event>
 5   0  0.3973227E-04  0.1601139E+04  0.7818609E-02  0.8819849E-01
        1   -1    0    0  501    0  0.00000000000E+00  0.00000000000E+00  0.18228886853E+04  0.18228886853E+04  0.50400001928E-02 0. -1.
       -1   -1    0    0    0  501  0.00000000000E+00  0.00000000000E+00 -0.35159117658E+03  0.35159117662E+03  0.50400001928E-02 0.  1.
    10030    2    1    2    0    0  0.00000000000E+00  0.00000000000E+00  0.14712975087E+04  0.21744798619E+04  0.16011390666E+04 0.  0.
        3    1    3    3  502    0 -0.11686073917E+03 -0.36803447082E+03  0.16880569913E+04  0.17316588060E+04  0.10100000352E+00 0. -1.
       -3    1    3    3    0  502  0.11686073917E+03  0.36803447082E+03 -0.21675948264E+03  0.44282105594E+03  0.10100000352E+00 0.  1.
</event>
<event>
 5   0  0.7488884E-04  0.1596353E+04  0.7818609E-02  0.8822792E-01
        2   -1    0    0  501    0  0.00000000000E+00  0.00000000000E+00  0.61080491826E+03  0.61080491827E+03  0.25500000920E-02 0. -1.
       -2   -1    0    0    0  501  0.00000000000E+00  0.00000000000E+00 -0.10430258919E+04  0.10430258919E+04  0.25500000920E-02 0.  1.
    10030    2    1    2    0    0  0.00000000000E+00  0.00000000000E+00 -0.43222097368E+03  0.16538308102E+04  0.15963525233E+04 0.  0.
        3    1    3    3  502    0  0.22985945681E+03  0.75230093117E+03 -0.35623302317E+03  0.86353577686E+03  0.10100000352E+00 0. -1.
       -3    1    3    3    0  502 -0.22985945681E+03 -0.75230093117E+03 -0.75987950511E+02  0.79029503335E+03  0.10100000352E+00 0.  1.
</event>
<event>
 5   0  0.7395088E-04  0.1517665E+04  0.7818609E-02  0.8872790E-01
        2   -1    0    0  501    0  0.00000000000E+00  0.00000000000E+00  0.88927699228E+03  0.88927699229E+03  0.25500000920E-02 0. -1.
       -2   -1    0    0    0  501  0.00000000000E+00  0.00000000000E+00 -0.64752204657E+03  0.64752204658E+03  0.25500000920E-02 0.  1.
    10030    2    1    2    0    0  0.00000000000E+00  0.00000000000E+00  0.24175494571E+03  0.15367990389E+04  0.15176645980E+04 0.  0.
        1    1    3    3  502    0 -0.42174366588E+03  0.48807760204E+03  0.52559009312E+03  0.83206514849E+03  0.50400001928E-02 0. -1.
       -1    1    3    3    0  502  0.42174366588E+03 -0.48807760204E+03 -0.28383514741E+03  0.70473389038E+03  0.50400001928E-02 0.  1.
</event>
<event>
 5   0  0.7395088E-04  0.1669865E+04  0.7818609E-02  0.8778740E-01
       -2   -1    0    0    0  501  0.00000000000E+00  0.00000000000E+00  0.38881919259E+03  0.38881919260E+03  0.25500000920E-02 0. -1.
        2   -1    0    0  501    0  0.00000000000E+00  0.00000000000E+00 -0.17928960557E+04  0.17928960557E+04  0.25500000920E-02 0.  1.
    10030    2    1    2    0    0  0.00000000000E+00  0.00000000000E+00 -0.14040768631E+04  0.21817152483E+04  0.16698651404E+04 0.  0.
        1    1    3    3  502    0 -0.42421346380E+03 -0.16913254616E+03  0.21117220642E+03  0.50314668024E+03  0.50400001928E-02 0. -1.
       -1    1    3    3    0  502  0.42421346380E+03  0.16913254616E+03 -0.16152490695E+04  0.16785685680E+04  0.50400001928E-02 0.  1.
</event>
<event>
 5   0  0.7770905E-04  0.1588549E+04  0.7818609E-02  0.8827614E-01
       -2   -1    0    0    0  501  0.00000000000E+00  0.00000000000E+00  0.34897987169E+03  0.34897987170E+03  0.25500000920E-02 0.  1.
        2   -1    0    0  501    0  0.00000000000E+00  0.00000000000E+00 -0.18077612509E+04  0.18077612509E+04  0.25500000920E-02 0. -1.
    10030    2    1    2    0    0  0.00000000000E+00  0.00000000000E+00 -0.14587813792E+04  0.21567411226E+04  0.15885493878E+04 0.  0.
        2    1    3    3  502    0  0.16893476138E+03 -0.45532764465E+03  0.12390859627E+03  0.50121408383E+03  0.25500000920E-02 0.  1.
       -2    1    3    3    0  502 -0.16893476138E+03  0.45532764465E+03 -0.15826899755E+04  0.16555270387E+04  0.25500000920E-02 0. -1.
</event>
<event>
 5   0  0.3889847E-04  0.1652791E+04  0.7818609E-02  0.8788757E-01
       -1   -1    0    0    0  501  0.00000000000E+00  0.00000000000E+00  0.82942880355E+03  0.82942880356E+03  0.50400001928E-02 0.  1.
        1   -1    0    0  501    0  0.00000000000E+00  0.00000000000E+00 -0.82337327913E+03  0.82337327915E+03  0.50400001928E-02 0. -1.
    10030    2    1    2    0    0  0.00000000000E+00  0.00000000000E+00  0.60555244136E+01  0.16528020827E+04  0.16527909896E+04 0.  0.
        1    1    3    3  502    0 -0.65288273695E+03 -0.92643662520E+02 -0.49506271916E+03  0.82457614102E+03  0.50400001928E-02 0. -1.
       -1    1    3    3    0  502  0.65288273695E+03  0.92643662520E+02  0.50111824358E+03  0.82822594169E+03  0.50400001928E-02 0.  1.
</event>
<event>
 5   0  0.7395088E-04  0.1568498E+04  0.7818609E-02  0.8840138E-01
        2   -1    0    0  501    0  0.00000000000E+00  0.00000000000E+00  0.11247482732E+04  0.11247482732E+04  0.25500000920E-02 0. -1.
       -2   -1    0    0    0  501  0.00000000000E+00  0.00000000000E+00 -0.54683032676E+03  0.54683032676E+03  0.25500000920E-02 0.  1.
    10030    2    1    2    0    0  0.00000000000E+00  0.00000000000E+00  0.57791794646E+03  0.16715786000E+04  0.15684979640E+04 0.  0.
        1    1    3    3  502    0 -0.32004511203E+03  0.86889607192E+02  0.10463456809E+04  0.10976420007E+04  0.50400001928E-02 0. -1.
       -1    1    3    3    0  502  0.32004511203E+03 -0.86889607192E+02 -0.46842773449E+03  0.57393659932E+03  0.50400001928E-02 0.  1.
</event>
<event>
 5   0  0.7553070E-04  0.1472790E+04  0.7818609E-02  0.8902752E-01
        2   -1    0    0  501    0  0.00000000000E+00  0.00000000000E+00  0.22079160576E+04  0.22079160576E+04  0.25500000920E-02 0.  1.
       -2   -1    0    0    0  501  0.00000000000E+00  0.00000000000E+00 -0.24560596617E+03  0.24560596618E+03  0.25500000920E-02 0. -1.
    10030    2    1    2    0    0  0.00000000000E+00  0.00000000000E+00  0.19623100914E+04  0.24535220238E+04  0.14727896748E+04 0.  0.
        4    1    3    3  502    0  0.13395196264E+03  0.12269999442E+03 -0.20769314373E+03  0.27592838161E+03  0.12699999809E+01 0. -1.
       -4    1    3    3    0  502 -0.13395196264E+03 -0.12269999442E+03  0.21700032352E+04  0.21775936422E+04  0.12699999809E+01 0.  1.
</event>
<event>
 5   0  0.7488884E-04  0.1593966E+04  0.7818609E-02  0.8824264E-01
       -2   -1    0    0    0  501  0.00000000000E+00  0.00000000000E+00  0.60050672078E+03  0.60050672079E+03  0.25500000920E-02 0.  1.
        2   -1    0    0  501    0  0.00000000000E+00  0.00000000000E+00 -0.10577430970E+04  0.10577430970E+04  0.25500000920E-02 0. -1.
    10030    2    1    2    0    0  0.00000000000E+00  0.00000000000E+00 -0.45723637623E+03  0.16582498178E+04  0.15939659201E+04 0.  0.
        3    1    3    3  502    0  0.24660633590E+03  0.62677082021E+03 -0.67185898438E+03  0.95134160587E+03  0.10100000352E+00 0. -1.
       -3    1    3    3    0  502 -0.24660633590E+03 -0.62677082021E+03  0.21462260815E+03  0.70690821194E+03  0.10100000352E+00 0.  1.
</event>
<event>
 5   0  0.4110803E-04  0.1596178E+04  0.7818609E-02  0.8822899E-01
        1   -1    0    0  501    0  0.00000000000E+00  0.00000000000E+00  0.17679398630E+04  0.17679398630E+04  0.50400001928E-02 0. -1.
       -1   -1    0    0    0  501  0.00000000000E+00  0.00000000000E+00 -0.36027607764E+03  0.36027607767E+03  0.50400001928E-02 0.  1.
    10030    2    1    2    0    0  0.00000000000E+00  0.00000000000E+00  0.14076637853E+04  0.21282159407E+04  0.15961784855E+04 0.  0.
        5    1    3    3  502    0  0.44318839294E+03 -0.14445771436E+03 -0.15988789211E+03  0.49281863898E+03  0.46999998093E+01 0.  1.
       -5    1    3    3    0  502 -0.44318839294E+03  0.14445771436E+03  0.15675516775E+04  0.16353973017E+04  0.46999998093E+01 0. -1.
</event>
<event>
 5   0  0.3950195E-04  0.1595969E+04  0.7818609E-02  0.8823028E-01
        1   -1    0    0  501    0  0.00000000000E+00  0.00000000000E+00  0.98415493031E+03  0.98415493032E+03  0.50400001928E-02 0.  1.
       -1   -1    0    0    0  501  0.00000000000E+00  0.00000000000E+00 -0.64703121081E+03  0.64703121083E+03  0.50400001928E-02 0. -1.
    10030    2    1    2    0    0  0.00000000000E+00  0.00000000000E+00  0.33712371950E+03  0.16311861412E+04  0.15959686165E+04 0.  0.
        2    1    3    3  502    0  0.41403918351E+03  0.68215310374E+03  0.17285621505E+03  0.81648060205E+03  0.25500000920E-02 0. -1.
       -2    1    3    3    0  502 -0.41403918351E+03 -0.68215310374E+03  0.16426750445E+03  0.81470553911E+03  0.25500000920E-02 0.  1.
</event>
<event>
 5   0  0.7395088E-04  0.1432624E+04  0.7818609E-02  0.8930536E-01
       -2   -1    0    0    0  501  0.00000000000E+00  0.00000000000E+00  0.64658600855E+03  0.64658600856E+03  0.25500000920E-02 0.  1.
        2   -1    0    0  501    0  0.00000000000E+00  0.00000000000E+00 -0.79355742267E+03  0.79355742267E+03  0.25500000920E-02 0. -1.
    10030    2    1    2    0    0  0.00000000000E+00  0.00000000000E+00 -0.14697141412E+03  0.14401434312E+04  0.14326243422E+04 0.  0.
        1    1    3    3  502    0 -0.56667306384E+03  0.30324116677E+03  0.24444875182E+03  0.68762544950E+03  0.50400001928E-02 0. -1.
       -1    1    3    3    0  502  0.56667306384E+03 -0.30324116677E+03 -0.39142016593E+03  0.75251798173E+03  0.50400001928E-02 0.  1.
</event>
<event>
 5   0  0.7553070E-04  0.1564968E+04  0.7818609E-02  0.8842363E-01
        2   -1    0    0  501    0  0.00000000000E+00  0.00000000000E+00  0.26092870342E+04  0.26092870342E+04  0.25500000920E-02 0. -1.
       -2   -1    0    0    0  501  0.00000000000E+00  0.00000000000E+00 -0.23465459679E+03  0.23465459680E+03  0.25500000920E-02 0.  1.
    10030    2    1    2    0    0  0.00000000000E+00  0.00000000000E+00  0.23746324374E+04  0.28439416310E+04  0.15649679830E+04 0.  0.
        4    1    3    3  502    0 -0.11401034549E+03 -0.11981147737E+03 -0.20252710870E+03  0.26148038482E+03  0.12699999809E+01 0.  1.
       -4    1    3    3    0  502  0.11401034549E+03  0.11981147737E+03  0.25771595461E+04  0.25824612462E+04  0.12699999809E+01 0. -1.
</event>
<event>
 5   0  0.7488884E-04  0.1575510E+04  0.7818609E-02  0.8835736E-01
        2   -1    0    0  501    0  0.00000000000E+00  0.00000000000E+00  0.95257360923E+03  0.95257360923E+03  0.25500000920E-02 0.  1.
       -2   -1    0    0    0  501  0.00000000000E+00  0.00000000000E+00 -0.65145396674E+03  0.65145396675E+03  0.25500000920E-02 0. -1.
    10030    2    1    2    0    0  0.00000000000E+00  0.00000000000E+00  0.30111964248E+03  0.16040275760E+04  0.15755098938E+04 0.  0.
        3    1    3    3  502    0  0.56202049204E+03 -0.15595699562E+03  0.68964214785E+03  0.90321421614E+03  0.10100000352E+00 0.  1.
       -3    1    3    3    0  502 -0.56202049204E+03  0.15595699562E+03 -0.38852250537E+03  0.70081335984E+03  0.10100000352E+00 0. -1.
</event>
<event>
 5   0  0.3889847E-04  0.1571271E+04  0.7818609E-02  0.8838395E-01
       -1   -1    0    0    0  501  0.00000000000E+00  0.00000000000E+00  0.66653452269E+03  0.66653452271E+03  0.50400001928E-02 0.  1.
        1   -1    0    0  501    0  0.00000000000E+00  0.00000000000E+00 -0.92601773863E+03  0.92601773864E+03  0.50400001928E-02 0. -1.
    10030    2    1    2    0    0  0.00000000000E+00  0.00000000000E+00 -0.25948321594E+03  0.15925522614E+04  0.15712705578E+04 0.  0.
        1    1    3    3  502    0  0.73903038112E+03 -0.34573918826E+02 -0.39763485781E+03  0.83992543732E+03  0.50400001928E-02 0. -1.
       -1    1    3    3    0  502 -0.73903038112E+03  0.34573918826E+02  0.13815164187E+03  0.75262682404E+03  0.50400001928E-02 0.  1.
</event>
<event>
 5   0  0.7770905E-04  0.1581187E+04  0.7818609E-02  0.8832189E-01
       -2   -1    0    0    0  501  0.00000000000E+00  0.00000000000E+00  0.26157615195E+03  0.26157615197E+03  0.25500000920E-02 0.  1.
        2   -1    0    0  501    0  0.00000000000E+00  0.00000000000E+00 -0.23895079585E+04  0.23895079586E+04  0.25500000920E-02 0. -1.
    10030    2    1    2    0    0  0.00000000000E+00  0.00000000000E+00 -0.21279318066E+04  0.26510841105E+04  0.15811872715E+04 0.  0.
        2    1    3    3  502    0 -0.19659361120E+03 -0.48053077367E+03 -0.20636146626E+04  0.21279248925E+04  0.25500000920E-02 0.  1.
       -2    1    3    3    0  502  0.19659361120E+03  0.48053077367E+03 -0.64317144023E+02  0.52315921804E+03  0.25500000920E-02 0. -1.
</event>
<event>
 5   0  0.3889847E-04  0.1589738E+04  0.7818609E-02  0.8826877E-01
       -1   -1    0    0    0  501  0.00000000000E+00  0.00000000000E+00  0.54792409975E+03  0.54792409977E+03  0.50400001928E-02 0.  1.
        1   -1    0    0  501    0  0.00000000000E+00  0.00000000000E+00 -0.11531102771E+04  0.11531102771E+04  0.50400001928E-02 0. -1.
    10030    2    1    2    0    0  0.00000000000E+00  0.00000000000E+00 -0.60518617732E+03  0.17010343769E+04  0.15897382307E+04 0.  0.
        1    1    3    3  502    0 -0.52876946088E+03 -0.58011501172E+03 -0.43660651053E+03  0.89819586653E+03  0.50400001928E-02 0. -1.
       -1    1    3    3    0  502  0.52876946088E+03  0.58011501172E+03 -0.16857966679E+03  0.80283851033E+03  0.50400001928E-02 0.  1.
</event>
<event>
 5   0  0.3950195E-04  0.1471655E+04  0.7818609E-02  0.8903524E-01
       -1   -1    0    0    0  501  0.00000000000E+00  0.00000000000E+00  0.80344675611E+03  0.80344675613E+03  0.50400001928E-02 0.  1.
        1   -1    0    0  501    0  0.00000000000E+00  0.00000000000E+00 -0.67389908753E+03  0.67389908755E+03  0.50400001928E-02 0. -1.
    10030    2    1    2    0    0  0.00000000000E+00  0.00000000000E+00  0.12954766858E+03  0.14773458437E+04  0.14716548996E+04 0.  0.
        2    1    3    3  502    0 -0.43701644312E+03 -0.34635405944E+03  0.54673198772E+03  0.78093557509E+03  0.25500000920E-02 0.  1.
       -2    1    3    3    0  502  0.43701644312E+03  0.34635405944E+03 -0.41718431914E+03  0.69641026858E+03  0.25500000920E-02 0. -1.
</event>
<event>
 5   0  0.7415102E-04  0.1612234E+04  0.7818609E-02  0.8813068E-01
        2   -1    0    0  501    0  0.00000000000E+00  0.00000000000E+00  0.61833720693E+03  0.61833720693E+03  0.25500000920E-02 0.  1.
       -2   -1    0    0    0  501  0.00000000000E+00  0.00000000000E+00 -0.10509220752E+04  0.10509220752E+04  0.25500000920E-02 0. -1.
    10030    2    1    2    0    0  0.00000000000E+00  0.00000000000E+00 -0.43258486828E+03  0.16692592821E+04  0.16122335075E+04 0.  0.
        5    1    3    3  502    0  0.68074878523E+03 -0.16548049185E+03 -0.62914371766E+03  0.94161914235E+03  0.46999998093E+01 0. -1.
       -5    1    3    3    0  502 -0.68074878523E+03  0.16548049185E+03  0.19655884938E+03  0.72764013979E+03  0.46999998093E+01 0.  1.
</event>
<event>
 5   0  0.3889847E-04  0.1621439E+04  0.7818609E-02  0.8807484E-01
        1   -1    0    0  501    0  0.00000000000E+00  0.00000000000E+00  0.11954570367E+04  0.11954570367E+04  0.50400001928E-02 0. -1.
       -1   -1    0    0    0  501  0.00000000000E+00  0.00000000000E+00 -0.54980352768E+03  0.54980352771E+03  0.50400001928E-02 0.  1.
    10030    2    1    2    0    0  0.00000000000E+00  0.00000000000E+00  0.64565350900E+03  0.17452605644E+04  0.16214394790E+04 0.  0.
        1    1    3    3  502    0 -0.11833758399E+03  0.63906591184E+03  0.84445574952E+03  0.10656052442E+04  0.50400001928E-02 0. -1.
       -1    1    3    3    0  502  0.11833758399E+03 -0.63906591184E+03 -0.19880224053E+03  0.67965532024E+03  0.50400001928E-02 0.  1.
</event>
<event>
 5   0  0.7553070E-04  0.1596034E+04  0.7818609E-02  0.8822988E-01
        2   -1    0    0  501    0  0.00000000000E+00  0.00000000000E+00  0.40194925260E+03  0.40194925261E+03  0.25500000920E-02 0.  1.
       -2   -1    0    0    0  501  0.00000000000E+00  0.00000000000E+00 -0.15843577118E+04  0.15843577118E+04  0.25500000920E-02 0. -1.
    10030    2    1    2    0    0  0.00000000000E+00  0.00000000000E+00 -0.11824084592E+04  0.19863069644E+04  0.15960343331E+04 0.  0.
        4    1    3    3  502    0  0.53084946886E+03  0.28353138434E+03  0.61001949300E+02  0.60490830314E+03  0.12699999809E+01 0.  1.
       -4    1    3    3    0  502 -0.53084946886E+03 -0.28353138434E+03 -0.12434104085E+04  0.13813986613E+04  0.12699999809E+01 0. -1.
</event>
<event>
 5   0  0.2781000E-04  0.1604968E+04  0.7818609E-02  0.8817502E-01
        3   -1    0    0  501    0  0.00000000000E+00  0.00000000000E+00  0.55171091810E+03  0.55171092735E+03  0.10100000352E+00 0.  1.
       -3   -1    0    0    0  501  0.00000000000E+00  0.00000000000E+00 -0.11672425472E+04  0.11672425516E+04  0.10100000352E+00 0. -1.
    10030    2    1    2    0    0  0.00000000000E+00  0.00000000000E+00 -0.61553162909E+03  0.17189534789E+04  0.16049678739E+04 0.  0.
        2    1    3    3  502    0 -0.36937983997E+03 -0.30876425778E+03  0.37986240081E+03  0.61324732092E+03  0.25500000920E-02 0.  1.
       -2    1    3    3    0  502  0.36937983997E+03  0.30876425778E+03 -0.99539402991E+03  0.11057061580E+04  0.25500000920E-02 0. -1.
</event>
<event>
 5   0  0.7488884E-04  0.1604346E+04  0.7818609E-02  0.8817883E-01
       -2   -1    0    0    0  501  0.00000000000E+00  0.00000000000E+00  0.49982208366E+03  0.49982208367E+03  0.25500000920E-02 0. -1.
        2   -1    0    0  501    0  0.00000000000E+00  0.00000000000E+00 -0.12874207084E+04  0.12874207084E+04  0.25500000920E-02 0.  1.
    10030    2    1    2    0    0  0.00000000000E+00  0.00000000000E+00 -0.78759862471E+03  0.17872427920E+04  0.16043457246E+04 0.  0.
        3    1    3    3  502    0  0.30364273640E+03 -0.31820947742E+03 -0.11411147699E+04  0.12229468963E+04  0.10100000352E+00 0.  1.
       -3    1    3    3    0  502 -0.30364273640E+03  0.31820947742E+03  0.35351614516E+03  0.56429589577E+03  0.10100000352E+00 0. -1.
</event>
<event>
 5   0  0.7488884E-04  0.1605810E+04  0.7818609E-02  0.8816987E-01
       -2   -1    0    0    0  501  0.00000000000E+00  0.00000000000E+00  0.11635059059E+04  0.11635059059E+04  0.25500000920E-02 0. -1.
        2   -1    0    0  501    0  0.00000000000E+00  0.00000000000E+00 -0.55406377974E+03  0.55406377975E+03  0.25500000920E-02 0.  1.
    10030    2    1    2    0    0  0.00000000000E+00  0.00000000000E+00  0.60944212611E+03  0.17175696856E+04  0.16058100510E+04 0.  0.
        3    1    3    3  502    0  0.20051248470E+03  0.77690984224E+03  0.27331221770E+03  0.84764009936E+03  0.10100000352E+00 0.  1.
       -3    1    3    3    0  502 -0.20051248470E+03 -0.77690984224E+03  0.33612990841E+03  0.86992958625E+03  0.10100000352E+00 0. -1.
</event>
<event>
 5   0  0.3973227E-04  0.1646573E+04  0.7818609E-02  0.8792437E-01
        1   -1    0    0  501    0  0.00000000000E+00  0.00000000000E+00  0.99347695917E+03  0.99347695918E+03  0.50400001928E-02 0. -1.
       -1   -1    0    0    0  501  0.00000000000E+00  0.00000000000E+00 -0.68225084524E+03  0.68225084526E+03  0.50400001928E-02 0.  1.
    10030    2    1    2    0    0  0.00000000000E+00  0.00000000000E+00  0.31122611393E+03  0.16757278044E+04  0.16465727984E+04 0.  0.
        3    1    3    3  502    0  0.25856126906E+03  0.24446082503E+03  0.91117733254E+03  0.97819178404E+03  0.10100000352E+00 0. -1.
       -3    1    3    3    0  502 -0.25856126906E+03 -0.24446082503E+03 -0.59995121862E+03  0.69753602040E+03  0.10100000352E+00 0.  1.
</event>
<event>
 5   0  0.7770905E-04  0.1967140E+04  0.7818609E-02  0.8622140E-01
       -2   -1    0    0    0  501  0.00000000000E+00  0.00000000000E+00  0.81103586045E+03  0.81103586045E+03  0.25500000920E-02 0. -1.
        2   -1    0    0  501    0  0.00000000000E+00  0.00000000000E+00 -0.11928078404E+04  0.11928078404E+04  0.25500000920E-02 0.  1.
    10030    2    1    2    0    0  0.00000000000E+00  0.00000000000E+00 -0.38177197994E+03  0.20038437008E+04  0.19671399881E+04 0.  0.
        2    1    3    3  502    0 -0.73485517963E+03  0.23599213611E+03 -0.81193814947E+03  0.11202446081E+04  0.25500000920E-02 0.  1.
       -2    1    3    3    0  502  0.73485517963E+03 -0.23599213611E+03  0.43016616953E+03  0.88359909277E+03  0.25500000920E-02 0. -1.
</event>
<event>
 5   0  0.7553070E-04  0.1587159E+04  0.7818609E-02  0.8828475E-01
       -2   -1    0    0    0  501  0.00000000000E+00  0.00000000000E+00  0.10050089649E+04  0.10050089649E+04  0.25500000920E-02 0. -1.
        2   -1    0    0  501    0  0.00000000000E+00  0.00000000000E+00 -0.62663004027E+03  0.62663004027E+03  0.25500000920E-02 0.  1.
    10030    2    1    2    0    0  0.00000000000E+00  0.00000000000E+00  0.37837892460E+03  0.16316390051E+04  0.15871594855E+04 0.  0.
        4    1    3    3  502    0  0.45231732554E+03  0.54903766234E+03 -0.17242669041E+03  0.73196030911E+03  0.12699999809E+01 0.  1.
       -4    1    3    3    0  502 -0.45231732554E+03 -0.54903766234E+03  0.55080561501E+03  0.89967869602E+03  0.12699999809E+01 0. -1.
</event>
<event>
 5   0  0.7553070E-04  0.1167852E+04  0.7818609E-02  0.9141471E-01
        2   -1    0    0  501    0  0.00000000000E+00  0.00000000000E+00  0.64086662639E+03  0.64086662640E+03  0.25500000920E-02 0.  1.
       -2   -1    0    0    0  501  0.00000000000E+00  0.00000000000E+00 -0.53204408814E+03  0.53204408815E+03  0.25500000920E-02 0. -1.
    10030    2    1    2    0    0  0.00000000000E+00  0.00000000000E+00  0.10882253825E+03  0.11729107145E+04  0.11678515314E+04 0.  0.
        4    1    3    3  502    0 -0.34956468179E+03 -0.34645470839E+03  0.37000390510E+03  0.61573601033E+03  0.12699999809E+01 0.  1.
       -4    1    3    3    0  502  0.34956468179E+03  0.34645470839E+03 -0.26118136685E+03  0.55717470422E+03  0.12699999809E+01 0. -1.
</event>
<event>
 5   0  0.3837251E-04  0.1594746E+04  0.7818609E-02  0.8823782E-01
        1   -1    0    0  501    0  0.00000000000E+00  0.00000000000E+00  0.55589574113E+03  0.55589574116E+03  0.50400001928E-02 0. -1.
       -1   -1    0    0    0  501  0.00000000000E+00  0.00000000000E+00 -0.11437457264E+04  0.11437457265E+04  0.50400001928E-02 0.  1.
    10030    2    1    2    0    0  0.00000000000E+00  0.00000000000E+00 -0.58784998531E+03  0.16996414676E+04  0.15947455951E+04 0.  0.
        4    1    3    3  502    0  0.34684414711E+03 -0.55335168034E+03  0.19366350051E+03  0.68117993867E+03  0.12699999809E+01 0.  1.
       -4    1    3    3    0  502 -0.34684414711E+03  0.55335168034E+03 -0.78151348582E+03  0.10184615289E+04  0.12699999809E+01 0. -1.
</event>
<event>
 5   0  0.3973227E-04  0.1597514E+04  0.7818609E-02  0.8822077E-01
        1   -1    0    0  501    0  0.00000000000E+00  0.00000000000E+00  0.16145823056E+04  0.16145823056E+04  0.50400001928E-02 0.  1.
       -1   -1    0    0    0  501  0.00000000000E+00  0.00000000000E+00 -0.39515655425E+03  0.39515655428E+03  0.50400001928E-02 0. -1.
    10030    2    1    2    0    0  0.00000000000E+00  0.00000000000E+00  0.12194257513E+04  0.20097388599E+04  0.15975140443E+04 0.  0.
        3    1    3    3  502    0  0.15361639418E+03  0.69855014762E+03  0.16236907628E+03  0.73343986286E+03  0.10100000352E+00 0. -1.
       -3    1    3    3    0  502 -0.15361639418E+03 -0.69855014762E+03  0.10570566750E+04  0.12762989970E+04  0.10100000352E+00 0.  1.
</event>
<event>
 5   0  0.3889847E-04  0.1603149E+04  0.7818609E-02  0.8818616E-01
       -1   -1    0    0    0  501  0.00000000000E+00  0.00000000000E+00  0.15692142318E+04  0.15692142318E+04  0.50400001928E-02 0.  1.
        1   -1    0    0  501    0  0.00000000000E+00  0.00000000000E+00 -0.40945463838E+03  0.40945463841E+03  0.50400001928E-02 0. -1.
    10030    2    1    2    0    0  0.00000000000E+00  0.00000000000E+00  0.11597595934E+04  0.19786688702E+04  0.16031494576E+04 0.  0.
        1    1    3    3  502    0 -0.54596688836E+03  0.49651115004E+02  0.13016476554E+04  0.14123851087E+04  0.50400001928E-02 0.  1.
       -1    1    3    3    0  502  0.54596688836E+03 -0.49651115004E+02 -0.14188806198E+03  0.56628376153E+03  0.50400001928E-02 0. -1.
</event>
<event>
 5   0  0.3837251E-04  0.1570165E+04  0.7818609E-02  0.8839089E-01
       -1   -1    0    0    0  501  0.00000000000E+00  0.00000000000E+00  0.71022140120E+03  0.71022140122E+03  0.50400001928E-02 0. -1.
        1   -1    0    0  501    0  0.00000000000E+00  0.00000000000E+00 -0.86783466517E+03  0.86783466518E+03  0.50400001928E-02 0.  1.
    10030    2    1    2    0    0  0.00000000000E+00  0.00000000000E+00 -0.15761326396E+03  0.15780560664E+04  0.15701652804E+04 0.  0.
        4    1    3    3  502    0 -0.97345058674E+02 -0.57806990604E+01 -0.86172317424E+03  0.86722426099E+03  0.12699999809E+01 0.  1.
       -4    1    3    3    0  502  0.97345058674E+02  0.57806990604E+01  0.70410991028E+03  0.71083180541E+03  0.12699999809E+01 0. -1.
</event>
<event>
 5   0  0.3889847E-04  0.1561259E+04  0.7818609E-02  0.8844708E-01
       -1   -1    0    0    0  501  0.00000000000E+00  0.00000000000E+00  0.40511657961E+03  0.40511657964E+03  0.50400001928E-02 0. -1.
        1   -1    0    0  501    0  0.00000000000E+00  0.00000000000E+00 -0.15042143668E+04  0.15042143668E+04  0.50400001928E-02 0.  1.
    10030    2    1    2    0    0  0.00000000000E+00  0.00000000000E+00 -0.10990977872E+04  0.19093309464E+04  0.15612586965E+04 0.  0.
        1    1    3    3  502    0 -0.99705110672E+02 -0.11921214018E+03  0.38600639761E+03  0.41611727011E+03  0.50400001928E-02 0. -1.
       -1    1    3    3    0  502  0.99705110672E+02  0.11921214018E+03 -0.14851041848E+04  0.14932136763E+04  0.50400001928E-02 0.  1.
</event>
<event>
 5   0  0.7770905E-04  0.1610057E+04  0.7818609E-02  0.8814393E-01
        2   -1    0    0  501    0  0.00000000000E+00  0.00000000000E+00  0.60820472738E+03  0.60820472739E+03  0.25500000920E-02 0. -1.
       -2   -1    0    0    0  501  0.00000000000E+00  0.00000000000E+00 -0.10655469880E+04  0.10655469880E+04  0.25500000920E-02 0.  1.
    10030    2    1    2    0    0  0.00000000000E+00  0.00000000000E+00 -0.45734226057E+03  0.16737517153E+04  0.16100567882E+04 0.  0.
        2    1    3    3  502    0 -0.42604103096E+03  0.67736903716E+03 -0.13726694761E+03  0.81190023247E+03  0.25500000920E-02 0.  1.
       -2    1    3    3    0  502  0.42604103096E+03 -0.67736903716E+03 -0.32007531296E+03  0.86185148288E+03  0.25500000920E-02 0. -1.
</event>
<event>
 5   0  0.3837251E-04  0.1604843E+04  0.7818609E-02  0.8817578E-01
        1   -1    0    0  501    0  0.00000000000E+00  0.00000000000E+00  0.51566907455E+03  0.51566907458E+03  0.50400001928E-02 0.  1.
       -1   -1    0    0    0  501  0.00000000000E+00  0.00000000000E+00 -0.12486313286E+04  0.12486313286E+04  0.50400001928E-02 0. -1.
    10030    2    1    2    0    0  0.00000000000E+00  0.00000000000E+00 -0.73296225407E+03  0.17643004032E+04  0.16048433714E+04 0.  0.
        4    1    3    3  502    0  0.21625485634E+03 -0.77267504847E+03 -0.37667945468E+03  0.88638700232E+03  0.12699999809E+01 0. -1.
       -4    1    3    3    0  502 -0.21625485634E+03  0.77267504847E+03 -0.35628279940E+03  0.87791340089E+03  0.12699999809E+01 0.  1.
</event>
<event>
 5   0  0.7553070E-04  0.1680350E+04  0.7818609E-02  0.8772652E-01
       -2   -1    0    0    0  501  0.00000000000E+00  0.00000000000E+00  0.44026201080E+03  0.44026201081E+03  0.25500000920E-02 0.  1.
        2   -1    0    0  501    0  0.00000000000E+00  0.00000000000E+00 -0.16033490425E+04  0.16033490425E+04  0.25500000920E-02 0. -1.
    10030    2    1    2    0    0  0.00000000000E+00  0.00000000000E+00 -0.11630870317E+04  0.20436110533E+04  0.16803495749E+04 0.  0.
        4    1    3    3  502    0 -0.36418629534E+03 -0.12148397909E+03  0.32734577569E+03  0.50452639639E+03  0.12699999809E+01 0.  1.
       -4    1    3    3    0  502  0.36418629534E+03  0.12148397909E+03 -0.14904328074E+04  0.15390846569E+04  0.12699999809E+01 0. -1.
</event>
<event>
 5   0  0.3889847E-04  0.1593275E+04  0.7818609E-02  0.8824690E-01
        1   -1    0    0  501    0  0.00000000000E+00  0.00000000000E+00  0.16461281101E+04  0.16461281101E+04  0.50400001928E-02 0. -1.
       -1   -1    0    0    0  501  0.00000000000E+00  0.00000000000E+00 -0.38552965540E+03  0.38552965543E+03  0.50400001928E-02 0.  1.
    10030    2    1    2    0    0  0.00000000000E+00  0.00000000000E+00  0.12605984547E+04  0.20316577656E+04  0.15932748703E+04 0.  0.
        1    1    3    3  502    0  0.13709662011E+03  0.58837755160E+03  0.12924518551E+04  0.14266798605E+04  0.50400001928E-02 0. -1.
       -1    1    3    3    0  502 -0.13709662011E+03 -0.58837755160E+03 -0.31853400406E+02  0.60497790507E+03  0.50400001928E-02 0.  1.
</event>
<event>
 5   0  0.3973227E-04  0.1285332E+04  0.7818609E-02  0.9041278E-01
       -1   -1    0    0    0  501  0.00000000000E+00  0.00000000000E+00  0.94199031662E+03  0.94199031663E+03  0.50400001928E-02 0. -1.
        1   -1    0    0  501    0  0.00000000000E+00  0.00000000000E+00 -0.43845428223E+03  0.43845428226E+03  0.50400001928E-02 0.  1.
    10030    2    1    2    0    0  0.00000000000E+00  0.00000000000E+00  0.50353603439E+03  0.13804445989E+04  0.12853321566E+04 0.  0.
        3    1    3    3  502    0 -0.13851075117E+03  0.46781934653E+03 -0.19749141667E+03  0.52634878079E+03  0.10100000352E+00 0.  1.
       -3    1    3    3    0  502  0.13851075117E+03 -0.46781934653E+03  0.70102745106E+03  0.85409581811E+03  0.10100000352E+00 0. -1.
</event>
<event>
 5   0  0.7770905E-04  0.1664213E+04  0.7818609E-02  0.8782043E-01
        2   -1    0    0  501    0  0.00000000000E+00  0.00000000000E+00  0.59663279327E+03  0.59663279327E+03  0.25500000920E-02 0.  1.
       -2   -1    0    0    0  501  0.00000000000E+00  0.00000000000E+00 -0.11605144001E+04  0.11605144001E+04  0.25500000920E-02 0. -1.
    10030    2    1    2    0    0  0.00000000000E+00  0.00000000000E+00 -0.56388160682E+03  0.17571471934E+04  0.16642126645E+04 0.  0.
        2    1    3    3  502    0 -0.40444081267E+03  0.16249751102E+03  0.46645981134E+03  0.63840627161E+03  0.25500000920E-02 0.  1.
       -2    1    3    3    0  502  0.40444081267E+03 -0.16249751102E+03 -0.10303414182E+04  0.11187409218E+04  0.25500000920E-02 0. -1.
</event>
<event>
 5   0  0.7488884E-04  0.1598645E+04  0.7818609E-02  0.8821381E-01
       -2   -1    0    0    0  501  0.00000000000E+00  0.00000000000E+00  0.37846165378E+03  0.37846165378E+03  0.25500000920E-02 0. -1.
        2   -1    0    0  501    0  0.00000000000E+00  0.00000000000E+00 -0.16881936597E+04  0.16881936597E+04  0.25500000920E-02 0.  1.
    10030    2    1    2    0    0  0.00000000000E+00  0.00000000000E+00 -0.13097320059E+04  0.20666553135E+04  0.15986451318E+04 0.  0.
        3    1    3    3  502    0  0.41919397408E+03  0.31200987100E+03  0.12705564965E+03  0.53778889521E+03  0.10100000352E+00 0. -1.
       -3    1    3    3    0  502 -0.41919397408E+03 -0.31200987100E+03 -0.14367876555E+04  0.15288664182E+04  0.10100000352E+00 0.  1.
</event>
<event>
 5   0  0.7415102E-04  0.1604429E+04  0.7818609E-02  0.8817832E-01
        2   -1    0    0  501    0  0.00000000000E+00  0.00000000000E+00  0.11456573641E+04  0.11456573641E+04  0.25500000920E-02 0. -1.
       -2   -1    0    0    0  501  0.00000000000E+00  0.00000000000E+00 -0.56172793741E+03  0.56172793742E+03  0.25500000920E-02 0.  1.
    10030    2    1    2    0    0  0.00000000000E+00  0.00000000000E+00  0.58392942669E+03  0.17073853015E+04  0.16044285564E+04 0.  0.
        5    1    3    3  502    0  0.73278648081E+03  0.32413691986E+03  0.25095770112E+03  0.83966816483E+03  0.46999998093E+01 0. -1.
       -5    1    3    3    0  502 -0.73278648081E+03 -0.32413691986E+03  0.33297172558E+03  0.86771713669E+03  0.46999998093E+01 0.  1.
</event>
<event>
 5   0  0.3837251E-04  0.1599980E+04  0.7818609E-02  0.8820561E-01
        1   -1    0    0  501    0  0.00000000000E+00  0.00000000000E+00  0.19266531575E+04  0.19266531576E+04  0.50400001928E-02 0. -1.
       -1   -1    0    0    0  501  0.00000000000E+00  0.00000000000E+00 -0.33217375091E+03  0.33217375095E+03  0.50400001928E-02 0.  1.
    10030    2    1    2    0    0  0.00000000000E+00  0.00000000000E+00  0.15944794066E+04  0.22588269085E+04  0.15999795075E+04 0.  0.
        4    1    3    3  502    0 -0.27781100698E+02 -0.59252132318E+03  0.39427174465E+02  0.59448248331E+03  0.12699999809E+01 0.  1.
       -4    1    3    3    0  502  0.27781100698E+02  0.59252132318E+03  0.15550522322E+04  0.16643444252E+04  0.12699999809E+01 0. -1.
</event>
<event>
 5   0  0.3889847E-04  0.1568495E+04  0.7818609E-02  0.8840140E-01
        1   -1    0    0  501    0  0.00000000000E+00  0.00000000000E+00  0.89568897673E+03  0.89568897675E+03  0.50400001928E-02 0.  1.
       -1   -1    0    0    0  501  0.00000000000E+00  0.00000000000E+00 -0.68667168464E+03  0.68667168466E+03  0.50400001928E-02 0. -1.
    10030    2    1    2    0    0  0.00000000000E+00  0.00000000000E+00  0.20901729209E+03  0.15823606614E+04  0.15684951496E+04 0.  0.
        1    1    3    3  502    0  0.39083907334E+03 -0.20007487055E+03  0.76006769789E+03  0.87777448156E+03  0.50400001928E-02 0.  1.
       -1    1    3    3    0  502 -0.39083907334E+03  0.20007487055E+03 -0.55105040580E+03  0.70458617985E+03  0.50400001928E-02 0. -1.
</event>
<event>
 5   0  0.3973227E-04  0.1628153E+04  0.7818609E-02  0.8803437E-01
        1   -1    0    0  501    0  0.00000000000E+00  0.00000000000E+00  0.97405666402E+03  0.97405666404E+03  0.50400001928E-02 0. -1.
       -1   -1    0    0    0  501  0.00000000000E+00  0.00000000000E+00 -0.68037164339E+03  0.68037164341E+03  0.50400001928E-02 0.  1.
    10030    2    1    2    0    0  0.00000000000E+00  0.00000000000E+00  0.29368502063E+03  0.16544283074E+04  0.16281529821E+04 0.  0.
        3    1    3    3  502    0  0.31295775479E+03 -0.21621727265E+03  0.87819944680E+03  0.95704061765E+03  0.10100000352E+00 0. -1.
       -3    1    3    3    0  502 -0.31295775479E+03  0.21621727265E+03 -0.58451442617E+03  0.69738768979E+03  0.10100000352E+00 0.  1.
</event>
<event>
 5   0  0.7488884E-04  0.1682192E+04  0.7818609E-02  0.8771586E-01
        2   -1    0    0  501    0  0.00000000000E+00  0.00000000000E+00  0.11471280274E+04  0.11471280274E+04  0.25500000920E-02 0. -1.
       -2   -1    0    0    0  501  0.00000000000E+00  0.00000000000E+00 -0.61670781698E+03  0.61670781699E+03  0.25500000920E-02 0.  1.
    10030    2    1    2    0    0  0.00000000000E+00  0.00000000000E+00  0.53042021037E+03  0.17638358443E+04  0.16821924046E+04 0.  0.
        3    1    3    3  502    0  0.73668120154E+03 -0.36931232679E+03  0.44176287272E+03  0.93501081990E+03  0.10100000352E+00 0. -1.
       -3    1    3    3    0  502 -0.73668120154E+03  0.36931232679E+03  0.88657337653E+02  0.82882502444E+03  0.10100000352E+00 0.  1.
</event>
<event>
 5   0  0.7770905E-04  0.1587291E+04  0.7818609E-02  0.8828394E-01
       -2   -1    0    0    0  501  0.00000000000E+00  0.00000000000E+00  0.84562596917E+03  0.84562596917E+03  0.25500000920E-02 0.  1.
        2   -1    0    0  501    0  0.00000000000E+00  0.00000000000E+00 -0.74486004161E+03  0.74486004162E+03  0.25500000920E-02 0. -1.
    10030    2    1    2    0    0  0.00000000000E+00  0.00000000000E+00  0.10076592755E+03  0.15904860108E+04  0.15872907668E+04 0.  0.
        2    1    3    3  502    0  0.32611852676E+03 -0.34467524314E+03  0.68783863234E+03  0.83562928436E+03  0.25500000920E-02 0.  1.
       -2    1    3    3    0  502 -0.32611852676E+03  0.34467524314E+03 -0.58707270478E+03  0.75485672643E+03  0.25500000920E-02 0. -1.
</event>
<event>
 5   0  0.3950195E-04  0.1625465E+04  0.7818609E-02  0.8805055E-01
       -1   -1    0    0    0  501  0.00000000000E+00  0.00000000000E+00  0.49961246848E+03  0.49961246850E+03  0.50400001928E-02 0. -1.
        1   -1    0    0  501    0  0.00000000000E+00  0.00000000000E+00 -0.13220926357E+04  0.13220926357E+04  0.50400001928E-02 0.  1.
    10030    2    1    2    0    0  0.00000000000E+00  0.00000000000E+00 -0.82248016721E+03  0.18217051042E+04  0.16254648139E+04 0.  0.
        2    1    3    3  502    0 -0.20239762979E+02  0.81241312105E+03 -0.42295360413E+03  0.91614108002E+03  0.25500000920E-02 0.  1.
       -2    1    3    3    0  502  0.20239762979E+02 -0.81241312105E+03 -0.39952656308E+03  0.90556402417E+03  0.25500000920E-02 0. -1.
</event>
<event>
 5   0  0.3950195E-04  0.1606566E+04  0.7818609E-02  0.8816525E-01
        1   -1    0    0  501    0  0.00000000000E+00  0.00000000000E+00  0.57894490797E+03  0.57894490799E+03  0.50400001928E-02 0. -1.
       -1   -1    0    0    0  501  0.00000000000E+00  0.00000000000E+00 -0.11145506536E+04  0.11145506536E+04  0.50400001928E-02 0.  1.
    10030    2    1    2    0    0  0.00000000000E+00  0.00000000000E+00 -0.53560574559E+03  0.16934955616E+04  0.16065658101E+04 0.  0.
        2    1    3    3  502    0 -0.29128302242E+03  0.53448642323E+03  0.28471710158E+03  0.67200101466E+03  0.25500000920E-02 0. -1.
       -2    1    3    3    0  502  0.29128302242E+03 -0.53448642323E+03 -0.82032284717E+03  0.10214945469E+04  0.25500000920E-02 0.  1.
</event>
<event>
 5   0  0.7395088E-04  0.1621029E+04  0.7818609E-02  0.8807732E-01
        2   -1    0    0  501    0  0.00000000000E+00  0.00000000000E+00  0.11412342967E+04  0.11412342967E+04  0.25500000920E-02 0. -1.
       -2   -1    0    0    0  501  0.00000000000E+00  0.00000000000E+00 -0.57563421278E+03  0.57563421279E+03  0.25500000920E-02 0.  1.
    10030    2    1    2    0    0  0.00000000000E+00  0.00000000000E+00  0.56560008395E+03  0.17168685095E+04  0.16210286932E+04 0.  0.
        1    1    3    3  502    0 -0.60809956528E+03 -0.19200566313E+02 -0.28437953385E+03  0.67158429280E+03  0.50400001928E-02 0.  1.
       -1    1    3    3    0  502  0.60809956528E+03  0.19200566313E+02  0.84997961780E+03  0.10452842167E+04  0.50400001928E-02 0. -1.
</event>
<event>
 5   0  0.3973227E-04  0.1604423E+04  0.7818609E-02  0.8817836E-01
        1   -1    0    0  501    0  0.00000000000E+00  0.00000000000E+00  0.10245066578E+04  0.10245066578E+04  0.50400001928E-02 0. -1.
       -1   -1    0    0    0  501  0.00000000000E+00  0.00000000000E+00 -0.62814906195E+03  0.62814906197E+03  0.50400001928E-02 0.  1.
    10030    2    1    2    0    0  0.00000000000E+00  0.00000000000E+00  0.39635759580E+03  0.16526557197E+04  0.16044225080E+04 0.  0.
        3    1    3    3  502    0  0.86282124720E+02 -0.65826047923E+03 -0.26568281703E+03  0.71507959909E+03  0.10100000352E+00 0.  1.
       -3    1    3    3    0  502 -0.86282124720E+02  0.65826047923E+03  0.66204041284E+03  0.93757612064E+03  0.10100000352E+00 0. -1.
</event>
<event>
 5   0  0.7395088E-04  0.1688333E+04  0.7818609E-02  0.8768047E-01
       -2   -1    0    0    0  501  0.00000000000E+00  0.00000000000E+00  0.37394960525E+03  0.37394960526E+03  0.25500000920E-02 0. -1.
        2   -1    0    0  501    0  0.00000000000E+00  0.00000000000E+00 -0.19056501377E+04  0.19056501377E+04  0.25500000920E-02 0.  1.
    10030    2    1    2    0    0  0.00000000000E+00  0.00000000000E+00 -0.15317005324E+04  0.22795997429E+04  0.16883330439E+04 0.  0.
        1    1    3    3  502    0 -0.67656638168E+03  0.27425921080E+03 -0.19355194791E+03  0.75526322570E+03  0.50400001928E-02 0. -1.
       -1    1    3    3    0  502  0.67656638168E+03 -0.27425921080E+03 -0.13381485845E+04  0.15243365172E+04  0.50400001928E-02 0.  1.
</event>
<event>
 5   0  0.3950195E-04  0.1630717E+04  0.7818609E-02  0.8801897E-01
       -1   -1    0    0    0  501  0.00000000000E+00  0.00000000000E+00  0.42267415173E+03  0.42267415176E+03  0.50400001928E-02 0.  1.
        1   -1    0    0  501    0  0.00000000000E+00  0.00000000000E+00 -0.15728647194E+04  0.15728647194E+04  0.50400001928E-02 0. -1.
    10030    2    1    2    0    0  0.00000000000E+00  0.00000000000E+00 -0.11501905677E+04  0.19955388712E+04  0.16307167272E+04 0.  0.
        2    1    3    3  502    0 -0.74464505339E+03  0.19445425792E+02 -0.98083677514E+03  0.12316310972E+04  0.25500000920E-02 0.  1.
       -2    1    3    3    0  502  0.74464505339E+03 -0.19445425792E+02 -0.16935379256E+03  0.76390777400E+03  0.25500000920E-02 0. -1.
</event>
<event>
 5   0  0.3837251E-04  0.1516115E+04  0.7818609E-02  0.8873807E-01
       -1   -1    0    0    0  501  0.00000000000E+00  0.00000000000E+00  0.74174845955E+03  0.74174845956E+03  0.50400001928E-02 0. -1.
        1   -1    0    0  501    0  0.00000000000E+00  0.00000000000E+00 -0.77472556573E+03  0.77472556575E+03  0.50400001928E-02 0.  1.
    10030    2    1    2    0    0  0.00000000000E+00  0.00000000000E+00 -0.32977106182E+02  0.15164740253E+04  0.15161154243E+04 0.  0.
        4    1    3    3  502    0 -0.30524847958E+03 -0.66536382322E+03 -0.21342146101E+03  0.76251949775E+03  0.12699999809E+01 0.  1.
       -4    1    3    3    0  502  0.30524847958E+03  0.66536382322E+03  0.18044435483E+03  0.75395452756E+03  0.12699999809E+01 0. -1.
</event>
<event>
 5   0  0.7553070E-04  0.1601980E+04  0.7818609E-02  0.8819333E-01
        2   -1    0    0  501    0  0.00000000000E+00  0.00000000000E+00  0.45071867310E+03  0.45071867311E+03  0.25500000920E-02 0. -1.
       -2   -1    0    0    0  501  0.00000000000E+00  0.00000000000E+00 -0.14234711294E+04  0.14234711294E+04  0.25500000920E-02 0.  1.
    10030    2    1    2    0    0  0.00000000000E+00  0.00000000000E+00 -0.97275245632E+03  0.18741898025E+04  0.16019800481E+04 0.  0.
        4    1    3    3  502    0 -0.12181968218E+03  0.43425670489E+03 -0.12607935426E+04  0.13390373000E+04  0.12699999809E+01 0.  1.
       -4    1    3    3    0  502  0.12181968218E+03 -0.43425670489E+03  0.28804108629E+03  0.53515250257E+03  0.12699999809E+01 0. -1.
</event>
<event>
 5   0  0.7770905E-04  0.1266479E+04  0.7818609E-02  0.9056578E-01
       -2   -1    0    0    0  501  0.00000000000E+00  0.00000000000E+00  0.59000448530E+03  0.59000448530E+03  0.25500000920E-02 0. -1.
        2   -1    0    0  501    0  0.00000000000E+00  0.00000000000E+00 -0.67964316446E+03  0.67964316446E+03  0.25500000920E-02 0.  1.
    10030    2    1    2    0    0  0.00000000000E+00  0.00000000000E+00 -0.89638679163E+02  0.12696476498E+04  0.12664793965E+04 0.  0.
        2    1    3    3  502    0 -0.55187398596E+03  0.18995907515E+03 -0.29108232524E+03  0.65221029330E+03  0.25500000920E-02 0.  1.
       -2    1    3    3    0  502  0.55187398596E+03 -0.18995907515E+03  0.20144364608E+03  0.61743735647E+03  0.25500000920E-02 0. -1.
</event>
<event>
 5   0  0.4110803E-04  0.1607559E+04  0.7818609E-02  0.8815918E-01
        1   -1    0    0  501    0  0.00000000000E+00  0.00000000000E+00  0.46710242539E+03  0.46710242542E+03  0.50400001928E-02 0.  1.
       -1   -1    0    0    0  501  0.00000000000E+00  0.00000000000E+00 -0.13831251084E+04  0.13831251084E+04  0.50400001928E-02 0. -1.
    10030    2    1    2    0    0  0.00000000000E+00  0.00000000000E+00 -0.91602268297E+03  0.18502275338E+04  0.16075585125E+04 0.  0.
        5    1    3    3  502    0 -0.23879555506E+03 -0.76110761564E+03 -0.34447510948E+03  0.86890351061E+03  0.46999998093E+01 0. -1.
       -5    1    3    3    0  502  0.23879555506E+03  0.76110761564E+03 -0.57154757350E+03  0.98132402318E+03  0.46999998093E+01 0.  1.
</event>
<event>
 5   0  0.7415102E-04  0.1671308E+04  0.7818609E-02  0.8777900E-01
        2   -1    0    0  501    0  0.00000000000E+00  0.00000000000E+00  0.21948252946E+04  0.21948252946E+04  0.25500000920E-02 0. -1.
       -2   -1    0    0    0  501  0.00000000000E+00  0.00000000000E+00 -0.31816559953E+03  0.31816559954E+03  0.25500000920E-02 0.  1.
    10030    2    1    2    0    0  0.00000000000E+00  0.00000000000E+00  0.18766596951E+04  0.25129908941E+04  0.16713083566E+04 0.  0.
        5    1    3    3  502    0 -0.19107502857E+03 -0.13197951139E+03  0.21453128763E+04  0.21578502463E+04  0.46999998093E+01 0. -1.
       -5    1    3    3    0  502  0.19107502857E+03  0.13197951139E+03 -0.26865318126E+03  0.35514064787E+03  0.46999998093E+01 0.  1.
</event>
<event>
 5   0  0.7770905E-04  0.1588259E+04  0.7818609E-02  0.8827794E-01
       -2   -1    0    0    0  501  0.00000000000E+00  0.00000000000E+00  0.20811227552E+04  0.20811227552E+04  0.25500000920E-02 0.  1.
        2   -1    0    0  501    0  0.00000000000E+00  0.00000000000E+00 -0.30302941008E+03  0.30302941009E+03  0.25500000920E-02 0. -1.
    10030    2    1    2    0    0  0.00000000000E+00  0.00000000000E+00  0.17780933452E+04  0.23841521653E+04  0.15882586702E+04 0.  0.
        2    1    3    3  502    0  0.76352658043E+03 -0.15285516713E+03  0.65502808170E+03  0.10175457380E+04  0.25500000920E-02 0.  1.
       -2    1    3    3    0  502 -0.76352658043E+03  0.15285516713E+03  0.11230652635E+04  0.13666064273E+04  0.25500000920E-02 0. -1.
</event>
<event>
 5   0  0.2781000E-04  0.1553765E+04  0.7818609E-02  0.8849467E-01
        4   -1    0    0  501    0  0.00000000000E+00  0.00000000000E+00  0.50609822187E+03  0.50609981533E+03  0.12699999809E+01 0.  1.
       -4   -1    0    0    0  501  0.00000000000E+00  0.00000000000E+00 -0.11925437622E+04  0.11925444385E+04  0.12699999809E+01 0. -1.
    10030    2    1    2    0    0  0.00000000000E+00  0.00000000000E+00 -0.68644554034E+03  0.16986442538E+04  0.15537647251E+04 0.  0.
        4    1    3    3  502    0  0.13721635632E+03  0.47480046906E+03 -0.99851371754E+03  0.11141342248E+04  0.12699999809E+01 0. -1.
       -4    1    3    3    0  502 -0.13721635632E+03 -0.47480046906E+03  0.31206817720E+03  0.58451002898E+03  0.12699999809E+01 0.  1.
</event>
<event>
 5   0  0.3973227E-04  0.1584128E+04  0.7818609E-02  0.8830359E-01
        1   -1    0    0  501    0  0.00000000000E+00  0.00000000000E+00  0.16985749280E+04  0.16985749280E+04  0.50400001928E-02 0.  1.
       -1   -1    0    0    0  501  0.00000000000E+00  0.00000000000E+00 -0.36934794588E+03  0.36934794592E+03  0.50400001928E-02 0. -1.
    10030    2    1    2    0    0  0.00000000000E+00  0.00000000000E+00  0.13292269822E+04  0.20679228740E+04  0.15841277229E+04 0.  0.
        3    1    3    3  502    0  0.30896189717E+03  0.28012527934E+03  0.15436418199E+04  0.15989864616E+04  0.10100000352E+00 0.  1.
       -3    1    3    3    0  502 -0.30896189717E+03 -0.28012527934E+03 -0.21441483772E+03  0.46893641239E+03  0.10100000352E+00 0. -1.
</event>
<event>
 5   0  0.7395088E-04  0.1579259E+04  0.7818609E-02  0.8833392E-01
        2   -1    0    0  501    0  0.00000000000E+00  0.00000000000E+00  0.11692254163E+04  0.11692254163E+04  0.25500000920E-02 0.  1.
       -2   -1    0    0    0  501  0.00000000000E+00  0.00000000000E+00 -0.53327183658E+03  0.53327183658E+03  0.25500000920E-02 0. -1.
    10030    2    1    2    0    0  0.00000000000E+00  0.00000000000E+00  0.63595357968E+03  0.17024972528E+04  0.15792593012E+04 0.  0.
        1    1    3    3  502    0  0.50234516954E+03 -0.59950192869E+03  0.43489145975E+03  0.89492112147E+03  0.50400001928E-02 0.  1.
       -1    1    3    3    0  502 -0.50234516954E+03  0.59950192869E+03  0.20106211993E+03  0.80757613137E+03  0.50400001928E-02 0. -1.
</event>
<event>
 5   0  0.3973227E-04  0.1593868E+04  0.7818609E-02  0.8824324E-01
       -1   -1    0    0    0  501  0.00000000000E+00  0.00000000000E+00  0.70695342625E+03  0.70695342627E+03  0.50400001928E-02 0.  1.
        1   -1    0    0  501    0  0.00000000000E+00  0.00000000000E+00 -0.89836758382E+03  0.89836758383E+03  0.50400001928E-02 0. -1.
    10030    2    1    2    0    0  0.00000000000E+00  0.00000000000E+00 -0.19141415757E+03  0.16053210101E+04  0.15938683025E+04 0.  0.
        3    1    3    3  502    0  0.43153637824E+03 -0.40282051179E+03 -0.63491925040E+03  0.86695471346E+03  0.10100000352E+00 0. -1.
       -3    1    3    3    0  502 -0.43153637824E+03  0.40282051179E+03  0.44350509283E+03  0.73836629665E+03  0.10100000352E+00 0.  1.
</event>
<event>
 5   0  0.7770905E-04  0.1622107E+04  0.7818609E-02  0.8807081E-01
       -2   -1    0    0    0  501  0.00000000000E+00  0.00000000000E+00  0.48734619391E+03  0.48734619392E+03  0.25500000920E-02 0. -1.
        2   -1    0    0  501    0  0.00000000000E+00  0.00000000000E+00 -0.13497743806E+04  0.13497743806E+04  0.25500000920E-02 0.  1.
    10030    2    1    2    0    0  0.00000000000E+00  0.00000000000E+00 -0.86242818673E+03  0.18371205746E+04  0.16221065403E+04 0.  0.
        2    1    3    3  502    0  0.48838964640E+03 -0.63342665669E+03 -0.58338813160E+03  0.98999772132E+03  0.25500000920E-02 0.  1.
       -2    1    3    3    0  502 -0.48838964640E+03  0.63342665669E+03 -0.27904005513E+03  0.84712285325E+03  0.25500000920E-02 0. -1.
</event>
<event>
 5   0  0.7488884E-04  0.1620563E+04  0.7818609E-02  0.8808014E-01
        2   -1    0    0  501    0  0.00000000000E+00  0.00000000000E+00  0.15838549558E+04  0.15838549558E+04  0.25500000920E-02 0. -1.
       -2   -1    0    0    0  501  0.00000000000E+00  0.00000000000E+00 -0.41453039249E+03  0.41453039250E+03  0.25500000920E-02 0.  1.
    10030    2    1    2    0    0  0.00000000000E+00  0.00000000000E+00  0.11693245633E+04  0.19983853483E+04  0.16205628855E+04 0.  0.
        3    1    3    3  502    0 -0.25758059194E+03 -0.33181546569E+03 -0.26977905494E+03  0.49922941950E+03  0.10100000352E+00 0.  1.
       -3    1    3    3    0  502  0.25758059194E+03  0.33181546569E+03  0.14391036183E+04  0.14991559288E+04  0.10100000352E+00 0. -1.
</event>
<event>
 5   0  0.7395088E-04  0.1626017E+04  0.7818609E-02  0.8804722E-01
        2   -1    0    0  501    0  0.00000000000E+00  0.00000000000E+00  0.13801776366E+04  0.13801776366E+04  0.25500000920E-02 0.  1.
       -2   -1    0    0    0  501  0.00000000000E+00  0.00000000000E+00 -0.47891123770E+03  0.47891123770E+03  0.25500000920E-02 0. -1.
    10030    2    1    2    0    0  0.00000000000E+00  0.00000000000E+00  0.90126639890E+03  0.18590888743E+04  0.16260167037E+04 0.  0.
        1    1    3    3  502    0 -0.36502853753E+02  0.40968562949E+03  0.12524457656E+04  0.13182545919E+04  0.50400001928E-02 0.  1.
       -1    1    3    3    0  502  0.36502853753E+02 -0.40968562949E+03 -0.35117936671E+03  0.54083428236E+03  0.50400001928E-02 0. -1.
</event>
<event>
 5   0  0.7415102E-04  0.1630228E+04  0.7818609E-02  0.8802190E-01
        2   -1    0    0  501    0  0.00000000000E+00  0.00000000000E+00  0.15465175843E+04  0.15465175843E+04  0.25500000920E-02 0.  1.
       -2   -1    0    0    0  501  0.00000000000E+00  0.00000000000E+00 -0.42961722938E+03  0.42961722938E+03  0.25500000920E-02 0. -1.
    10030    2    1    2    0    0  0.00000000000E+00  0.00000000000E+00  0.11169003549E+04  0.19761348137E+04  0.16302277139E+04 0.  0.
        5    1    3    3  502    0 -0.53027916696E+03  0.59632922633E+03  0.75977469769E+03  0.11018549008E+04  0.46999998093E+01 0.  1.
       -5    1    3    3    0  502  0.53027916696E+03 -0.59632922633E+03  0.35712565724E+03  0.87427991293E+03  0.46999998093E+01 0. -1.
</event>
<event>
 5   0  0.3837251E-04  0.1609589E+04  0.7818609E-02  0.8814679E-01
       -1   -1    0    0    0  501  0.00000000000E+00  0.00000000000E+00  0.67647245684E+03  0.67647245686E+03  0.50400001928E-02 0. -1.
        1   -1    0    0  501    0  0.00000000000E+00  0.00000000000E+00 -0.95745846806E+03  0.95745846808E+03  0.50400001928E-02 0.  1.
    10030    2    1    2    0    0  0.00000000000E+00  0.00000000000E+00 -0.28098601122E+03  0.16339309249E+04  0.16095891181E+04 0.  0.
        4    1    3    3  502    0 -0.12111383210E+03  0.55319904854E+03  0.43998954509E+03  0.71714026544E+03  0.12699999809E+01 0. -1.
       -4    1    3    3    0  502  0.12111383210E+03 -0.55319904854E+03 -0.72097555632E+03  0.91679065949E+03  0.12699999809E+01 0.  1.
</event>
<event>
 5   0  0.4110803E-04  0.1590939E+04  0.7818609E-02  0.8826134E-01
       -1   -1    0    0    0  501  0.00000000000E+00  0.00000000000E+00  0.63926658716E+03  0.63926658718E+03  0.50400001928E-02 0.  1.
        1   -1    0    0  501    0  0.00000000000E+00  0.00000000000E+00 -0.98984000078E+03  0.98984000080E+03  0.50400001928E-02 0. -1.
    10030    2    1    2    0    0  0.00000000000E+00  0.00000000000E+00 -0.35057341362E+03  0.16291065880E+04  0.15909388916E+04 0.  0.
        5    1    3    3  502    0 -0.65558824188E+03 -0.40293983631E+03  0.31024149545E+02  0.77015650515E+03  0.46999998093E+01 0.  1.
       -5    1    3    3    0  502  0.65558824188E+03  0.40293983631E+03 -0.38159756316E+03  0.85895008283E+03  0.46999998093E+01 0. -1.
</event>
<event>
 5   0  0.7553070E-04  0.1603587E+04  0.7818609E-02  0.8818348E-01
        2   -1    0    0  501    0  0.00000000000E+00  0.00000000000E+00  0.12067201082E+04  0.12067201082E+04  0.25500000920E-02 0. -1.
       -2   -1    0    0    0  501  0.00000000000E+00  0.00000000000E+00 -0.53274363223E+03  0.53274363223E+03  0.25500000920E-02 0.  1.
    10030    2    1    2    0    0  0.00000000000E+00  0.00000000000E+00  0.67397647602E+03  0.17394637405E+04  0.16035865472E+04 0.  0.
        4    1    3    3  502    0  0.26488531432E+03  0.27366953309E+03  0.11023301220E+04  0.11662729328E+04  0.12699999809E+01 0. -1.
       -4    1    3    3    0  502 -0.26488531432E+03 -0.27366953309E+03 -0.42835364596E+03  0.57319080767E+03  0.12699999809E+01 0.  1.
</event>
<event>
 5   0  0.3837251E-04  0.1598561E+04  0.7818609E-02  0.8821432E-01
        1   -1    0    0  501    0  0.00000000000E+00  0.00000000000E+00  0.65196654435E+03  0.65196654437E+03  0.50400001928E-02 0. -1.
       -1   -1    0    0    0  501  0.00000000000E+00  0.00000000000E+00 -0.97988097023E+03  0.97988097024E+03  0.50400001928E-02 0.  1.
    10030    2    1    2    0    0  0.00000000000E+00  0.00000000000E+00 -0.32791442588E+03  0.16318475146E+04  0.15985613658E+04 0.  0.
        4    1    3    3  502    0 -0.26442932421E+03  0.60761450951E+03 -0.62017438409E+03  0.90759910713E+03  0.12699999809E+01 0.  1.
       -4    1    3    3    0  502  0.26442932421E+03 -0.60761450951E+03  0.29225995821E+03  0.72424840748E+03  0.12699999809E+01 0. -1.
</event>
<event>
 5   0  0.3889847E-04  0.1594523E+04  0.7818609E-02  0.8823920E-01
        1   -1    0    0  501    0  0.00000000000E+00  0.00000000000E+00  0.12338684090E+04  0.12338684090E+04  0.50400001928E-02 0. -1.
       -1   -1    0    0    0  501  0.00000000000E+00  0.00000000000E+00 -0.51514905703E+03  0.51514905706E+03  0.50400001928E-02 0.  1.
    10030    2    1    2    0    0  0.00000000000E+00  0.00000000000E+00  0.71871935193E+03  0.17490174660E+04  0.15945233111E+04 0.  0.
        1    1    3    3  502    0  0.26698530363E+03 -0.67524665794E+03  0.72047986020E+03  0.10229029428E+04  0.50400001928E-02 0. -1.
       -1    1    3    3    0  502 -0.26698530363E+03  0.67524665794E+03 -0.17605082769E+01  0.72611452322E+03  0.50400001928E-02 0.  1.
</event>
<event>
 5   0  0.7395088E-04  0.1726123E+04  0.7818609E-02  0.8746604E-01
       -2   -1    0    0    0  501  0.00000000000E+00  0.00000000000E+00  0.43223909390E+03  0.43223909391E+03  0.25500000920E-02 0.  1.
        2   -1    0    0  501    0  0.00000000000E+00  0.00000000000E+00 -0.17232935972E+04  0.17232935972E+04  0.25500000920E-02 0. -1.
    10030    2    1    2    0    0  0.00000000000E+00  0.00000000000E+00 -0.12910545033E+04  0.21555326911E+04  0.17261226642E+04 0.  0.
        1    1    3    3  502    0 -0.39663346649E+03 -0.55275281056E+02  0.30919212415E+03  0.50593797357E+03  0.50400001928E-02 0.  1.
       -1    1    3    3    0  502  0.39663346649E+03  0.55275281056E+02 -0.16002466274E+04  0.16495947175E+04  0.50400001928E-02 0. -1.
</event>
<event>
 5   0  0.4110803E-04  0.1573323E+04  0.7818609E-02  0.8837107E-01
        1   -1    0    0  501    0  0.00000000000E+00  0.00000000000E+00  0.68842677403E+03  0.68842677405E+03  0.50400001928E-02 0. -1.
       -1   -1    0    0    0  501  0.00000000000E+00  0.00000000000E+00 -0.89891325260E+03  0.89891325261E+03  0.50400001928E-02 0.  1.
    10030    2    1    2    0    0  0.00000000000E+00  0.00000000000E+00 -0.21048647856E+03  0.15873400267E+04  0.15733225361E+04 0.  0.
        5    1    3    3  502    0 -0.24315720441E+03 -0.74709844170E+03 -0.14473728430E+03  0.79890705286E+03  0.46999998093E+01 0.  1.
       -5    1    3    3    0  502  0.24315720441E+03  0.74709844170E+03 -0.65749194260E+02  0.78843297381E+03  0.46999998093E+01 0. -1.
</event>
<event>
 5   0  0.7553070E-04  0.1599404E+04  0.7818609E-02  0.8820914E-01
       -2   -1    0    0    0  501  0.00000000000E+00  0.00000000000E+00  0.45582843041E+03  0.45582843042E+03  0.25500000920E-02 0.  1.
        2   -1    0    0  501    0  0.00000000000E+00  0.00000000000E+00 -0.14029918994E+04  0.14029918994E+04  0.25500000920E-02 0. -1.
    10030    2    1    2    0    0  0.00000000000E+00  0.00000000000E+00 -0.94716346901E+03  0.18588203298E+04  0.15994043834E+04 0.  0.
        4    1    3    3  502    0  0.75584554885E+03  0.22318624316E+03 -0.31590223431E+03  0.84906444242E+03  0.12699999809E+01 0.  1.
       -4    1    3    3    0  502 -0.75584554885E+03 -0.22318624316E+03 -0.63126123470E+03  0.10097558874E+04  0.12699999809E+01 0. -1.
</event>
<event>
 5   0  0.7395088E-04  0.1300343E+04  0.7818609E-02  0.9029293E-01
        2   -1    0    0  501    0  0.00000000000E+00  0.00000000000E+00  0.22527331281E+04  0.22527331281E+04  0.25500000920E-02 0.  1.
       -2   -1    0    0    0  501  0.00000000000E+00  0.00000000000E+00 -0.18764905674E+03  0.18764905676E+03  0.25500000920E-02 0. -1.
    10030    2    1    2    0    0  0.00000000000E+00  0.00000000000E+00  0.20650840714E+04  0.24403821849E+04  0.13003434110E+04 0.  0.
        1    1    3    3  502    0  0.40915833193E+03  0.26553554265E+03  0.22576230896E+03  0.53748328827E+03  0.50400001928E-02 0. -1.
       -1    1    3    3    0  502 -0.40915833193E+03 -0.26553554265E+03  0.18393217624E+04  0.19028988966E+04  0.50400001928E-02 0.  1.
</event>
<event>
 5   0  0.7488884E-04  0.1637448E+04  0.7818609E-02  0.8797867E-01
       -2   -1    0    0    0  501  0.00000000000E+00  0.00000000000E+00  0.93244909874E+03  0.93244909875E+03  0.25500000920E-02 0. -1.
        2   -1    0    0  501    0  0.00000000000E+00  0.00000000000E+00 -0.71886929195E+03  0.71886929195E+03  0.25500000920E-02 0.  1.
    10030    2    1    2    0    0  0.00000000000E+00  0.00000000000E+00  0.21357980680E+03  0.16513183907E+04  0.16374480430E+04 0.  0.
        3    1    3    3  502    0  0.31404017868E+03 -0.16123415299E+03  0.85175652568E+03  0.92201240510E+03  0.10100000352E+00 0. -1.
       -3    1    3    3    0  502 -0.31404017868E+03  0.16123415299E+03 -0.63817671888E+03  0.72930598560E+03  0.10100000352E+00 0.  1.
</event>
<event>
 5   0  0.7770905E-04  0.1613408E+04  0.7818609E-02  0.8812353E-01
       -2   -1    0    0    0  501  0.00000000000E+00  0.00000000000E+00  0.42343907445E+03  0.42343907446E+03  0.25500000920E-02 0. -1.
        2   -1    0    0  501    0  0.00000000000E+00  0.00000000000E+00 -0.15368718663E+04  0.15368718663E+04  0.25500000920E-02 0.  1.
    10030    2    1    2    0    0  0.00000000000E+00  0.00000000000E+00 -0.11134327919E+04  0.19603109408E+04  0.16134083186E+04 0.  0.
        2    1    3    3  502    0  0.13827860334E+02 -0.51065231166E+02 -0.15347618469E+04  0.15356734010E+04  0.25500000920E-02 0.  1.
       -2    1    3    3    0  502 -0.13827860334E+02  0.51065231166E+02  0.42132905508E+03  0.42463753982E+03  0.25500000920E-02 0. -1.
</event>
<event>
 5   0  0.7395088E-04  0.1589724E+04  0.7818609E-02  0.8826886E-01
        2   -1    0    0  501    0  0.00000000000E+00  0.00000000000E+00  0.15868208475E+04  0.15868208475E+04  0.25500000920E-02 0. -1.
       -2   -1    0    0    0  501  0.00000000000E+00  0.00000000000E+00 -0.39815805314E+03  0.39815805315E+03  0.25500000920E-02 0.  1.
    10030    2    1    2    0    0  0.00000000000E+00  0.00000000000E+00  0.11886627944E+04  0.19849789007E+04  0.15897238746E+04 0.  0.
        1    1    3    3  502    0 -0.69119413345E+03  0.23760335755E+03  0.98441789433E+03  0.12260845307E+04  0.50400001928E-02 0. -1.
       -1    1    3    3    0  502  0.69119413345E+03 -0.23760335755E+03  0.20424490007E+03  0.75889437003E+03  0.50400001928E-02 0.  1.
</event>
<event>
 5   0  0.7415102E-04  0.1605028E+04  0.7818609E-02  0.8817465E-01
        2   -1    0    0  501    0  0.00000000000E+00  0.00000000000E+00  0.16666477237E+04  0.16666477237E+04  0.25500000920E-02 0.  1.
       -2   -1    0    0    0  501  0.00000000000E+00  0.00000000000E+00 -0.38642160879E+03  0.38642160880E+03  0.25500000920E-02 0. -1.
    10030    2    1    2    0    0  0.00000000000E+00  0.00000000000E+00  0.12802261149E+04  0.20530693325E+04  0.16050279682E+04 0.  0.
        5    1    3    3  502    0  0.64606002090E+03  0.41458363104E+03  0.34085387136E+03  0.83992653807E+03  0.46999998093E+01 0. -1.
       -5    1    3    3    0  502 -0.64606002090E+03 -0.41458363104E+03  0.93937224353E+03  0.12131427944E+04  0.46999998093E+01 0.  1.
</event>
<event>
 5   0  0.7770905E-04  0.1636878E+04  0.7818609E-02  0.8798207E-01
       -2   -1    0    0    0  501  0.00000000000E+00  0.00000000000E+00  0.60322827626E+03  0.60322827627E+03  0.25500000920E-02 0.  1.
        2   -1    0    0  501    0  0.00000000000E+00  0.00000000000E+00 -0.11104290171E+04  0.11104290171E+04  0.25500000920E-02 0. -1.
    10030    2    1    2    0    0  0.00000000000E+00  0.00000000000E+00 -0.50720074084E+03  0.17136572934E+04  0.16368777375E+04 0.  0.
        2    1    3    3  502    0 -0.12224023811E+03  0.35740214694E+03  0.50651633810E+03  0.63185264992E+03  0.25500000920E-02 0.  1.
       -2    1    3    3    0  502  0.12224023811E+03 -0.35740214694E+03 -0.10137170789E+04  0.10818046434E+04  0.25500000920E-02 0. -1.
</event>
<event>
 5   0  0.3973227E-04  0.1616260E+04  0.7818609E-02  0.8810621E-01
       -1   -1    0    0    0  501  0.00000000000E+00  0.00000000000E+00  0.13526579470E+04  0.13526579470E+04  0.50400001928E-02 0.  1.
        1   -1    0    0  501    0  0.00000000000E+00  0.00000000000E+00 -0.48280813382E+03  0.48280813385E+03  0.50400001928E-02 0. -1.
    10030    2    1    2    0    0  0.00000000000E+00  0.00000000000E+00  0.86984981320E+03  0.18354660809E+04  0.16162602008E+04 0.  0.
        3    1    3    3  502    0  0.39115070474E+01  0.12405956252E+03  0.13417686381E+04  0.13474973704E+04  0.10100000352E+00 0.  1.
       -3    1    3    3    0  502 -0.39115070474E+01 -0.12405956252E+03 -0.47191882487E+03  0.48796871048E+03  0.10100000352E+00 0. -1.
</event>
<event>
 5   0  0.3889847E-04  0.1598495E+04  0.7818609E-02  0.8821473E-01
        1   -1    0    0  501    0  0.00000000000E+00  0.00000000000E+00  0.82003520771E+03  0.82003520773E+03  0.50400001928E-02 0. -1.
       -1   -1    0    0    0  501  0.00000000000E+00  0.00000000000E+00 -0.77898658966E+03  0.77898658967E+03  0.50400001928E-02 0.  1.
    10030    2    1    2    0    0  0.00000000000E+00  0.00000000000E+00  0.41048618052E+02  0.15990217974E+04  0.15984948294E+04 0.  0.
        1    1    3    3  502    0 -0.71684345236E+03 -0.31009783924E+03 -0.14915243551E+03  0.79515511325E+03  0.50400001928E-02 0.  1.
       -1    1    3    3    0  502  0.71684345236E+03  0.31009783924E+03  0.19020105356E+03  0.80386668415E+03  0.50400001928E-02 0. -1.
</event>
<event>
 5   0  0.7553070E-04  0.1590273E+04  0.7818609E-02  0.8826546E-01
       -2   -1    0    0    0  501  0.00000000000E+00  0.00000000000E+00  0.83010402099E+03  0.83010402099E+03  0.25500000920E-02 0.  1.
        2   -1    0    0  501    0  0.00000000000E+00  0.00000000000E+00 -0.76164172044E+03  0.76164172044E+03  0.25500000920E-02 0. -1.
    10030    2    1    2    0    0  0.00000000000E+00  0.00000000000E+00  0.68462300547E+02  0.15917457414E+04  0.15902727498E+04 0.  0.
        4    1    3    3  502    0  0.36553139254E+03 -0.35434932481E+02 -0.67166772110E+03  0.76551157656E+03  0.12699999809E+01 0. -1.
       -4    1    3    3    0  502 -0.36553139254E+03  0.35434932481E+02  0.74013002165E+03  0.82623416488E+03  0.12699999809E+01 0.  1.
</event>
<event>
 5   0  0.7415102E-04  0.1611439E+04  0.7818609E-02  0.8813552E-01
        2   -1    0    0  501    0  0.00000000000E+00  0.00000000000E+00  0.22033166414E+04  0.22033166414E+04  0.25500000920E-02 0. -1.
       -2   -1    0    0    0  501  0.00000000000E+00  0.00000000000E+00 -0.29463923837E+03  0.29463923838E+03  0.25500000920E-02 0.  1.
    10030    2    1    2    0    0  0.00000000000E+00  0.00000000000E+00  0.19086774030E+04  0.24979558798E+04  0.16114385339E+04 0.  0.
        5    1    3    3  502    0  0.47189554680E+02 -0.65826274497E+03  0.23787069139E+03  0.70152779796E+03  0.46999998093E+01 0.  1.
       -5    1    3    3    0  502 -0.47189554680E+02  0.65826274497E+03  0.16708067116E+04  0.17964280818E+04  0.46999998093E+01 0. -1.
</event>
<event>
 5   0  0.7415102E-04  0.1606646E+04  0.7818609E-02  0.8816475E-01
       -2   -1    0    0    0  501  0.00000000000E+00  0.00000000000E+00  0.70313818752E+03  0.70313818753E+03  0.25500000920E-02 0. -1.
        2   -1    0    0  501    0  0.00000000000E+00  0.00000000000E+00 -0.91778249146E+03  0.91778249146E+03  0.25500000920E-02 0.  1.
    10030    2    1    2    0    0  0.00000000000E+00  0.00000000000E+00 -0.21464430394E+03  0.16209206790E+04  0.16066460937E+04 0.  0.
        5    1    3    3  502    0 -0.31021490375E+03 -0.71578692008E+03 -0.30065359505E+03  0.83606152626E+03  0.46999998093E+01 0. -1.
       -5    1    3    3    0  502  0.31021490375E+03  0.71578692008E+03  0.86009291115E+02  0.78485915273E+03  0.46999998093E+01 0.  1.
</event>
<event>
 5   0  0.3837251E-04  0.1705744E+04  0.7818609E-02  0.8758095E-01
       -1   -1    0    0    0  501  0.00000000000E+00  0.00000000000E+00  0.41850309942E+03  0.41850309945E+03  0.50400001928E-02 0. -1.
        1   -1    0    0  501    0  0.00000000000E+00  0.00000000000E+00 -0.17380774055E+04  0.17380774055E+04  0.50400001928E-02 0.  1.
    10030    2    1    2    0    0  0.00000000000E+00  0.00000000000E+00 -0.13195743061E+04  0.21565805050E+04  0.17057441558E+04 0.  0.
        4    1    3    3  502    0 -0.19672915966E+03 -0.26534068123E+03 -0.16539208129E+04  0.16865834423E+04  0.12699999809E+01 0.  1.
       -4    1    3    3    0  502  0.19672915966E+03  0.26534068123E+03  0.33434650686E+03  0.46999706268E+03  0.12699999809E+01 0. -1.
</event>
<event>
 5   0  0.4110803E-04  0.1537487E+04  0.7818609E-02  0.8859900E-01
       -1   -1    0    0    0  501  0.00000000000E+00  0.00000000000E+00  0.59074403870E+03  0.59074403873E+03  0.50400001928E-02 0.  1.
        1   -1    0    0  501    0  0.00000000000E+00  0.00000000000E+00 -0.10003763039E+04  0.10003763039E+04  0.50400001928E-02 0. -1.
    10030    2    1    2    0    0  0.00000000000E+00  0.00000000000E+00 -0.40963226517E+03  0.15911203426E+04  0.15374866998E+04 0.  0.
        5    1    3    3  502    0  0.59455590142E+03 -0.30851367838E+03 -0.59515653074E+03  0.89605289785E+03  0.46999998093E+01 0. -1.
       -5    1    3    3    0  502 -0.59455590142E+03  0.30851367838E+03  0.18552426556E+03  0.69506744477E+03  0.46999998093E+01 0.  1.
</event>
<event>
 5   0  0.7395088E-04  0.1553800E+04  0.7818609E-02  0.8849444E-01
       -2   -1    0    0    0  501  0.00000000000E+00  0.00000000000E+00  0.64872631858E+03  0.64872631859E+03  0.25500000920E-02 0.  1.
        2   -1    0    0  501    0  0.00000000000E+00  0.00000000000E+00 -0.93039820297E+03  0.93039820298E+03  0.25500000920E-02 0. -1.
    10030    2    1    2    0    0  0.00000000000E+00  0.00000000000E+00 -0.28167188439E+03  0.15791245216E+04  0.15538002459E+04 0.  0.
        1    1    3    3  502    0  0.34815037629E+03  0.68302253331E+03 -0.26876579820E+03  0.81238138817E+03  0.50400001928E-02 0. -1.
       -1    1    3    3    0  502 -0.34815037629E+03 -0.68302253331E+03 -0.12906086190E+02  0.76674313340E+03  0.50400001928E-02 0.  1.
</event>
<event>
 5   0  0.7553070E-04  0.1601578E+04  0.7818609E-02  0.8819579E-01
       -2   -1    0    0    0  501  0.00000000000E+00  0.00000000000E+00  0.28411895330E+03  0.28411895331E+03  0.25500000920E-02 0.  1.
        2   -1    0    0  501    0  0.00000000000E+00  0.00000000000E+00 -0.22570230786E+04  0.22570230786E+04  0.25500000920E-02 0. -1.
    10030    2    1    2    0    0  0.00000000000E+00  0.00000000000E+00 -0.19729041253E+04  0.25411420319E+04  0.16015780152E+04 0.  0.
        4    1    3    3  502    0 -0.41650772159E+03  0.65141744724E+03 -0.65576591953E+03  0.10138313108E+04  0.12699999809E+01 0.  1.
       -4    1    3    3    0  502  0.41650772159E+03 -0.65141744724E+03 -0.13171382057E+04  0.15273107210E+04  0.12699999809E+01 0. -1.
</event>
<event>
 5   0  0.7770905E-04  0.1560391E+04  0.7818609E-02  0.8845258E-01
        2   -1    0    0  501    0  0.00000000000E+00  0.00000000000E+00  0.62731755675E+03  0.62731755676E+03  0.25500000920E-02 0.  1.
       -2   -1    0    0    0  501  0.00000000000E+00  0.00000000000E+00 -0.97033007388E+03  0.97033007389E+03  0.25500000920E-02 0. -1.
    10030    2    1    2    0    0  0.00000000000E+00  0.00000000000E+00 -0.34301251713E+03  0.15976476306E+04  0.15603910935E+04 0.  0.
        2    1    3    3  502    0 -0.64274767174E+03  0.39011300470E+03 -0.38478825562E+03  0.84461513580E+03  0.25500000920E-02 0. -1.
       -2    1    3    3    0  502  0.64274767174E+03 -0.39011300470E+03  0.41775738489E+02  0.75303249484E+03  0.25500000920E-02 0.  1.
</event>
<event>
 5   0  0.7770905E-04  0.1628371E+04  0.7818609E-02  0.8803306E-01
        2   -1    0    0  501    0  0.00000000000E+00  0.00000000000E+00  0.13831818503E+04  0.13831818503E+04  0.25500000920E-02 0. -1.
       -2   -1    0    0    0  501  0.00000000000E+00  0.00000000000E+00 -0.47925568987E+03  0.47925568988E+03  0.25500000920E-02 0.  1.
    10030    2    1    2    0    0  0.00000000000E+00  0.00000000000E+00  0.90392616043E+03  0.18624375402E+04  0.16283706849E+04 0.  0.
        2    1    3    3  502    0  0.28566633105E+03  0.26190819666E+03 -0.36698933292E+03  0.53374369004E+03  0.25500000920E-02 0.  1.
       -2    1    3    3    0  502 -0.28566633105E+03 -0.26190819666E+03  0.12709154933E+04  0.13286938501E+04  0.25500000920E-02 0. -1.
</event>
<event>
 5   0  0.2781000E-04  0.1555380E+04  0.7818609E-02  0.8848438E-01
        4   -1    0    0  501    0  0.00000000000E+00  0.00000000000E+00  0.11709538365E+04  0.11709545252E+04  0.12699999809E+01 0. -1.
       -4   -1    0    0    0  501  0.00000000000E+00  0.00000000000E+00 -0.51650212195E+03  0.51650368331E+03  0.12699999809E+01 0.  1.
    10030    2    1    2    0    0  0.00000000000E+00  0.00000000000E+00  0.65445171453E+03  0.16874582085E+04  0.15553803904E+04 0.  0.
        5    1    3    3  502    0  0.43218196696E+03  0.62499552392E+03  0.50674365637E+03  0.91335200265E+03  0.46999998093E+01 0. -1.
       -5    1    3    3    0  502 -0.43218196696E+03 -0.62499552392E+03  0.14770805816E+03  0.77410620585E+03  0.46999998093E+01 0.  1.
</event>
<event>
 5   0  0.3973227E-04  0.1590941E+04  0.7818609E-02  0.8826133E-01
        1   -1    0    0  501    0  0.00000000000E+00  0.00000000000E+00  0.16516311500E+04  0.16516311500E+04  0.50400001928E-02 0. -1.
       -1   -1    0    0    0  501  0.00000000000E+00  0.00000000000E+00 -0.38312000031E+03  0.38312000034E+03  0.50400001928E-02 0.  1.
    10030    2    1    2    0    0  0.00000000000E+00  0.00000000000E+00  0.12685111497E+04  0.20347511503E+04  0.15909405102E+04 0.  0.
        3    1    3    3  502    0  0.68378986083E+03 -0.37494837785E+03  0.83492640443E+03  0.11424784334E+04  0.10100000352E+00 0.  1.
       -3    1    3    3    0  502 -0.68378986083E+03  0.37494837785E+03  0.43358474526E+03  0.89227271692E+03  0.10100000352E+00 0. -1.
</event>
<event>
 5   0  0.7415102E-04  0.1588214E+04  0.7818609E-02  0.8827822E-01
       -2   -1    0    0    0  501  0.00000000000E+00  0.00000000000E+00  0.56975732504E+03  0.56975732505E+03  0.25500000920E-02 0.  1.
        2   -1    0    0  501    0  0.00000000000E+00  0.00000000000E+00 -0.11067967148E+04  0.11067967148E+04  0.25500000920E-02 0. -1.
    10030    2    1    2    0    0  0.00000000000E+00  0.00000000000E+00 -0.53703938971E+03  0.16765540398E+04  0.15882135065E+04 0.  0.
        5    1    3    3  502    0  0.19061408317E+03  0.65135289281E+01  0.54520530615E+03  0.57762190974E+03  0.46999998093E+01 0.  1.
       -5    1    3    3    0  502 -0.19061408317E+03 -0.65135289281E+01 -0.10822446959E+04  0.10989321301E+04  0.46999998093E+01 0. -1.
</event>
<event>
 5   0  0.7395088E-04  0.1569195E+04  0.7818609E-02  0.8839700E-01
        2   -1    0    0  501    0  0.00000000000E+00  0.00000000000E+00  0.14829535371E+04  0.14829535371E+04  0.25500000920E-02 0.  1.
       -2   -1    0    0    0  501  0.00000000000E+00  0.00000000000E+00 -0.41511279619E+03  0.41511279619E+03  0.25500000920E-02 0. -1.
    10030    2    1    2    0    0  0.00000000000E+00  0.00000000000E+00  0.10678407409E+04  0.18980663333E+04  0.15691946844E+04 0.  0.
        1    1    3    3  502    0 -0.56276884216E+02  0.64310726514E+03 -0.54477642351E+01  0.64558788738E+03  0.50400001928E-02 0. -1.
       -1    1    3    3    0  502  0.56276884216E+02 -0.64310726514E+03  0.10732885052E+04  0.12524784459E+04  0.50400001928E-02 0.  1.
</event>
<event>
 5   0  0.3837251E-04  0.1629820E+04  0.7818609E-02  0.8802435E-01
        1   -1    0    0  501    0  0.00000000000E+00  0.00000000000E+00  0.10214631129E+04  0.10214631129E+04  0.50400001928E-02 0.  1.
       -1   -1    0    0    0  501  0.00000000000E+00  0.00000000000E+00 -0.65012430833E+03  0.65012430835E+03  0.50400001928E-02 0. -1.
    10030    2    1    2    0    0  0.00000000000E+00  0.00000000000E+00  0.37133880459E+03  0.16715874213E+04  0.16298196217E+04 0.  0.
        4    1    3    3  502    0 -0.44330271971E+03 -0.58978454492E+03 -0.16919359015E+03  0.75696181844E+03  0.12699999809E+01 0. -1.
       -4    1    3    3    0  502  0.44330271971E+03  0.58978454492E+03  0.54053239474E+03  0.91462560285E+03  0.12699999809E+01 0.  1.
</event>
<event>
 5   0  0.3973227E-04  0.1592306E+04  0.7818609E-02  0.8825289E-01
        1   -1    0    0  501    0  0.00000000000E+00  0.00000000000E+00  0.98448056238E+03  0.98448056239E+03  0.50400001928E-02 0.  1.
       -1   -1    0    0    0  501  0.00000000000E+00  0.00000000000E+00 -0.64385161081E+03  0.64385161083E+03  0.50400001928E-02 0. -1.
    10030    2    1    2    0    0  0.00000000000E+00  0.00000000000E+00  0.34062895157E+03  0.16283321732E+04  0.15923057444E+04 0.  0.
        3    1    3    3  502    0 -0.21308962019E+03  0.45100255248E+03 -0.46424814175E+03  0.68142265584E+03  0.10100000352E+00 0. -1.
       -3    1    3    3    0  502  0.21308962019E+03 -0.45100255248E+03  0.80487709332E+03  0.94690951739E+03  0.10100000352E+00 0.  1.
</event>
<event>
 5   0  0.7415102E-04  0.1565293E+04  0.7818609E-02  0.8842158E-01
       -2   -1    0    0    0  501  0.00000000000E+00  0.00000000000E+00  0.11884615996E+04  0.11884615996E+04  0.25500000920E-02 0. -1.
        2   -1    0    0  501    0  0.00000000000E+00  0.00000000000E+00 -0.51540209731E+03  0.51540209732E+03  0.25500000920E-02 0.  1.
    10030    2    1    2    0    0  0.00000000000E+00  0.00000000000E+00  0.67305950224E+03  0.17038636969E+04  0.15652930729E+04 0.  0.
        5    1    3    3  502    0 -0.41592276676E+03 -0.19989592336E+03 -0.35153930506E+03  0.58013110680E+03  0.46999998093E+01 0.  1.
       -5    1    3    3    0  502  0.41592276676E+03  0.19989592336E+03  0.10245988073E+04  0.11237325901E+04  0.46999998093E+01 0. -1.
</event>
<event>
 5   0  0.7415102E-04  0.1595550E+04  0.7818609E-02  0.8823287E-01
       -2   -1    0    0    0  501  0.00000000000E+00  0.00000000000E+00  0.33716419491E+03  0.33716419492E+03  0.25500000920E-02 0.  1.
        2   -1    0    0  501    0  0.00000000000E+00  0.00000000000E+00 -0.18876401433E+04  0.18876401433E+04  0.25500000920E-02 0. -1.
    10030    2    1    2    0    0  0.00000000000E+00  0.00000000000E+00 -0.15504759484E+04  0.22248043382E+04  0.15955496472E+04 0.  0.
        5    1    3    3  502    0 -0.59112002175E+03  0.12939248237E+02 -0.15220228419E+04  0.16328398346E+04  0.46999998093E+01 0. -1.
       -5    1    3    3    0  502  0.59112002175E+03 -0.12939248237E+02 -0.28453106504E+02  0.59196450361E+03  0.46999998093E+01 0.  1.
</event>
<event>
 5   0  0.7770905E-04  0.1615309E+04  0.7818609E-02  0.8811198E-01
       -2   -1    0    0    0  501  0.00000000000E+00  0.00000000000E+00  0.80920162104E+03  0.80920162104E+03  0.25500000920E-02 0. -1.
        2   -1    0    0  501    0  0.00000000000E+00  0.00000000000E+00 -0.80611048440E+03  0.80611048440E+03  0.25500000920E-02 0.  1.
    10030    2    1    2    0    0  0.00000000000E+00  0.00000000000E+00  0.30911366413E+01  0.16153121054E+04  0.16153091478E+04 0.  0.
        2    1    3    3  502    0  0.57899439435E+03  0.44974579771E+03  0.34036785193E+03  0.80830443886E+03  0.25500000920E-02 0. -1.
       -2    1    3    3    0  502 -0.57899439435E+03 -0.44974579771E+03 -0.33727671529E+03  0.80700766658E+03  0.25500000920E-02 0.  1.
</event>
<event>
 5   0  0.7553070E-04  0.1533936E+04  0.7818609E-02  0.8862194E-01
        2   -1    0    0  501    0  0.00000000000E+00  0.00000000000E+00  0.17437571259E+04  0.17437571259E+04  0.25500000920E-02 0.  1.
       -2   -1    0    0    0  501  0.00000000000E+00  0.00000000000E+00 -0.33734045973E+03  0.33734045974E+03  0.25500000920E-02 0. -1.
    10030    2    1    2    0    0  0.00000000000E+00  0.00000000000E+00  0.14064166662E+04  0.20810975856E+04  0.15339358924E+04 0.  0.
        4    1    3    3  502    0 -0.23847069051E+03  0.31515701299E+02 -0.28483833386E+03  0.37282167184E+03  0.12699999809E+01 0. -1.
       -4    1    3    3    0  502  0.23847069051E+03 -0.31515701299E+02  0.16912550000E+04  0.17082759138E+04  0.12699999809E+01 0.  1.
</event>
<event>
 5   0  0.3889847E-04  0.1590931E+04  0.7818609E-02  0.8826139E-01
        1   -1    0    0  501    0  0.00000000000E+00  0.00000000000E+00  0.12723920942E+04  0.12723920942E+04  0.50400001928E-02 0. -1.
       -1   -1    0    0    0  501  0.00000000000E+00  0.00000000000E+00 -0.49730380302E+03  0.49730380304E+03  0.50400001928E-02 0.  1.
    10030    2    1    2    0    0  0.00000000000E+00  0.00000000000E+00  0.77508829121E+03  0.17696958973E+04  0.15909310826E+04 0.  0.
        1    1    3    3  502    0  0.32890499167E+03  0.67631175845E+03  0.67587921140E+03  0.10111324328E+04  0.50400001928E-02 0. -1.
       -1    1    3    3    0  502 -0.32890499167E+03 -0.67631175845E+03  0.99209079812E+02  0.75856346452E+03  0.50400001928E-02 0.  1.
</event>
<event>
 5   0  0.3889847E-04  0.1578456E+04  0.7818609E-02  0.8833894E-01
       -1   -1    0    0    0  501  0.00000000000E+00  0.00000000000E+00  0.75338547849E+03  0.75338547850E+03  0.50400001928E-02 0.  1.
        1   -1    0    0  501    0  0.00000000000E+00  0.00000000000E+00 -0.82677607106E+03  0.82677607107E+03  0.50400001928E-02 0. -1.
    10030    2    1    2    0    0  0.00000000000E+00  0.00000000000E+00 -0.73390592571E+02  0.15801615496E+04  0.15784563167E+04 0.  0.
        1    1    3    3  502    0 -0.10743981793E+03 -0.56415740693E+03 -0.57863416553E+03  0.81525112194E+03  0.50400001928E-02 0. -1.
       -1    1    3    3    0  502  0.10743981793E+03  0.56415740693E+03  0.50524357296E+03  0.76491042764E+03  0.50400001928E-02 0.  1.
</event>
<event>
 5   0  0.3973227E-04  0.1587320E+04  0.7818609E-02  0.8828376E-01
       -1   -1    0    0    0  501  0.00000000000E+00  0.00000000000E+00  0.96724109367E+03  0.96724109369E+03  0.50400001928E-02 0.  1.
        1   -1    0    0  501    0  0.00000000000E+00  0.00000000000E+00 -0.65122991461E+03  0.65122991463E+03  0.50400001928E-02 0. -1.
    10030    2    1    2    0    0  0.00000000000E+00  0.00000000000E+00  0.31601117906E+03  0.16184710083E+04  0.15873201755E+04 0.  0.
        3    1    3    3  502    0 -0.24689631546E+03  0.37167831704E+03  0.82723511210E+03  0.93990451794E+03  0.10100000352E+00 0.  1.
       -3    1    3    3    0  502  0.24689631546E+03 -0.37167831704E+03 -0.51122393304E+03  0.67856649038E+03  0.10100000352E+00 0. -1.
</event>
<event>
 5   0  0.7395088E-04  0.1609501E+04  0.7818609E-02  0.8814732E-01
       -2   -1    0    0    0  501  0.00000000000E+00  0.00000000000E+00  0.59728440573E+03  0.59728440573E+03  0.25500000920E-02 0. -1.
        2   -1    0    0  501    0  0.00000000000E+00  0.00000000000E+00 -0.10842801189E+04  0.10842801189E+04  0.25500000920E-02 0.  1.
    10030    2    1    2    0    0  0.00000000000E+00  0.00000000000E+00 -0.48699571318E+03  0.16815645246E+04  0.16095012973E+04 0.  0.
        1    1    3    3  502    0 -0.77074955000E+03 -0.14821066862E+03 -0.42922774341E+03  0.89457125309E+03  0.50400001928E-02 0. -1.
       -1    1    3    3    0  502  0.77074955000E+03  0.14821066862E+03 -0.57767969775E+02  0.78699327156E+03  0.50400001928E-02 0.  1.
</event>
<event>
 5   0  0.2781000E-04  0.1593732E+04  0.7818609E-02  0.8824408E-01
       -3   -1    0    0    0  501  0.00000000000E+00  0.00000000000E+00  0.13255074035E+04  0.13255074073E+04  0.10100000352E+00 0.  1.
        3   -1    0    0  501    0  0.00000000000E+00  0.00000000000E+00 -0.47905807270E+03  0.47905808334E+03  0.10100000352E+00 0. -1.
    10030    2    1    2    0    0  0.00000000000E+00  0.00000000000E+00  0.84644933077E+03  0.18045654907E+04  0.15937315146E+04 0.  0.
        3    1    3    3  502    0 -0.26504175267E+03 -0.60226654699E+03  0.93215435671E+03  0.11410012617E+04  0.10100000352E+00 0.  1.
       -3    1    3    3    0  502  0.26504175267E+03  0.60226654699E+03 -0.85705025939E+02  0.66356422896E+03  0.10100000352E+00 0. -1.
</event>
<event>
 5   0  0.7553070E-04  0.1586369E+04  0.7818609E-02  0.8828966E-01
       -2   -1    0    0    0  501  0.00000000000E+00  0.00000000000E+00  0.51953349557E+03  0.51953349557E+03  0.25500000920E-02 0.  1.
        2   -1    0    0  501    0  0.00000000000E+00  0.00000000000E+00 -0.12109739005E+04  0.12109739005E+04  0.25500000920E-02 0. -1.
    10030    2    1    2    0    0  0.00000000000E+00  0.00000000000E+00 -0.69144040496E+03  0.17305073961E+04  0.15863688141E+04 0.  0.
        4    1    3    3  502    0 -0.52286647358E+03 -0.80664983934E+02 -0.99038445344E+03  0.11228353251E+04  0.12699999809E+01 0. -1.
       -4    1    3    3    0  502  0.52286647358E+03  0.80664983934E+02  0.29894404848E+03  0.60767207098E+03  0.12699999809E+01 0.  1.
</event>
<event>
 5   0  0.3837251E-04  0.1595373E+04  0.7818609E-02  0.8823395E-01
        1   -1    0    0  501    0  0.00000000000E+00  0.00000000000E+00  0.54992889351E+03  0.54992889353E+03  0.50400001928E-02 0.  1.
       -1   -1    0    0    0  501  0.00000000000E+00  0.00000000000E+00 -0.11570660324E+04  0.11570660324E+04  0.50400001928E-02 0. -1.
    10030    2    1    2    0    0  0.00000000000E+00  0.00000000000E+00 -0.60713713890E+03  0.17069949260E+04  0.15953733644E+04 0.  0.
        4    1    3    3  502    0  0.37555191869E+03  0.65389826071E+03 -0.25212385686E+02  0.75449284707E+03  0.12699999809E+01 0.  1.
       -4    1    3    3    0  502 -0.37555191869E+03 -0.65389826071E+03 -0.58192475322E+03  0.95250207889E+03  0.12699999809E+01 0. -1.
</event>
<event>
 5   0  0.4110803E-04  0.1599952E+04  0.7818609E-02  0.8820577E-01
       -1   -1    0    0    0  501  0.00000000000E+00  0.00000000000E+00  0.33748225921E+03  0.33748225924E+03  0.50400001928E-02 0. -1.
        1   -1    0    0  501    0  0.00000000000E+00  0.00000000000E+00 -0.18962831556E+04  0.18962831556E+04  0.50400001928E-02 0.  1.
    10030    2    1    2    0    0  0.00000000000E+00  0.00000000000E+00 -0.15588008964E+04  0.22337654148E+04  0.15999524036E+04 0.  0.
        5    1    3    3  502    0 -0.18362145085E+03  0.28236821559E+03  0.23363828855E+03  0.40994827267E+03  0.46999998093E+01 0. -1.
       -5    1    3    3    0  502  0.18362145085E+03 -0.28236821559E+03 -0.17924391849E+04  0.18238171422E+04  0.46999998093E+01 0.  1.
</event>
<event>
 5   0  0.7395088E-04  0.1584853E+04  0.7818609E-02  0.8829908E-01
       -2   -1    0    0    0  501  0.00000000000E+00  0.00000000000E+00  0.93939020871E+03  0.93939020871E+03  0.25500000920E-02 0.  1.
        2   -1    0    0  501    0  0.00000000000E+00  0.00000000000E+00 -0.66845500131E+03  0.66845500132E+03  0.25500000920E-02 0. -1.
    10030    2    1    2    0    0  0.00000000000E+00  0.00000000000E+00  0.27093520739E+03  0.16078452100E+04  0.15848534105E+04 0.  0.
        1    1    3    3  502    0  0.28784735666E+03 -0.71480304005E+01  0.88444117278E+03  0.93013084198E+03  0.50400001928E-02 0.  1.
       -1    1    3    3    0  502 -0.28784735666E+03  0.71480304005E+01 -0.61350596538E+03  0.67771436805E+03  0.50400001928E-02 0. -1.
</event>
<event>
 5   0  0.3973227E-04  0.1612633E+04  0.7818609E-02  0.8812824E-01
        1   -1    0    0  501    0  0.00000000000E+00  0.00000000000E+00  0.15280093201E+04  0.15280093201E+04  0.50400001928E-02 0.  1.
       -1   -1    0    0    0  501  0.00000000000E+00  0.00000000000E+00 -0.42548592796E+03  0.42548592799E+03  0.50400001928E-02 0. -1.
    10030    2    1    2    0    0  0.00000000000E+00  0.00000000000E+00  0.11025233921E+04  0.19534952481E+04  0.16126332051E+04 0.  0.
        3    1    3    3  502    0 -0.37791054644E+03  0.28265809877E+03 -0.24071341437E+03  0.52976876085E+03  0.10100000352E+00 0. -1.
       -3    1    3    3    0  502  0.37791054644E+03 -0.28265809877E+03  0.13432368065E+04  0.14237264872E+04  0.10100000352E+00 0.  1.
</event>
<event>
 5   0  0.7770905E-04  0.1605819E+04  0.7818609E-02  0.8816981E-01
       -2   -1    0    0    0  501  0.00000000000E+00  0.00000000000E+00  0.38830540447E+03  0.38830540447E+03  0.25500000920E-02 0.  1.
        2   -1    0    0  501    0  0.00000000000E+00  0.00000000000E+00 -0.16601983938E+04  0.16601983938E+04  0.25500000920E-02 0. -1.
    10030    2    1    2    0    0  0.00000000000E+00  0.00000000000E+00 -0.12718929893E+04  0.20485037983E+04  0.16058194280E+04 0.  0.
        2    1    3    3  502    0 -0.14567824935E+03  0.12995116443E+03  0.35756980957E+03  0.40738878997E+03  0.25500000920E-02 0.  1.
       -2    1    3    3    0  502  0.14567824935E+03 -0.12995116443E+03 -0.16294627989E+04  0.16411150083E+04  0.25500000920E-02 0. -1.
</event>
<event>
 5   0  0.7770905E-04  0.1593910E+04  0.7818609E-02  0.8824298E-01
        2   -1    0    0  501    0  0.00000000000E+00  0.00000000000E+00  0.56532198508E+03  0.56532198509E+03  0.25500000920E-02 0.  1.
       -2   -1    0    0    0  501  0.00000000000E+00  0.00000000000E+00 -0.11234970572E+04  0.11234970572E+04  0.25500000920E-02 0. -1.
    10030    2    1    2    0    0  0.00000000000E+00  0.00000000000E+00 -0.55817507211E+03  0.16888190423E+04  0.15939103947E+04 0.  0.
        2    1    3    3  502    0 -0.54885903079E+03  0.48651001049E+03  0.51244670505E+02  0.73523074082E+03  0.25500000920E-02 0.  1.
       -2    1    3    3    0  502  0.54885903079E+03 -0.48651001049E+03 -0.60941974262E+03  0.95358830146E+03  0.25500000920E-02 0. -1.
</event>
<event>
 5   0  0.7553070E-04  0.1391704E+04  0.7818609E-02  0.8959845E-01
        2   -1    0    0  501    0  0.00000000000E+00  0.00000000000E+00  0.23370103213E+04  0.23370103213E+04  0.25500000920E-02 0. -1.
       -2   -1    0    0    0  501  0.00000000000E+00  0.00000000000E+00 -0.20719215490E+03  0.20719215491E+03  0.25500000920E-02 0.  1.
    10030    2    1    2    0    0  0.00000000000E+00  0.00000000000E+00  0.21298181664E+04  0.25442024762E+04  0.13917042854E+04 0.  0.
        4    1    3    3  502    0  0.66575316833E+03  0.11006078716E+03  0.13755170246E+04  0.15321192369E+04  0.12699999809E+01 0. -1.
       -4    1    3    3    0  502 -0.66575316833E+03 -0.11006078716E+03  0.75430114179E+03  0.10120832394E+04  0.12699999809E+01 0.  1.
</event>
<event>
 5   0  0.7415102E-04  0.1614035E+04  0.7818609E-02  0.8811972E-01
        2   -1    0    0  501    0  0.00000000000E+00  0.00000000000E+00  0.11211377529E+04  0.11211377529E+04  0.25500000920E-02 0. -1.
       -2   -1    0    0    0  501  0.00000000000E+00  0.00000000000E+00 -0.58090740604E+03  0.58090740605E+03  0.25500000920E-02 0.  1.
    10030    2    1    2    0    0  0.00000000000E+00  0.00000000000E+00  0.54023034688E+03  0.17020451590E+04  0.16140349734E+04 0.  0.
        5    1    3    3  502    0 -0.52756883444E+03 -0.38102903665E+03  0.77336169560E+03  0.10107533844E+04  0.46999998093E+01 0. -1.
       -5    1    3    3    0  502  0.52756883444E+03  0.38102903665E+03 -0.23313134872E+03  0.69129177458E+03  0.46999998093E+01 0.  1.
</event>
<event>
 5   0  0.7395088E-04  0.1586714E+04  0.7818609E-02  0.8828752E-01
       -2   -1    0    0    0  501  0.00000000000E+00  0.00000000000E+00  0.44677077220E+03  0.44677077221E+03  0.25500000920E-02 0.  1.
        2   -1    0    0  501    0  0.00000000000E+00  0.00000000000E+00 -0.14088109777E+04  0.14088109777E+04  0.25500000920E-02 0. -1.
    10030    2    1    2    0    0  0.00000000000E+00  0.00000000000E+00 -0.96204020545E+03  0.18555817499E+04  0.15867143012E+04 0.  0.
        1    1    3    3  502    0 -0.50428457222E+03  0.27260409664E+03  0.16036669491E+03  0.59525910337E+03  0.50400001928E-02 0.  1.
       -1    1    3    3    0  502  0.50428457222E+03 -0.27260409664E+03 -0.11224069004E+04  0.12603226465E+04  0.50400001928E-02 0. -1.
</event>
<event>
 5   0  0.7415102E-04  0.1507858E+04  0.7818609E-02  0.8879244E-01
        2   -1    0    0  501    0  0.00000000000E+00  0.00000000000E+00  0.63178495409E+03  0.63178495409E+03  0.25500000920E-02 0. -1.
       -2   -1    0    0    0  501  0.00000000000E+00  0.00000000000E+00 -0.89968783146E+03  0.89968783146E+03  0.25500000920E-02 0.  1.
    10030    2    1    2    0    0  0.00000000000E+00  0.00000000000E+00 -0.26790287737E+03  0.15314727856E+04  0.15078583956E+04 0.  0.
        5    1    3    3  502    0 -0.19466896761E+03 -0.62919859680E+03  0.23867329734E+03  0.70055257763E+03  0.46999998093E+01 0. -1.
       -5    1    3    3    0  502  0.19466896761E+03  0.62919859680E+03 -0.50657617471E+03  0.83092020793E+03  0.46999998093E+01 0.  1.
</event>
<event>
 5   0  0.3837251E-04  0.1608324E+04  0.7818609E-02  0.8815450E-01
        1   -1    0    0  501    0  0.00000000000E+00  0.00000000000E+00  0.11210455616E+04  0.11210455616E+04  0.50400001928E-02 0. -1.
       -1   -1    0    0    0  501  0.00000000000E+00  0.00000000000E+00 -0.57685145357E+03  0.57685145359E+03  0.50400001928E-02 0.  1.
    10030    2    1    2    0    0  0.00000000000E+00  0.00000000000E+00  0.54419410806E+03  0.16978970152E+04  0.16083242979E+04 0.  0.
        4    1    3    3  502    0 -0.68056421891E+03  0.18455493969E+03  0.68021084866E+03  0.97975333292E+03  0.12699999809E+01 0. -1.
       -4    1    3    3    0  502  0.68056421891E+03 -0.18455493969E+03 -0.13601674060E+03  0.71814368232E+03  0.12699999809E+01 0.  1.
</event>
<event>
 5   0  0.4110803E-04  0.1644854E+04  0.7818609E-02  0.8793456E-01
        1   -1    0    0  501    0  0.00000000000E+00  0.00000000000E+00  0.12950161348E+04  0.12950161348E+04  0.50400001928E-02 0.  1.
       -1   -1    0    0    0  501  0.00000000000E+00  0.00000000000E+00 -0.52229967567E+03  0.52229967569E+03  0.50400001928E-02 0. -1.
    10030    2    1    2    0    0  0.00000000000E+00  0.00000000000E+00  0.77271645916E+03  0.18173158105E+04  0.16448544096E+04 0.  0.
        5    1    3    3  502    0 -0.30729769899E+03 -0.67847357906E+03  0.77164198662E+03  0.10724792393E+04  0.46999998093E+01 0. -1.
       -5    1    3    3    0  502  0.30729769899E+03  0.67847357906E+03  0.10744725381E+01  0.74483657119E+03  0.46999998093E+01 0.  1.
</event>
<event>
 5   0  0.7553070E-04  0.1360747E+04  0.7818609E-02  0.8982732E-01
       -2   -1    0    0    0  501  0.00000000000E+00  0.00000000000E+00  0.31401955092E+03  0.31401955093E+03  0.25500000920E-02 0.  1.
        2   -1    0    0  501    0  0.00000000000E+00  0.00000000000E+00 -0.14741379443E+04  0.14741379443E+04  0.25500000920E-02 0. -1.
    10030    2    1    2    0    0  0.00000000000E+00  0.00000000000E+00 -0.11601183934E+04  0.17881574952E+04  0.13607470526E+04 0.  0.
        4    1    3    3  502    0  0.46460876414E+03  0.23459576167E+03 -0.11558839661E+04  0.12676615602E+04  0.12699999809E+01 0. -1.
       -4    1    3    3    0  502 -0.46460876414E+03 -0.23459576167E+03 -0.42344272287E+01  0.52049593503E+03  0.12699999809E+01 0.  1.
</event>
<event>
 5   0  0.7770905E-04  0.1565237E+04  0.7818609E-02  0.8842193E-01
       -2   -1    0    0    0  501  0.00000000000E+00  0.00000000000E+00  0.45754798874E+03  0.45754798874E+03  0.25500000920E-02 0.  1.
        2   -1    0    0  501    0  0.00000000000E+00  0.00000000000E+00 -0.13386397073E+04  0.13386397073E+04  0.25500000920E-02 0. -1.
    10030    2    1    2    0    0  0.00000000000E+00  0.00000000000E+00 -0.88109171851E+03  0.17961876960E+04  0.15652372417E+04 0.  0.
        2    1    3    3  502    0 -0.24073128046E+03  0.70723047872E+03 -0.70811305284E+03  0.10293447406E+04  0.25500000920E-02 0. -1.
       -2    1    3    3    0  502  0.24073128046E+03 -0.70723047872E+03 -0.17297866567E+03  0.76684295538E+03  0.25500000920E-02 0.  1.
</event>
<event>
 5   0  0.4110803E-04  0.1604677E+04  0.7818609E-02  0.8817680E-01
        1   -1    0    0  501    0  0.00000000000E+00  0.00000000000E+00  0.92752796207E+03  0.92752796208E+03  0.50400001928E-02 0.  1.
       -1   -1    0    0    0  501  0.00000000000E+00  0.00000000000E+00 -0.69404563078E+03  0.69404563080E+03  0.50400001928E-02 0. -1.
    10030    2    1    2    0    0  0.00000000000E+00  0.00000000000E+00  0.23348233128E+03  0.16215735929E+04  0.16046765774E+04 0.  0.
        5    1    3    3  502    0 -0.31216154343E+03 -0.68731743461E+03 -0.15791957510E+03  0.77123975994E+03  0.46999998093E+01 0. -1.
       -5    1    3    3    0  502  0.31216154343E+03  0.68731743461E+03  0.39140190638E+03  0.85033383294E+03  0.46999998093E+01 0.  1.
</event>
<event>
 5   0  0.3950195E-04  0.1617697E+04  0.7818609E-02  0.8809749E-01
        1   -1    0    0  501    0  0.00000000000E+00  0.00000000000E+00  0.15477074175E+04  0.15477074175E+04  0.50400001928E-02 0. -1.
       -1   -1    0    0    0  501  0.00000000000E+00  0.00000000000E+00 -0.42271295406E+03  0.42271295409E+03  0.50400001928E-02 0.  1.
    10030    2    1    2    0    0  0.00000000000E+00  0.00000000000E+00  0.11249944634E+04  0.19704203716E+04  0.16176970971E+04 0.  0.
        2    1    3    3  502    0  0.87417895736E+02  0.79829173395E+03  0.68011474117E+03  0.10523628852E+04  0.25500000920E-02 0. -1.
       -2    1    3    3    0  502 -0.87417895736E+02 -0.79829173395E+03  0.44487972223E+03  0.91805748635E+03  0.25500000920E-02 0.  1.
</event>
<event>
 5   0  0.7415102E-04  0.1613112E+04  0.7818609E-02  0.8812533E-01
        2   -1    0    0  501    0  0.00000000000E+00  0.00000000000E+00  0.78839173942E+03  0.78839173942E+03  0.25500000920E-02 0.  1.
       -2   -1    0    0    0  501  0.00000000000E+00  0.00000000000E+00 -0.82513892882E+03  0.82513892882E+03  0.25500000920E-02 0. -1.
    10030    2    1    2    0    0  0.00000000000E+00  0.00000000000E+00 -0.36747189399E+02  0.16135306682E+04  0.16131121664E+04 0.  0.
        5    1    3    3  502    0  0.77407717775E+03  0.21570906202E+03 -0.87563419239E+02  0.80834109071E+03  0.46999998093E+01 0. -1.
       -5    1    3    3    0  502 -0.77407717775E+03 -0.21570906202E+03  0.50816229841E+02  0.80518957753E+03  0.46999998093E+01 0.  1.
</event>
<event>
 5   0  0.3950195E-04  0.1617769E+04  0.7818609E-02  0.8809706E-01
        1   -1    0    0  501    0  0.00000000000E+00  0.00000000000E+00  0.10644639575E+04  0.10644639575E+04  0.50400001928E-02 0. -1.
       -1   -1    0    0    0  501  0.00000000000E+00  0.00000000000E+00 -0.61466999928E+03  0.61466999930E+03  0.50400001928E-02 0.  1.
    10030    2    1    2    0    0  0.00000000000E+00  0.00000000000E+00  0.44979395821E+03  0.16791339568E+04  0.16177689081E+04 0.  0.
        2    1    3    3  502    0  0.20405964881E+03  0.78103729923E+03  0.17162308869E+03  0.82529636351E+03  0.25500000920E-02 0. -1.
       -2    1    3    3    0  502 -0.20405964881E+03 -0.78103729923E+03  0.27817086952E+03  0.85383759329E+03  0.25500000920E-02 0.  1.
</event>
<event>
 5   0  0.3973227E-04  0.1599216E+04  0.7818609E-02  0.8821030E-01
        1   -1    0    0  501    0  0.00000000000E+00  0.00000000000E+00  0.19117189893E+04  0.19117189893E+04  0.50400001928E-02 0. -1.
       -1   -1    0    0    0  501  0.00000000000E+00  0.00000000000E+00 -0.33444916339E+03  0.33444916343E+03  0.50400001928E-02 0.  1.
    10030    2    1    2    0    0  0.00000000000E+00  0.00000000000E+00  0.15772698259E+04  0.22461681527E+04  0.15992158287E+04 0.  0.
        3    1    3    3  502    0  0.43970588106E+03  0.51549832211E+03  0.19225274720E+03  0.70430171868E+03  0.10100000352E+00 0.  1.
       -3    1    3    3    0  502 -0.43970588106E+03 -0.51549832211E+03  0.13850170787E+04  0.15418664340E+04  0.10100000352E+00 0. -1.
</event>
<event>
 5   0  0.3889847E-04  0.1564769E+04  0.7818609E-02  0.8842489E-01
        1   -1    0    0  501    0  0.00000000000E+00  0.00000000000E+00  0.69562186700E+03  0.69562186702E+03  0.50400001928E-02 0. -1.
       -1   -1    0    0    0  501  0.00000000000E+00  0.00000000000E+00 -0.87996901567E+03  0.87996901568E+03  0.50400001928E-02 0.  1.
    10030    2    1    2    0    0  0.00000000000E+00  0.00000000000E+00 -0.18434714867E+03  0.15755908827E+04  0.15647692349E+04 0.  0.
        1    1    3    3  502    0  0.83942150023E+02 -0.32159513699E+03  0.62100149660E+03  0.70435259316E+03  0.50400001928E-02 0. -1.
       -1    1    3    3    0  502 -0.83942150023E+02  0.32159513699E+03 -0.80534864527E+03  0.87123828954E+03  0.50400001928E-02 0.  1.
</event>
<event>
 5   0  0.7395088E-04  0.1664996E+04  0.7818609E-02  0.8781584E-01
       -2   -1    0    0    0  501  0.00000000000E+00  0.00000000000E+00  0.36525255871E+03  0.36525255872E+03  0.25500000920E-02 0.  1.
        2   -1    0    0  501    0  0.00000000000E+00  0.00000000000E+00 -0.18974619060E+04  0.18974619060E+04  0.25500000920E-02 0. -1.
    10030    2    1    2    0    0  0.00000000000E+00  0.00000000000E+00 -0.15322093473E+04  0.22627144647E+04  0.16649958753E+04 0.  0.
        1    1    3    3  502    0 -0.12549506586E+03  0.16787568684E+03 -0.18610176622E+04  0.18727834890E+04  0.50400001928E-02 0. -1.
       -1    1    3    3    0  502  0.12549506586E+03 -0.16787568684E+03  0.32880831492E+03  0.38993097566E+03  0.50400001928E-02 0.  1.
</event>
<event>
 5   0  0.2781000E-04  0.1610232E+04  0.7818609E-02  0.8814287E-01
        3   -1    0    0  501    0  0.00000000000E+00  0.00000000000E+00  0.57657920171E+03  0.57657921055E+03  0.10100000352E+00 0.  1.
       -3   -1    0    0    0  501  0.00000000000E+00  0.00000000000E+00 -0.11242366538E+04  0.11242366583E+04  0.10100000352E+00 0. -1.
    10030    2    1    2    0    0  0.00000000000E+00  0.00000000000E+00 -0.54765745209E+03  0.17008158689E+04  0.16102316402E+04 0.  0.
        5    1    3    3  502    0  0.34456229400E+03  0.40119083580E+03  0.36737323006E+03  0.64394288671E+03  0.46999998093E+01 0.  1.
       -5    1    3    3    0  502 -0.34456229400E+03 -0.40119083580E+03 -0.91503068216E+03  0.10568729822E+04  0.46999998093E+01 0. -1.
</event>
<event>
 5   0  0.7488884E-04  0.1520259E+04  0.7818609E-02  0.8871091E-01
       -2   -1    0    0    0  501  0.00000000000E+00  0.00000000000E+00  0.61551030566E+03  0.61551030566E+03  0.25500000920E-02 0.  1.
        2   -1    0    0  501    0  0.00000000000E+00  0.00000000000E+00 -0.93872861291E+03  0.93872861291E+03  0.25500000920E-02 0. -1.
    10030    2    1    2    0    0  0.00000000000E+00  0.00000000000E+00 -0.32321830725E+03  0.15542389186E+04  0.15202593666E+04 0.  0.
        3    1    3    3  502    0  0.59696523052E+03 -0.45071456549E+03 -0.23360892256E+02  0.74836945921E+03  0.10100000352E+00 0.  1.
       -3    1    3    3    0  502 -0.59696523052E+03  0.45071456549E+03 -0.29985741500E+03  0.80586945936E+03  0.10100000352E+00 0. -1.
</event>
<event>
 5   0  0.7415102E-04  0.1584345E+04  0.7818609E-02  0.8830224E-01
       -2   -1    0    0    0  501  0.00000000000E+00  0.00000000000E+00  0.10783855344E+04  0.10783855344E+04  0.25500000920E-02 0. -1.
        2   -1    0    0  501    0  0.00000000000E+00  0.00000000000E+00 -0.58192298520E+03  0.58192298520E+03  0.25500000920E-02 0.  1.
    10030    2    1    2    0    0  0.00000000000E+00  0.00000000000E+00  0.49646254924E+03  0.16603085197E+04  0.15843450753E+04 0.  0.
        5    1    3    3  502    0  0.75377149706E+03  0.15771019533E+02  0.50298148448E+03  0.90632922195E+03  0.46999998093E+01 0. -1.
       -5    1    3    3    0  502 -0.75377149706E+03 -0.15771019533E+02 -0.65189352319E+01  0.75397929770E+03  0.46999998093E+01 0.  1.
</event>
<event>
 5   0  0.7553070E-04  0.1500196E+04  0.7818609E-02  0.8884322E-01
        2   -1    0    0  501    0  0.00000000000E+00  0.00000000000E+00  0.56836520372E+03  0.56836520373E+03  0.25500000920E-02 0.  1.
       -2   -1    0    0    0  501  0.00000000000E+00  0.00000000000E+00 -0.98993950314E+03  0.98993950314E+03  0.25500000920E-02 0. -1.
    10030    2    1    2    0    0  0.00000000000E+00  0.00000000000E+00 -0.42157429941E+03  0.15583047069E+04  0.15001962103E+04 0.  0.
        4    1    3    3  502    0  0.60007221783E+03 -0.30882448588E+03 -0.55086160292E+03  0.87115403239E+03  0.12699999809E+01 0. -1.
       -4    1    3    3    0  502 -0.60007221783E+03  0.30882448588E+03  0.12928730350E+03  0.68715067448E+03  0.12699999809E+01 0.  1.
</event>
<event>
 5   0  0.7395088E-04  0.1596696E+04  0.7818609E-02  0.8822580E-01
        2   -1    0    0  501    0  0.00000000000E+00  0.00000000000E+00  0.14281429218E+04  0.14281429218E+04  0.25500000920E-02 0. -1.
       -2   -1    0    0    0  501  0.00000000000E+00  0.00000000000E+00 -0.44628553168E+03  0.44628553168E+03  0.25500000920E-02 0.  1.
    10030    2    1    2    0    0  0.00000000000E+00  0.00000000000E+00  0.98185739010E+03  0.18744284535E+04  0.15966959926E+04 0.  0.
        1    1    3    3  502    0 -0.64284697726E+03  0.26448621115E+03  0.30009814543E+02  0.69577710587E+03  0.50400001928E-02 0.  1.
       -1    1    3    3    0  502  0.64284697726E+03 -0.26448621115E+03  0.95184757556E+03  0.11786513476E+04  0.50400001928E-02 0. -1.
</event>
<event>
 5   0  0.3950195E-04  0.1591990E+04  0.7818609E-02  0.8825484E-01
        1   -1    0    0  501    0  0.00000000000E+00  0.00000000000E+00  0.13831870249E+04  0.13831870249E+04  0.50400001928E-02 0. -1.
       -1   -1    0    0    0  501  0.00000000000E+00  0.00000000000E+00 -0.45807828231E+03  0.45807828233E+03  0.50400001928E-02 0.  1.
    10030    2    1    2    0    0  0.00000000000E+00  0.00000000000E+00  0.92510874261E+03  0.18412653073E+04  0.15919898700E+04 0.  0.
        2    1    3    3  502    0  0.55180076144E+03  0.37208339572E+03  0.96759479406E+03  0.11743806109E+04  0.25500000920E-02 0. -1.
       -2    1    3    3    0  502 -0.55180076144E+03 -0.37208339572E+03 -0.42486051452E+02  0.66688469639E+03  0.25500000920E-02 0.  1.
</event>
<event>
 5   0  0.3973227E-04  0.1602464E+04  0.7818609E-02  0.8819036E-01
        1   -1    0    0  501    0  0.00000000000E+00  0.00000000000E+00  0.73262722284E+03  0.73262722285E+03  0.50400001928E-02 0.  1.
       -1   -1    0    0    0  501  0.00000000000E+00  0.00000000000E+00 -0.87626105098E+03  0.87626105100E+03  0.50400001928E-02 0. -1.
    10030    2    1    2    0    0  0.00000000000E+00  0.00000000000E+00 -0.14363382815E+03  0.16088882738E+04  0.16024639781E+04 0.  0.
        3    1    3    3  502    0  0.78997065498E+03  0.11879130473E+03 -0.98631285276E+01  0.79891320011E+03  0.10100000352E+00 0.  1.
       -3    1    3    3    0  502 -0.78997065498E+03 -0.11879130473E+03 -0.13377069962E+03  0.80997507374E+03  0.10100000352E+00 0. -1.
</event>
<event>
 5   0  0.7488884E-04  0.1467428E+04  0.7818609E-02  0.8906407E-01
        2   -1    0    0  501    0  0.00000000000E+00  0.00000000000E+00  0.28111806836E+04  0.28111806836E+04  0.25500000920E-02 0.  1.
       -2   -1    0    0    0  501  0.00000000000E+00  0.00000000000E+00 -0.19149820593E+03  0.19149820595E+03  0.25500000920E-02 0. -1.
    10030    2    1    2    0    0  0.00000000000E+00  0.00000000000E+00  0.26196824777E+04  0.30026788895E+04  0.14674277597E+04 0.  0.
        3    1    3    3  502    0 -0.32114078916E+03  0.65942076851E+03  0.12705404633E+04  0.14670515450E+04  0.10100000352E+00 0. -1.
       -3    1    3    3    0  502  0.32114078916E+03 -0.65942076851E+03  0.13491420143E+04  0.15356273446E+04  0.10100000352E+00 0.  1.
</event>
<event>
 5   0  0.7488884E-04  0.1531053E+04  0.7818609E-02  0.8864061E-01
       -2   -1    0    0    0  501  0.00000000000E+00  0.00000000000E+00  0.41878300144E+03  0.41878300145E+03  0.25500000920E-02 0. -1.
        2   -1    0    0  501    0  0.00000000000E+00  0.00000000000E+00 -0.13993668703E+04  0.13993668703E+04  0.25500000920E-02 0.  1.
    10030    2    1    2    0    0  0.00000000000E+00  0.00000000000E+00 -0.98058386884E+03  0.18181498717E+04  0.15310533081E+04 0.  0.
        3    1    3    3  502    0  0.63288289672E+03 -0.32760886150E+03 -0.15829107981E+03  0.73001671436E+03  0.10100000352E+00 0. -1.
       -3    1    3    3    0  502 -0.63288289672E+03  0.32760886150E+03 -0.82229278903E+03  0.10881331574E+04  0.10100000352E+00 0.  1.
</event>
<event>
 5   0  0.3950195E-04  0.1559117E+04  0.7818609E-02  0.8846066E-01
        1   -1    0    0  501    0  0.00000000000E+00  0.00000000000E+00  0.63414187732E+03  0.63414187734E+03  0.50400001928E-02 0.  1.
       -1   -1    0    0    0  501  0.00000000000E+00  0.00000000000E+00 -0.95832035918E+03  0.95832035919E+03  0.50400001928E-02 0. -1.
    10030    2    1    2    0    0  0.00000000000E+00  0.00000000000E+00 -0.32417848186E+03  0.15924622365E+04  0.15591165084E+04 0.  0.
        2    1    3    3  502    0 -0.20857080200E+03 -0.75090410853E+03 -0.18126066160E+03  0.80013385574E+03  0.25500000920E-02 0. -1.
       -2    1    3    3    0  502  0.20857080200E+03  0.75090410853E+03 -0.14291782026E+03  0.79232838079E+03  0.25500000920E-02 0.  1.
</event>
<event>
 5   0  0.3889847E-04  0.1529263E+04  0.7818609E-02  0.8865223E-01
       -1   -1    0    0    0  501  0.00000000000E+00  0.00000000000E+00  0.83086247855E+03  0.83086247856E+03  0.50400001928E-02 0.  1.
        1   -1    0    0  501    0  0.00000000000E+00  0.00000000000E+00 -0.70367966721E+03  0.70367966723E+03  0.50400001928E-02 0. -1.
    10030    2    1    2    0    0  0.00000000000E+00  0.00000000000E+00  0.12718281134E+03  0.15345421458E+04  0.15292626098E+04 0.  0.
        1    1    3    3  502    0  0.32998057574E+03  0.17874164886E+03  0.73209349032E+03  0.82267650750E+03  0.50400001928E-02 0.  1.
       -1    1    3    3    0  502 -0.32998057574E+03 -0.17874164886E+03 -0.60491067898E+03  0.71186563829E+03  0.50400001928E-02 0. -1.
</event>
<event>
 5   0  0.7415102E-04  0.1604131E+04  0.7818609E-02  0.8818014E-01
        2   -1    0    0  501    0  0.00000000000E+00  0.00000000000E+00  0.79971456407E+03  0.79971456407E+03  0.25500000920E-02 0.  1.
       -2   -1    0    0    0  501  0.00000000000E+00  0.00000000000E+00 -0.80442354329E+03  0.80442354330E+03  0.25500000920E-02 0. -1.
    10030    2    1    2    0    0  0.00000000000E+00  0.00000000000E+00 -0.47089792237E+01  0.16041381074E+04  0.16041311957E+04 0.  0.
        5    1    3    3  502    0  0.54275503030E+03  0.23298132206E+03 -0.54496517055E+03  0.80366189810E+03  0.46999998093E+01 0. -1.
       -5    1    3    3    0  502 -0.54275503030E+03 -0.23298132206E+03  0.54025619133E+03  0.80047620927E+03  0.46999998093E+01 0.  1.
</event>
<event>
 5   0  0.3837251E-04  0.1608738E+04  0.7818609E-02  0.8815198E-01
        1   -1    0    0  501    0  0.00000000000E+00  0.00000000000E+00  0.13126934654E+04  0.13126934654E+04  0.50400001928E-02 0.  1.
       -1   -1    0    0    0  501  0.00000000000E+00  0.00000000000E+00 -0.49288722463E+03  0.49288722466E+03  0.50400001928E-02 0. -1.
    10030    2    1    2    0    0  0.00000000000E+00  0.00000000000E+00  0.81980624074E+03  0.18055806900E+04  0.16087384361E+04 0.  0.
        4    1    3    3  502    0 -0.11586374604E+03 -0.53455821463E+03 -0.25203259467E+03  0.60224491210E+03  0.12699999809E+01 0. -1.
       -4    1    3    3    0  502  0.11586374604E+03  0.53455821463E+03  0.10718388354E+04  0.12033357779E+04  0.12699999809E+01 0.  1.
</event>
<event>
 5   0  0.3889847E-04  0.1605811E+04  0.7818609E-02  0.8816986E-01
       -1   -1    0    0    0  501  0.00000000000E+00  0.00000000000E+00  0.21316818842E+03  0.21316818848E+03  0.50400001928E-02 0.  1.
        1   -1    0    0  501    0  0.00000000000E+00  0.00000000000E+00 -0.30241701327E+04  0.30241701327E+04  0.50400001928E-02 0. -1.
    10030    2    1    2    0    0  0.00000000000E+00  0.00000000000E+00 -0.28110019442E+04  0.32373383211E+04  0.16058105352E+04 0.  0.
        1    1    3    3  502    0  0.58314709087E+03 -0.63298117531E+02 -0.30019930846E+03  0.65892852883E+03  0.50400001928E-02 0.  1.
       -1    1    3    3    0  502 -0.58314709087E+03  0.63298117531E+02 -0.25108026358E+04  0.25784097923E+04  0.50400001928E-02 0. -1.
</event>
<event>
 5   0  0.7553070E-04  0.1636971E+04  0.7818609E-02  0.8798152E-01
        2   -1    0    0  501    0  0.00000000000E+00  0.00000000000E+00  0.49241429696E+03  0.49241429696E+03  0.25500000920E-02 0.  1.
       -2   -1    0    0    0  501  0.00000000000E+00  0.00000000000E+00 -0.13604777650E+04  0.13604777650E+04  0.25500000920E-02 0. -1.
    10030    2    1    2    0    0  0.00000000000E+00  0.00000000000E+00 -0.86806346805E+03  0.18528920620E+04  0.16369712303E+04 0.  0.
        4    1    3    3  502    0 -0.79425631324E+03  0.17563094336E+03 -0.53670328983E+03  0.97454674264E+03  0.12699999809E+01 0.  1.
       -4    1    3    3    0  502  0.79425631324E+03 -0.17563094336E+03 -0.33136017822E+03  0.87834531933E+03  0.12699999809E+01 0. -1.
</event>
<event>
 5   0  0.3889847E-04  0.1605817E+04  0.7818609E-02  0.8816983E-01
        1   -1    0    0  501    0  0.00000000000E+00  0.00000000000E+00  0.48652473322E+03  0.48652473324E+03  0.50400001928E-02 0. -1.
       -1   -1    0    0    0  501  0.00000000000E+00  0.00000000000E+00 -0.13250340674E+04  0.13250340674E+04  0.50400001928E-02 0.  1.
    10030    2    1    2    0    0  0.00000000000E+00  0.00000000000E+00 -0.83850933420E+03  0.18115588007E+04  0.16058167345E+04 0.  0.
        1    1    3    3  502    0 -0.33114672048E+03  0.49720595294E+02  0.40399038735E+03  0.52472709210E+03  0.50400001928E-02 0. -1.
       -1    1    3    3    0  502  0.33114672048E+03 -0.49720595294E+02 -0.12424997216E+04  0.12868317086E+04  0.50400001928E-02 0.  1.
</event>
<event>
 5   0  0.3889847E-04  0.1601382E+04  0.7818609E-02  0.8819699E-01
        1   -1    0    0  501    0  0.00000000000E+00  0.00000000000E+00  0.16748415664E+04  0.16748415664E+04  0.50400001928E-02 0.  1.
       -1   -1    0    0    0  501  0.00000000000E+00  0.00000000000E+00 -0.38278625392E+03  0.38278625395E+03  0.50400001928E-02 0. -1.
    10030    2    1    2    0    0  0.00000000000E+00  0.00000000000E+00  0.12920553125E+04  0.20576278204E+04  0.16013823143E+04 0.  0.
        1    1    3    3  502    0  0.42799158494E+02 -0.46581829393E+03 -0.18895240113E+03  0.50450120004E+03  0.50400001928E-02 0. -1.
       -1    1    3    3    0  502 -0.42799158494E+02  0.46581829393E+03  0.14810077136E+04  0.15531266203E+04  0.50400001928E-02 0.  1.
</event>
<event>
 5   0  0.3889847E-04  0.1597024E+04  0.7818609E-02  0.8822378E-01
       -1   -1    0    0    0  501  0.00000000000E+00  0.00000000000E+00  0.29324292098E+03  0.29324292102E+03  0.50400001928E-02 0.  1.
        1   -1    0    0  501    0  0.00000000000E+00  0.00000000000E+00 -0.21743796629E+04  0.21743796629E+04  0.50400001928E-02 0. -1.
    10030    2    1    2    0    0  0.00000000000E+00  0.00000000000E+00 -0.18811367420E+04  0.24676225840E+04  0.15970240371E+04 0.  0.
        1    1    3    3  502    0  0.26852733480E+03 -0.68555688530E+03 -0.46300754319E+03  0.86975350393E+03  0.50400001928E-02 0. -1.
       -1    1    3    3    0  502 -0.26852733480E+03  0.68555688530E+03 -0.14181291988E+04  0.15978690800E+04  0.50400001928E-02 0.  1.
</event>
<event>
 5   0  0.4110803E-04  0.1614422E+04  0.7818609E-02  0.8811737E-01
       -1   -1    0    0    0  501  0.00000000000E+00  0.00000000000E+00  0.76381002897E+03  0.76381002898E+03  0.50400001928E-02 0. -1.
        1   -1    0    0  501    0  0.00000000000E+00  0.00000000000E+00 -0.85307838847E+03  0.85307838848E+03  0.50400001928E-02 0.  1.
    10030    2    1    2    0    0  0.00000000000E+00  0.00000000000E+00 -0.89268359503E+02  0.16168884175E+04  0.16144222851E+04 0.  0.
        5    1    3    3  502    0 -0.73808195249E+03 -0.81884633822E+02 -0.36149964246E+03  0.82593834113E+03  0.46999998093E+01 0. -1.
       -5    1    3    3    0  502  0.73808195249E+03  0.81884633822E+02  0.27223128296E+03  0.79095007634E+03  0.46999998093E+01 0.  1.
</event>
<event>
 5   0  0.4110803E-04  0.1593565E+04  0.7818609E-02  0.8824511E-01
       -1   -1    0    0    0  501  0.00000000000E+00  0.00000000000E+00  0.63158261053E+03  0.63158261055E+03  0.50400001928E-02 0. -1.
        1   -1    0    0  501    0  0.00000000000E+00  0.00000000000E+00 -0.10051928285E+04  0.10051928285E+04  0.50400001928E-02 0.  1.
    10030    2    1    2    0    0  0.00000000000E+00  0.00000000000E+00 -0.37361021798E+03  0.16367754391E+04  0.15935649478E+04 0.  0.
        5    1    3    3  502    0  0.44380525105E+03  0.41401902273E+03  0.34339488441E+03  0.69736431560E+03  0.46999998093E+01 0. -1.
       -5    1    3    3    0  502 -0.44380525105E+03 -0.41401902273E+03 -0.71700510240E+03  0.93941112347E+03  0.46999998093E+01 0.  1.
</event>
<event>
 5   0  0.3950195E-04  0.1647811E+04  0.7818609E-02  0.8791702E-01
       -1   -1    0    0    0  501  0.00000000000E+00  0.00000000000E+00  0.57073544548E+03  0.57073544550E+03  0.50400001928E-02 0. -1.
        1   -1    0    0  501    0  0.00000000000E+00  0.00000000000E+00 -0.11893784232E+04  0.11893784232E+04  0.50400001928E-02 0.  1.
    10030    2    1    2    0    0  0.00000000000E+00  0.00000000000E+00 -0.61864297774E+03  0.17601138687E+04  0.16478111837E+04 0.  0.
        2    1    3    3  502    0  0.68661190501E+03 -0.39304581104E+03 -0.55499545065E+03  0.96640616095E+03  0.25500000920E-02 0. -1.
       -2    1    3    3    0  502 -0.68661190501E+03  0.39304581104E+03 -0.63647527092E+02  0.79370770778E+03  0.25500000920E-02 0.  1.
</event>
<event>
 5   0  0.3950195E-04  0.1683622E+04  0.7818609E-02  0.8770761E-01
       -1   -1    0    0    0  501  0.00000000000E+00  0.00000000000E+00  0.39641539971E+03  0.39641539975E+03  0.50400001928E-02 0. -1.
        1   -1    0    0  501    0  0.00000000000E+00  0.00000000000E+00 -0.17876338426E+04  0.17876338426E+04  0.50400001928E-02 0.  1.
    10030    2    1    2    0    0  0.00000000000E+00  0.00000000000E+00 -0.13912184429E+04  0.21840492424E+04  0.16836217916E+04 0.  0.
        2    1    3    3  502    0  0.11371966913E+03 -0.36208599471E+02  0.38538527080E+03  0.40344148619E+03  0.25500000920E-02 0. -1.
       -2    1    3    3    0  502 -0.11371966913E+03  0.36208599471E+02 -0.17766037137E+04  0.17806077562E+04  0.25500000920E-02 0.  1.
</event>
<event>
 5   0  0.3950195E-04  0.1551690E+04  0.7818609E-02  0.8850789E-01
       -1   -1    0    0    0  501  0.00000000000E+00  0.00000000000E+00  0.53313747670E+03  0.53313747673E+03  0.50400001928E-02 0. -1.
        1   -1    0    0  501    0  0.00000000000E+00  0.00000000000E+00 -0.11290429106E+04  0.11290429107E+04  0.50400001928E-02 0.  1.
    10030    2    1    2    0    0  0.00000000000E+00  0.00000000000E+00 -0.59590543394E+03  0.16621803874E+04  0.15516895160E+04 0.  0.
        2    1    3    3  502    0  0.73771403796E+03  0.14327841328E+03 -0.91389200867E+02  0.75703546255E+03  0.25500000920E-02 0. -1.
       -2    1    3    3    0  502 -0.73771403796E+03 -0.14327841328E+03 -0.50451623307E+03  0.90514492483E+03  0.25500000920E-02 0.  1.
</event>
<event>
 5   0  0.7415102E-04  0.1602031E+04  0.7818609E-02  0.8819301E-01
        2   -1    0    0  501    0  0.00000000000E+00  0.00000000000E+00  0.20945015927E+04  0.20945015927E+04  0.25500000920E-02 0. -1.
       -2   -1    0    0    0  501  0.00000000000E+00  0.00000000000E+00 -0.30633821934E+03  0.30633821935E+03  0.25500000920E-02 0.  1.
    10030    2    1    2    0    0  0.00000000000E+00  0.00000000000E+00  0.17881633734E+04  0.24008398121E+04  0.16020310713E+04 0.  0.
        5    1    3    3  502    0  0.48332302995E+03 -0.10463570555E+03 -0.50233655920E+02  0.49708680564E+03  0.46999998093E+01 0.  1.
       -5    1    3    3    0  502 -0.48332302995E+03  0.10463570555E+03  0.18383970293E+04  0.19037530064E+04  0.46999998093E+01 0. -1.
</event>
<event>
 5   0  0.3889847E-04  0.1605994E+04  0.7818609E-02  0.8816874E-01
       -1   -1    0    0    0  501  0.00000000000E+00  0.00000000000E+00  0.32518501548E+03  0.32518501552E+03  0.50400001928E-02 0. -1.
        1   -1    0    0  501    0  0.00000000000E+00  0.00000000000E+00 -0.19828829041E+04  0.19828829041E+04  0.50400001928E-02 0.  1.
    10030    2    1    2    0    0  0.00000000000E+00  0.00000000000E+00 -0.16576978886E+04  0.23080679196E+04  0.16059935341E+04 0.  0.
        1    1    3    3  502    0  0.21491562506E+03 -0.38245183719E+03  0.13773597060E+03  0.45981445311E+03  0.50400001928E-02 0. -1.
       -1    1    3    3    0  502 -0.21491562506E+03  0.38245183719E+03 -0.17954338592E+04  0.18482534665E+04  0.50400001928E-02 0.  1.
</event>
<event>
 5   0  0.2781000E-04  0.1643128E+04  0.7818609E-02  0.8794482E-01
        3   -1    0    0  501    0  0.00000000000E+00  0.00000000000E+00  0.67264660197E+03  0.67264660955E+03  0.10100000352E+00 0. -1.
       -3   -1    0    0    0  501  0.00000000000E+00  0.00000000000E+00 -0.10034498544E+04  0.10034498595E+04  0.10100000352E+00 0.  1.
    10030    2    1    2    0    0  0.00000000000E+00  0.00000000000E+00 -0.33080325247E+03  0.16760964691E+04  0.16431276827E+04 0.  0.
        4    1    3    3  502    0 -0.76985263168E+03  0.65963131545E+02 -0.45018300363E+03  0.89425419143E+03  0.12699999809E+01 0. -1.
       -4    1    3    3    0  502  0.76985263168E+03 -0.65963131545E+02  0.11937975116E+03  0.78184227765E+03  0.12699999809E+01 0.  1.
</event>
<event>
 5   0  0.7415102E-04  0.1611850E+04  0.7818609E-02  0.8813301E-01
       -2   -1    0    0    0  501  0.00000000000E+00  0.00000000000E+00  0.61046787465E+03  0.61046787465E+03  0.25500000920E-02 0.  1.
        2   -1    0    0  501    0  0.00000000000E+00  0.00000000000E+00 -0.10639631820E+04  0.10639631820E+04  0.25500000920E-02 0. -1.
    10030    2    1    2    0    0  0.00000000000E+00  0.00000000000E+00 -0.45349530735E+03  0.16744310567E+04  0.16118502938E+04 0.  0.
        5    1    3    3  502    0  0.66523789445E+03  0.29640261007E+03 -0.58525124089E+03  0.93431101269E+03  0.46999998093E+01 0. -1.
       -5    1    3    3    0  502 -0.66523789445E+03 -0.29640261007E+03  0.13175593354E+03  0.74012004397E+03  0.46999998093E+01 0.  1.
</event>
<event>
 5   0  0.3837251E-04  0.1601695E+04  0.7818609E-02  0.8819508E-01
        1   -1    0    0  501    0  0.00000000000E+00  0.00000000000E+00  0.17299395655E+04  0.17299395655E+04  0.50400001928E-02 0.  1.
       -1   -1    0    0    0  501  0.00000000000E+00  0.00000000000E+00 -0.37073923860E+03  0.37073923863E+03  0.50400001928E-02 0. -1.
    10030    2    1    2    0    0  0.00000000000E+00  0.00000000000E+00  0.13592003269E+04  0.21006788042E+04  0.16016946992E+04 0.  0.
        4    1    3    3  502    0  0.21563906297E+03  0.77002564429E+03  0.73699636398E+03  0.10874764143E+04  0.12699999809E+01 0. -1.
       -4    1    3    3    0  502 -0.21563906297E+03 -0.77002564429E+03  0.62220396296E+03  0.10132023898E+04  0.12699999809E+01 0.  1.
</event>
<event>
 5   0  0.7553070E-04  0.1608230E+04  0.7818609E-02  0.8815508E-01
        2   -1    0    0  501    0  0.00000000000E+00  0.00000000000E+00  0.13334630230E+04  0.13334630230E+04  0.25500000920E-02 0. -1.
       -2   -1    0    0    0  501  0.00000000000E+00  0.00000000000E+00 -0.48490371027E+03  0.48490371028E+03  0.25500000920E-02 0.  1.
    10030    2    1    2    0    0  0.00000000000E+00  0.00000000000E+00  0.84855931277E+03  0.18183667333E+04  0.16082302912E+04 0.  0.
        4    1    3    3  502    0  0.88073817521E+02 -0.58786492511E+03 -0.18801112375E+03  0.62345165255E+03  0.12699999809E+01 0.  1.
       -4    1    3    3    0  502 -0.88073817521E+02  0.58786492511E+03  0.10365704365E+04  0.11949150808E+04  0.12699999809E+01 0. -1.
</event>
<event>
 5   0  0.7395088E-04  0.1598896E+04  0.7818609E-02  0.8821226E-01
        2   -1    0    0  501    0  0.00000000000E+00  0.00000000000E+00  0.20473368896E+04  0.20473368896E+04  0.25500000920E-02 0. -1.
       -2   -1    0    0    0  501  0.00000000000E+00  0.00000000000E+00 -0.31217015717E+03  0.31217015718E+03  0.25500000920E-02 0.  1.
    10030    2    1    2    0    0  0.00000000000E+00  0.00000000000E+00  0.17351667324E+04  0.23595070468E+04  0.15988964677E+04 0.  0.
        1    1    3    3  502    0  0.31780502871E+03  0.63257360012E+03  0.14157217946E+04  0.15828510971E+04  0.50400001928E-02 0. -1.
       -1    1    3    3    0  502 -0.31780502871E+03 -0.63257360012E+03  0.31944493781E+03  0.77665594967E+03  0.50400001928E-02 0.  1.
</event>
<event>
 5   0  0.3973227E-04  0.1583463E+04  0.7818609E-02  0.8830772E-01
       -1   -1    0    0    0  501  0.00000000000E+00  0.00000000000E+00  0.27065413148E+03  0.27065413152E+03  0.50400001928E-02 0. -1.
        1   -1    0    0  501    0  0.00000000000E+00  0.00000000000E+00 -0.23160138760E+04  0.23160138760E+04  0.50400001928E-02 0.  1.
    10030    2    1    2    0    0  0.00000000000E+00  0.00000000000E+00 -0.20453597446E+04  0.25866680076E+04  0.15834629445E+04 0.  0.
        3    1    3    3  502    0 -0.56642815370E+03 -0.31244204678E+03 -0.17683702525E+04  0.18829748395E+04  0.10100000352E+00 0.  1.
       -3    1    3    3    0  502  0.56642815370E+03  0.31244204678E+03 -0.27698949202E+03  0.70369316807E+03  0.10100000352E+00 0. -1.
</event>
<event>
 5   0  0.7488884E-04  0.1618542E+04  0.7818609E-02  0.8809237E-01
        2   -1    0    0  501    0  0.00000000000E+00  0.00000000000E+00  0.67389317609E+03  0.67389317609E+03  0.25500000920E-02 0. -1.
       -2   -1    0    0    0  501  0.00000000000E+00  0.00000000000E+00 -0.97184520687E+03  0.97184520687E+03  0.25500000920E-02 0.  1.
    10030    2    1    2    0    0  0.00000000000E+00  0.00000000000E+00 -0.29795203078E+03  0.16457383830E+04  0.16185423728E+04 0.  0.
        3    1    3    3  502    0 -0.95604450293E+02 -0.68546882441E+03 -0.57544220838E+03  0.90007858854E+03  0.10100000352E+00 0.  1.
       -3    1    3    3    0  502  0.95604450293E+02  0.68546882441E+03  0.27749017761E+03  0.74565979443E+03  0.10100000352E+00 0. -1.
</event>
<event>
 5   0  0.3837251E-04  0.1313904E+04  0.7818609E-02  0.9018612E-01
       -1   -1    0    0    0  501  0.00000000000E+00  0.00000000000E+00  0.94013420228E+03  0.94013420229E+03  0.50400001928E-02 0.  1.
        1   -1    0    0  501    0  0.00000000000E+00  0.00000000000E+00 -0.45906815166E+03  0.45906815169E+03  0.50400001928E-02 0. -1.
    10030    2    1    2    0    0  0.00000000000E+00  0.00000000000E+00  0.48106605062E+03  0.13992023540E+04  0.13139036047E+04 0.  0.
        4    1    3    3  502    0 -0.75687021772E+02  0.64775362241E+03  0.32486217166E+03  0.72859475985E+03  0.12699999809E+01 0.  1.
       -4    1    3    3    0  502  0.75687021772E+02 -0.64775362241E+03  0.15620387896E+03  0.67060759413E+03  0.12699999809E+01 0. -1.
</event>
<event>
 5   0  0.7770905E-04  0.1617894E+04  0.7818609E-02  0.8809630E-01
        2   -1    0    0  501    0  0.00000000000E+00  0.00000000000E+00  0.14490221724E+04  0.14490221724E+04  0.25500000920E-02 0. -1.
       -2   -1    0    0    0  501  0.00000000000E+00  0.00000000000E+00 -0.45161141802E+03  0.45161141803E+03  0.25500000920E-02 0.  1.
    10030    2    1    2    0    0  0.00000000000E+00  0.00000000000E+00  0.99741075439E+03  0.19006335904E+04  0.16178936406E+04 0.  0.
        2    1    3    3  502    0 -0.56907042106E+03  0.48941954392E+02 -0.17425618747E+03  0.59716134997E+03  0.25500000920E-02 0.  1.
       -2    1    3    3    0  502  0.56907042106E+03 -0.48941954392E+02  0.11716669419E+04  0.13034722405E+04  0.25500000920E-02 0. -1.
</event>
<event>
 5   0  0.3837251E-04  0.1621114E+04  0.7818609E-02  0.8807681E-01
       -1   -1    0    0    0  501  0.00000000000E+00  0.00000000000E+00  0.93624459040E+03  0.93624459041E+03  0.50400001928E-02 0.  1.
        1   -1    0    0  501    0  0.00000000000E+00  0.00000000000E+00 -0.70174255437E+03  0.70174255439E+03  0.50400001928E-02 0. -1.
    10030    2    1    2    0    0  0.00000000000E+00  0.00000000000E+00  0.23450203602E+03  0.16379871448E+04  0.16211140249E+04 0.  0.
        4    1    3    3  502    0 -0.68708619112E+03  0.37785214527E+03 -0.90169302777E+02  0.78929829201E+03  0.12699999809E+01 0.  1.
       -4    1    3    3    0  502  0.68708619112E+03 -0.37785214527E+03  0.32467133880E+03  0.84868885279E+03  0.12699999809E+01 0. -1.
</event>
<event>
 5   0  0.3837251E-04  0.1592316E+04  0.7818609E-02  0.8825283E-01
        1   -1    0    0  501    0  0.00000000000E+00  0.00000000000E+00  0.91985128473E+03  0.91985128474E+03  0.50400001928E-02 0.  1.
       -1   -1    0    0    0  501  0.00000000000E+00  0.00000000000E+00 -0.68909790593E+03  0.68909790595E+03  0.50400001928E-02 0. -1.
    10030    2    1    2    0    0  0.00000000000E+00  0.00000000000E+00  0.23075337880E+03  0.16089491907E+04  0.15923160416E+04 0.  0.
        4    1    3    3  502    0  0.57629977950E+02  0.69215453647E+03  0.50862953769E+03  0.86087440212E+03  0.12699999809E+01 0.  1.
       -4    1    3    3    0  502 -0.57629977950E+02 -0.69215453647E+03 -0.27787615889E+03  0.74807478857E+03  0.12699999809E+01 0. -1.
</event>
<event>
 5   0  0.3950195E-04  0.1588698E+04  0.7818609E-02  0.8827522E-01
       -1   -1    0    0    0  501  0.00000000000E+00  0.00000000000E+00  0.78279844511E+03  0.78279844512E+03  0.50400001928E-02 0. -1.
        1   -1    0    0  501    0  0.00000000000E+00  0.00000000000E+00 -0.80606965011E+03  0.80606965012E+03  0.50400001928E-02 0.  1.
    10030    2    1    2    0    0  0.00000000000E+00  0.00000000000E+00 -0.23271205000E+02  0.15888680952E+04  0.15886976664E+04 0.  0.
        2    1    3    3  502    0 -0.58622506581E+03 -0.19651797541E+03  0.48712715727E+03  0.78712896644E+03  0.25500000920E-02 0. -1.
       -2    1    3    3    0  502  0.58622506581E+03  0.19651797541E+03 -0.51039836227E+03  0.80173912881E+03  0.25500000920E-02 0.  1.
</event>
<event>
 5   0  0.7770905E-04  0.1584312E+04  0.7818609E-02  0.8830244E-01
       -2   -1    0    0    0  501  0.00000000000E+00  0.00000000000E+00  0.38329292447E+03  0.38329292448E+03  0.25500000920E-02 0.  1.
        2   -1    0    0  501    0  0.00000000000E+00  0.00000000000E+00 -0.16371571027E+04  0.16371571027E+04  0.25500000920E-02 0. -1.
    10030    2    1    2    0    0  0.00000000000E+00  0.00000000000E+00 -0.12538641782E+04  0.20204500272E+04  0.15843115018E+04 0.  0.
        2    1    3    3  502    0 -0.52575474236E+03 -0.45045681790E+03 -0.11178448221E+04  0.13148788691E+04  0.25500000920E-02 0. -1.
       -2    1    3    3    0  502  0.52575474236E+03  0.45045681790E+03 -0.13601935608E+03  0.70557115810E+03  0.25500000920E-02 0.  1.
</event>
<event>
 5   0  0.7395088E-04  0.1607921E+04  0.7818609E-02  0.8815696E-01
       -2   -1    0    0    0  501  0.00000000000E+00  0.00000000000E+00  0.60726141348E+03  0.60726141348E+03  0.25500000920E-02 0. -1.
        2   -1    0    0  501    0  0.00000000000E+00  0.00000000000E+00 -0.10643728849E+04  0.10643728849E+04  0.25500000920E-02 0.  1.
    10030    2    1    2    0    0  0.00000000000E+00  0.00000000000E+00 -0.45711147140E+03  0.16716342984E+04  0.16079211206E+04 0.  0.
        1    1    3    3  502    0  0.57241038333E+03 -0.54401707956E+03 -0.71767553683E+02  0.79294313263E+03  0.50400001928E-02 0.  1.
       -1    1    3    3    0  502 -0.57241038333E+03  0.54401707956E+03 -0.38534391772E+03  0.87869116574E+03  0.50400001928E-02 0. -1.
</event>
<event>
 5   0  0.2781000E-04  0.1603982E+04  0.7818609E-02  0.8818106E-01
        4   -1    0    0  501    0  0.00000000000E+00  0.00000000000E+00  0.11167100567E+04  0.11167107789E+04  0.12699999809E+01 0. -1.
       -4   -1    0    0    0  501  0.00000000000E+00  0.00000000000E+00 -0.57596652128E+03  0.57596792145E+03  0.12699999809E+01 0.  1.
    10030    2    1    2    0    0  0.00000000000E+00  0.00000000000E+00  0.54074353543E+03  0.16926787003E+04  0.16039817990E+04 0.  0.
        2    1    3    3  502    0 -0.21857685849E+03  0.21987139945E+03  0.10509143376E+04  0.10956916630E+04  0.25500000920E-02 0. -1.
       -2    1    3    3    0  502  0.21857685849E+03 -0.21987139945E+03 -0.51017080217E+03  0.59698703734E+03  0.25500000920E-02 0.  1.
</event>
<event>
 5   0  0.7395088E-04  0.1617200E+04  0.7818609E-02  0.8810051E-01
       -2   -1    0    0    0  501  0.00000000000E+00  0.00000000000E+00  0.89864811274E+03  0.89864811275E+03  0.25500000920E-02 0.  1.
        2   -1    0    0  501    0  0.00000000000E+00  0.00000000000E+00 -0.72757482999E+03  0.72757483000E+03  0.25500000920E-02 0. -1.
    10030    2    1    2    0    0  0.00000000000E+00  0.00000000000E+00  0.17107328275E+03  0.16262229427E+04  0.16171997376E+04 0.  0.
        1    1    3    3  502    0 -0.20819085324E+03 -0.25601460933E+02  0.87081305352E+03  0.89571995645E+03  0.50400001928E-02 0.  1.
       -1    1    3    3    0  502  0.20819085324E+03  0.25601460933E+02 -0.69973977077E+03  0.73050298630E+03  0.50400001928E-02 0. -1.
</event>
<event>
 5   0  0.3889847E-04  0.1594746E+04  0.7818609E-02  0.8823782E-01
        1   -1    0    0  501    0  0.00000000000E+00  0.00000000000E+00  0.16731282482E+04  0.16731282483E+04  0.50400001928E-02 0.  1.
       -1   -1    0    0    0  501  0.00000000000E+00  0.00000000000E+00 -0.38000896833E+03  0.38000896837E+03  0.50400001928E-02 0. -1.
    10030    2    1    2    0    0  0.00000000000E+00  0.00000000000E+00  0.12931192799E+04  0.20531372166E+04  0.15947460482E+04 0.  0.
        1    1    3    3  502    0  0.51178508292E+03  0.49288485959E+03  0.18068431065E+03  0.73314819515E+03  0.50400001928E-02 0.  1.
       -1    1    3    3    0  502 -0.51178508292E+03 -0.49288485959E+03  0.11124349693E+04  0.13199890215E+04  0.50400001928E-02 0. -1.
</event>
<event>
 5   0  0.7415102E-04  0.1593392E+04  0.7818609E-02  0.8824618E-01
        2   -1    0    0  501    0  0.00000000000E+00  0.00000000000E+00  0.23716580315E+04  0.23716580315E+04  0.25500000920E-02 0.  1.
       -2   -1    0    0    0  501  0.00000000000E+00  0.00000000000E+00 -0.26762891966E+03  0.26762891967E+03  0.25500000920E-02 0. -1.
    10030    2    1    2    0    0  0.00000000000E+00  0.00000000000E+00  0.21040291118E+04  0.26392869512E+04  0.15933916992E+04 0.  0.
        5    1    3    3  502    0 -0.19525245006E+02  0.56974427525E+03  0.13020041573E+03  0.58477689133E+03  0.46999998093E+01 0. -1.
       -5    1    3    3    0  502  0.19525245006E+02 -0.56974427525E+03  0.19738286961E+04  0.20545100598E+04  0.46999998093E+01 0.  1.
</event>
<event>
 5   0  0.2781000E-04  0.1573074E+04  0.7818609E-02  0.8837263E-01
        3   -1    0    0  501    0  0.00000000000E+00  0.00000000000E+00  0.68911024466E+03  0.68911025206E+03  0.10100000352E+00 0.  1.
       -3   -1    0    0    0  501  0.00000000000E+00  0.00000000000E+00 -0.89773796391E+03  0.89773796959E+03  0.10100000352E+00 0. -1.
    10030    2    1    2    0    0  0.00000000000E+00  0.00000000000E+00 -0.20862771925E+03  0.15868482217E+04  0.15730739822E+04 0.  0.
        3    1    3    3  502    0  0.32045911647E+03 -0.21103352175E+03  0.58829207096E+03  0.70236512128E+03  0.10100000352E+00 0.  1.
       -3    1    3    3    0  502 -0.32045911647E+03  0.21103352175E+03 -0.79691979021E+03  0.88448310038E+03  0.10100000352E+00 0. -1.
</event>
<event>
 5   0  0.7553070E-04  0.1632015E+04  0.7818609E-02  0.8801118E-01
        2   -1    0    0  501    0  0.00000000000E+00  0.00000000000E+00  0.84902051851E+03  0.84902051851E+03  0.25500000920E-02 0.  1.
       -2   -1    0    0    0  501  0.00000000000E+00  0.00000000000E+00 -0.78427804983E+03  0.78427804983E+03  0.25500000920E-02 0. -1.
    10030    2    1    2    0    0  0.00000000000E+00  0.00000000000E+00  0.64742468675E+02  0.16332985683E+04  0.16320148976E+04 0.  0.
        4    1    3    3  502    0 -0.34389010304E+03 -0.33717674443E+03  0.69161387062E+03  0.84278106225E+03  0.12699999809E+01 0.  1.
       -4    1    3    3    0  502  0.34389010304E+03  0.33717674443E+03 -0.62687140195E+03  0.79051750609E+03  0.12699999809E+01 0. -1.
</event>
<event>
 5   0  0.7553070E-04  0.1589088E+04  0.7818609E-02  0.8827280E-01
        2   -1    0    0  501    0  0.00000000000E+00  0.00000000000E+00  0.98314780980E+03  0.98314780980E+03  0.25500000920E-02 0. -1.
       -2   -1    0    0    0  501  0.00000000000E+00  0.00000000000E+00 -0.64212162551E+03  0.64212162552E+03  0.25500000920E-02 0.  1.
    10030    2    1    2    0    0  0.00000000000E+00  0.00000000000E+00  0.34102618429E+03  0.16252694353E+04  0.15890883799E+04 0.  0.
        4    1    3    3  502    0 -0.38252356249E+03  0.50384398436E+03 -0.32117778870E+03  0.70946446090E+03  0.12699999809E+01 0.  1.
       -4    1    3    3    0  502  0.38252356249E+03 -0.50384398436E+03  0.66220397299E+03  0.91580497442E+03  0.12699999809E+01 0. -1.
</event>
<event>
 5   0  0.3950195E-04  0.1531346E+04  0.7818609E-02  0.8863872E-01
       -1   -1    0    0    0  501  0.00000000000E+00  0.00000000000E+00  0.44173281697E+03  0.44173281700E+03  0.50400001928E-02 0. -1.
        1   -1    0    0  501    0  0.00000000000E+00  0.00000000000E+00 -0.13271705295E+04  0.13271705295E+04  0.50400001928E-02 0.  1.
    10030    2    1    2    0    0  0.00000000000E+00  0.00000000000E+00 -0.88543771252E+03  0.17689033465E+04  0.15313455216E+04 0.  0.
        2    1    3    3  502    0  0.36283691419E+03  0.62525083201E+03 -0.73418166752E+03  0.10303455489E+04  0.25500000920E-02 0.  1.
       -2    1    3    3    0  502 -0.36283691419E+03 -0.62525083201E+03 -0.15125604500E+03  0.73855779759E+03  0.25500000920E-02 0. -1.
</event>
<event>
 5   0  0.3889847E-04  0.1555050E+04  0.7818609E-02  0.8848648E-01
        1   -1    0    0  501    0  0.00000000000E+00  0.00000000000E+00  0.89304260462E+03  0.89304260463E+03  0.50400001928E-02 0.  1.
       -1   -1    0    0    0  501  0.00000000000E+00  0.00000000000E+00 -0.67695023899E+03  0.67695023901E+03  0.50400001928E-02 0. -1.
    10030    2    1    2    0    0  0.00000000000E+00  0.00000000000E+00  0.21609236563E+03  0.15699928436E+04  0.15550503589E+04 0.  0.
        1    1    3    3  502    0  0.36184087081E+03 -0.20538994410E+03 -0.55509984185E+03  0.69372161518E+03  0.50400001928E-02 0. -1.
       -1    1    3    3    0  502 -0.36184087081E+03  0.20538994410E+03  0.77119220748E+03  0.87627122846E+03  0.50400001928E-02 0.  1.
</event>
<event>
 5   0  0.4110803E-04  0.1578084E+04  0.7818609E-02  0.8834126E-01
        1   -1    0    0  501    0  0.00000000000E+00  0.00000000000E+00  0.22788326053E+04  0.22788326053E+04  0.50400001928E-02 0. -1.
       -1   -1    0    0    0  501  0.00000000000E+00  0.00000000000E+00 -0.27320457431E+03  0.27320457436E+03  0.50400001928E-02 0.  1.
    10030    2    1    2    0    0  0.00000000000E+00  0.00000000000E+00  0.20056280310E+04  0.25520371797E+04  0.15780842714E+04 0.  0.
        5    1    3    3  502    0  0.40138815282E+03 -0.23029437473E+03  0.20363103783E+04  0.20882360966E+04  0.46999998093E+01 0. -1.
       -5    1    3    3    0  502 -0.40138815282E+03  0.23029437473E+03 -0.30682347305E+02  0.46380108310E+03  0.46999998093E+01 0.  1.
</event>
<event>
 5   0  0.7553070E-04  0.1601450E+04  0.7818609E-02  0.8819658E-01
        2   -1    0    0  501    0  0.00000000000E+00  0.00000000000E+00  0.72172197631E+03  0.72172197631E+03  0.25500000920E-02 0. -1.
       -2   -1    0    0    0  501  0.00000000000E+00  0.00000000000E+00 -0.88837624767E+03  0.88837624768E+03  0.25500000920E-02 0.  1.
    10030    2    1    2    0    0  0.00000000000E+00  0.00000000000E+00 -0.16665427137E+03  0.16100982240E+04  0.16014501693E+04 0.  0.
        4    1    3    3  502    0  0.23423136953E+03  0.42191686710E+03  0.55909198348E+03  0.73855510025E+03  0.12699999809E+01 0. -1.
       -4    1    3    3    0  502 -0.23423136953E+03 -0.42191686710E+03 -0.72574625485E+03  0.87154312374E+03  0.12699999809E+01 0.  1.
</event>
<event>
 5   0  0.7415102E-04  0.1545779E+04  0.7818609E-02  0.8854568E-01
       -2   -1    0    0    0  501  0.00000000000E+00  0.00000000000E+00  0.70522381357E+03  0.70522381358E+03  0.25500000920E-02 0. -1.
        2   -1    0    0  501    0  0.00000000000E+00  0.00000000000E+00 -0.84704767484E+03  0.84704767485E+03  0.25500000920E-02 0.  1.
    10030    2    1    2    0    0  0.00000000000E+00  0.00000000000E+00 -0.14182386127E+03  0.15522714884E+04  0.15457790159E+04 0.  0.
        5    1    3    3  502    0 -0.23330296895E+03 -0.95260406744E+02  0.66279442740E+03  0.70910039021E+03  0.46999998093E+01 0. -1.
       -5    1    3    3    0  502  0.23330296895E+03  0.95260406744E+02 -0.80461828866E+03  0.84317109821E+03  0.46999998093E+01 0.  1.
</event>
<event>
 5   0  0.7395088E-04  0.1524974E+04  0.7818609E-02  0.8868013E-01
       -2   -1    0    0    0  501  0.00000000000E+00  0.00000000000E+00  0.29388658193E+03  0.29388658194E+03  0.25500000920E-02 0.  1.
        2   -1    0    0  501    0  0.00000000000E+00  0.00000000000E+00 -0.19782679011E+04  0.19782679011E+04  0.25500000920E-02 0. -1.
    10030    2    1    2    0    0  0.00000000000E+00  0.00000000000E+00 -0.16843813191E+04  0.22721544830E+04  0.15249739560E+04 0.  0.
        1    1    3    3  502    0 -0.23528586245E+03 -0.38574391261E+03 -0.17573099876E+04  0.18144685712E+04  0.50400001928E-02 0. -1.
       -1    1    3    3    0  502  0.23528586245E+03  0.38574391261E+03  0.72928668476E+02  0.45768591184E+03  0.50400001928E-02 0.  1.
</event>
<event>
 5   0  0.7395088E-04  0.1658430E+04  0.7818609E-02  0.8785435E-01
        2   -1    0    0  501    0  0.00000000000E+00  0.00000000000E+00  0.18713233684E+04  0.18713233684E+04  0.25500000920E-02 0. -1.
       -2   -1    0    0    0  501  0.00000000000E+00  0.00000000000E+00 -0.36743935275E+03  0.36743935276E+03  0.25500000920E-02 0.  1.
    10030    2    1    2    0    0  0.00000000000E+00  0.00000000000E+00  0.15038840156E+04  0.22387627211E+04  0.16584303992E+04 0.  0.
        1    1    3    3  502    0  0.45993523659E+03 -0.51651534063E+03  0.13694798941E+04  0.15342111000E+04  0.50400001928E-02 0. -1.
       -1    1    3    3    0  502 -0.45993523659E+03  0.51651534063E+03  0.13440412154E+03  0.70455162116E+03  0.50400001928E-02 0.  1.
</event>
<event>
 5   0  0.4110803E-04  0.1650159E+04  0.7818609E-02  0.8790312E-01
        1   -1    0    0  501    0  0.00000000000E+00  0.00000000000E+00  0.88567339448E+03  0.88567339450E+03  0.50400001928E-02 0.  1.
       -1   -1    0    0    0  501  0.00000000000E+00  0.00000000000E+00 -0.76863139530E+03  0.76863139532E+03  0.50400001928E-02 0. -1.
    10030    2    1    2    0    0  0.00000000000E+00  0.00000000000E+00  0.11704199918E+03  0.16543047898E+04  0.16501592372E+04 0.  0.
        5    1    3    3  502    0 -0.35150328655E+03  0.72984494825E+03 -0.98416445715E+02  0.81604907679E+03  0.46999998093E+01 0. -1.
       -5    1    3    3    0  502  0.35150328655E+03 -0.72984494825E+03  0.21545844489E+03  0.83825571303E+03  0.46999998093E+01 0.  1.
</event>
<event>
 5   0  0.4110803E-04  0.1608235E+04  0.7818609E-02  0.8815505E-01
        1   -1    0    0  501    0  0.00000000000E+00  0.00000000000E+00  0.91738011971E+03  0.91738011973E+03  0.50400001928E-02 0.  1.
       -1   -1    0    0    0  501  0.00000000000E+00  0.00000000000E+00 -0.70483890304E+03  0.70483890306E+03  0.50400001928E-02 0. -1.
    10030    2    1    2    0    0  0.00000000000E+00  0.00000000000E+00  0.21254121667E+03  0.16222190228E+04  0.16082353028E+04 0.  0.
        5    1    3    3  502    0 -0.50101681920E+03 -0.40637875288E+03  0.59046689899E+03  0.87454833641E+03  0.46999998093E+01 0.  1.
       -5    1    3    3    0  502  0.50101681920E+03  0.40637875288E+03 -0.37792568232E+03  0.74767068638E+03  0.46999998093E+01 0. -1.
</event>
<event>
 5   0  0.7553070E-04  0.1603488E+04  0.7818609E-02  0.8818408E-01
        2   -1    0    0  501    0  0.00000000000E+00  0.00000000000E+00  0.41503674530E+03  0.41503674530E+03  0.25500000920E-02 0.  1.
       -2   -1    0    0    0  501  0.00000000000E+00  0.00000000000E+00 -0.15487621439E+04  0.15487621439E+04  0.25500000920E-02 0. -1.
    10030    2    1    2    0    0  0.00000000000E+00  0.00000000000E+00 -0.11337253986E+04  0.19637988892E+04  0.16034876981E+04 0.  0.
        4    1    3    3  502    0 -0.24052605328E+02  0.56531682221E+03  0.12877597310E+03  0.58029863126E+03  0.12699999809E+01 0.  1.
       -4    1    3    3    0  502  0.24052605328E+02 -0.56531682221E+03 -0.12625013717E+04  0.13835002580E+04  0.12699999809E+01 0. -1.
</event>
<event>
 5   0  0.3837251E-04  0.1586455E+04  0.7818609E-02  0.8828913E-01
       -1   -1    0    0    0  501  0.00000000000E+00  0.00000000000E+00  0.57461280160E+03  0.57461280163E+03  0.50400001928E-02 0.  1.
        1   -1    0    0  501    0  0.00000000000E+00  0.00000000000E+00 -0.10950152232E+04  0.10950152233E+04  0.50400001928E-02 0. -1.
    10030    2    1    2    0    0  0.00000000000E+00  0.00000000000E+00 -0.52040242164E+03  0.16696280249E+04  0.15864548720E+04 0.  0.
        4    1    3    3  502    0  0.49806925449E+03  0.63981706473E+02 -0.90643042422E+03  0.10362356720E+04  0.12699999809E+01 0. -1.
       -4    1    3    3    0  502 -0.49806925449E+03 -0.63981706473E+02  0.38602800258E+03  0.63339235290E+03  0.12699999809E+01 0.  1.
</event>
<event>
 5   0  0.7553070E-04  0.1600032E+04  0.7818609E-02  0.8820528E-01
        2   -1    0    0  501    0  0.00000000000E+00  0.00000000000E+00  0.75479621514E+03  0.75479621514E+03  0.25500000920E-02 0. -1.
       -2   -1    0    0    0  501  0.00000000000E+00  0.00000000000E+00 -0.84794517632E+03  0.84794517632E+03  0.25500000920E-02 0.  1.
    10030    2    1    2    0    0  0.00000000000E+00  0.00000000000E+00 -0.93148961182E+02  0.16027413915E+04  0.16000322618E+04 0.  0.
        4    1    3    3  502    0 -0.24825036329E+03  0.45725059899E+03 -0.65531871229E+03  0.83675001089E+03  0.12699999809E+01 0.  1.
       -4    1    3    3    0  502  0.24825036329E+03 -0.45725059899E+03  0.56216975111E+03  0.76599138057E+03  0.12699999809E+01 0. -1.
</event>
<event>
 5   0  0.3973227E-04  0.1651735E+04  0.7818609E-02  0.8789381E-01
        1   -1    0    0  501    0  0.00000000000E+00  0.00000000000E+00  0.74324286770E+03  0.74324286772E+03  0.50400001928E-02 0. -1.
       -1   -1    0    0    0  501  0.00000000000E+00  0.00000000000E+00 -0.91767723939E+03  0.91767723940E+03  0.50400001928E-02 0.  1.
    10030    2    1    2    0    0  0.00000000000E+00  0.00000000000E+00 -0.17443437169E+03  0.16609201071E+04  0.16517349219E+04 0.  0.
        3    1    3    3  502    0 -0.44328673706E+03  0.63359469436E+03 -0.37885011372E+03  0.86108814116E+03  0.10100000352E+00 0.  1.
       -3    1    3    3    0  502  0.44328673706E+03 -0.63359469436E+03  0.20441574203E+03  0.79983196596E+03  0.10100000352E+00 0. -1.
</event>
<event>
 5   0  0.3837251E-04  0.1588738E+04  0.7818609E-02  0.8827497E-01
        1   -1    0    0  501    0  0.00000000000E+00  0.00000000000E+00  0.49235546167E+03  0.49235546169E+03  0.50400001928E-02 0. -1.
       -1   -1    0    0    0  501  0.00000000000E+00  0.00000000000E+00 -0.12816385553E+04  0.12816385554E+04  0.50400001928E-02 0.  1.
    10030    2    1    2    0    0  0.00000000000E+00  0.00000000000E+00 -0.78928309368E+03  0.17739940170E+04  0.15887375399E+04 0.  0.
        4    1    3    3  502    0  0.78225060325E+03 -0.13614393302E+03 -0.42127565579E+03  0.89884702138E+03  0.12699999809E+01 0. -1.
       -4    1    3    3    0  502 -0.78225060325E+03  0.13614393302E+03 -0.36800743788E+03  0.87514699566E+03  0.12699999809E+01 0.  1.
</event>
<event>
 5   0  0.3950195E-04  0.1621537E+04  0.7818609E-02  0.8807425E-01
       -1   -1    0    0    0  501  0.00000000000E+00  0.00000000000E+00  0.11743134785E+04  0.11743134785E+04  0.50400001928E-02 0.  1.
        1   -1    0    0  501    0  0.00000000000E+00  0.00000000000E+00 -0.55976978587E+03  0.55976978590E+03  0.50400001928E-02 0. -1.
    10030    2    1    2    0    0  0.00000000000E+00  0.00000000000E+00  0.61454369258E+03  0.17340832644E+04  0.16215365607E+04 0.  0.
        2    1    3    3  502    0 -0.51755712300E+03 -0.60831436060E+03  0.45635149171E+03  0.91987413317E+03  0.25500000920E-02 0.  1.
       -2    1    3    3    0  502  0.51755712300E+03  0.60831436060E+03  0.15819220088E+03  0.81420913119E+03  0.25500000920E-02 0. -1.
</event>
<event>
 5   0  0.7395088E-04  0.1592460E+04  0.7818609E-02  0.8825194E-01
        2   -1    0    0  501    0  0.00000000000E+00  0.00000000000E+00  0.16761190656E+04  0.16761190656E+04  0.25500000920E-02 0.  1.
       -2   -1    0    0    0  501  0.00000000000E+00  0.00000000000E+00 -0.37824413745E+03  0.37824413745E+03  0.25500000920E-02 0. -1.
    10030    2    1    2    0    0  0.00000000000E+00  0.00000000000E+00  0.12978749281E+04  0.20543632030E+04  0.15924599966E+04 0.  0.
        1    1    3    3  502    0  0.46220563807E+03 -0.77623813975E+02  0.14793197215E+04  0.15517881127E+04  0.50400001928E-02 0.  1.
       -1    1    3    3    0  502 -0.46220563807E+03  0.77623813975E+02 -0.18144479334E+03  0.50257509033E+03  0.50400001928E-02 0. -1.
</event>
<event>
 5   0  0.3889847E-04  0.1587688E+04  0.7818609E-02  0.8828147E-01
       -1   -1    0    0    0  501  0.00000000000E+00  0.00000000000E+00  0.99785176017E+03  0.99785176018E+03  0.50400001928E-02 0.  1.
        1   -1    0    0  501    0  0.00000000000E+00  0.00000000000E+00 -0.63154526714E+03  0.63154526716E+03  0.50400001928E-02 0. -1.
    10030    2    1    2    0    0  0.00000000000E+00  0.00000000000E+00  0.36630649303E+03  0.16293970273E+04  0.15876883277E+04 0.  0.
        1    1    3    3  502    0 -0.72871428626E+03 -0.13370973563E+03 -0.10944308834E+03  0.74891961786E+03  0.50400001928E-02 0. -1.
       -1    1    3    3    0  502  0.72871428626E+03  0.13370973563E+03  0.47574958137E+03  0.88047740948E+03  0.50400001928E-02 0.  1.
</event>
<event>
 5   0  0.7395088E-04  0.1584660E+04  0.7818609E-02  0.8830027E-01
        2   -1    0    0  501    0  0.00000000000E+00  0.00000000000E+00  0.81382874808E+03  0.81382874808E+03  0.25500000920E-02 0. -1.
       -2   -1    0    0    0  501  0.00000000000E+00  0.00000000000E+00 -0.77139961185E+03  0.77139961186E+03  0.25500000920E-02 0.  1.
    10030    2    1    2    0    0  0.00000000000E+00  0.00000000000E+00  0.42429136224E+02  0.15852283599E+04  0.15846604436E+04 0.  0.
        1    1    3    3  502    0  0.47942392908E+03 -0.56284247375E+03 -0.26375280044E+03  0.78498693862E+03  0.50400001928E-02 0.  1.
       -1    1    3    3    0  502 -0.47942392908E+03  0.56284247375E+03  0.30618193666E+03  0.80024142132E+03  0.50400001928E-02 0. -1.
</event>
<event>
 5   0  0.7770905E-04  0.1623303E+04  0.7818609E-02  0.8806359E-01
       -2   -1    0    0    0  501  0.00000000000E+00  0.00000000000E+00  0.35081639088E+03  0.35081639089E+03  0.25500000920E-02 0. -1.
        2   -1    0    0  501    0  0.00000000000E+00  0.00000000000E+00 -0.18778428741E+04  0.18778428741E+04  0.25500000920E-02 0.  1.
    10030    2    1    2    0    0  0.00000000000E+00  0.00000000000E+00 -0.15270264832E+04  0.22286592650E+04  0.16233028796E+04 0.  0.
        2    1    3    3  502    0  0.52443444392E+03 -0.48441376579E+03 -0.12936259245E+04  0.14775507487E+04  0.25500000920E-02 0.  1.
       -2    1    3    3    0  502 -0.52443444392E+03  0.48441376579E+03 -0.23340055878E+03  0.75110851633E+03  0.25500000920E-02 0. -1.
</event>
<event>
 5   0  0.7553070E-04  0.1674832E+04  0.7818609E-02  0.8775850E-01
       -2   -1    0    0    0  501  0.00000000000E+00  0.00000000000E+00  0.93705165963E+03  0.93705165963E+03  0.25500000920E-02 0.  1.
        2   -1    0    0  501    0  0.00000000000E+00  0.00000000000E+00 -0.74837411293E+03  0.74837411293E+03  0.25500000920E-02 0. -1.
    10030    2    1    2    0    0  0.00000000000E+00  0.00000000000E+00  0.18867754670E+03  0.16854257726E+04  0.16748315791E+04 0.  0.
        4    1    3    3  502    0  0.54088098527E+03 -0.61094017955E+03 -0.95169847726E+02  0.82149805601E+03  0.12699999809E+01 0. -1.
       -4    1    3    3    0  502 -0.54088098527E+03  0.61094017955E+03  0.28384739443E+03  0.86392771655E+03  0.12699999809E+01 0.  1.
</event>
<event>
 5   0  0.3837251E-04  0.1596294E+04  0.7818609E-02  0.8822828E-01
       -1   -1    0    0    0  501  0.00000000000E+00  0.00000000000E+00  0.81908355912E+03  0.81908355913E+03  0.50400001928E-02 0. -1.
        1   -1    0    0  501    0  0.00000000000E+00  0.00000000000E+00 -0.77774563159E+03  0.77774563161E+03  0.50400001928E-02 0.  1.
    10030    2    1    2    0    0  0.00000000000E+00  0.00000000000E+00  0.41337927524E+02  0.15968291907E+04  0.15962940331E+04 0.  0.
        4    1    3    3  502    0 -0.12213906763E+03 -0.62568517915E+03 -0.45973900873E+03  0.78597803042E+03  0.12699999809E+01 0.  1.
       -4    1    3    3    0  502  0.12213906763E+03  0.62568517915E+03  0.50107693626E+03  0.81085116032E+03  0.12699999809E+01 0. -1.
</event>
<event>
 5   0  0.3889847E-04  0.1605714E+04  0.7818609E-02  0.8817045E-01
        1   -1    0    0  501    0  0.00000000000E+00  0.00000000000E+00  0.12290002134E+04  0.12290002134E+04  0.50400001928E-02 0.  1.
       -1   -1    0    0    0  501  0.00000000000E+00  0.00000000000E+00 -0.52447486356E+03  0.52447486359E+03  0.50400001928E-02 0. -1.
    10030    2    1    2    0    0  0.00000000000E+00  0.00000000000E+00  0.70452534986E+03  0.17534750770E+04  0.16057144445E+04 0.  0.
        1    1    3    3  502    0  0.65761773513E+03  0.19413149335E+03 -0.10382030098E+03  0.69348884432E+03  0.50400001928E-02 0.  1.
       -1    1    3    3    0  502 -0.65761773513E+03 -0.19413149335E+03  0.80834565084E+03  0.10599862327E+04  0.50400001928E-02 0. -1.
</event>
<event>
 5   0  0.7553070E-04  0.1592803E+04  0.7818609E-02  0.8824982E-01
        2   -1    0    0  501    0  0.00000000000E+00  0.00000000000E+00  0.10997274453E+04  0.10997274453E+04  0.25500000920E-02 0. -1.
       -2   -1    0    0    0  501  0.00000000000E+00  0.00000000000E+00 -0.57673846498E+03  0.57673846499E+03  0.25500000920E-02 0.  1.
    10030    2    1    2    0    0  0.00000000000E+00  0.00000000000E+00  0.52298898035E+03  0.16764659103E+04  0.15928027106E+04 0.  0.
        4    1    3    3  502    0  0.57610549230E+03 -0.16689004334E+03  0.81294536115E+03  0.10102631330E+04  0.12699999809E+01 0. -1.
       -4    1    3    3    0  502 -0.57610549230E+03  0.16689004334E+03 -0.28995638080E+03  0.66620277730E+03  0.12699999809E+01 0.  1.
</event>
<event>
 5   0  0.7415102E-04  0.1601441E+04  0.7818609E-02  0.8819663E-01
        2   -1    0    0  501    0  0.00000000000E+00  0.00000000000E+00  0.92669352661E+03  0.92669352661E+03  0.25500000920E-02 0.  1.
       -2   -1    0    0    0  501  0.00000000000E+00  0.00000000000E+00 -0.69187228339E+03  0.69187228339E+03  0.25500000920E-02 0. -1.
    10030    2    1    2    0    0  0.00000000000E+00  0.00000000000E+00  0.23482124322E+03  0.16185658100E+04  0.16014413086E+04 0.  0.
        5    1    3    3  502    0 -0.26888726044E+03  0.43410342531E+03 -0.50593830687E+03  0.71884755202E+03  0.46999998093E+01 0. -1.
       -5    1    3    3    0  502  0.26888726044E+03 -0.43410342531E+03  0.74075955009E+03  0.89971825798E+03  0.46999998093E+01 0.  1.
</event>
<event>
 5   0  0.3950195E-04  0.1555434E+04  0.7818609E-02  0.8848404E-01
       -1   -1    0    0    0  501  0.00000000000E+00  0.00000000000E+00  0.51753777851E+03  0.51753777854E+03  0.50400001928E-02 0. -1.
        1   -1    0    0  501    0  0.00000000000E+00  0.00000000000E+00 -0.11686949693E+04  0.11686949693E+04  0.50400001928E-02 0.  1.
    10030    2    1    2    0    0  0.00000000000E+00  0.00000000000E+00 -0.65115719079E+03  0.16862327479E+04  0.15554340850E+04 0.  0.
        2    1    3    3  502    0  0.19825203221E+03 -0.43444934051E+03 -0.99103211188E+03  0.11000885167E+04  0.25500000920E-02 0.  1.
       -2    1    3    3    0  502 -0.19825203221E+03  0.43444934051E+03  0.33987492109E+03  0.58614423117E+03  0.25500000920E-02 0. -1.
</event>
<event>
 5   0  0.3973227E-04  0.1622452E+04  0.7818609E-02  0.8806872E-01
        1   -1    0    0  501    0  0.00000000000E+00  0.00000000000E+00  0.60261585102E+03  0.60261585104E+03  0.50400001928E-02 0.  1.
       -1   -1    0    0    0  501  0.00000000000E+00  0.00000000000E+00 -0.10920515994E+04  0.10920515994E+04  0.50400001928E-02 0. -1.
    10030    2    1    2    0    0  0.00000000000E+00  0.00000000000E+00 -0.48943574838E+03  0.16946674504E+04  0.16224519764E+04 0.  0.
        3    1    3    3  502    0 -0.73364061777E+03  0.21830398383E+03  0.35947268854E+02  0.76627501704E+03  0.10100000352E+00 0.  1.
       -3    1    3    3    0  502  0.73364061777E+03 -0.21830398383E+03 -0.52538301723E+03  0.92839243340E+03  0.10100000352E+00 0. -1.
</event>
<event>
 5   0  0.7770905E-04  0.1554175E+04  0.7818609E-02  0.8849205E-01
        2   -1    0    0  501    0  0.00000000000E+00  0.00000000000E+00  0.29433045149E+04  0.29433045149E+04  0.25500000920E-02 0.  1.
       -2   -1    0    0    0  501  0.00000000000E+00  0.00000000000E+00 -0.20516564535E+03  0.20516564536E+03  0.25500000920E-02 0. -1.
    10030    2    1    2    0    0  0.00000000000E+00  0.00000000000E+00  0.27381388695E+04  0.31484701602E+04  0.15541749841E+04 0.  0.
        2    1    3    3  502    0  0.54069672027E+03 -0.55329762597E+03  0.12205651569E+04  0.14450849485E+04  0.25500000920E-02 0. -1.
       -2    1    3    3    0  502 -0.54069672027E+03  0.55329762597E+03  0.15175737127E+04  0.17033852117E+04  0.25500000920E-02 0.  1.
</event>
<event>
 5   0  0.7553070E-04  0.1618607E+04  0.7818609E-02  0.8809198E-01
       -2   -1    0    0    0  501  0.00000000000E+00  0.00000000000E+00  0.38701819853E+03  0.38701819854E+03  0.25500000920E-02 0.  1.
        2   -1    0    0  501    0  0.00000000000E+00  0.00000000000E+00 -0.16923553856E+04  0.16923553856E+04  0.25500000920E-02 0. -1.
    10030    2    1    2    0    0  0.00000000000E+00  0.00000000000E+00 -0.13053371871E+04  0.20793735841E+04  0.16186072193E+04 0.  0.
        4    1    3    3  502    0  0.32664607877E+03 -0.58086135983E+03 -0.12426002226E+04  0.14100193283E+04  0.12699999809E+01 0. -1.
       -4    1    3    3    0  502 -0.32664607877E+03  0.58086135983E+03 -0.62736964425E+02  0.66935425578E+03  0.12699999809E+01 0.  1.
</event>
<event>
 5   0  0.3889847E-04  0.1619885E+04  0.7818609E-02  0.8808424E-01
       -1   -1    0    0    0  501  0.00000000000E+00  0.00000000000E+00  0.25006118901E+03  0.25006118906E+03  0.50400001928E-02 0.  1.
        1   -1    0    0  501    0  0.00000000000E+00  0.00000000000E+00 -0.26233853783E+04  0.26233853783E+04  0.50400001928E-02 0. -1.
    10030    2    1    2    0    0  0.00000000000E+00  0.00000000000E+00 -0.23733241893E+04  0.28734465674E+04  0.16198850169E+04 0.  0.
        1    1    3    3  502    0  0.16868089724E+03  0.24655696154E+03 -0.25220879866E+04  0.25397187625E+04  0.50400001928E-02 0. -1.
       -1    1    3    3    0  502 -0.16868089724E+03 -0.24655696154E+03  0.14876379726E+03  0.33372780492E+03  0.50400001928E-02 0.  1.
</event>
<event>
 5   0  0.3889847E-04  0.1654230E+04  0.7818609E-02  0.8787908E-01
       -1   -1    0    0    0  501  0.00000000000E+00  0.00000000000E+00  0.37917496768E+03  0.37917496771E+03  0.50400001928E-02 0.  1.
        1   -1    0    0  501    0  0.00000000000E+00  0.00000000000E+00 -0.18042311328E+04  0.18042311328E+04  0.50400001928E-02 0. -1.
    10030    2    1    2    0    0  0.00000000000E+00  0.00000000000E+00 -0.14250561651E+04  0.21834061005E+04  0.16542300705E+04 0.  0.
        1    1    3    3  502    0  0.64281072646E+03  0.52026023840E+03 -0.73310045300E+03  0.11051301371E+04  0.50400001928E-02 0.  1.
       -1    1    3    3    0  502 -0.64281072646E+03 -0.52026023840E+03 -0.69195571207E+03  0.10782759634E+04  0.50400001928E-02 0. -1.
</event>
<event>
 5   0  0.7488884E-04  0.1640030E+04  0.7818609E-02  0.8796327E-01
       -2   -1    0    0    0  501  0.00000000000E+00  0.00000000000E+00  0.61267345091E+03  0.61267345091E+03  0.25500000920E-02 0. -1.
        2   -1    0    0  501    0  0.00000000000E+00  0.00000000000E+00 -0.10975247450E+04  0.10975247450E+04  0.25500000920E-02 0.  1.
    10030    2    1    2    0    0  0.00000000000E+00  0.00000000000E+00 -0.48485129407E+03  0.17101981959E+04  0.16400296009E+04 0.  0.
        3    1    3    3  502    0 -0.60136729923E+03 -0.12733357913E+03  0.32353650370E+03  0.69464548395E+03  0.10100000352E+00 0. -1.
       -3    1    3    3    0  502  0.60136729923E+03  0.12733357913E+03 -0.80838779777E+03  0.10155527119E+04  0.10100000352E+00 0.  1.
</event>
<event>
 5   0  0.3837251E-04  0.1569700E+04  0.7818609E-02  0.8839382E-01
       -1   -1    0    0    0  501  0.00000000000E+00  0.00000000000E+00  0.49438631643E+03  0.49438631645E+03  0.50400001928E-02 0. -1.
        1   -1    0    0  501    0  0.00000000000E+00  0.00000000000E+00 -0.12459683694E+04  0.12459683694E+04  0.50400001928E-02 0.  1.
    10030    2    1    2    0    0  0.00000000000E+00  0.00000000000E+00 -0.75158205293E+03  0.17403546858E+04  0.15697002421E+04 0.  0.
        4    1    3    3  502    0  0.21858197607E+03 -0.75331822582E+03 -0.40557553082E+03  0.88303995024E+03  0.12699999809E+01 0.  1.
       -4    1    3    3    0  502 -0.21858197607E+03  0.75331822582E+03 -0.34600652211E+03  0.85731473559E+03  0.12699999809E+01 0. -1.
</event>
<event>
 5   0  0.3889847E-04  0.1609994E+04  0.7818609E-02  0.8814432E-01
        1   -1    0    0  501    0  0.00000000000E+00  0.00000000000E+00  0.31539186289E+04  0.31539186289E+04  0.50400001928E-02 0. -1.
       -1   -1    0    0    0  501  0.00000000000E+00  0.00000000000E+00 -0.20546512955E+03  0.20546512961E+03  0.50400001928E-02 0.  1.
    10030    2    1    2    0    0  0.00000000000E+00  0.00000000000E+00  0.29484534993E+04  0.33593837585E+04  0.16099941612E+04 0.  0.
        1    1    3    3  502    0 -0.19645066756E+03 -0.64710525301E+03  0.23853778927E+04  0.24793881835E+04  0.50400001928E-02 0. -1.
       -1    1    3    3    0  502  0.19645066756E+03  0.64710525301E+03  0.56307560657E+03  0.87999557499E+03  0.50400001928E-02 0.  1.
</event>
<event>
 5   0  0.3889847E-04  0.1575362E+04  0.7818609E-02  0.8835829E-01
       -1   -1    0    0    0  501  0.00000000000E+00  0.00000000000E+00  0.52786411453E+03  0.52786411455E+03  0.50400001928E-02 0. -1.
        1   -1    0    0  501    0  0.00000000000E+00  0.00000000000E+00 -0.11753810523E+04  0.11753810524E+04  0.50400001928E-02 0.  1.
    10030    2    1    2    0    0  0.00000000000E+00  0.00000000000E+00 -0.64751693782E+03  0.17032451669E+04  0.15753621532E+04 0.  0.
        1    1    3    3  502    0 -0.51809678256E+03  0.56646923605E+03 -0.51451743996E+03  0.92414277444E+03  0.50400001928E-02 0.  1.
       -1    1    3    3    0  502  0.51809678256E+03 -0.56646923605E+03 -0.13299949786E+03  0.77910239247E+03  0.50400001928E-02 0. -1.
</event>
<event>
 5   0  0.3973227E-04  0.1587690E+04  0.7818609E-02  0.8828146E-01
       -1   -1    0    0    0  501  0.00000000000E+00  0.00000000000E+00  0.94525348376E+03  0.94525348377E+03  0.50400001928E-02 0. -1.
        1   -1    0    0  501    0  0.00000000000E+00  0.00000000000E+00 -0.66668866458E+03  0.66668866459E+03  0.50400001928E-02 0.  1.
    10030    2    1    2    0    0  0.00000000000E+00  0.00000000000E+00  0.27856481919E+03  0.16119421484E+04  0.15876898725E+04 0.  0.
        3    1    3    3  502    0 -0.57856263858E+03  0.53785495636E+03  0.59552002466E+02  0.79219261044E+03  0.10100000352E+00 0. -1.
       -3    1    3    3    0  502  0.57856263858E+03 -0.53785495636E+03  0.21901281672E+03  0.81974953793E+03  0.10100000352E+00 0.  1.
</event>
<event>
 5   0  0.7415102E-04  0.1586513E+04  0.7818609E-02  0.8828876E-01
        2   -1    0    0  501    0  0.00000000000E+00  0.00000000000E+00  0.10807958154E+04  0.10807958155E+04  0.25500000920E-02 0.  1.
       -2   -1    0    0    0  501  0.00000000000E+00  0.00000000000E+00 -0.58221560079E+03  0.58221560079E+03  0.25500000920E-02 0. -1.
    10030    2    1    2    0    0  0.00000000000E+00  0.00000000000E+00  0.49858021466E+03  0.16630114162E+04  0.15865133911E+04 0.  0.
        5    1    3    3  502    0 -0.21749216878E+03  0.62440589052E+03 -0.21007392582E+03  0.69378577666E+03  0.46999998093E+01 0. -1.
       -5    1    3    3    0  502  0.21749216878E+03 -0.62440589052E+03  0.70865414048E+03  0.96922563958E+03  0.46999998093E+01 0.  1.
</event>
<event>
 5   0  0.3837251E-04  0.1612445E+04  0.7818609E-02  0.8812939E-01
        1   -1    0    0  501    0  0.00000000000E+00  0.00000000000E+00  0.71394390945E+03  0.71394390946E+03  0.50400001928E-02 0.  1.
       -1   -1    0    0    0  501  0.00000000000E+00  0.00000000000E+00 -0.91042805720E+03  0.91042805721E+03  0.50400001928E-02 0. -1.
    10030    2    1    2    0    0  0.00000000000E+00  0.00000000000E+00 -0.19648414775E+03  0.16243719667E+04  0.16124448102E+04 0.  0.
        4    1    3    3  502    0  0.22262904228E+02  0.46186570040E+03 -0.76356456125E+03  0.89266343838E+03  0.12699999809E+01 0. -1.
       -4    1    3    3    0  502 -0.22262904228E+02 -0.46186570040E+03  0.56708041350E+03  0.73170852830E+03  0.12699999809E+01 0.  1.
</event>
<event>
 5   0  0.3889847E-04  0.1592172E+04  0.7818609E-02  0.8825371E-01
       -1   -1    0    0    0  501  0.00000000000E+00  0.00000000000E+00  0.43344793283E+03  0.43344793286E+03  0.50400001928E-02 0.  1.
        1   -1    0    0  501    0  0.00000000000E+00  0.00000000000E+00 -0.14621209450E+04  0.14621209450E+04  0.50400001928E-02 0. -1.
    10030    2    1    2    0    0  0.00000000000E+00  0.00000000000E+00 -0.10286730122E+04  0.18955688779E+04  0.15921724796E+04 0.  0.
        1    1    3    3  502    0  0.33847944921E+03 -0.13285886233E+03  0.32880297148E+03  0.49023587069E+03  0.50400001928E-02 0.  1.
       -1    1    3    3    0  502 -0.33847944921E+03  0.13285886233E+03 -0.13574759837E+04  0.14053330072E+04  0.50400001928E-02 0. -1.
</event>
<event>
 5   0  0.3889847E-04  0.1736262E+04  0.7818609E-02  0.8740949E-01
        1   -1    0    0  501    0  0.00000000000E+00  0.00000000000E+00  0.10673308051E+04  0.10673308051E+04  0.50400001928E-02 0. -1.
       -1   -1    0    0    0  501  0.00000000000E+00  0.00000000000E+00 -0.70610845224E+03  0.70610845226E+03  0.50400001928E-02 0.  1.
    10030    2    1    2    0    0  0.00000000000E+00  0.00000000000E+00  0.36122235281E+03  0.17734392573E+04  0.17362618499E+04 0.  0.
        1    1    3    3  502    0  0.79766346946E+03  0.31705625275E+03  0.31323607007E+03  0.91373328359E+03  0.50400001928E-02 0.  1.
       -1    1    3    3    0  502 -0.79766346946E+03 -0.31705625275E+03  0.47986282743E+02  0.85970597374E+03  0.50400001928E-02 0. -1.
</event>
<event>
 5   0  0.7415102E-04  0.1609029E+04  0.7818609E-02  0.8815021E-01
        2   -1    0    0  501    0  0.00000000000E+00  0.00000000000E+00  0.69516936060E+03  0.69516936060E+03  0.25500000920E-02 0. -1.
       -2   -1    0    0    0  501  0.00000000000E+00  0.00000000000E+00 -0.93105835161E+03  0.93105835162E+03  0.25500000920E-02 0.  1.
    10030    2    1    2    0    0  0.00000000000E+00  0.00000000000E+00 -0.23588899101E+03  0.16262277122E+04  0.16090285752E+04 0.  0.
        5    1    3    3  502    0  0.54602617278E+03  0.59034192962E+03 -0.93751760901E+02  0.80960463061E+03  0.46999998093E+01 0.  1.
       -5    1    3    3    0  502 -0.54602617278E+03 -0.59034192962E+03 -0.14213723011E+03  0.81662308161E+03  0.46999998093E+01 0. -1.
</event>
<event>
 5   0  0.7553070E-04  0.1598045E+04  0.7818609E-02  0.8821750E-01
        2   -1    0    0  501    0  0.00000000000E+00  0.00000000000E+00  0.10798344285E+04  0.10798344285E+04  0.25500000920E-02 0. -1.
       -2   -1    0    0    0  501  0.00000000000E+00  0.00000000000E+00 -0.59123625659E+03  0.59123625660E+03  0.25500000920E-02 0.  1.
    10030    2    1    2    0    0  0.00000000000E+00  0.00000000000E+00  0.48859817188E+03  0.16710706851E+04  0.15980453876E+04 0.  0.
        4    1    3    3  502    0  0.29387077542E+02 -0.74862207591E+03 -0.46128051252E+02  0.75061842696E+03  0.12699999809E+01 0.  1.
       -4    1    3    3    0  502 -0.29387077542E+02  0.74862207591E+03  0.53472622313E+03  0.92045225812E+03  0.12699999809E+01 0. -1.
</event>
<event>
 5   0  0.4110803E-04  0.1605813E+04  0.7818609E-02  0.8816985E-01
        1   -1    0    0  501    0  0.00000000000E+00  0.00000000000E+00  0.10044299593E+04  0.10044299593E+04  0.50400001928E-02 0. -1.
       -1   -1    0    0    0  501  0.00000000000E+00  0.00000000000E+00 -0.64181565668E+03  0.64181565670E+03  0.50400001928E-02 0.  1.
    10030    2    1    2    0    0  0.00000000000E+00  0.00000000000E+00  0.36261430263E+03  0.16462456160E+04  0.16058130326E+04 0.  0.
        5    1    3    3  502    0 -0.38695369114E+02  0.68235665096E+03  0.61325779649E+03  0.91826746956E+03  0.46999998093E+01 0. -1.
       -5    1    3    3    0  502  0.38695369114E+02 -0.68235665096E+03 -0.25064349387E+03  0.72797814645E+03  0.46999998093E+01 0.  1.
</event>
<event>
 5   0  0.7553070E-04  0.1564694E+04  0.7818609E-02  0.8842536E-01
       -2   -1    0    0    0  501  0.00000000000E+00  0.00000000000E+00  0.47451583245E+03  0.47451583246E+03  0.25500000920E-02 0. -1.
        2   -1    0    0  501    0  0.00000000000E+00  0.00000000000E+00 -0.12898761312E+04  0.12898761312E+04  0.25500000920E-02 0.  1.
    10030    2    1    2    0    0  0.00000000000E+00  0.00000000000E+00 -0.81536029870E+03  0.17643919636E+04  0.15646937670E+04 0.  0.
        4    1    3    3  502    0  0.21917726148E+02  0.15892453948E+03 -0.12711275795E+04  0.12812120560E+04  0.12699999809E+01 0.  1.
       -4    1    3    3    0  502 -0.21917726148E+02 -0.15892453948E+03  0.45576728084E+03  0.48317990765E+03  0.12699999809E+01 0. -1.
</event>
<event>
 5   0  0.3973227E-04  0.1533164E+04  0.7818609E-02  0.8862694E-01
       -1   -1    0    0    0  501  0.00000000000E+00  0.00000000000E+00  0.33743265852E+03  0.33743265856E+03  0.50400001928E-02 0. -1.
        1   -1    0    0  501    0  0.00000000000E+00  0.00000000000E+00 -0.17415276888E+04  0.17415276888E+04  0.50400001928E-02 0.  1.
    10030    2    1    2    0    0  0.00000000000E+00  0.00000000000E+00 -0.14040950302E+04  0.20789603473E+04  0.15331644634E+04 0.  0.
        3    1    3    3  502    0 -0.26521783292E+03 -0.41634534243E+03  0.93221729289E+02  0.50236863365E+03  0.10100000352E+00 0. -1.
       -3    1    3    3    0  502  0.26521783292E+03  0.41634534243E+03 -0.14973167595E+04  0.15765917137E+04  0.10100000352E+00 0.  1.
</event>
<event>
 5   0  0.7770905E-04  0.1612225E+04  0.7818609E-02  0.8813073E-01
       -2   -1    0    0    0  501  0.00000000000E+00  0.00000000000E+00  0.32691578377E+03  0.32691578378E+03  0.25500000920E-02 0.  1.
        2   -1    0    0  501    0  0.00000000000E+00  0.00000000000E+00 -0.19877201664E+04  0.19877201664E+04  0.25500000920E-02 0. -1.
    10030    2    1    2    0    0  0.00000000000E+00  0.00000000000E+00 -0.16608043826E+04  0.23146359501E+04  0.16122246694E+04 0.  0.
        2    1    3    3  502    0 -0.21980629759E+03 -0.49885490187E+03  0.22161157997E+02  0.54558421761E+03  0.25500000920E-02 0.  1.
       -2    1    3    3    0  502  0.21980629759E+03  0.49885490187E+03 -0.16829655406E+04  0.17690517325E+04  0.25500000920E-02 0. -1.
</event>
<event>
 5   0  0.7395088E-04  0.1298186E+04  0.7818609E-02  0.9031005E-01
       -2   -1    0    0    0  501  0.00000000000E+00  0.00000000000E+00  0.24209933746E+03  0.24209933747E+03  0.25500000920E-02 0. -1.
        2   -1    0    0  501    0  0.00000000000E+00  0.00000000000E+00 -0.17402855664E+04  0.17402855664E+04  0.25500000920E-02 0.  1.
    10030    2    1    2    0    0  0.00000000000E+00  0.00000000000E+00 -0.14981862290E+04  0.19823849039E+04  0.12981864005E+04 0.  0.
        1    1    3    3  502    0 -0.16084684554E+01 -0.13157242072E+03 -0.17197057916E+04  0.17247324137E+04  0.50400001928E-02 0.  1.
       -1    1    3    3    0  502  0.16084684554E+01  0.13157242072E+03  0.22151956264E+03  0.25765249023E+03  0.50400001928E-02 0. -1.
</event>
<event>
 5   0  0.3837251E-04  0.1609778E+04  0.7818609E-02  0.8814564E-01
       -1   -1    0    0    0  501  0.00000000000E+00  0.00000000000E+00  0.43397714015E+03  0.43397714017E+03  0.50400001928E-02 0. -1.
        1   -1    0    0  501    0  0.00000000000E+00  0.00000000000E+00 -0.14928113398E+04  0.14928113398E+04  0.50400001928E-02 0.  1.
    10030    2    1    2    0    0  0.00000000000E+00  0.00000000000E+00 -0.10588341996E+04  0.19267884800E+04  0.16097776195E+04 0.  0.
        4    1    3    3  502    0 -0.79122182695E+03 -0.11320168432E+03 -0.41588049624E+03  0.90100210923E+03  0.12699999809E+01 0. -1.
       -4    1    3    3    0  502  0.79122182695E+03  0.11320168432E+03 -0.64295370338E+03  0.10257863707E+04  0.12699999809E+01 0.  1.
</event>
<event>
 5   0  0.7395088E-04  0.1630322E+04  0.7818609E-02  0.8802134E-01
       -2   -1    0    0    0  501  0.00000000000E+00  0.00000000000E+00  0.38482690021E+03  0.38482690022E+03  0.25500000920E-02 0.  1.
        2   -1    0    0  501    0  0.00000000000E+00  0.00000000000E+00 -0.17267176798E+04  0.17267176798E+04  0.25500000920E-02 0. -1.
    10030    2    1    2    0    0  0.00000000000E+00  0.00000000000E+00 -0.13418907796E+04  0.21115445800E+04  0.16303219465E+04 0.  0.
        1    1    3    3  502    0 -0.18718509700E+03 -0.77831104972E+03 -0.47163613576E+03  0.92911086273E+03  0.50400001928E-02 0.  1.
       -1    1    3    3    0  502  0.18718509700E+03  0.77831104972E+03 -0.87025464384E+03  0.11824337173E+04  0.50400001928E-02 0. -1.
</event>
<event>
 5   0  0.3950195E-04  0.1576444E+04  0.7818609E-02  0.8835151E-01
       -1   -1    0    0    0  501  0.00000000000E+00  0.00000000000E+00  0.63546326475E+03  0.63546326477E+03  0.50400001928E-02 0.  1.
        1   -1    0    0  501    0  0.00000000000E+00  0.00000000000E+00 -0.97770269563E+03  0.97770269564E+03  0.50400001928E-02 0. -1.
    10030    2    1    2    0    0  0.00000000000E+00  0.00000000000E+00 -0.34223943087E+03  0.16131659604E+04  0.15764442863E+04 0.  0.
        2    1    3    3  502    0 -0.57397658261E+03  0.53734923383E+03 -0.22810194432E+03  0.81867198162E+03  0.25500000920E-02 0.  1.
       -2    1    3    3    0  502  0.57397658261E+03 -0.53734923383E+03 -0.11413748655E+03  0.79449397879E+03  0.25500000920E-02 0. -1.
</event>
<event>
 5   0  0.7553070E-04  0.1604301E+04  0.7818609E-02  0.8817910E-01
       -2   -1    0    0    0  501  0.00000000000E+00  0.00000000000E+00  0.52714244639E+03  0.52714244639E+03  0.25500000920E-02 0.  1.
        2   -1    0    0  501    0  0.00000000000E+00  0.00000000000E+00 -0.12206288101E+04  0.12206288101E+04  0.25500000920E-02 0. -1.
    10030    2    1    2    0    0  0.00000000000E+00  0.00000000000E+00 -0.69348636375E+03  0.17477712565E+04  0.16043007911E+04 0.  0.
        4    1    3    3  502    0 -0.33587970083E+03  0.38589197924E+02 -0.11392149924E+04  0.11883251707E+04  0.12699999809E+01 0. -1.
       -4    1    3    3    0  502  0.33587970083E+03 -0.38589197924E+02  0.44572862864E+03  0.55944608580E+03  0.12699999809E+01 0.  1.
</event>
<event>
 5   0  0.7488884E-04  0.1434186E+04  0.7818609E-02  0.8929438E-01
       -2   -1    0    0    0  501  0.00000000000E+00  0.00000000000E+00  0.78240122144E+03  0.78240122144E+03  0.25500000920E-02 0. -1.
        2   -1    0    0  501    0  0.00000000000E+00  0.00000000000E+00 -0.65723577190E+03  0.65723577190E+03  0.25500000920E-02 0.  1.
    10030    2    1    2    0    0  0.00000000000E+00  0.00000000000E+00  0.12516544954E+03  0.14396369933E+04  0.14341855817E+04 0.  0.
        3    1    3    3  502    0  0.28821905922E+03  0.58724185187E+03 -0.23230054223E+03  0.69418064710E+03  0.10100000352E+00 0. -1.
       -3    1    3    3    0  502 -0.28821905922E+03 -0.58724185187E+03  0.35746599177E+03  0.74545634624E+03  0.10100000352E+00 0.  1.
</event>
<event>
 5   0  0.3950195E-04  0.1565100E+04  0.7818609E-02  0.8842280E-01
        1   -1    0    0  501    0  0.00000000000E+00  0.00000000000E+00  0.14724188977E+04  0.14724188977E+04  0.50400001928E-02 0. -1.
       -1   -1    0    0    0  501  0.00000000000E+00  0.00000000000E+00 -0.41590359102E+03  0.41590359106E+03  0.50400001928E-02 0.  1.
    10030    2    1    2    0    0  0.00000000000E+00  0.00000000000E+00  0.10565153066E+04  0.18883224887E+04  0.15650997503E+04 0.  0.
        2    1    3    3  502    0 -0.32275749547E+03 -0.41571898727E+03  0.12269869586E+04  0.13350998741E+04  0.25500000920E-02 0. -1.
       -2    1    3    3    0  502  0.32275749547E+03  0.41571898727E+03 -0.17047165192E+03  0.55322261466E+03  0.25500000920E-02 0.  1.
</event>
<event>
 5   0  0.3837251E-04  0.1691961E+04  0.7818609E-02  0.8765963E-01
        1   -1    0    0  501    0  0.00000000000E+00  0.00000000000E+00  0.16543865960E+04  0.16543865960E+04  0.50400001928E-02 0.  1.
       -1   -1    0    0    0  501  0.00000000000E+00  0.00000000000E+00 -0.43259698550E+03  0.43259698553E+03  0.50400001928E-02 0. -1.
    10030    2    1    2    0    0  0.00000000000E+00  0.00000000000E+00  0.12217896105E+04  0.20869835815E+04  0.16919605838E+04 0.  0.
        4    1    3    3  502    0  0.60383998038E+03  0.69233275593E+02  0.13367218308E+04  0.14684150756E+04  0.12699999809E+01 0.  1.
       -4    1    3    3    0  502 -0.60383998038E+03 -0.69233275593E+02 -0.11493222032E+03  0.61856850593E+03  0.12699999809E+01 0. -1.
</event>
<event>
 5   0  0.3973227E-04  0.1608824E+04  0.7818609E-02  0.8815145E-01
        1   -1    0    0  501    0  0.00000000000E+00  0.00000000000E+00  0.87056334424E+03  0.87056334426E+03  0.50400001928E-02 0. -1.
       -1   -1    0    0    0  501  0.00000000000E+00  0.00000000000E+00 -0.74328746690E+03  0.74328746691E+03  0.50400001928E-02 0.  1.
    10030    2    1    2    0    0  0.00000000000E+00  0.00000000000E+00  0.12727587735E+03  0.16138508112E+04  0.16088241954E+04 0.  0.
        3    1    3    3  502    0  0.85518183132E+02 -0.77935821639E+02  0.86217251044E+03  0.86990160358E+03  0.10100000352E+00 0. -1.
       -3    1    3    3    0  502 -0.85518183132E+02  0.77935821639E+02 -0.73489663310E+03  0.74394920759E+03  0.10100000352E+00 0.  1.
</event>
<event>
 5   0  0.3973227E-04  0.1588542E+04  0.7818609E-02  0.8827618E-01
       -1   -1    0    0    0  501  0.00000000000E+00  0.00000000000E+00  0.41745846315E+03  0.41745846318E+03  0.50400001928E-02 0.  1.
        1   -1    0    0  501    0  0.00000000000E+00  0.00000000000E+00 -0.15112080756E+04  0.15112080756E+04  0.50400001928E-02 0. -1.
    10030    2    1    2    0    0  0.00000000000E+00  0.00000000000E+00 -0.10937496124E+04  0.19286665388E+04  0.15885422258E+04 0.  0.
        3    1    3    3  502    0 -0.72258537727E+03 -0.20506569635E+02 -0.94645649553E+03  0.11909366293E+04  0.10100000352E+00 0. -1.
       -3    1    3    3    0  502  0.72258537727E+03  0.20506569635E+02 -0.14729311687E+03  0.73772990946E+03  0.10100000352E+00 0.  1.
</event>
<event>
 5   0  0.7488884E-04  0.1595285E+04  0.7818609E-02  0.8823450E-01
       -2   -1    0    0    0  501  0.00000000000E+00  0.00000000000E+00  0.95656477257E+03  0.95656477257E+03  0.25500000920E-02 0. -1.
        2   -1    0    0  501    0  0.00000000000E+00  0.00000000000E+00 -0.66512339343E+03  0.66512339344E+03  0.25500000920E-02 0.  1.
    10030    2    1    2    0    0  0.00000000000E+00  0.00000000000E+00  0.29144137914E+03  0.16216881660E+04  0.15952850624E+04 0.  0.
        3    1    3    3  502    0 -0.36672505915E+03  0.31555617549E+03  0.79038588483E+03  0.92669996549E+03  0.10100000352E+00 0. -1.
       -3    1    3    3    0  502  0.36672505915E+03 -0.31555617549E+03 -0.49894450569E+03  0.69498820052E+03  0.10100000352E+00 0.  1.
</event>
<event>
 5   0  0.7415102E-04  0.1610125E+04  0.7818609E-02  0.8814352E-01
        2   -1    0    0  501    0  0.00000000000E+00  0.00000000000E+00  0.16293429061E+04  0.16293429061E+04  0.25500000920E-02 0. -1.
       -2   -1    0    0    0  501  0.00000000000E+00  0.00000000000E+00 -0.39778345289E+03  0.39778345290E+03  0.25500000920E-02 0.  1.
    10030    2    1    2    0    0  0.00000000000E+00  0.00000000000E+00  0.12315594532E+04  0.20271263590E+04  0.16101250227E+04 0.  0.
        5    1    3    3  502    0 -0.73967942984E+02 -0.30353287861E+03  0.15498938093E+04  0.15810744369E+04  0.46999998093E+01 0. -1.
       -5    1    3    3    0  502  0.73967942984E+02  0.30353287861E+03 -0.31833435605E+03  0.44605192212E+03  0.46999998093E+01 0.  1.
</event>
<event>
 5   0  0.7770905E-04  0.1610727E+04  0.7818609E-02  0.8813985E-01
        2   -1    0    0  501    0  0.00000000000E+00  0.00000000000E+00  0.93544545332E+03  0.93544545332E+03  0.25500000920E-02 0.  1.
       -2   -1    0    0    0  501  0.00000000000E+00  0.00000000000E+00 -0.69337078916E+03  0.69337078916E+03  0.25500000920E-02 0. -1.
    10030    2    1    2    0    0  0.00000000000E+00  0.00000000000E+00  0.24207466416E+03  0.16288162425E+04  0.16107272298E+04 0.  0.
        2    1    3    3  502    0  0.80031776592E+03 -0.61857705086E+02  0.18716012163E+03  0.82423528999E+03  0.25500000920E-02 0.  1.
       -2    1    3    3    0  502 -0.80031776592E+03  0.61857705086E+02  0.54914542532E+02  0.80458095249E+03  0.25500000920E-02 0. -1.
</event>
<event>
 5   0  0.3889847E-04  0.1569421E+04  0.7818609E-02  0.8839557E-01
       -1   -1    0    0    0  501  0.00000000000E+00  0.00000000000E+00  0.14908568693E+04  0.14908568693E+04  0.50400001928E-02 0. -1.
        1   -1    0    0  501    0  0.00000000000E+00  0.00000000000E+00 -0.41303137249E+03  0.41303137252E+03  0.50400001928E-02 0.  1.
    10030    2    1    2    0    0  0.00000000000E+00  0.00000000000E+00  0.10778254968E+04  0.19038882418E+04  0.15694211149E+04 0.  0.
        1    1    3    3  502    0  0.16397764287E+03 -0.33787766977E+03 -0.29692317402E+03  0.47876231930E+03  0.50400001928E-02 0.  1.
       -1    1    3    3    0  502 -0.16397764287E+03  0.33787766977E+03  0.13747486708E+04  0.14251259225E+04  0.50400001928E-02 0. -1.
</event>
<event>
 5   0  0.7770905E-04  0.1598602E+04  0.7818609E-02  0.8821408E-01
        2   -1    0    0  501    0  0.00000000000E+00  0.00000000000E+00  0.16726961908E+04  0.16726961908E+04  0.25500000920E-02 0.  1.
       -2   -1    0    0    0  501  0.00000000000E+00  0.00000000000E+00 -0.38194727694E+03  0.38194727694E+03  0.25500000920E-02 0. -1.
    10030    2    1    2    0    0  0.00000000000E+00  0.00000000000E+00  0.12907489139E+04  0.20546434678E+04  0.15986015829E+04 0.  0.
        2    1    3    3  502    0 -0.72075641419E+03 -0.20398218846E+03  0.10038331967E+04  0.12525093327E+04  0.25500000920E-02 0.  1.
       -2    1    3    3    0  502  0.72075641419E+03  0.20398218846E+03  0.28691571721E+03  0.80213413504E+03  0.25500000920E-02 0. -1.
</event>
<event>
 5   0  0.3889847E-04  0.1603883E+04  0.7818609E-02  0.8818166E-01
        1   -1    0    0  501    0  0.00000000000E+00  0.00000000000E+00  0.66052051121E+03  0.66052051123E+03  0.50400001928E-02 0.  1.
       -1   -1    0    0    0  501  0.00000000000E+00  0.00000000000E+00 -0.97364203744E+03  0.97364203745E+03  0.50400001928E-02 0. -1.
    10030    2    1    2    0    0  0.00000000000E+00  0.00000000000E+00 -0.31312152622E+03  0.16341625487E+04  0.16038834575E+04 0.  0.
        1    1    3    3  502    0 -0.69258418683E+03 -0.62997182469E+02 -0.56343540986E+03  0.89504243584E+03  0.50400001928E-02 0. -1.
       -1    1    3    3    0  502  0.69258418683E+03  0.62997182469E+02  0.25031388364E+03  0.73912011284E+03  0.50400001928E-02 0.  1.
</event>
<event>
 5   0  0.4110803E-04  0.1602501E+04  0.7818609E-02  0.8819013E-01
       -1   -1    0    0    0  501  0.00000000000E+00  0.00000000000E+00  0.43220323883E+03  0.43220323886E+03  0.50400001928E-02 0. -1.
        1   -1    0    0  501    0  0.00000000000E+00  0.00000000000E+00 -0.14854180790E+04  0.14854180790E+04  0.50400001928E-02 0.  1.
    10030    2    1    2    0    0  0.00000000000E+00  0.00000000000E+00 -0.10532148402E+04  0.19176213179E+04  0.16025011760E+04 0.  0.
        5    1    3    3  502    0 -0.70099294371E+03  0.30631082959E+03 -0.24150749800E+03  0.80222527575E+03  0.46999998093E+01 0. -1.
       -5    1    3    3    0  502  0.70099294371E+03 -0.30631082959E+03 -0.81170734218E+03  0.11153960421E+04  0.46999998093E+01 0.  1.
</event>
<event>
 5   0  0.7553070E-04  0.1585777E+04  0.7818609E-02  0.8829334E-01
       -2   -1    0    0    0  501  0.00000000000E+00  0.00000000000E+00  0.27335280172E+03  0.27335280174E+03  0.25500000920E-02 0.  1.
        2   -1    0    0  501    0  0.00000000000E+00  0.00000000000E+00 -0.22998550117E+04  0.22998550117E+04  0.25500000920E-02 0. -1.
    10030    2    1    2    0    0  0.00000000000E+00  0.00000000000E+00 -0.20265022100E+04  0.25732078135E+04  0.15857765429E+04 0.  0.
        4    1    3    3  502    0 -0.64017031601E+03  0.31972565424E+03 -0.15674091889E+04  0.17230251611E+04  0.12699999809E+01 0. -1.
       -4    1    3    3    0  502  0.64017031601E+03 -0.31972565424E+03 -0.45909302116E+03  0.85018265241E+03  0.12699999809E+01 0.  1.
</event>
<event>
 5   0  0.3889847E-04  0.1295033E+04  0.7818609E-02  0.9033514E-01
        1   -1    0    0  501    0  0.00000000000E+00  0.00000000000E+00  0.19730473601E+04  0.19730473601E+04  0.50400001928E-02 0. -1.
       -1   -1    0    0    0  501  0.00000000000E+00  0.00000000000E+00 -0.21250245236E+03  0.21250245242E+03  0.50400001928E-02 0.  1.
    10030    2    1    2    0    0  0.00000000000E+00  0.00000000000E+00  0.17605449078E+04  0.21855498126E+04  0.12950326679E+04 0.  0.
        1    1    3    3  502    0 -0.34950173653E+03 -0.53494706054E+03  0.10569320918E+04  0.12350810775E+04  0.50400001928E-02 0. -1.
       -1    1    3    3    0  502  0.34950173653E+03  0.53494706054E+03  0.70361281601E+03  0.95046873505E+03  0.50400001928E-02 0.  1.
</event>
<event>
 5   0  0.2781000E-04  0.1612190E+04  0.7818609E-02  0.8813094E-01
       -3   -1    0    0    0  501  0.00000000000E+00  0.00000000000E+00  0.72061237306E+03  0.72061238014E+03  0.10100000352E+00 0.  1.
        3   -1    0    0  501    0  0.00000000000E+00  0.00000000000E+00 -0.90171814366E+03  0.90171814932E+03  0.10100000352E+00 0. -1.
    10030    2    1    2    0    0  0.00000000000E+00  0.00000000000E+00 -0.18110577060E+03  0.16223305295E+04  0.16121901397E+04 0.  0.
        4    1    3    3  502    0  0.30787908327E+03  0.73111953539E+03 -0.23449927243E+03  0.82723444477E+03  0.12699999809E+01 0. -1.
       -4    1    3    3    0  502 -0.30787908327E+03 -0.73111953539E+03  0.53393501829E+02  0.79509608468E+03  0.12699999809E+01 0.  1.
</event>
<event>
 5   0  0.3889847E-04  0.1713726E+04  0.7818609E-02  0.8753574E-01
       -1   -1    0    0    0  501  0.00000000000E+00  0.00000000000E+00  0.68239791796E+03  0.68239791798E+03  0.50400001928E-02 0. -1.
        1   -1    0    0  501    0  0.00000000000E+00  0.00000000000E+00 -0.10759327013E+04  0.10759327014E+04  0.50400001928E-02 0.  1.
    10030    2    1    2    0    0  0.00000000000E+00  0.00000000000E+00 -0.39353478338E+03  0.17583306193E+04  0.17137260403E+04 0.  0.
        1    1    3    3  502    0  0.51599613513E+03  0.69364360209E+02 -0.89503252467E+03  0.10354451440E+04  0.50400001928E-02 0.  1.
       -1    1    3    3    0  502 -0.51599613513E+03 -0.69364360209E+02  0.50149774129E+03  0.72288547536E+03  0.50400001928E-02 0. -1.
</event>
<event>
 5   0  0.3950195E-04  0.1592026E+04  0.7818609E-02  0.8825462E-01
        1   -1    0    0  501    0  0.00000000000E+00  0.00000000000E+00  0.10288957825E+04  0.10288957825E+04  0.50400001928E-02 0.  1.
       -1   -1    0    0    0  501  0.00000000000E+00  0.00000000000E+00 -0.61584179653E+03  0.61584179655E+03  0.50400001928E-02 0. -1.
    10030    2    1    2    0    0  0.00000000000E+00  0.00000000000E+00  0.41305398594E+03  0.16447375790E+04  0.15920264158E+04 0.  0.
        2    1    3    3  502    0  0.13760005528E+03  0.32135641410E+03 -0.53229676061E+03  0.63682302209E+03  0.25500000920E-02 0. -1.
       -2    1    3    3    0  502 -0.13760005528E+03 -0.32135641410E+03  0.94535074655E+03  0.10079145569E+04  0.25500000920E-02 0.  1.
</event>
<event>
 5   0  0.3837251E-04  0.1606833E+04  0.7818609E-02  0.8816361E-01
       -1   -1    0    0    0  501  0.00000000000E+00  0.00000000000E+00  0.73722459544E+03  0.73722459546E+03  0.50400001928E-02 0. -1.
        1   -1    0    0  501    0  0.00000000000E+00  0.00000000000E+00 -0.87555174654E+03  0.87555174655E+03  0.50400001928E-02 0.  1.
    10030    2    1    2    0    0  0.00000000000E+00  0.00000000000E+00 -0.13832715110E+03  0.16127763420E+04  0.16068332610E+04 0.  0.
        4    1    3    3  502    0 -0.44208774551E+03  0.35532272379E+03  0.50195845753E+03  0.75740327353E+03  0.12699999809E+01 0. -1.
       -4    1    3    3    0  502  0.44208774551E+03 -0.35532272379E+03 -0.64028560862E+03  0.85537306848E+03  0.12699999809E+01 0.  1.
</event>
<event>
 5   0  0.4110803E-04  0.1617465E+04  0.7818609E-02  0.8809890E-01
       -1   -1    0    0    0  501  0.00000000000E+00  0.00000000000E+00  0.46327657738E+03  0.46327657740E+03  0.50400001928E-02 0. -1.
        1   -1    0    0  501    0  0.00000000000E+00  0.00000000000E+00 -0.14117875739E+04  0.14117875740E+04  0.50400001928E-02 0.  1.
    10030    2    1    2    0    0  0.00000000000E+00  0.00000000000E+00 -0.94851099657E+03  0.18750641514E+04  0.16174648253E+04 0.  0.
        5    1    3    3  502    0  0.25153740485E+03  0.45865564390E+03  0.24072765423E+03  0.57585411280E+03  0.46999998093E+01 0.  1.
       -5    1    3    3    0  502 -0.25153740485E+03 -0.45865564390E+03 -0.11892386508E+04  0.12992100386E+04  0.46999998093E+01 0. -1.
</event>
<event>
 5   0  0.7395088E-04  0.1614102E+04  0.7818609E-02  0.8811931E-01
       -2   -1    0    0    0  501  0.00000000000E+00  0.00000000000E+00  0.80904016062E+03  0.80904016063E+03  0.25500000920E-02 0. -1.
        2   -1    0    0  501    0  0.00000000000E+00  0.00000000000E+00 -0.80506696772E+03  0.80506696772E+03  0.25500000920E-02 0.  1.
    10030    2    1    2    0    0  0.00000000000E+00  0.00000000000E+00  0.39731929081E+01  0.16141071283E+04  0.16141022383E+04 0.  0.
        1    1    3    3  502    0 -0.32445862970E+03  0.48368415270E+03  0.56065433136E+03  0.80842874841E+03  0.50400001928E-02 0. -1.
       -1    1    3    3    0  502  0.32445862970E+03 -0.48368415270E+03 -0.55668113845E+03  0.80567837994E+03  0.50400001928E-02 0.  1.
</event>
<event>
 5   0  0.3950195E-04  0.1589772E+04  0.7818609E-02  0.8826856E-01
        1   -1    0    0  501    0  0.00000000000E+00  0.00000000000E+00  0.10483633660E+04  0.10483633661E+04  0.50400001928E-02 0.  1.
       -1   -1    0    0    0  501  0.00000000000E+00  0.00000000000E+00 -0.60269533251E+03  0.60269533253E+03  0.50400001928E-02 0. -1.
    10030    2    1    2    0    0  0.00000000000E+00  0.00000000000E+00  0.44566803353E+03  0.16510586986E+04  0.15897719428E+04 0.  0.
        2    1    3    3  502    0  0.32723146116E+03  0.62874344660E+03 -0.15082051414E+03  0.72466928893E+03  0.25500000920E-02 0. -1.
       -2    1    3    3    0  502 -0.32723146116E+03 -0.62874344660E+03  0.59648854767E+03  0.92638940966E+03  0.25500000920E-02 0.  1.
</event>
<event>
 5   0  0.7488884E-04  0.1565380E+04  0.7818609E-02  0.8842103E-01
       -2   -1    0    0    0  501  0.00000000000E+00  0.00000000000E+00  0.41608672477E+03  0.41608672478E+03  0.25500000920E-02 0.  1.
        2   -1    0    0  501    0  0.00000000000E+00  0.00000000000E+00 -0.14722987361E+04  0.14722987361E+04  0.25500000920E-02 0. -1.
    10030    2    1    2    0    0  0.00000000000E+00  0.00000000000E+00 -0.10562120114E+04  0.18883854609E+04  0.15653804126E+04 0.  0.
        3    1    3    3  502    0  0.35441343776E+03 -0.71872006494E+02  0.30926406884E+03  0.47583478715E+03  0.10100000352E+00 0.  1.
       -3    1    3    3    0  502 -0.35441343776E+03  0.71872006494E+02 -0.13654760802E+04  0.14125506738E+04  0.10100000352E+00 0. -1.
</event>
<event>
 5   0  0.3837251E-04  0.1414103E+04  0.7818609E-02  0.8943673E-01
        1   -1    0    0  501    0  0.00000000000E+00  0.00000000000E+00  0.12639201030E+04  0.12639201030E+04  0.50400001928E-02 0. -1.
       -1   -1    0    0    0  501  0.00000000000E+00  0.00000000000E+00 -0.39553268596E+03  0.39553268599E+03  0.50400001928E-02 0.  1.
    10030    2    1    2    0    0  0.00000000000E+00  0.00000000000E+00  0.86838741700E+03  0.16594527890E+04  0.14141028438E+04 0.  0.
        4    1    3    3  502    0 -0.50640463080E+03  0.47236834635E+03  0.60156735893E+03  0.91731259937E+03  0.12699999809E+01 0.  1.
       -4    1    3    3    0  502  0.50640463080E+03 -0.47236834635E+03  0.26682005807E+03  0.74214018960E+03  0.12699999809E+01 0. -1.
</event>
<event>
 5   0  0.7395088E-04  0.1604624E+04  0.7818609E-02  0.8817712E-01
        2   -1    0    0  501    0  0.00000000000E+00  0.00000000000E+00  0.46835252789E+03  0.46835252789E+03  0.25500000920E-02 0. -1.
       -2   -1    0    0    0  501  0.00000000000E+00  0.00000000000E+00 -0.13744024691E+04  0.13744024691E+04  0.25500000920E-02 0.  1.
    10030    2    1    2    0    0  0.00000000000E+00  0.00000000000E+00 -0.90604994120E+03  0.18427549970E+04  0.16046244056E+04 0.  0.
        1    1    3    3  502    0 -0.49649897685E+03  0.60558716079E+03 -0.25260376752E+03  0.82283394845E+03  0.50400001928E-02 0. -1.
       -1    1    3    3    0  502  0.49649897685E+03 -0.60558716079E+03 -0.65344617368E+03  0.10199210485E+04  0.50400001928E-02 0.  1.
</event>
<event>
 5   0  0.3973227E-04  0.1603660E+04  0.7818609E-02  0.8818303E-01
        1   -1    0    0  501    0  0.00000000000E+00  0.00000000000E+00  0.10422663711E+04  0.10422663711E+04  0.50400001928E-02 0.  1.
       -1   -1    0    0    0  501  0.00000000000E+00  0.00000000000E+00 -0.61685908532E+03  0.61685908534E+03  0.50400001928E-02 0. -1.
    10030    2    1    2    0    0  0.00000000000E+00  0.00000000000E+00  0.42540728579E+03  0.16591254565E+04  0.16036601640E+04 0.  0.
        3    1    3    3  502    0  0.12529159139E+02  0.79615837481E+03  0.11506621294E+03  0.80452804872E+03  0.10100000352E+00 0.  1.
       -3    1    3    3    0  502 -0.12529159139E+02 -0.79615837481E+03  0.31034107285E+03  0.85459740774E+03  0.10100000352E+00 0. -1.
</event>
<event>
 5   0  0.7553070E-04  0.1592137E+04  0.7818609E-02  0.8825393E-01
       -2   -1    0    0    0  501  0.00000000000E+00  0.00000000000E+00  0.94373114065E+03  0.94373114065E+03  0.25500000920E-02 0. -1.
        2   -1    0    0  501    0  0.00000000000E+00  0.00000000000E+00 -0.67151057411E+03  0.67151057412E+03  0.25500000920E-02 0.  1.
    10030    2    1    2    0    0  0.00000000000E+00  0.00000000000E+00  0.27222056654E+03  0.16152417148E+04  0.15921374816E+04 0.  0.
        4    1    3    3  502    0 -0.56165129544E+03 -0.43688653566E+03 -0.22600324096E+03  0.74659299523E+03  0.12699999809E+01 0.  1.
       -4    1    3    3    0  502  0.56165129544E+03  0.43688653566E+03  0.49822380749E+03  0.86864871954E+03  0.12699999809E+01 0. -1.
</event>
<event>
 5   0  0.2781000E-04  0.1603372E+04  0.7818609E-02  0.8818479E-01
       -3   -1    0    0    0  501  0.00000000000E+00  0.00000000000E+00  0.49366088712E+03  0.49366089745E+03  0.10100000352E+00 0.  1.
        3   -1    0    0  501    0  0.00000000000E+00  0.00000000000E+00 -0.13019067415E+04  0.13019067454E+04  0.10100000352E+00 0. -1.
    10030    2    1    2    0    0  0.00000000000E+00  0.00000000000E+00 -0.80824585440E+03  0.17955676429E+04  0.16033720089E+04 0.  0.
        5    1    3    3  502    0 -0.64356565001E+03 -0.27984189067E+03 -0.83812136853E+03  0.10931412297E+04  0.46999998093E+01 0. -1.
       -5    1    3    3    0  502  0.64356565001E+03  0.27984189067E+03  0.29875514124E+02  0.70242641322E+03  0.46999998093E+01 0.  1.
</event>
<event>
 5   0  0.7553070E-04  0.1568971E+04  0.7818609E-02  0.8839840E-01
       -2   -1    0    0    0  501  0.00000000000E+00  0.00000000000E+00  0.80139834298E+03  0.80139834299E+03  0.25500000920E-02 0.  1.
        2   -1    0    0  501    0  0.00000000000E+00  0.00000000000E+00 -0.76792952075E+03  0.76792952076E+03  0.25500000920E-02 0. -1.
    10030    2    1    2    0    0  0.00000000000E+00  0.00000000000E+00  0.33468822232E+02  0.15693278637E+04  0.15689709309E+04 0.  0.
        4    1    3    3  502    0  0.43177445369E+03 -0.54573552719E+03  0.37897614124E+03  0.79238940744E+03  0.12699999809E+01 0.  1.
       -4    1    3    3    0  502 -0.43177445369E+03  0.54573552719E+03 -0.34550731900E+03  0.77693845630E+03  0.12699999809E+01 0. -1.
</event>
<event>
 5   0  0.7415102E-04  0.1595536E+04  0.7818609E-02  0.8823295E-01
        2   -1    0    0  501    0  0.00000000000E+00  0.00000000000E+00  0.63882946018E+03  0.63882946018E+03  0.25500000920E-02 0.  1.
       -2   -1    0    0    0  501  0.00000000000E+00  0.00000000000E+00 -0.99624983058E+03  0.99624983059E+03  0.25500000920E-02 0. -1.
    10030    2    1    2    0    0  0.00000000000E+00  0.00000000000E+00 -0.35742037041E+03  0.16350792908E+04  0.15955359494E+04 0.  0.
        5    1    3    3  502    0  0.39543859605E+03  0.17579053814E+03 -0.86549701404E+03  0.96766790163E+03  0.46999998093E+01 0. -1.
       -5    1    3    3    0  502 -0.39543859605E+03 -0.17579053814E+03  0.50807664363E+03  0.66741138913E+03  0.46999998093E+01 0.  1.
</event>
<event>
 5   0  0.7770905E-04  0.1596774E+04  0.7818609E-02  0.8822533E-01
       -2   -1    0    0    0  501  0.00000000000E+00  0.00000000000E+00  0.10125996626E+04  0.10125996626E+04  0.25500000920E-02 0. -1.
        2   -1    0    0  501    0  0.00000000000E+00  0.00000000000E+00 -0.62949011309E+03  0.62949011310E+03  0.25500000920E-02 0.  1.
    10030    2    1    2    0    0  0.00000000000E+00  0.00000000000E+00  0.38310954955E+03  0.16420897757E+04  0.15967735922E+04 0.  0.
        2    1    3    3  502    0  0.58113466763E+03  0.71529737955E+02  0.74971732133E+03  0.95126761074E+03  0.25500000920E-02 0. -1.
       -2    1    3    3    0  502 -0.58113466763E+03 -0.71529737955E+02 -0.36660777178E+03  0.69082216501E+03  0.25500000920E-02 0.  1.
</event>
<event>
 5   0  0.7488884E-04  0.1589225E+04  0.7818609E-02  0.8827195E-01
       -2   -1    0    0    0  501  0.00000000000E+00  0.00000000000E+00  0.38206424913E+03  0.38206424913E+03  0.25500000920E-02 0.  1.
        2   -1    0    0  501    0  0.00000000000E+00  0.00000000000E+00 -0.16526246177E+04  0.16526246177E+04  0.25500000920E-02 0. -1.
    10030    2    1    2    0    0  0.00000000000E+00  0.00000000000E+00 -0.12705603686E+04  0.20346888669E+04  0.15892246961E+04 0.  0.
        3    1    3    3  502    0 -0.31184159926E+03  0.25795548399E+02 -0.15704256549E+04  0.16012955196E+04  0.10100000352E+00 0. -1.
       -3    1    3    3    0  502  0.31184159926E+03 -0.25795548399E+02  0.29986528628E+03  0.43339334728E+03  0.10100000352E+00 0.  1.
</event>
<event>
 5   0  0.7488884E-04  0.1575900E+04  0.7818609E-02  0.8835492E-01
       -2   -1    0    0    0  501  0.00000000000E+00  0.00000000000E+00  0.67678380790E+03  0.67678380790E+03  0.25500000920E-02 0. -1.
        2   -1    0    0  501    0  0.00000000000E+00  0.00000000000E+00 -0.91737645446E+03  0.91737645446E+03  0.25500000920E-02 0.  1.
    10030    2    1    2    0    0  0.00000000000E+00  0.00000000000E+00 -0.24059264656E+03  0.15941602624E+04  0.15759004158E+04 0.  0.
        3    1    3    3  502    0  0.75853923671E+03  0.93202230197E+02  0.73752024885E+02  0.76779411349E+03  0.10100000352E+00 0. -1.
       -3    1    3    3    0  502 -0.75853923671E+03 -0.93202230197E+02 -0.31434467145E+03  0.82636614887E+03  0.10100000352E+00 0.  1.
</event>
<event>
 5   0  0.7770905E-04  0.1604704E+04  0.7818609E-02  0.8817663E-01
        2   -1    0    0  501    0  0.00000000000E+00  0.00000000000E+00  0.15548771831E+04  0.15548771831E+04  0.25500000920E-02 0. -1.
       -2   -1    0    0    0  501  0.00000000000E+00  0.00000000000E+00 -0.41403198863E+03  0.41403198864E+03  0.25500000920E-02 0.  1.
    10030    2    1    2    0    0  0.00000000000E+00  0.00000000000E+00  0.11408451945E+04  0.19689091718E+04  0.16047041998E+04 0.  0.
        2    1    3    3  502    0 -0.58783833445E+03 -0.29397290941E+03  0.11350844587E+04  0.13116366522E+04  0.25500000920E-02 0. -1.
       -2    1    3    3    0  502  0.58783833445E+03  0.29397290941E+03  0.57607357708E+01  0.65727251958E+03  0.25500000920E-02 0.  1.
</event>
<event>
 5   0  0.2781000E-04  0.1606746E+04  0.7818609E-02  0.8816414E-01
       -3   -1    0    0    0  501  0.00000000000E+00  0.00000000000E+00  0.12775695264E+04  0.12775695304E+04  0.10100000352E+00 0. -1.
        3   -1    0    0  501    0  0.00000000000E+00  0.00000000000E+00 -0.50518451854E+03  0.50518452864E+03  0.10100000352E+00 0.  1.
    10030    2    1    2    0    0  0.00000000000E+00  0.00000000000E+00  0.77238500788E+03  0.17827540591E+04  0.16067462260E+04 0.  0.
        3    1    3    3  502    0  0.39531909172E+03  0.16055002904E+03 -0.36907535472E+03  0.56415434393E+03  0.10100000352E+00 0.  1.
       -3    1    3    3    0  502 -0.39531909172E+03 -0.16055002904E+03  0.11414603626E+04  0.12185997151E+04  0.10100000352E+00 0. -1.
</event>
<event>
 5   0  0.2781000E-04  0.1660015E+04  0.7818609E-02  0.8784504E-01
       -4   -1    0    0    0  501  0.00000000000E+00  0.00000000000E+00  0.10391188977E+04  0.10391196737E+04  0.12699999809E+01 0. -1.
        4   -1    0    0  501    0  0.00000000000E+00  0.00000000000E+00 -0.66297601935E+03  0.66297723575E+03  0.12699999809E+01 0.  1.
    10030    2    1    2    0    0  0.00000000000E+00  0.00000000000E+00  0.37614287831E+03  0.17020969095E+04  0.16600151880E+04 0.  0.
        2    1    3    3  502    0  0.71870645329E+02 -0.52686481665E+03 -0.46539179989E+03  0.70664096406E+03  0.25500000920E-02 0.  1.
       -2    1    3    3    0  502 -0.71870645329E+02  0.52686481665E+03  0.84153467820E+03  0.99545594543E+03  0.25500000920E-02 0. -1.
</event>
<event>
 5   0  0.7488884E-04  0.1654392E+04  0.7818609E-02  0.8787812E-01
        2   -1    0    0  501    0  0.00000000000E+00  0.00000000000E+00  0.83576217046E+03  0.83576217046E+03  0.25500000920E-02 0. -1.
       -2   -1    0    0    0  501  0.00000000000E+00  0.00000000000E+00 -0.81871785337E+03  0.81871785337E+03  0.25500000920E-02 0.  1.
    10030    2    1    2    0    0  0.00000000000E+00  0.00000000000E+00  0.17044317092E+02  0.16544800238E+04  0.16543922269E+04 0.  0.
        3    1    3    3  502    0  0.42799830385E+03  0.63308081498E+02 -0.69654216284E+03  0.81997649728E+03  0.10100000352E+00 0.  1.
       -3    1    3    3    0  502 -0.42799830385E+03 -0.63308081498E+02  0.71358647993E+03  0.83450352655E+03  0.10100000352E+00 0. -1.
</event>
<event>
 5   0  0.3837251E-04  0.1595056E+04  0.7818609E-02  0.8823591E-01
       -1   -1    0    0    0  501  0.00000000000E+00  0.00000000000E+00  0.11635497679E+04  0.11635497679E+04  0.50400001928E-02 0. -1.
        1   -1    0    0  501    0  0.00000000000E+00  0.00000000000E+00 -0.54664727138E+03  0.54664727141E+03  0.50400001928E-02 0.  1.
    10030    2    1    2    0    0  0.00000000000E+00  0.00000000000E+00  0.61690249653E+03  0.17101970393E+04  0.15950564953E+04 0.  0.
        4    1    3    3  502    0 -0.33993401699E+03 -0.56349169438E+03 -0.17459397295E+03  0.68085438519E+03  0.12699999809E+01 0.  1.
       -4    1    3    3    0  502  0.33993401699E+03  0.56349169438E+03  0.79149646948E+03  0.10293426541E+04  0.12699999809E+01 0. -1.
</event>
<event>
 5   0  0.7395088E-04  0.1598427E+04  0.7818609E-02  0.8821515E-01
        2   -1    0    0  501    0  0.00000000000E+00  0.00000000000E+00  0.58405027275E+03  0.58405027276E+03  0.25500000920E-02 0. -1.
       -2   -1    0    0    0  501  0.00000000000E+00  0.00000000000E+00 -0.10936418971E+04  0.10936418971E+04  0.25500000920E-02 0.  1.
    10030    2    1    2    0    0  0.00000000000E+00  0.00000000000E+00 -0.50959162430E+03  0.16776921698E+04  0.15984265367E+04 0.  0.
        1    1    3    3  502    0  0.14754093182E+03 -0.69010888084E+03 -0.64852946090E+03  0.95844095053E+03  0.50400001928E-02 0.  1.
       -1    1    3    3    0  502 -0.14754093182E+03  0.69010888084E+03  0.13893783661E+03  0.71925121928E+03  0.50400001928E-02 0. -1.
</event>
<event>
 5   0  0.7770905E-04  0.1593669E+04  0.7818609E-02  0.8824447E-01
        2   -1    0    0  501    0  0.00000000000E+00  0.00000000000E+00  0.97832153135E+03  0.97832153135E+03  0.25500000920E-02 0. -1.
       -2   -1    0    0    0  501  0.00000000000E+00  0.00000000000E+00 -0.64901493729E+03  0.64901493729E+03  0.25500000920E-02 0.  1.
    10030    2    1    2    0    0  0.00000000000E+00  0.00000000000E+00  0.32930659406E+03  0.16273364686E+04  0.15936690840E+04 0.  0.
        2    1    3    3  502    0  0.55921384957E+03 -0.43765969462E+03 -0.20447926666E+03  0.73897084405E+03  0.25500000920E-02 0.  1.
       -2    1    3    3    0  502 -0.55921384957E+03  0.43765969462E+03  0.53378586073E+03  0.88836562460E+03  0.25500000920E-02 0. -1.
</event>
<event>
 5   0  0.3950195E-04  0.1609674E+04  0.7818609E-02  0.8814627E-01
       -1   -1    0    0    0  501  0.00000000000E+00  0.00000000000E+00  0.65860601713E+03  0.65860601715E+03  0.50400001928E-02 0.  1.
        1   -1    0    0  501    0  0.00000000000E+00  0.00000000000E+00 -0.98353559114E+03  0.98353559115E+03  0.50400001928E-02 0. -1.
    10030    2    1    2    0    0  0.00000000000E+00  0.00000000000E+00 -0.32492957401E+03  0.16421416083E+04  0.16096738283E+04 0.  0.
        2    1    3    3  502    0  0.19200766265E+03  0.39291385181E+02  0.63389026032E+03  0.66349650911E+03  0.25500000920E-02 0.  1.
       -2    1    3    3    0  502 -0.19200766265E+03 -0.39291385181E+02 -0.95881983433E+03  0.97864509919E+03  0.25500000920E-02 0. -1.
</event>
<event>
 5   0  0.7415102E-04  0.1590900E+04  0.7818609E-02  0.8826158E-01
        2   -1    0    0  501    0  0.00000000000E+00  0.00000000000E+00  0.11067167074E+04  0.11067167074E+04  0.25500000920E-02 0.  1.
       -2   -1    0    0    0  501  0.00000000000E+00  0.00000000000E+00 -0.57172752883E+03  0.57172752883E+03  0.25500000920E-02 0. -1.
    10030    2    1    2    0    0  0.00000000000E+00  0.00000000000E+00  0.53498917854E+03  0.16784442362E+04  0.15908996300E+04 0.  0.
        5    1    3    3  502    0 -0.49506019583E+03  0.58272211242E+03  0.49880498195E+03  0.91295024937E+03  0.46999998093E+01 0.  1.
       -5    1    3    3    0  502  0.49506019583E+03 -0.58272211242E+03  0.36184196591E+02  0.76549398684E+03  0.46999998093E+01 0. -1.
</event>
<event>
 5   0  0.3973227E-04  0.1599447E+04  0.7818609E-02  0.8820888E-01
        1   -1    0    0  501    0  0.00000000000E+00  0.00000000000E+00  0.58407739005E+03  0.58407739007E+03  0.50400001928E-02 0. -1.
       -1   -1    0    0    0  501  0.00000000000E+00  0.00000000000E+00 -0.10949875550E+04  0.10949875550E+04  0.50400001928E-02 0.  1.
    10030    2    1    2    0    0  0.00000000000E+00  0.00000000000E+00 -0.51091016497E+03  0.16790649451E+04  0.15994467460E+04 0.  0.
        3    1    3    3  502    0  0.55714600992E+03  0.84741765512E+02  0.34020950960E+03  0.65828213086E+03  0.10100000352E+00 0. -1.
       -3    1    3    3    0  502 -0.55714600992E+03 -0.84741765512E+02 -0.85111967457E+03  0.10207828142E+04  0.10100000352E+00 0.  1.
</event>
<event>
 5   0  0.3973227E-04  0.1595504E+04  0.7818609E-02  0.8823315E-01
        1   -1    0    0  501    0  0.00000000000E+00  0.00000000000E+00  0.98978303821E+03  0.98978303822E+03  0.50400001928E-02 0. -1.
       -1   -1    0    0    0  501  0.00000000000E+00  0.00000000000E+00 -0.64297739597E+03  0.64297739599E+03  0.50400001928E-02 0.  1.
    10030    2    1    2    0    0  0.00000000000E+00  0.00000000000E+00  0.34680564224E+03  0.16327604342E+04  0.15955038333E+04 0.  0.
        3    1    3    3  502    0 -0.10667161243E+03 -0.79053224496E+03  0.16380037028E+03  0.81434061346E+03  0.10100000352E+00 0.  1.
       -3    1    3    3    0  502  0.10667161243E+03  0.79053224496E+03  0.18300527196E+03  0.81841982075E+03  0.10100000352E+00 0. -1.
</event>
<event>
 5   0  0.3837251E-04  0.1577449E+04  0.7818609E-02  0.8834523E-01
       -1   -1    0    0    0  501  0.00000000000E+00  0.00000000000E+00  0.46637831199E+03  0.46637831201E+03  0.50400001928E-02 0.  1.
        1   -1    0    0  501    0  0.00000000000E+00  0.00000000000E+00 -0.13338670176E+04  0.13338670176E+04  0.50400001928E-02 0. -1.
    10030    2    1    2    0    0  0.00000000000E+00  0.00000000000E+00 -0.86748870563E+03  0.18002453296E+04  0.15774493946E+04 0.  0.
        4    1    3    3  502    0  0.53172196927E+03 -0.22695081721E+03  0.17854887559E+03  0.60507540019E+03  0.12699999809E+01 0.  1.
       -4    1    3    3    0  502 -0.53172196927E+03  0.22695081721E+03 -0.10460375812E+04  0.11951699295E+04  0.12699999809E+01 0. -1.
</event>
<event>
 5   0  0.7553070E-04  0.1604992E+04  0.7818609E-02  0.8817487E-01
        2   -1    0    0  501    0  0.00000000000E+00  0.00000000000E+00  0.11251977165E+04  0.11251977165E+04  0.25500000920E-02 0.  1.
       -2   -1    0    0    0  501  0.00000000000E+00  0.00000000000E+00 -0.57234369689E+03  0.57234369689E+03  0.25500000920E-02 0. -1.
    10030    2    1    2    0    0  0.00000000000E+00  0.00000000000E+00  0.55285401963E+03  0.16975414134E+04  0.16049919885E+04 0.  0.
        4    1    3    3  502    0  0.49052388988E+03  0.16573255594E+03 -0.37204857831E+03  0.63757566151E+03  0.12699999809E+01 0. -1.
       -4    1    3    3    0  502 -0.49052388988E+03 -0.16573255594E+03  0.92490259794E+03  0.10599657519E+04  0.12699999809E+01 0.  1.
</event>
<event>
 5   0  0.7770905E-04  0.1586025E+04  0.7818609E-02  0.8829179E-01
        2   -1    0    0  501    0  0.00000000000E+00  0.00000000000E+00  0.21048719709E+04  0.21048719710E+04  0.25500000920E-02 0.  1.
       -2   -1    0    0    0  501  0.00000000000E+00  0.00000000000E+00 -0.29876834943E+03  0.29876834945E+03  0.25500000920E-02 0. -1.
    10030    2    1    2    0    0  0.00000000000E+00  0.00000000000E+00  0.18061036215E+04  0.24036403204E+04  0.15860253775E+04 0.  0.
        2    1    3    3  502    0  0.75521643592E+02 -0.77041037148E+03  0.11639376879E+04  0.13978507075E+04  0.25500000920E-02 0. -1.
       -2    1    3    3    0  502 -0.75521643592E+02  0.77041037148E+03  0.64216593365E+03  0.10057896129E+04  0.25500000920E-02 0.  1.
</event>
<event>
 5   0  0.7553070E-04  0.1609757E+04  0.7818609E-02  0.8814576E-01
        2   -1    0    0  501    0  0.00000000000E+00  0.00000000000E+00  0.99853356366E+03  0.99853356366E+03  0.25500000920E-02 0. -1.
       -2   -1    0    0    0  501  0.00000000000E+00  0.00000000000E+00 -0.64878102005E+03  0.64878102006E+03  0.25500000920E-02 0.  1.
    10030    2    1    2    0    0  0.00000000000E+00  0.00000000000E+00  0.34975254361E+03  0.16473145837E+04  0.16097572786E+04 0.  0.
        4    1    3    3  502    0 -0.26122276126E+03 -0.67042714371E+03  0.54401111783E+03  0.90203081724E+03  0.12699999809E+01 0. -1.
       -4    1    3    3    0  502  0.26122276126E+03  0.67042714371E+03 -0.19425857423E+03  0.74528376648E+03  0.12699999809E+01 0.  1.
</event>
<event>
 5   0  0.7395088E-04  0.1576379E+04  0.7818609E-02  0.8835192E-01
        2   -1    0    0  501    0  0.00000000000E+00  0.00000000000E+00  0.16543669268E+04  0.16543669268E+04  0.25500000920E-02 0.  1.
       -2   -1    0    0    0  501  0.00000000000E+00  0.00000000000E+00 -0.37551663715E+03  0.37551663716E+03  0.25500000920E-02 0. -1.
    10030    2    1    2    0    0  0.00000000000E+00  0.00000000000E+00  0.12788502896E+04  0.20298835639E+04  0.15763785142E+04 0.  0.
        1    1    3    3  502    0 -0.62987123674E+03  0.47006733414E+03  0.56279709440E+03  0.96666521764E+03  0.50400001928E-02 0. -1.
       -1    1    3    3    0  502  0.62987123674E+03 -0.47006733414E+03  0.71605319523E+03  0.10632183463E+04  0.50400001928E-02 0.  1.
</event>
<event>
 5   0  0.7488884E-04  0.1617439E+04  0.7818609E-02  0.8809906E-01
        2   -1    0    0  501    0  0.00000000000E+00  0.00000000000E+00  0.49175525033E+03  0.49175525034E+03  0.25500000920E-02 0.  1.
       -2   -1    0    0    0  501  0.00000000000E+00  0.00000000000E+00 -0.13299850913E+04  0.13299850913E+04  0.25500000920E-02 0. -1.
    10030    2    1    2    0    0  0.00000000000E+00  0.00000000000E+00 -0.83822984099E+03  0.18217403417E+04  0.16174389034E+04 0.  0.
        3    1    3    3  502    0 -0.67680593237E+03  0.32202822862E+03 -0.76122213718E+03  0.10682825480E+04  0.10100000352E+00 0. -1.
       -3    1    3    3    0  502  0.67680593237E+03 -0.32202822862E+03 -0.77007703810E+02  0.75345779362E+03  0.10100000352E+00 0.  1.
</event>
<event>
 5   0  0.3889847E-04  0.1593806E+04  0.7818609E-02  0.8824362E-01
        1   -1    0    0  501    0  0.00000000000E+00  0.00000000000E+00  0.24917931634E+04  0.24917931634E+04  0.50400001928E-02 0. -1.
       -1   -1    0    0    0  501  0.00000000000E+00  0.00000000000E+00 -0.25485834648E+03  0.25485834653E+03  0.50400001928E-02 0.  1.
    10030    2    1    2    0    0  0.00000000000E+00  0.00000000000E+00  0.22369348169E+04  0.27466515099E+04  0.15938058671E+04 0.  0.
        1    1    3    3  502    0 -0.39027309011E+03 -0.69381119727E+03  0.10547456374E+04  0.13214293102E+04  0.50400001928E-02 0.  1.
       -1    1    3    3    0  502  0.39027309011E+03  0.69381119727E+03  0.11821891796E+04  0.14252221997E+04  0.50400001928E-02 0. -1.
</event>
<event>
 5   0  0.7770905E-04  0.1602483E+04  0.7818609E-02  0.8819024E-01
        2   -1    0    0  501    0  0.00000000000E+00  0.00000000000E+00  0.14999794955E+04  0.14999794955E+04  0.25500000920E-02 0.  1.
       -2   -1    0    0    0  501  0.00000000000E+00  0.00000000000E+00 -0.42799781120E+03  0.42799781121E+03  0.25500000920E-02 0. -1.
    10030    2    1    2    0    0  0.00000000000E+00  0.00000000000E+00  0.10719816843E+04  0.19279773067E+04  0.16024829995E+04 0.  0.
        2    1    3    3  502    0  0.19392663010E+02 -0.74850254637E+03  0.19282602424E+03  0.77318433309E+03  0.25500000920E-02 0. -1.
       -2    1    3    3    0  502 -0.19392663010E+02  0.74850254637E+03  0.87915566002E+03  0.11547929736E+04  0.25500000920E-02 0.  1.
</event>
<event>
 5   0  0.3950195E-04  0.1590638E+04  0.7818609E-02  0.8826320E-01
       -1   -1    0    0    0  501  0.00000000000E+00  0.00000000000E+00  0.59936048690E+03  0.59936048692E+03  0.50400001928E-02 0. -1.
        1   -1    0    0  501    0  0.00000000000E+00  0.00000000000E+00 -0.10553458873E+04  0.10553458873E+04  0.50400001928E-02 0.  1.
    10030    2    1    2    0    0  0.00000000000E+00  0.00000000000E+00 -0.45598540038E+03  0.16547063742E+04  0.15906383937E+04 0.  0.
        2    1    3    3  502    0  0.16946645035E+03 -0.25273519918E+03  0.53640908672E+03  0.61670792684E+03  0.25500000920E-02 0. -1.
       -2    1    3    3    0  502 -0.16946645035E+03  0.25273519918E+03 -0.99239448710E+03  0.10379984474E+04  0.25500000920E-02 0.  1.
</event>
<event>
 5   0  0.7553070E-04  0.1591223E+04  0.7818609E-02  0.8825958E-01
        2   -1    0    0  501    0  0.00000000000E+00  0.00000000000E+00  0.12812912608E+04  0.12812912608E+04  0.25500000920E-02 0.  1.
       -2   -1    0    0    0  501  0.00000000000E+00  0.00000000000E+00 -0.49403126481E+03  0.49403126482E+03  0.25500000920E-02 0. -1.
    10030    2    1    2    0    0  0.00000000000E+00  0.00000000000E+00  0.78725999596E+03  0.17753225256E+04  0.15912233560E+04 0.  0.
        4    1    3    3  502    0  0.33561424276E+03 -0.41620830260E+03 -0.26371328474E+03  0.59616489375E+03  0.12699999809E+01 0. -1.
       -4    1    3    3    0  502 -0.33561424276E+03  0.41620830260E+03  0.10509732807E+04  0.11791576318E+04  0.12699999809E+01 0.  1.
</event>
<event>
 5   0  0.7553070E-04  0.1440603E+04  0.7818609E-02  0.8924941E-01
       -2   -1    0    0    0  501  0.00000000000E+00  0.00000000000E+00  0.45826264635E+03  0.45826264635E+03  0.25500000920E-02 0.  1.
        2   -1    0    0  501    0  0.00000000000E+00  0.00000000000E+00 -0.11321770866E+04  0.11321770867E+04  0.25500000920E-02 0. -1.
    10030    2    1    2    0    0  0.00000000000E+00  0.00000000000E+00 -0.67391444030E+03  0.15904397330E+04  0.14406033012E+04 0.  0.
        4    1    3    3  502    0 -0.36058528438E+03  0.54132600725E+03  0.47105544947E+01  0.65044553627E+03  0.12699999809E+01 0.  1.
       -4    1    3    3    0  502  0.36058528438E+03 -0.54132600725E+03 -0.67862499480E+03  0.93999419674E+03  0.12699999809E+01 0. -1.
</event>
<event>
 5   0  0.3889847E-04  0.1567011E+04  0.7818609E-02  0.8841075E-01
       -1   -1    0    0    0  501  0.00000000000E+00  0.00000000000E+00  0.42334862108E+03  0.42334862111E+03  0.50400001928E-02 0.  1.
        1   -1    0    0  501    0  0.00000000000E+00  0.00000000000E+00 -0.14500602766E+04  0.14500602767E+04  0.50400001928E-02 0. -1.
    10030    2    1    2    0    0  0.00000000000E+00  0.00000000000E+00 -0.10267116556E+04  0.18734088978E+04  0.15670111916E+04 0.  0.
        1    1    3    3  502    0 -0.14980005356E+03 -0.43637383107E+03  0.24372608328E+03  0.52178978544E+03  0.50400001928E-02 0.  1.
       -1    1    3    3    0  502  0.14980005356E+03  0.43637383107E+03 -0.12704377388E+04  0.13516191123E+04  0.50400001928E-02 0. -1.
</event>
<event>
 5   0  0.3973227E-04  0.1605576E+04  0.7818609E-02  0.8817130E-01
       -1   -1    0    0    0  501  0.00000000000E+00  0.00000000000E+00  0.56990556570E+03  0.56990556572E+03  0.50400001928E-02 0. -1.
        1   -1    0    0  501    0  0.00000000000E+00  0.00000000000E+00 -0.11308336224E+04  0.11308336224E+04  0.50400001928E-02 0.  1.
    10030    2    1    2    0    0  0.00000000000E+00  0.00000000000E+00 -0.56092805674E+03  0.17007391882E+04  0.16055757538E+04 0.  0.
        3    1    3    3  502    0 -0.25865621390E+02 -0.17213357429E+03  0.54967530779E+03  0.57657779350E+03  0.10100000352E+00 0. -1.
       -3    1    3    3    0  502  0.25865621390E+02  0.17213357429E+03 -0.11106033645E+04  0.11241613947E+04  0.10100000352E+00 0.  1.
</event>
<event>
 5   0  0.7488884E-04  0.1630507E+04  0.7818609E-02  0.8802023E-01
       -2   -1    0    0    0  501  0.00000000000E+00  0.00000000000E+00  0.49193768429E+03  0.49193768429E+03  0.25500000920E-02 0.  1.
        2   -1    0    0  501    0  0.00000000000E+00  0.00000000000E+00 -0.13510610926E+04  0.13510610926E+04  0.25500000920E-02 0. -1.
    10030    2    1    2    0    0  0.00000000000E+00  0.00000000000E+00 -0.85912340830E+03  0.18429987769E+04  0.16305065044E+04 0.  0.
        3    1    3    3  502    0  0.76309460784E+03 -0.13278278257E+03 -0.14206567392E+03  0.78748162758E+03  0.10100000352E+00 0.  1.
       -3    1    3    3    0  502 -0.76309460784E+03  0.13278278257E+03 -0.71705773437E+03  0.10555171493E+04  0.10100000352E+00 0. -1.
</event>
<event>
 5   0  0.4110803E-04  0.1582918E+04  0.7818609E-02  0.8831111E-01
        1   -1    0    0  501    0  0.00000000000E+00  0.00000000000E+00  0.97841192351E+03  0.97841192352E+03  0.50400001928E-02 0. -1.
       -1   -1    0    0    0  501  0.00000000000E+00  0.00000000000E+00 -0.64022869645E+03  0.64022869647E+03  0.50400001928E-02 0.  1.
    10030    2    1    2    0    0  0.00000000000E+00  0.00000000000E+00  0.33818322706E+03  0.16186406200E+04  0.15829180527E+04 0.  0.
        5    1    3    3  502    0  0.60370313951E+01  0.18588130237E+03 -0.61755265172E+03  0.64496641150E+03  0.46999998093E+01 0.  1.
       -5    1    3    3    0  502 -0.60370313951E+01 -0.18588130237E+03  0.95573587878E+03  0.97367420850E+03  0.46999998093E+01 0. -1.
</event>
<event>
 5   0  0.3837251E-04  0.1492804E+04  0.7818609E-02  0.8889253E-01
       -1   -1    0    0    0  501  0.00000000000E+00  0.00000000000E+00  0.40375789459E+03  0.40375789462E+03  0.50400001928E-02 0.  1.
        1   -1    0    0  501    0  0.00000000000E+00  0.00000000000E+00 -0.13798259245E+04  0.13798259245E+04  0.50400001928E-02 0. -1.
    10030    2    1    2    0    0  0.00000000000E+00  0.00000000000E+00 -0.97606802995E+03  0.17835838192E+04  0.14928035507E+04 0.  0.
        4    1    3    3  502    0 -0.36609231107E+03 -0.54367738730E+03 -0.91466756968E+03  0.11252675493E+04  0.12699999809E+01 0. -1.
       -4    1    3    3    0  502  0.36609231107E+03  0.54367738730E+03 -0.61400460266E+02  0.65831626982E+03  0.12699999809E+01 0.  1.
</event>
<event>
 5   0  0.7553070E-04  0.1608871E+04  0.7818609E-02  0.8815117E-01
        2   -1    0    0  501    0  0.00000000000E+00  0.00000000000E+00  0.14661858672E+04  0.14661858672E+04  0.25500000920E-02 0.  1.
       -2   -1    0    0    0  501  0.00000000000E+00  0.00000000000E+00 -0.44136025823E+03  0.44136025823E+03  0.25500000920E-02 0. -1.
    10030    2    1    2    0    0  0.00000000000E+00  0.00000000000E+00  0.10248256090E+04  0.19075461255E+04  0.16088706262E+04 0.  0.
        4    1    3    3  502    0 -0.53365163136E+03  0.59067349077E+03  0.37498392893E+03  0.87993965487E+03  0.12699999809E+01 0. -1.
       -4    1    3    3    0  502  0.53365163136E+03 -0.59067349077E+03  0.64984168006E+03  0.10276064706E+04  0.12699999809E+01 0.  1.
</event>
<event>
 5   0  0.7395088E-04  0.1651396E+04  0.7818609E-02  0.8789581E-01
        2   -1    0    0  501    0  0.00000000000E+00  0.00000000000E+00  0.18813710193E+04  0.18813710193E+04  0.25500000920E-02 0.  1.
       -2   -1    0    0    0  501  0.00000000000E+00  0.00000000000E+00 -0.36238329884E+03  0.36238329885E+03  0.25500000920E-02 0. -1.
    10030    2    1    2    0    0  0.00000000000E+00  0.00000000000E+00  0.15189877205E+04  0.22437543182E+04  0.16513963017E+04 0.  0.
        1    1    3    3  502    0 -0.68333065906E+03 -0.91358706619E+02  0.14208372897E+03  0.70389984298E+03  0.50400001928E-02 0. -1.
       -1    1    3    3    0  502  0.68333065906E+03  0.91358706619E+02  0.13769039915E+04  0.15398544752E+04  0.50400001928E-02 0.  1.
</event>
<event>
 5   0  0.3950195E-04  0.1600666E+04  0.7818609E-02  0.8820139E-01
       -1   -1    0    0    0  501  0.00000000000E+00  0.00000000000E+00  0.90830030415E+03  0.90830030416E+03  0.50400001928E-02 0.  1.
        1   -1    0    0  501    0  0.00000000000E+00  0.00000000000E+00 -0.70519956237E+03  0.70519956238E+03  0.50400001928E-02 0. -1.
    10030    2    1    2    0    0  0.00000000000E+00  0.00000000000E+00  0.20310074178E+03  0.16134998665E+04  0.16006660826E+04 0.  0.
        2    1    3    3  502    0 -0.12674936541E+03  0.56615706023E+03  0.65727246252E+03  0.87670194962E+03  0.25500000920E-02 0.  1.
       -2    1    3    3    0  502  0.12674936541E+03 -0.56615706023E+03 -0.45417172073E+03  0.73679791693E+03  0.25500000920E-02 0. -1.
</event>
<event>
 5   0  0.7770905E-04  0.1606622E+04  0.7818609E-02  0.8816490E-01
       -2   -1    0    0    0  501  0.00000000000E+00  0.00000000000E+00  0.38625081506E+03  0.38625081507E+03  0.25500000920E-02 0. -1.
        2   -1    0    0  501    0  0.00000000000E+00  0.00000000000E+00 -0.16706980895E+04  0.16706980895E+04  0.25500000920E-02 0.  1.
    10030    2    1    2    0    0  0.00000000000E+00  0.00000000000E+00 -0.12844472745E+04  0.20569489046E+04  0.16066219204E+04 0.  0.
        2    1    3    3  502    0  0.18194049655E+03 -0.74156188560E+03 -0.96176448763E+03  0.12280094886E+04  0.25500000920E-02 0.  1.
       -2    1    3    3    0  502 -0.18194049655E+03  0.74156188560E+03 -0.32268278684E+03  0.82893941599E+03  0.25500000920E-02 0. -1.
</event>
<event>
 5   0  0.7395088E-04  0.1612436E+04  0.7818609E-02  0.8812944E-01
        2   -1    0    0  501    0  0.00000000000E+00  0.00000000000E+00  0.18726378227E+04  0.18726378227E+04  0.25500000920E-02 0. -1.
       -2   -1    0    0    0  501  0.00000000000E+00  0.00000000000E+00 -0.34709725018E+03  0.34709725019E+03  0.25500000920E-02 0.  1.
    10030    2    1    2    0    0  0.00000000000E+00  0.00000000000E+00  0.15255405725E+04  0.22197350729E+04  0.16124359694E+04 0.  0.
        1    1    3    3  502    0  0.37519508860E+03 -0.36913278866E+03  0.16034839153E+04  0.16876584479E+04  0.50400001928E-02 0. -1.
       -1    1    3    3    0  502 -0.37519508860E+03  0.36913278866E+03 -0.77943342749E+02  0.53207662501E+03  0.50400001928E-02 0.  1.
</event>
<event>
 5   0  0.7488884E-04  0.1613836E+04  0.7818609E-02  0.8812093E-01
       -2   -1    0    0    0  501  0.00000000000E+00  0.00000000000E+00  0.47991714972E+03  0.47991714973E+03  0.25500000920E-02 0. -1.
        2   -1    0    0  501    0  0.00000000000E+00  0.00000000000E+00 -0.13567269554E+04  0.13567269555E+04  0.25500000920E-02 0.  1.
    10030    2    1    2    0    0  0.00000000000E+00  0.00000000000E+00 -0.87680980573E+03  0.18366441052E+04  0.16138358447E+04 0.  0.
        3    1    3    3  502    0 -0.13911100040E+02 -0.53525783100E+03 -0.11254226891E+04  0.12463028138E+04  0.10100000352E+00 0.  1.
       -3    1    3    3    0  502  0.13911100040E+02  0.53525783100E+03  0.24861288335E+03  0.59034129139E+03  0.10100000352E+00 0. -1.
</event>
<event>
 5   0  0.7770905E-04  0.1591481E+04  0.7818609E-02  0.8825799E-01
        2   -1    0    0  501    0  0.00000000000E+00  0.00000000000E+00  0.12896032097E+04  0.12896032097E+04  0.25500000920E-02 0. -1.
       -2   -1    0    0    0  501  0.00000000000E+00  0.00000000000E+00 -0.49100589511E+03  0.49100589511E+03  0.25500000920E-02 0.  1.
    10030    2    1    2    0    0  0.00000000000E+00  0.00000000000E+00  0.79859731461E+03  0.17806091048E+04  0.15914807926E+04 0.  0.
        2    1    3    3  502    0  0.55074107031E+03  0.55249952337E+03  0.22370407754E+03  0.81155096215E+03  0.25500000920E-02 0.  1.
       -2    1    3    3    0  502 -0.55074107031E+03 -0.55249952337E+03  0.57489323707E+03  0.96905814268E+03  0.25500000920E-02 0. -1.
</event>
<event>
 5   0  0.4110803E-04  0.1588552E+04  0.7818609E-02  0.8827612E-01
       -1   -1    0    0    0  501  0.00000000000E+00  0.00000000000E+00  0.31640857590E+03  0.31640857594E+03  0.50400001928E-02 0.  1.
        1   -1    0    0  501    0  0.00000000000E+00  0.00000000000E+00 -0.19938592423E+04  0.19938592423E+04  0.50400001928E-02 0. -1.
    10030    2    1    2    0    0  0.00000000000E+00  0.00000000000E+00 -0.16774506664E+04  0.23102678183E+04  0.15885517473E+04 0.  0.
        5    1    3    3  502    0  0.12331427357E+03  0.77679102722E+02 -0.19742264883E+04  0.19796041953E+04  0.46999998093E+01 0. -1.
       -5    1    3    3    0  502 -0.12331427357E+03 -0.77679102722E+02  0.29677582189E+03  0.33066362292E+03  0.46999998093E+01 0.  1.
</event>
<event>
 5   0  0.7553070E-04  0.1446920E+04  0.7818609E-02  0.8920538E-01
       -2   -1    0    0    0  501  0.00000000000E+00  0.00000000000E+00  0.20199325916E+03  0.20199325917E+03  0.25500000920E-02 0. -1.
        2   -1    0    0  501    0  0.00000000000E+00  0.00000000000E+00 -0.25911481462E+04  0.25911481462E+04  0.25500000920E-02 0.  1.
    10030    2    1    2    0    0  0.00000000000E+00  0.00000000000E+00 -0.23891548870E+04  0.27931414054E+04  0.14469201209E+04 0.  0.
        4    1    3    3  502    0  0.96933082054E+02  0.16375702686E+03 -0.25419673739E+04  0.25490806439E+04  0.12699999809E+01 0.  1.
       -4    1    3    3    0  502 -0.96933082054E+02 -0.16375702686E+03  0.15281248687E+03  0.24406076146E+03  0.12699999809E+01 0. -1.
</event>
<event>
 5   0  0.3973227E-04  0.1597298E+04  0.7818609E-02  0.8822210E-01
       -1   -1    0    0    0  501  0.00000000000E+00  0.00000000000E+00  0.10248938170E+04  0.10248938170E+04  0.50400001928E-02 0.  1.
        1   -1    0    0  501    0  0.00000000000E+00  0.00000000000E+00 -0.62234753237E+03  0.62234753239E+03  0.50400001928E-02 0. -1.
    10030    2    1    2    0    0  0.00000000000E+00  0.00000000000E+00  0.40254628466E+03  0.16472413494E+04  0.15972978908E+04 0.  0.
        3    1    3    3  502    0 -0.50070457580E+03 -0.35011954081E+03 -0.32915470797E+03  0.69399682785E+03  0.10100000352E+00 0. -1.
       -3    1    3    3    0  502  0.50070457580E+03  0.35011954081E+03  0.73170099262E+03  0.95324452157E+03  0.10100000352E+00 0.  1.
</event>
<event>
 5   0  0.3889847E-04  0.1531241E+04  0.7818609E-02  0.8863939E-01
       -1   -1    0    0    0  501  0.00000000000E+00  0.00000000000E+00  0.72773508032E+03  0.72773508034E+03  0.50400001928E-02 0. -1.
        1   -1    0    0  501    0  0.00000000000E+00  0.00000000000E+00 -0.80547872188E+03  0.80547872189E+03  0.50400001928E-02 0.  1.
    10030    2    1    2    0    0  0.00000000000E+00  0.00000000000E+00 -0.77743641555E+02  0.15332138022E+04  0.15312414864E+04 0.  0.
        1    1    3    3  502    0 -0.13199336872E+03 -0.75415603794E+03 -0.37627877415E+02  0.76654382532E+03  0.50400001928E-02 0. -1.
       -1    1    3    3    0  502  0.13199336872E+03  0.75415603794E+03 -0.40115764140E+02  0.76666997692E+03  0.50400001928E-02 0.  1.
</event>
<event>
 5   0  0.7488884E-04  0.1597019E+04  0.7818609E-02  0.8822382E-01
        2   -1    0    0  501    0  0.00000000000E+00  0.00000000000E+00  0.89543049771E+03  0.89543049772E+03  0.25500000920E-02 0.  1.
       -2   -1    0    0    0  501  0.00000000000E+00  0.00000000000E+00 -0.71207906521E+03  0.71207906521E+03  0.25500000920E-02 0. -1.
    10030    2    1    2    0    0  0.00000000000E+00  0.00000000000E+00  0.18335143251E+03  0.16075095629E+04  0.15970188625E+04 0.  0.
        3    1    3    3  502    0  0.49571673994E+03  0.36701214244E+03 -0.41878902316E+03  0.74553152521E+03  0.10100000352E+00 0. -1.
       -3    1    3    3    0  502 -0.49571673994E+03 -0.36701214244E+03  0.60214045566E+03  0.86197803772E+03  0.10100000352E+00 0.  1.
</event>
<event>
 5   0  0.2781000E-04  0.1578509E+04  0.7818609E-02  0.8833861E-01
        3   -1    0    0  501    0  0.00000000000E+00  0.00000000000E+00  0.30789204943E+04  0.30789204960E+04  0.10100000352E+00 0.  1.
       -3   -1    0    0    0  501  0.00000000000E+00  0.00000000000E+00 -0.20231841346E+03  0.20231843867E+03  0.10100000352E+00 0. -1.
    10030    2    1    2    0    0  0.00000000000E+00  0.00000000000E+00  0.28766020809E+04  0.32812389346E+04  0.15785086045E+04 0.  0.
        4    1    3    3  502    0 -0.29534015656E+02  0.77323180379E+03  0.11151921581E+04  0.13573558277E+04  0.12699999809E+01 0. -1.
       -4    1    3    3    0  502  0.29534015656E+02 -0.77323180379E+03  0.17614099227E+04  0.19238831070E+04  0.12699999809E+01 0.  1.
</event>
<event>
 5   0  0.3973227E-04  0.1609203E+04  0.7818609E-02  0.8814914E-01
        1   -1    0    0  501    0  0.00000000000E+00  0.00000000000E+00  0.98484775013E+03  0.98484775015E+03  0.50400001928E-02 0.  1.
       -1   -1    0    0    0  501  0.00000000000E+00  0.00000000000E+00 -0.65734358489E+03  0.65734358491E+03  0.50400001928E-02 0. -1.
    10030    2    1    2    0    0  0.00000000000E+00  0.00000000000E+00  0.32750416524E+03  0.16421913351E+04  0.16092027227E+04 0.  0.
        3    1    3    3  502    0  0.45966061110E+02  0.44447089495E+03  0.84658483869E+03  0.95727381377E+03  0.10100000352E+00 0.  1.
       -3    1    3    3    0  502 -0.45966061110E+02 -0.44447089495E+03 -0.51908067344E+03  0.68491752129E+03  0.10100000352E+00 0. -1.
</event>
<event>
 5   0  0.3837251E-04  0.1610136E+04  0.7818609E-02  0.8814345E-01
       -1   -1    0    0    0  501  0.00000000000E+00  0.00000000000E+00  0.40629040999E+03  0.40629041002E+03  0.50400001928E-02 0.  1.
        1   -1    0    0  501    0  0.00000000000E+00  0.00000000000E+00 -0.15952485017E+04  0.15952485017E+04  0.50400001928E-02 0. -1.
    10030    2    1    2    0    0  0.00000000000E+00  0.00000000000E+00 -0.11889580917E+04  0.20015389117E+04  0.16101356065E+04 0.  0.
        4    1    3    3  502    0  0.49995637708E+03 -0.61716919348E+03 -0.43107873630E+03  0.90370608173E+03  0.12699999809E+01 0.  1.
       -4    1    3    3    0  502 -0.49995637708E+03  0.61716919348E+03 -0.75787935541E+03  0.10978328300E+04  0.12699999809E+01 0. -1.
</event>
<event>
 5   0  0.4110803E-04  0.1598591E+04  0.7818609E-02  0.8821414E-01
        1   -1    0    0  501    0  0.00000000000E+00  0.00000000000E+00  0.90011292024E+03  0.90011292025E+03  0.50400001928E-02 0.  1.
       -1   -1    0    0    0  501  0.00000000000E+00  0.00000000000E+00 -0.70976994130E+03  0.70976994132E+03  0.50400001928E-02 0. -1.
    10030    2    1    2    0    0  0.00000000000E+00  0.00000000000E+00  0.19034297894E+03  0.16098828616E+04  0.15985907476E+04 0.  0.
        5    1    3    3  502    0 -0.17449341754E+03  0.58792755525E+03  0.61137812794E+03  0.86597463491E+03  0.46999998093E+01 0.  1.
       -5    1    3    3    0  502  0.17449341754E+03 -0.58792755525E+03 -0.42103514900E+03  0.74390822665E+03  0.46999998093E+01 0. -1.
</event>
<event>
 5   0  0.3837251E-04  0.1596652E+04  0.7818609E-02  0.8822607E-01
       -1   -1    0    0    0  501  0.00000000000E+00  0.00000000000E+00  0.75449983094E+03  0.75449983095E+03  0.50400001928E-02 0.  1.
        1   -1    0    0  501    0  0.00000000000E+00  0.00000000000E+00 -0.84469837738E+03  0.84469837739E+03  0.50400001928E-02 0. -1.
    10030    2    1    2    0    0  0.00000000000E+00  0.00000000000E+00 -0.90198546443E+02  0.15991982083E+04  0.15966524768E+04 0.  0.
        4    1    3    3  502    0  0.50194857812E+03  0.61236895649E+03 -0.14711969677E+03  0.80535329641E+03  0.12699999809E+01 0. -1.
       -4    1    3    3    0  502 -0.50194857812E+03 -0.61236895649E+03  0.56921150327E+02  0.79384491194E+03  0.12699999809E+01 0.  1.
</event>
<event>
 5   0  0.7488884E-04  0.1648600E+04  0.7818609E-02  0.8791235E-01
       -2   -1    0    0    0  501  0.00000000000E+00  0.00000000000E+00  0.77519973491E+03  0.77519973492E+03  0.25500000920E-02 0.  1.
        2   -1    0    0  501    0  0.00000000000E+00  0.00000000000E+00 -0.87650993997E+03  0.87650993998E+03  0.25500000920E-02 0. -1.
    10030    2    1    2    0    0  0.00000000000E+00  0.00000000000E+00 -0.10131020506E+03  0.16517096749E+04  0.16485997369E+04 0.  0.
        3    1    3    3  502    0 -0.61366608477E+03  0.35785545460E+03  0.36825285149E+03  0.80016046066E+03  0.10100000352E+00 0.  1.
       -3    1    3    3    0  502  0.61366608477E+03 -0.35785545460E+03 -0.46956305655E+03  0.85154921423E+03  0.10100000352E+00 0. -1.
</event>
<event>
 5   0  0.3837251E-04  0.1597571E+04  0.7818609E-02  0.8822042E-01
       -1   -1    0    0    0  501  0.00000000000E+00  0.00000000000E+00  0.65341693545E+03  0.65341693547E+03  0.50400001928E-02 0.  1.
        1   -1    0    0  501    0  0.00000000000E+00  0.00000000000E+00 -0.97649497297E+03  0.97649497298E+03  0.50400001928E-02 0. -1.
    10030    2    1    2    0    0  0.00000000000E+00  0.00000000000E+00 -0.32307803753E+03  0.16299119085E+04  0.15975710973E+04 0.  0.
        4    1    3    3  502    0 -0.21628207677E+03 -0.24991684687E+03  0.58038260142E+03  0.66789366221E+03  0.12699999809E+01 0.  1.
       -4    1    3    3    0  502  0.21628207677E+03  0.24991684687E+03 -0.90346063895E+03  0.96201824624E+03  0.12699999809E+01 0. -1.
</event>
<event>
 5   0  0.7488884E-04  0.1647185E+04  0.7818609E-02  0.8792074E-01
        2   -1    0    0  501    0  0.00000000000E+00  0.00000000000E+00  0.12623459698E+04  0.12623459698E+04  0.25500000920E-02 0. -1.
       -2   -1    0    0    0  501  0.00000000000E+00  0.00000000000E+00 -0.53733635564E+03  0.53733635565E+03  0.25500000920E-02 0.  1.
    10030    2    1    2    0    0  0.00000000000E+00  0.00000000000E+00  0.72500961411E+03  0.17996823254E+04  0.16471847291E+04 0.  0.
        3    1    3    3  502    0  0.29038864572E+03  0.19152463508E+03  0.11781418549E+04  0.12284239870E+04  0.10100000352E+00 0. -1.
       -3    1    3    3    0  502 -0.29038864572E+03 -0.19152463508E+03 -0.45313224076E+03  0.57125833842E+03  0.10100000352E+00 0.  1.
</event>
<event>
 5   0  0.7553070E-04  0.1605388E+04  0.7818609E-02  0.8817245E-01
        2   -1    0    0  501    0  0.00000000000E+00  0.00000000000E+00  0.14421286931E+04  0.14421286931E+04  0.25500000920E-02 0. -1.
       -2   -1    0    0    0  501  0.00000000000E+00  0.00000000000E+00 -0.44678212701E+03  0.44678212701E+03  0.25500000920E-02 0.  1.
    10030    2    1    2    0    0  0.00000000000E+00  0.00000000000E+00  0.99534656605E+03  0.18889108201E+04  0.16053875855E+04 0.  0.
        4    1    3    3  502    0 -0.33444271812E+03 -0.12114610539E+03  0.13443298742E+04  0.13905943816E+04  0.12699999809E+01 0. -1.
       -4    1    3    3    0  502  0.33444271812E+03  0.12114610539E+03 -0.34898330817E+03  0.49831643846E+03  0.12699999809E+01 0.  1.
</event>
<event>
 5   0  0.3837251E-04  0.1607903E+04  0.7818609E-02  0.8815708E-01
       -1   -1    0    0    0  501  0.00000000000E+00  0.00000000000E+00  0.40498003491E+03  0.40498003494E+03  0.50400001928E-02 0. -1.
        1   -1    0    0  501    0  0.00000000000E+00  0.00000000000E+00 -0.15959745968E+04  0.15959745968E+04  0.50400001928E-02 0.  1.
    10030    2    1    2    0    0  0.00000000000E+00  0.00000000000E+00 -0.11909945619E+04  0.20009546318E+04  0.16079027931E+04 0.  0.
        4    1    3    3  502    0 -0.16698670890E+03 -0.71176811663E+03 -0.10116682706E+04  0.12481877725E+04  0.12699999809E+01 0.  1.
       -4    1    3    3    0  502  0.16698670890E+03  0.71176811663E+03 -0.17932629137E+03  0.75276685931E+03  0.12699999809E+01 0. -1.
</event>
<event>
 5   0  0.3889847E-04  0.1580104E+04  0.7818609E-02  0.8832865E-01
       -1   -1    0    0    0  501  0.00000000000E+00  0.00000000000E+00  0.52635556213E+03  0.52635556216E+03  0.50400001928E-02 0. -1.
        1   -1    0    0  501    0  0.00000000000E+00  0.00000000000E+00 -0.11858558481E+04  0.11858558481E+04  0.50400001928E-02 0.  1.
    10030    2    1    2    0    0  0.00000000000E+00  0.00000000000E+00 -0.65950028594E+03  0.17122114102E+04  0.15801035682E+04 0.  0.
        1    1    3    3  502    0  0.44254889191E+03  0.51582642446E+03  0.10673695627E+03  0.68798197634E+03  0.50400001928E-02 0. -1.
       -1    1    3    3    0  502 -0.44254889191E+03 -0.51582642446E+03 -0.76623724221E+03  0.10242294339E+04  0.50400001928E-02 0.  1.
</event>
<event>
 5   0  0.7770905E-04  0.1634348E+04  0.7818609E-02  0.8799720E-01
        2   -1    0    0  501    0  0.00000000000E+00  0.00000000000E+00  0.20354571895E+04  0.20354571895E+04  0.25500000920E-02 0.  1.
       -2   -1    0    0    0  501  0.00000000000E+00  0.00000000000E+00 -0.32807031250E+03  0.32807031251E+03  0.25500000920E-02 0. -1.
    10030    2    1    2    0    0  0.00000000000E+00  0.00000000000E+00  0.17073868770E+04  0.23635275020E+04  0.16343476696E+04 0.  0.
        2    1    3    3  502    0 -0.42181634351E+03  0.13738234545E+03 -0.13876630215E+03  0.46482149597E+03  0.25500000920E-02 0. -1.
       -2    1    3    3    0  502  0.42181634351E+03 -0.13738234545E+03  0.18461531792E+04  0.18987060061E+04  0.25500000920E-02 0.  1.
</event>
<event>
 5   0  0.7488884E-04  0.1574638E+04  0.7818609E-02  0.8836282E-01
        2   -1    0    0  501    0  0.00000000000E+00  0.00000000000E+00  0.12870317293E+04  0.12870317293E+04  0.25500000920E-02 0. -1.
       -2   -1    0    0    0  501  0.00000000000E+00  0.00000000000E+00 -0.48162835963E+03  0.48162835964E+03  0.25500000920E-02 0.  1.
    10030    2    1    2    0    0  0.00000000000E+00  0.00000000000E+00  0.80540336968E+03  0.17686600890E+04  0.15746377115E+04 0.  0.
        3    1    3    3  502    0  0.73100762212E+03 -0.10163876321E+03  0.94750877025E+02  0.74409698338E+03  0.10100000352E+00 0.  1.
       -3    1    3    3    0  502 -0.73100762212E+03  0.10163876321E+03  0.71065249266E+03  0.10245631056E+04  0.10100000352E+00 0. -1.
</event>
<event>
 5   0  0.3837251E-04  0.1593554E+04  0.7818609E-02  0.8824518E-01
       -1   -1    0    0    0  501  0.00000000000E+00  0.00000000000E+00  0.41693996371E+03  0.41693996374E+03  0.50400001928E-02 0. -1.
        1   -1    0    0  501    0  0.00000000000E+00  0.00000000000E+00 -0.15226499252E+04  0.15226499252E+04  0.50400001928E-02 0.  1.
    10030    2    1    2    0    0  0.00000000000E+00  0.00000000000E+00 -0.11057099615E+04  0.19395898890E+04  0.15935540212E+04 0.  0.
        4    1    3    3  502    0  0.43459659122E+03  0.36570837446E+03  0.12726265679E+03  0.58207749395E+03  0.12699999809E+01 0. -1.
       -4    1    3    3    0  502 -0.43459659122E+03 -0.36570837446E+03 -0.12329726183E+04  0.13575123950E+04  0.12699999809E+01 0.  1.
</event>
<event>
 5   0  0.3950195E-04  0.1590008E+04  0.7818609E-02  0.8826710E-01
        1   -1    0    0  501    0  0.00000000000E+00  0.00000000000E+00  0.14528975828E+04  0.14528975828E+04  0.50400001928E-02 0.  1.
       -1   -1    0    0    0  501  0.00000000000E+00  0.00000000000E+00 -0.43501457365E+03  0.43501457368E+03  0.50400001928E-02 0. -1.
    10030    2    1    2    0    0  0.00000000000E+00  0.00000000000E+00  0.10178830092E+04  0.18879121565E+04  0.15900083303E+04 0.  0.
        2    1    3    3  502    0 -0.47334528824E+03  0.61738020501E+03  0.70338430946E+03  0.10487914789E+04  0.25500000920E-02 0. -1.
       -2    1    3    3    0  502  0.47334528824E+03 -0.61738020501E+03  0.31449869970E+03  0.83912067758E+03  0.25500000920E-02 0.  1.
</event>
<event>
 5   0  0.3889847E-04  0.1607882E+04  0.7818609E-02  0.8815720E-01
       -1   -1    0    0    0  501  0.00000000000E+00  0.00000000000E+00  0.78478194584E+03  0.78478194586E+03  0.50400001928E-02 0. -1.
        1   -1    0    0  501    0  0.00000000000E+00  0.00000000000E+00 -0.82356807970E+03  0.82356807972E+03  0.50400001928E-02 0.  1.
    10030    2    1    2    0    0  0.00000000000E+00  0.00000000000E+00 -0.38786133859E+02  0.16083500256E+04  0.16078822844E+04 0.  0.
        1    1    3    3  502    0  0.80133959603E+03 -0.63204957114E+02 -0.32863437578E+02  0.80449985725E+03  0.50400001928E-02 0. -1.
       -1    1    3    3    0  502 -0.80133959603E+03  0.63204957114E+02 -0.59226962812E+01  0.80385016833E+03  0.50400001928E-02 0.  1.
</event>
<event>
 5   0  0.7770905E-04  0.1557207E+04  0.7818609E-02  0.8847277E-01
       -2   -1    0    0    0  501  0.00000000000E+00  0.00000000000E+00  0.24135088601E+03  0.24135088602E+03  0.25500000920E-02 0. -1.
        2   -1    0    0  501    0  0.00000000000E+00  0.00000000000E+00 -0.25117928723E+04  0.25117928723E+04  0.25500000920E-02 0.  1.
    10030    2    1    2    0    0  0.00000000000E+00  0.00000000000E+00 -0.22704419863E+04  0.27531437584E+04  0.15572070321E+04 0.  0.
        2    1    3    3  502    0  0.11306268136E+03 -0.48792479718E+03 -0.81264448980E+02  0.50740288558E+03  0.25500000920E-02 0. -1.
       -2    1    3    3    0  502 -0.11306268136E+03  0.48792479718E+03 -0.21891775373E+04  0.22457408728E+04  0.25500000920E-02 0.  1.
</event>
<event>
 5   0  0.4110803E-04  0.1593227E+04  0.7818609E-02  0.8824720E-01
       -1   -1    0    0    0  501  0.00000000000E+00  0.00000000000E+00  0.40992985170E+03  0.40992985173E+03  0.50400001928E-02 0. -1.
        1   -1    0    0  501    0  0.00000000000E+00  0.00000000000E+00 -0.15480531363E+04  0.15480531363E+04  0.50400001928E-02 0.  1.
    10030    2    1    2    0    0  0.00000000000E+00  0.00000000000E+00 -0.11381232846E+04  0.19579829880E+04  0.15932271559E+04 0.  0.
        5    1    3    3  502    0 -0.13235869574E+03  0.74919584540E+03 -0.27887041708E+03  0.81031107522E+03  0.46999998093E+01 0. -1.
       -5    1    3    3    0  502  0.13235869574E+03 -0.74919584540E+03 -0.85925286750E+03  0.11476719128E+04  0.46999998093E+01 0.  1.
</event>
<event>
 5   0  0.3973227E-04  0.1592388E+04  0.7818609E-02  0.8825238E-01
       -1   -1    0    0    0  501  0.00000000000E+00  0.00000000000E+00  0.33699553426E+03  0.33699553430E+03  0.50400001928E-02 0.  1.
        1   -1    0    0  501    0  0.00000000000E+00  0.00000000000E+00 -0.18811082998E+04  0.18811082998E+04  0.50400001928E-02 0. -1.
    10030    2    1    2    0    0  0.00000000000E+00  0.00000000000E+00 -0.15441127655E+04  0.22181038341E+04  0.15923882649E+04 0.  0.
        3    1    3    3  502    0 -0.49875650444E+03  0.41518308704E+03 -0.12950397978E+03  0.66174491873E+03  0.10100000352E+00 0.  1.
       -3    1    3    3    0  502  0.49875650444E+03 -0.41518308704E+03 -0.14146087857E+04  0.15563589153E+04  0.10100000352E+00 0. -1.
</event>
<event>
 5   0  0.7488884E-04  0.1502874E+04  0.7818609E-02  0.8882544E-01
        2   -1    0    0  501    0  0.00000000000E+00  0.00000000000E+00  0.74159437237E+03  0.74159437237E+03  0.25500000920E-02 0. -1.
       -2   -1    0    0    0  501  0.00000000000E+00  0.00000000000E+00 -0.76141072359E+03  0.76141072359E+03  0.25500000920E-02 0.  1.
    10030    2    1    2    0    0  0.00000000000E+00  0.00000000000E+00 -0.19816351220E+02  0.15030050960E+04  0.15028744561E+04 0.  0.
        3    1    3    3  502    0 -0.14615416674E+03 -0.12587638196E+03  0.71641385819E+03  0.74192636454E+03  0.10100000352E+00 0. -1.
       -3    1    3    3    0  502  0.14615416674E+03  0.12587638196E+03 -0.73623020941E+03  0.76107873143E+03  0.10100000352E+00 0.  1.
</event>
<event>
 5   0  0.7488884E-04  0.1589605E+04  0.7818609E-02  0.8826960E-01
       -2   -1    0    0    0  501  0.00000000000E+00  0.00000000000E+00  0.93601168898E+03  0.93601168898E+03  0.25500000920E-02 0.  1.
        2   -1    0    0  501    0  0.00000000000E+00  0.00000000000E+00 -0.67489644546E+03  0.67489644546E+03  0.25500000920E-02 0. -1.
    10030    2    1    2    0    0  0.00000000000E+00  0.00000000000E+00  0.26111524352E+03  0.16109081344E+04  0.15896049343E+04 0.  0.
        3    1    3    3  502    0 -0.21669705564E+03  0.60839068186E+03 -0.33891547948E+03  0.72935625597E+03  0.10100000352E+00 0. -1.
       -3    1    3    3    0  502  0.21669705564E+03 -0.60839068186E+03  0.60003072300E+03  0.88155187847E+03  0.10100000352E+00 0.  1.
</event>
<event>
 5   0  0.3889847E-04  0.1291172E+04  0.7818609E-02  0.9036595E-01
       -1   -1    0    0    0  501  0.00000000000E+00  0.00000000000E+00  0.33912148294E+03  0.33912148297E+03  0.50400001928E-02 0.  1.
        1   -1    0    0  501    0  0.00000000000E+00  0.00000000000E+00 -0.12290027910E+04  0.12290027910E+04  0.50400001928E-02 0. -1.
    10030    2    1    2    0    0  0.00000000000E+00  0.00000000000E+00 -0.88988130807E+03  0.15681242740E+04  0.12911719468E+04 0.  0.
        1    1    3    3  502    0 -0.58172486998E+03 -0.15521203167E+03 -0.72791229728E+03  0.94464327219E+03  0.50400001928E-02 0. -1.
       -1    1    3    3    0  502  0.58172486998E+03  0.15521203167E+03 -0.16196901078E+03  0.62348100180E+03  0.50400001928E-02 0.  1.
</event>
<event>
 5   0  0.7395088E-04  0.1618877E+04  0.7818609E-02  0.8809034E-01
        2   -1    0    0  501    0  0.00000000000E+00  0.00000000000E+00  0.19987271681E+04  0.19987271681E+04  0.25500000920E-02 0. -1.
       -2   -1    0    0    0  501  0.00000000000E+00  0.00000000000E+00 -0.32780398828E+03  0.32780398829E+03  0.25500000920E-02 0.  1.
    10030    2    1    2    0    0  0.00000000000E+00  0.00000000000E+00  0.16709231798E+04  0.23265311564E+04  0.16188770642E+04 0.  0.
        1    1    3    3  502    0 -0.34735401564E+03  0.43458668718E+03 -0.94787767796E+01  0.55642631865E+03  0.50400001928E-02 0.  1.
       -1    1    3    3    0  502  0.34735401564E+03 -0.43458668718E+03  0.16804019566E+04  0.17701048378E+04  0.50400001928E-02 0. -1.
</event>
<event>
 5   0  0.3950195E-04  0.1613376E+04  0.7818609E-02  0.8812373E-01
        1   -1    0    0  501    0  0.00000000000E+00  0.00000000000E+00  0.16893175963E+04  0.16893175963E+04  0.50400001928E-02 0.  1.
       -1   -1    0    0    0  501  0.00000000000E+00  0.00000000000E+00 -0.38521196822E+03  0.38521196825E+03  0.50400001928E-02 0. -1.
    10030    2    1    2    0    0  0.00000000000E+00  0.00000000000E+00  0.13041056281E+04  0.20745295646E+04  0.16133757854E+04 0.  0.
        2    1    3    3  502    0 -0.50477630509E+03 -0.24289091150E+03 -0.94339194758E+02  0.56806249369E+03  0.25500000920E-02 0. -1.
       -2    1    3    3    0  502  0.50477630509E+03  0.24289091150E+03  0.13984448229E+04  0.15064670709E+04  0.25500000920E-02 0.  1.
</event>
<event>
 5   0  0.3889847E-04  0.1610239E+04  0.7818609E-02  0.8814282E-01
        1   -1    0    0  501    0  0.00000000000E+00  0.00000000000E+00  0.80858304381E+03  0.80858304383E+03  0.50400001928E-02 0.  1.
       -1   -1    0    0    0  501  0.00000000000E+00  0.00000000000E+00 -0.80167067386E+03  0.80167067388E+03  0.50400001928E-02 0. -1.
    10030    2    1    2    0    0  0.00000000000E+00  0.00000000000E+00  0.69123699538E+01  0.16102537177E+04  0.16102388812E+04 0.  0.
        1    1    3    3  502    0  0.48430718795E+03 -0.60992680767E+02 -0.63681821601E+03  0.80237833949E+03  0.50400001928E-02 0. -1.
       -1    1    3    3    0  502 -0.48430718795E+03  0.60992680767E+02  0.64373058596E+03  0.80787537822E+03  0.50400001928E-02 0.  1.
</event>
<event>
 5   0  0.2781000E-04  0.1665897E+04  0.7818609E-02  0.8781057E-01
        4   -1    0    0  501    0  0.00000000000E+00  0.00000000000E+00  0.10703736975E+04  0.10703744510E+04  0.12699999809E+01 0. -1.
       -4   -1    0    0    0  501  0.00000000000E+00  0.00000000000E+00 -0.64818652915E+03  0.64818777331E+03  0.12699999809E+01 0.  1.
    10030    2    1    2    0    0  0.00000000000E+00  0.00000000000E+00  0.42218716838E+03  0.17185622243E+04  0.16658973899E+04 0.  0.
        4    1    3    3  502    0 -0.42078920553E+03  0.62818453328E+03  0.57160161979E+03  0.94784460118E+03  0.12699999809E+01 0. -1.
       -4    1    3    3    0  502  0.42078920553E+03 -0.62818453328E+03 -0.14941445141E+03  0.77071762308E+03  0.12699999809E+01 0.  1.
</event>
<event>
 5   0  0.7395088E-04  0.1548473E+04  0.7818609E-02  0.8852844E-01
        2   -1    0    0  501    0  0.00000000000E+00  0.00000000000E+00  0.65092377863E+03  0.65092377863E+03  0.25500000920E-02 0.  1.
       -2   -1    0    0    0  501  0.00000000000E+00  0.00000000000E+00 -0.92090981659E+03  0.92090981660E+03  0.25500000920E-02 0. -1.
    10030    2    1    2    0    0  0.00000000000E+00  0.00000000000E+00 -0.26998603797E+03  0.15718335952E+04  0.15484729221E+04 0.  0.
        1    1    3    3  502    0  0.44618274618E+03 -0.32416752561E+03  0.41660010331E+03  0.69117239076E+03  0.50400001928E-02 0.  1.
       -1    1    3    3    0  502 -0.44618274618E+03  0.32416752561E+03 -0.68658614127E+03  0.88066120447E+03  0.50400001928E-02 0. -1.
</event>
<event>
 5   0  0.3950195E-04  0.1597391E+04  0.7818609E-02  0.8822153E-01
        1   -1    0    0  501    0  0.00000000000E+00  0.00000000000E+00  0.56288086180E+03  0.56288086183E+03  0.50400001928E-02 0.  1.
       -1   -1    0    0    0  501  0.00000000000E+00  0.00000000000E+00 -0.11333025211E+04  0.11333025212E+04  0.50400001928E-02 0. -1.
    10030    2    1    2    0    0  0.00000000000E+00  0.00000000000E+00 -0.57042165934E+03  0.16961833830E+04  0.15973907472E+04 0.  0.
        2    1    3    3  502    0 -0.48665604005E+03 -0.18111149172E+02  0.38699084344E+03  0.62203217598E+03  0.25500000920E-02 0.  1.
       -2    1    3    3    0  502  0.48665604005E+03  0.18111149172E+02 -0.95741250277E+03  0.10741512070E+04  0.25500000920E-02 0. -1.
</event>
<event>
 5   0  0.3950195E-04  0.1615748E+04  0.7818609E-02  0.8810931E-01
       -1   -1    0    0    0  501  0.00000000000E+00  0.00000000000E+00  0.43571594044E+03  0.43571594047E+03  0.50400001928E-02 0.  1.
        1   -1    0    0  501    0  0.00000000000E+00  0.00000000000E+00 -0.14979032366E+04  0.14979032366E+04  0.50400001928E-02 0. -1.
    10030    2    1    2    0    0  0.00000000000E+00  0.00000000000E+00 -0.10621872962E+04  0.19336191771E+04  0.16157478980E+04 0.  0.
        2    1    3    3  502    0 -0.42581346984E+03 -0.58903474686E+03 -0.95315427956E+03  0.11986584688E+04  0.25500000920E-02 0. -1.
       -2    1    3    3    0  502  0.42581346984E+03  0.58903474686E+03 -0.10903301663E+03  0.73496070835E+03  0.25500000920E-02 0.  1.
</event>
<event>
 5   0  0.7770905E-04  0.1602451E+04  0.7818609E-02  0.8819044E-01
       -2   -1    0    0    0  501  0.00000000000E+00  0.00000000000E+00  0.80347233464E+03  0.80347233464E+03  0.25500000920E-02 0.  1.
        2   -1    0    0  501    0  0.00000000000E+00  0.00000000000E+00 -0.79898503174E+03  0.79898503175E+03  0.25500000920E-02 0. -1.
    10030    2    1    2    0    0  0.00000000000E+00  0.00000000000E+00  0.44873028961E+01  0.16024573664E+04  0.16024510836E+04 0.  0.
        2    1    3    3  502    0 -0.45447119754E+02  0.12253029837E+03  0.79274232578E+03  0.80344228779E+03  0.25500000920E-02 0.  1.
       -2    1    3    3    0  502  0.45447119754E+02 -0.12253029837E+03 -0.78825502289E+03  0.79901507860E+03  0.25500000920E-02 0. -1.
</event>
<event>
 5   0  0.3973227E-04  0.1590087E+04  0.7818609E-02  0.8826661E-01
       -1   -1    0    0    0  501  0.00000000000E+00  0.00000000000E+00  0.93972044389E+03  0.93972044390E+03  0.50400001928E-02 0.  1.
        1   -1    0    0  501    0  0.00000000000E+00  0.00000000000E+00 -0.67264079295E+03  0.67264079297E+03  0.50400001928E-02 0. -1.
    10030    2    1    2    0    0  0.00000000000E+00  0.00000000000E+00  0.26707965093E+03  0.16123612369E+04  0.15900871732E+04 0.  0.
        3    1    3    3  502    0 -0.69497684005E+03  0.33486022676E+03  0.32850938625E+03  0.83847636026E+03  0.10100000352E+00 0.  1.
       -3    1    3    3    0  502  0.69497684005E+03 -0.33486022676E+03 -0.61429735317E+02  0.77388487661E+03  0.10100000352E+00 0. -1.
</event>
<event>
 5   0  0.7415102E-04  0.1712479E+04  0.7818609E-02  0.8754279E-01
       -2   -1    0    0    0  501  0.00000000000E+00  0.00000000000E+00  0.26237048461E+03  0.26237048462E+03  0.25500000920E-02 0.  1.
        2   -1    0    0  501    0  0.00000000000E+00  0.00000000000E+00 -0.27943172694E+04  0.27943172694E+04  0.25500000920E-02 0. -1.
    10030    2    1    2    0    0  0.00000000000E+00  0.00000000000E+00 -0.25319467848E+04  0.30566877540E+04  0.17124793443E+04 0.  0.
        5    1    3    3  502    0  0.53291886197E+03  0.55452448935E+03 -0.19377033552E+04  0.20847580928E+04  0.46999998093E+01 0. -1.
       -5    1    3    3    0  502 -0.53291886197E+03 -0.55452448935E+03 -0.59424342953E+03  0.97192966117E+03  0.46999998093E+01 0.  1.
</event>
<event>
 5   0  0.3973227E-04  0.1811561E+04  0.7818609E-02  0.8700175E-01
       -1   -1    0    0    0  501  0.00000000000E+00  0.00000000000E+00  0.43402943438E+03  0.43402943441E+03  0.50400001928E-02 0.  1.
        1   -1    0    0  501    0  0.00000000000E+00  0.00000000000E+00 -0.18902831014E+04  0.18902831014E+04  0.50400001928E-02 0. -1.
    10030    2    1    2    0    0  0.00000000000E+00  0.00000000000E+00 -0.14562536670E+04  0.23243125358E+04  0.18115612110E+04 0.  0.
        3    1    3    3  502    0 -0.34261452673E+03 -0.68241890172E+03 -0.13532184195E+04  0.15537954732E+04  0.10100000352E+00 0. -1.
       -3    1    3    3    0  502  0.34261452673E+03  0.68241890172E+03 -0.10303524749E+03  0.77051706262E+03  0.10100000352E+00 0.  1.
</event>
<event>
 5   0  0.7770905E-04  0.1554022E+04  0.7818609E-02  0.8849302E-01
        2   -1    0    0  501    0  0.00000000000E+00  0.00000000000E+00  0.11507909271E+04  0.11507909271E+04  0.25500000920E-02 0.  1.
       -2   -1    0    0    0  501  0.00000000000E+00  0.00000000000E+00 -0.52463610215E+03  0.52463610215E+03  0.25500000920E-02 0. -1.
    10030    2    1    2    0    0  0.00000000000E+00  0.00000000000E+00  0.62615482499E+03  0.16754270293E+04  0.15540224791E+04 0.  0.
        2    1    3    3  502    0 -0.65656507742E+03 -0.35743799138E+02  0.75941392189E+03  0.10045221873E+04  0.25500000920E-02 0.  1.
       -2    1    3    3    0  502  0.65656507742E+03  0.35743799138E+02 -0.13325909690E+03  0.67090484197E+03  0.25500000920E-02 0. -1.
</event>
<event>
 5   0  0.7770905E-04  0.1599557E+04  0.7818609E-02  0.8820820E-01
       -2   -1    0    0    0  501  0.00000000000E+00  0.00000000000E+00  0.13185285760E+04  0.13185285760E+04  0.25500000920E-02 0. -1.
        2   -1    0    0  501    0  0.00000000000E+00  0.00000000000E+00 -0.48512087974E+03  0.48512087975E+03  0.25500000920E-02 0.  1.
    10030    2    1    2    0    0  0.00000000000E+00  0.00000000000E+00  0.83340769623E+03  0.18036494557E+04  0.15995571171E+04 0.  0.
        2    1    3    3  502    0  0.10078110878E+03 -0.55299420655E+03  0.10582302790E+04  0.11982532069E+04  0.25500000920E-02 0. -1.
       -2    1    3    3    0  502 -0.10078110878E+03  0.55299420655E+03 -0.22482258279E+03  0.60539624884E+03  0.25500000920E-02 0.  1.
</event>
<event>
 5   0  0.3889847E-04  0.1601673E+04  0.7818609E-02  0.8819521E-01
       -1   -1    0    0    0  501  0.00000000000E+00  0.00000000000E+00  0.56844204958E+03  0.56844204960E+03  0.50400001928E-02 0. -1.
        1   -1    0    0  501    0  0.00000000000E+00  0.00000000000E+00 -0.11282394878E+04  0.11282394878E+04  0.50400001928E-02 0.  1.
    10030    2    1    2    0    0  0.00000000000E+00  0.00000000000E+00 -0.55979743823E+03  0.16966815374E+04  0.16016725844E+04 0.  0.
        1    1    3    3  502    0  0.18175520352E+03 -0.44007318984E+03 -0.96202043537E+03  0.10733977290E+04  0.50400001928E-02 0.  1.
       -1    1    3    3    0  502 -0.18175520352E+03  0.44007318984E+03  0.40222299715E+03  0.62328380846E+03  0.50400001928E-02 0. -1.
</event>
<event>
 5   0  0.7488884E-04  0.1578574E+04  0.7818609E-02  0.8833820E-01
        2   -1    0    0  501    0  0.00000000000E+00  0.00000000000E+00  0.92614157341E+03  0.92614157341E+03  0.25500000920E-02 0. -1.
       -2   -1    0    0    0  501  0.00000000000E+00  0.00000000000E+00 -0.67265535302E+03  0.67265535303E+03  0.25500000920E-02 0.  1.
    10030    2    1    2    0    0  0.00000000000E+00  0.00000000000E+00  0.25348622039E+03  0.15987969264E+04  0.15785741503E+04 0.  0.
        3    1    3    3  502    0 -0.58319900398E+03  0.29881111068E+03 -0.31885325815E+03  0.72875000414E+03  0.10100000352E+00 0.  1.
       -3    1    3    3    0  502  0.58319900398E+03 -0.29881111068E+03  0.57233947854E+03  0.87004692230E+03  0.10100000352E+00 0. -1.
</event>
<event>
 5   0  0.7770905E-04  0.1604931E+04  0.7818609E-02  0.8817524E-01
        2   -1    0    0  501    0  0.00000000000E+00  0.00000000000E+00  0.14767335903E+04  0.14767335903E+04  0.25500000920E-02 0. -1.
       -2   -1    0    0    0  501  0.00000000000E+00  0.00000000000E+00 -0.43606429731E+03  0.43606429732E+03  0.25500000920E-02 0.  1.
    10030    2    1    2    0    0  0.00000000000E+00  0.00000000000E+00  0.10406692930E+04  0.19127978876E+04  0.16049308962E+04 0.  0.
        2    1    3    3  502    0  0.63025372358E+03 -0.48988352966E+03  0.61821805597E+03  0.10096530065E+04  0.25500000920E-02 0.  1.
       -2    1    3    3    0  502 -0.63025372358E+03  0.48988352966E+03  0.42245123702E+03  0.90314488117E+03  0.25500000920E-02 0. -1.
</event>
<event>
 5   0  0.3973227E-04  0.1604641E+04  0.7818609E-02  0.8817702E-01
        1   -1    0    0  501    0  0.00000000000E+00  0.00000000000E+00  0.51792437824E+03  0.51792437826E+03  0.50400001928E-02 0. -1.
       -1   -1    0    0    0  501  0.00000000000E+00  0.00000000000E+00 -0.12428802841E+04  0.12428802841E+04  0.50400001928E-02 0.  1.
    10030    2    1    2    0    0  0.00000000000E+00  0.00000000000E+00 -0.72495590585E+03  0.17608046624E+04  0.16046407678E+04 0.  0.
        3    1    3    3  502    0 -0.18348304493E+03 -0.29863040249E+03 -0.11544298407E+04  0.12064635976E+04  0.10100000352E+00 0.  1.
       -3    1    3    3    0  502  0.18348304493E+03  0.29863040249E+03  0.42947393489E+03  0.55434106471E+03  0.10100000352E+00 0. -1.
</event>
<event>
 5   0  0.3973227E-04  0.1584665E+04  0.7818609E-02  0.8830024E-01
        1   -1    0    0  501    0  0.00000000000E+00  0.00000000000E+00  0.71300408318E+03  0.71300408320E+03  0.50400001928E-02 0. -1.
       -1   -1    0    0    0  501  0.00000000000E+00  0.00000000000E+00 -0.88048728917E+03  0.88048728919E+03  0.50400001928E-02 0.  1.
    10030    2    1    2    0    0  0.00000000000E+00  0.00000000000E+00 -0.16748320599E+03  0.15934913724E+04  0.15846653052E+04 0.  0.
        3    1    3    3  502    0  0.11889795105E+03 -0.48729913289E+03 -0.70050418117E+03  0.86157024422E+03  0.10100000352E+00 0.  1.
       -3    1    3    3    0  502 -0.11889795105E+03  0.48729913289E+03  0.53302097518E+03  0.73192112817E+03  0.10100000352E+00 0. -1.
</event>
<event>
 5   0  0.3837251E-04  0.1593292E+04  0.7818609E-02  0.8824680E-01
        1   -1    0    0  501    0  0.00000000000E+00  0.00000000000E+00  0.81364582035E+03  0.81364582036E+03  0.50400001928E-02 0. -1.
       -1   -1    0    0    0  501  0.00000000000E+00  0.00000000000E+00 -0.78000112574E+03  0.78000112575E+03  0.50400001928E-02 0.  1.
    10030    2    1    2    0    0  0.00000000000E+00  0.00000000000E+00  0.33644694612E+02  0.15936469461E+04  0.15932917571E+04 0.  0.
        4    1    3    3  502    0 -0.22603064297E+02 -0.20915945150E+03  0.78535843871E+03  0.81304862390E+03  0.12699999809E+01 0. -1.
       -4    1    3    3    0  502  0.22603064297E+02  0.20915945150E+03 -0.75171374410E+03  0.78059832221E+03  0.12699999809E+01 0.  1.
</event>
<event>
 5   0  0.7488884E-04  0.1653795E+04  0.7818609E-02  0.8788165E-01
        2   -1    0    0  501    0  0.00000000000E+00  0.00000000000E+00  0.20581482295E+04  0.20581482295E+04  0.25500000920E-02 0.  1.
       -2   -1    0    0    0  501  0.00000000000E+00  0.00000000000E+00 -0.33222069073E+03  0.33222069074E+03  0.25500000920E-02 0. -1.
    10030    2    1    2    0    0  0.00000000000E+00  0.00000000000E+00  0.17259275388E+04  0.23903689202E+04  0.16537949407E+04 0.  0.
        3    1    3    3  502    0 -0.70668916749E+03 -0.37848545529E+03  0.56994410116E+03  0.98361430854E+03  0.10100000352E+00 0. -1.
       -3    1    3    3    0  502  0.70668916749E+03  0.37848545529E+03  0.11559834376E+04  0.14067546117E+04  0.10100000352E+00 0.  1.
</event>
<event>
 5   0  0.7770905E-04  0.1465336E+04  0.7818609E-02  0.8907837E-01
       -2   -1    0    0    0  501  0.00000000000E+00  0.00000000000E+00  0.59774531772E+03  0.59774531773E+03  0.25500000920E-02 0.  1.
        2   -1    0    0  501    0  0.00000000000E+00  0.00000000000E+00 -0.89804499275E+03  0.89804499276E+03  0.25500000920E-02 0. -1.
    10030    2    1    2    0    0  0.00000000000E+00  0.00000000000E+00 -0.30029967503E+03  0.14957903105E+04  0.14653357152E+04 0.  0.
        2    1    3    3  502    0 -0.11138292300E+03  0.66717874712E+03  0.13724836456E+03  0.69019616757E+03  0.25500000920E-02 0.  1.
       -2    1    3    3    0  502  0.11138292300E+03 -0.66717874712E+03 -0.43754803959E+03  0.80559414292E+03  0.25500000920E-02 0. -1.
</event>
<event>
 5   0  0.7553070E-04  0.1589389E+04  0.7818609E-02  0.8827093E-01
       -2   -1    0    0    0  501  0.00000000000E+00  0.00000000000E+00  0.45072399785E+03  0.45072399785E+03  0.25500000920E-02 0.  1.
        2   -1    0    0  501    0  0.00000000000E+00  0.00000000000E+00 -0.14011668357E+04  0.14011668357E+04  0.25500000920E-02 0. -1.
    10030    2    1    2    0    0  0.00000000000E+00  0.00000000000E+00 -0.95044283786E+03  0.18518908336E+04  0.15893892133E+04 0.  0.
        4    1    3    3  502    0 -0.75417466317E+03 -0.22770104922E+03 -0.35351549497E+03  0.86348248881E+03  0.12699999809E+01 0.  1.
       -4    1    3    3    0  502  0.75417466317E+03  0.22770104922E+03 -0.59692734289E+03  0.98840834475E+03  0.12699999809E+01 0. -1.
</event>
<event>
 5   0  0.3950195E-04  0.1583126E+04  0.7818609E-02  0.8830982E-01
       -1   -1    0    0    0  501  0.00000000000E+00  0.00000000000E+00  0.40026247561E+03  0.40026247564E+03  0.50400001928E-02 0.  1.
        1   -1    0    0  501    0  0.00000000000E+00  0.00000000000E+00 -0.15654026050E+04  0.15654026050E+04  0.50400001928E-02 0. -1.
    10030    2    1    2    0    0  0.00000000000E+00  0.00000000000E+00 -0.11651401294E+04  0.19656650807E+04  0.15831259230E+04 0.  0.
        2    1    3    3  502    0  0.74691107072E+03 -0.18367767705E+02 -0.25793905279E+03  0.79040880398E+03  0.25500000920E-02 0.  1.
       -2    1    3    3    0  502 -0.74691107072E+03  0.18367767705E+02 -0.90720107661E+03  0.11752562767E+04  0.25500000920E-02 0. -1.
</event>
<event>
 5   0  0.2781000E-04  0.1609182E+04  0.7818609E-02  0.8814927E-01
        3   -1    0    0  501    0  0.00000000000E+00  0.00000000000E+00  0.55092102160E+03  0.55092103086E+03  0.10100000352E+00 0. -1.
       -3   -1    0    0    0  501  0.00000000000E+00  0.00000000000E+00 -0.11750630085E+04  0.11750630128E+04  0.10100000352E+00 0.  1.
    10030    2    1    2    0    0  0.00000000000E+00  0.00000000000E+00 -0.62414198690E+03  0.17259840437E+04  0.16091823077E+04 0.  0.
        1    1    3    3  502    0 -0.65778932924E+03  0.14150741003E+03 -0.78529326399E+03  0.10341163664E+04  0.50400001928E-02 0.  1.
       -1    1    3    3    0  502  0.65778932924E+03 -0.14150741003E+03  0.16115127709E+03  0.69186767730E+03  0.50400001928E-02 0. -1.
</event>
<event>
 5   0  0.7488884E-04  0.1609831E+04  0.7818609E-02  0.8814531E-01
        2   -1    0    0  501    0  0.00000000000E+00  0.00000000000E+00  0.11794585270E+04  0.11794585270E+04  0.25500000920E-02 0.  1.
       -2   -1    0    0    0  501  0.00000000000E+00  0.00000000000E+00 -0.54931019421E+03  0.54931019422E+03  0.25500000920E-02 0. -1.
    10030    2    1    2    0    0  0.00000000000E+00  0.00000000000E+00  0.63014833275E+03  0.17287687212E+04  0.16098305408E+04 0.  0.
        3    1    3    3  502    0 -0.55286012545E+03  0.44908155742E+03 -0.87538688453E+02  0.71762914914E+03  0.10100000352E+00 0. -1.
       -3    1    3    3    0  502  0.55286012545E+03 -0.44908155742E+03  0.71768702120E+03  0.10111395720E+04  0.10100000352E+00 0.  1.
</event>
<event>
 5   0  0.7770905E-04  0.1560786E+04  0.7818609E-02  0.8845007E-01
       -2   -1    0    0    0  501  0.00000000000E+00  0.00000000000E+00  0.66941616381E+03  0.66941616381E+03  0.25500000920E-02 0. -1.
        2   -1    0    0  501    0  0.00000000000E+00  0.00000000000E+00 -0.90976791467E+03  0.90976791467E+03  0.25500000920E-02 0.  1.
    10030    2    1    2    0    0  0.00000000000E+00  0.00000000000E+00 -0.24035175086E+03  0.15791840785E+04  0.15607861447E+04 0.  0.
        2    1    3    3  502    0  0.69184842049E+03 -0.34913651317E+03 -0.27097983499E+02  0.77542558797E+03  0.25500000920E-02 0.  1.
       -2    1    3    3    0  502 -0.69184842049E+03  0.34913651317E+03 -0.21325376736E+03  0.80375849051E+03  0.25500000920E-02 0. -1.
</event>
<event>
 5   0  0.3889847E-04  0.1584112E+04  0.7818609E-02  0.8830368E-01
       -1   -1    0    0    0  501  0.00000000000E+00  0.00000000000E+00  0.37581449010E+03  0.37581449014E+03  0.50400001928E-02 0.  1.
        1   -1    0    0  501    0  0.00000000000E+00  0.00000000000E+00 -0.16693156632E+04  0.16693156632E+04  0.50400001928E-02 0. -1.
    10030    2    1    2    0    0  0.00000000000E+00  0.00000000000E+00 -0.12935011731E+04  0.20451301533E+04  0.15841123885E+04 0.  0.
        1    1    3    3  502    0  0.60768703924E+03  0.25500646745E+03 -0.12139815660E+04  0.13813265649E+04  0.50400001928E-02 0. -1.
       -1    1    3    3    0  502 -0.60768703924E+03 -0.25500646745E+03 -0.79519607012E+02  0.66380358844E+03  0.50400001928E-02 0.  1.
</event>
<event>
 5   0  0.3973227E-04  0.1573243E+04  0.7818609E-02  0.8837156E-01
        1   -1    0    0  501    0  0.00000000000E+00  0.00000000000E+00  0.18103543746E+04  0.18103543746E+04  0.50400001928E-02 0.  1.
       -1   -1    0    0    0  501  0.00000000000E+00  0.00000000000E+00 -0.34179701011E+03  0.34179701014E+03  0.50400001928E-02 0. -1.
    10030    2    1    2    0    0  0.00000000000E+00  0.00000000000E+00  0.14685573644E+04  0.21521513847E+04  0.15732434173E+04 0.  0.
        3    1    3    3  502    0 -0.58054410383E+03  0.28187463480E+02  0.91924750509E+01  0.58130069791E+03  0.10100000352E+00 0. -1.
       -3    1    3    3    0  502  0.58054410383E+03 -0.28187463480E+02  0.14593648894E+04  0.15708506868E+04  0.10100000352E+00 0.  1.
</event>
<event>
 5   0  0.3837251E-04  0.1608924E+04  0.7818609E-02  0.8815085E-01
        1   -1    0    0  501    0  0.00000000000E+00  0.00000000000E+00  0.66942959670E+03  0.66942959672E+03  0.50400001928E-02 0.  1.
       -1   -1    0    0    0  501  0.00000000000E+00  0.00000000000E+00 -0.96673175910E+03  0.96673175911E+03  0.50400001928E-02 0. -1.
    10030    2    1    2    0    0  0.00000000000E+00  0.00000000000E+00 -0.29730216240E+03  0.16361613558E+04  0.16089236795E+04 0.  0.
        4    1    3    3  502    0 -0.13478115373E+03 -0.43765314032E+03 -0.82124881278E+03  0.94029647241E+03  0.12699999809E+01 0. -1.
       -4    1    3    3    0  502  0.13478115373E+03  0.43765314032E+03  0.52394665038E+03  0.69586488342E+03  0.12699999809E+01 0.  1.
</event>
<event>
 5   0  0.3889847E-04  0.1735045E+04  0.7818609E-02  0.8741626E-01
        1   -1    0    0  501    0  0.00000000000E+00  0.00000000000E+00  0.14733622910E+04  0.14733622910E+04  0.50400001928E-02 0.  1.
       -1   -1    0    0    0  501  0.00000000000E+00  0.00000000000E+00 -0.51080111750E+03  0.51080111753E+03  0.50400001928E-02 0. -1.
    10030    2    1    2    0    0  0.00000000000E+00  0.00000000000E+00  0.96256117353E+03  0.19841634086E+04  0.17350447888E+04 0.  0.
        1    1    3    3  502    0  0.40021163989E+03 -0.87260075899E+02  0.13558105040E+04  0.14163353417E+04  0.50400001928E-02 0.  1.
       -1    1    3    3    0  502 -0.40021163989E+03  0.87260075899E+02 -0.39324933045E+03  0.56782806682E+03  0.50400001928E-02 0. -1.
</event>
<event>
 5   0  0.7488884E-04  0.1565286E+04  0.7818609E-02  0.8842162E-01
       -2   -1    0    0    0  501  0.00000000000E+00  0.00000000000E+00  0.32490467079E+03  0.32490467080E+03  0.25500000920E-02 0. -1.
        2   -1    0    0  501    0  0.00000000000E+00  0.00000000000E+00 -0.18852612977E+04  0.18852612978E+04  0.25500000920E-02 0.  1.
    10030    2    1    2    0    0  0.00000000000E+00  0.00000000000E+00 -0.15603566270E+04  0.22101659685E+04  0.15652861736E+04 0.  0.
        3    1    3    3  502    0 -0.39570050517E+03 -0.11373354417E+03  0.15963336076E+03  0.44158467923E+03  0.10100000352E+00 0. -1.
       -3    1    3    3    0  502  0.39570050517E+03  0.11373354417E+03 -0.17199899877E+04  0.17685812893E+04  0.10100000352E+00 0.  1.
</event>
<event>
 5   0  0.3950195E-04  0.1627802E+04  0.7818609E-02  0.8803648E-01
       -1   -1    0    0    0  501  0.00000000000E+00  0.00000000000E+00  0.74231640451E+03  0.74231640453E+03  0.50400001928E-02 0.  1.
        1   -1    0    0  501    0  0.00000000000E+00  0.00000000000E+00 -0.89238894793E+03  0.89238894795E+03  0.50400001928E-02 0. -1.
    10030    2    1    2    0    0  0.00000000000E+00  0.00000000000E+00 -0.15007254342E+03  0.16347053525E+04  0.16278021443E+04 0.  0.
        2    1    3    3  502    0 -0.55166460392E+03  0.40261981258E+03 -0.51963082584E+03  0.85816824916E+03  0.25500000920E-02 0. -1.
       -2    1    3    3    0  502  0.55166460392E+03 -0.40261981258E+03  0.36955828242E+03  0.77653710331E+03  0.25500000920E-02 0.  1.
</event>
<event>
 5   0  0.7395088E-04  0.1420692E+04  0.7818609E-02  0.8938975E-01
        2   -1    0    0  501    0  0.00000000000E+00  0.00000000000E+00  0.11976436774E+04  0.11976436774E+04  0.25500000920E-02 0. -1.
       -2   -1    0    0    0  501  0.00000000000E+00  0.00000000000E+00 -0.42132004941E+03  0.42132004942E+03  0.25500000920E-02 0.  1.
    10030    2    1    2    0    0  0.00000000000E+00  0.00000000000E+00  0.77632362802E+03  0.16189637268E+04  0.14206917940E+04 0.  0.
        1    1    3    3  502    0  0.12264999547E+02  0.39899046157E+03 -0.28141823033E+03  0.48840560912E+03  0.50400001928E-02 0.  1.
       -1    1    3    3    0  502 -0.12264999547E+02 -0.39899046157E+03  0.10577418583E+04  0.11305581177E+04  0.50400001928E-02 0. -1.
</event>
<event>
 5   0  0.3950195E-04  0.1637981E+04  0.7818609E-02  0.8797549E-01
       -1   -1    0    0    0  501  0.00000000000E+00  0.00000000000E+00  0.40438534387E+03  0.40438534390E+03  0.50400001928E-02 0. -1.
        1   -1    0    0  501    0  0.00000000000E+00  0.00000000000E+00 -0.16586792241E+04  0.16586792241E+04  0.50400001928E-02 0.  1.
    10030    2    1    2    0    0  0.00000000000E+00  0.00000000000E+00 -0.12542938802E+04  0.20630645680E+04  0.16379811580E+04 0.  0.
        2    1    3    3  502    0 -0.81576219800E+03 -0.43334136181E+02 -0.70058613091E+03  0.10761815543E+04  0.25500000920E-02 0.  1.
       -2    1    3    3    0  502  0.81576219800E+03  0.43334136181E+02 -0.55370774931E+03  0.98688301368E+03  0.25500000920E-02 0. -1.
</event>
<event>
 5   0  0.3973227E-04  0.1616883E+04  0.7818609E-02  0.8810243E-01
       -1   -1    0    0    0  501  0.00000000000E+00  0.00000000000E+00  0.51545594580E+03  0.51545594583E+03  0.50400001928E-02 0. -1.
        1   -1    0    0  501    0  0.00000000000E+00  0.00000000000E+00 -0.12679595310E+04  0.12679595310E+04  0.50400001928E-02 0.  1.
    10030    2    1    2    0    0  0.00000000000E+00  0.00000000000E+00 -0.75250358515E+03  0.17834154768E+04  0.16168825304E+04 0.  0.
        3    1    3    3  502    0  0.35490531058E+02  0.72967221364E+03 -0.75817555922E+03  0.10528586353E+04  0.10100000352E+00 0.  1.
       -3    1    3    3    0  502 -0.35490531058E+02 -0.72967221364E+03  0.56719740711E+01  0.73055684148E+03  0.10100000352E+00 0. -1.
</event>
<event>
 5   0  0.7395088E-04  0.1583985E+04  0.7818609E-02  0.8830448E-01
        2   -1    0    0  501    0  0.00000000000E+00  0.00000000000E+00  0.77185029592E+03  0.77185029593E+03  0.25500000920E-02 0.  1.
       -2   -1    0    0    0  501  0.00000000000E+00  0.00000000000E+00 -0.81266005576E+03  0.81266005577E+03  0.25500000920E-02 0. -1.
    10030    2    1    2    0    0  0.00000000000E+00  0.00000000000E+00 -0.40809759842E+02  0.15845103517E+04  0.15839847279E+04 0.  0.
        1    1    3    3  502    0 -0.30251150871E+03  0.47709660468E+03 -0.57567242315E+03  0.80655633523E+03  0.50400001928E-02 0. -1.
       -1    1    3    3    0  502  0.30251150871E+03 -0.47709660468E+03  0.53486266331E+03  0.77795401646E+03  0.50400001928E-02 0.  1.
</event>
<event>
 5   0  0.3837251E-04  0.1564319E+04  0.7818609E-02  0.8842773E-01
       -1   -1    0    0    0  501  0.00000000000E+00  0.00000000000E+00  0.10729240540E+04  0.10729240540E+04  0.50400001928E-02 0. -1.
        1   -1    0    0  501    0  0.00000000000E+00  0.00000000000E+00 -0.57019250888E+03  0.57019250890E+03  0.50400001928E-02 0.  1.
    10030    2    1    2    0    0  0.00000000000E+00  0.00000000000E+00  0.50273154515E+03  0.16431165629E+04  0.15643187121E+04 0.  0.
        4    1    3    3  502    0 -0.43695633870E+03 -0.95805833033E+02 -0.42256229967E+03  0.61536177130E+03  0.12699999809E+01 0.  1.
       -4    1    3    3    0  502  0.43695633870E+03  0.95805833033E+02  0.92529384482E+03  0.10277547916E+04  0.12699999809E+01 0. -1.
</event>
<event>
 5   0  0.7770905E-04  0.1588393E+04  0.7818609E-02  0.8827710E-01
        2   -1    0    0  501    0  0.00000000000E+00  0.00000000000E+00  0.93560152509E+03  0.93560152510E+03  0.25500000920E-02 0.  1.
       -2   -1    0    0    0  501  0.00000000000E+00  0.00000000000E+00 -0.67416353638E+03  0.67416353638E+03  0.25500000920E-02 0. -1.
    10030    2    1    2    0    0  0.00000000000E+00  0.00000000000E+00  0.26143798871E+03  0.16097650615E+04  0.15883934435E+04 0.  0.
        2    1    3    3  502    0  0.72510334664E+02  0.34922519974E+03 -0.58842878008E+03  0.68808750752E+03  0.25500000920E-02 0. -1.
       -2    1    3    3    0  502 -0.72510334664E+02 -0.34922519974E+03  0.84986676880E+03  0.92167755396E+03  0.25500000920E-02 0.  1.
</event>
<event>
 5   0  0.4110803E-04  0.1598785E+04  0.7818609E-02  0.8821295E-01
        1   -1    0    0  501    0  0.00000000000E+00  0.00000000000E+00  0.16477077467E+04  0.16477077467E+04  0.50400001928E-02 0. -1.
       -1   -1    0    0    0  501  0.00000000000E+00  0.00000000000E+00 -0.38782885590E+03  0.38782885593E+03  0.50400001928E-02 0.  1.
    10030    2    1    2    0    0  0.00000000000E+00  0.00000000000E+00  0.12598788908E+04  0.20355366026E+04  0.15987853018E+04 0.  0.
        5    1    3    3  502    0  0.46201602411E+03 -0.21192939365E+03 -0.15555362242E+03  0.53159373009E+03  0.46999998093E+01 0.  1.
       -5    1    3    3    0  502 -0.46201602411E+03  0.21192939365E+03  0.14154325132E+04  0.15039428725E+04  0.46999998093E+01 0. -1.
</event>
<event>
 5   0  0.7488884E-04  0.1590543E+04  0.7818609E-02  0.8826379E-01
       -2   -1    0    0    0  501  0.00000000000E+00  0.00000000000E+00  0.71743247363E+03  0.71743247364E+03  0.25500000920E-02 0. -1.
        2   -1    0    0  501    0  0.00000000000E+00  0.00000000000E+00 -0.88155596107E+03  0.88155596107E+03  0.25500000920E-02 0.  1.
    10030    2    1    2    0    0  0.00000000000E+00  0.00000000000E+00 -0.16412348744E+03  0.15989884347E+04  0.15905431447E+04 0.  0.
        3    1    3    3  502    0  0.16208268776E+03  0.33259296480E+03  0.62564199462E+03  0.72685403867E+03  0.10100000352E+00 0. -1.
       -3    1    3    3    0  502 -0.16208268776E+03 -0.33259296480E+03 -0.78976548205E+03  0.87213439604E+03  0.10100000352E+00 0.  1.
</event>
<event>
 5   0  0.3950195E-04  0.1318702E+04  0.7818609E-02  0.9014865E-01
        1   -1    0    0  501    0  0.00000000000E+00  0.00000000000E+00  0.79427711802E+03  0.79427711804E+03  0.50400001928E-02 0.  1.
       -1   -1    0    0    0  501  0.00000000000E+00  0.00000000000E+00 -0.54734488157E+03  0.54734488159E+03  0.50400001928E-02 0. -1.
    10030    2    1    2    0    0  0.00000000000E+00  0.00000000000E+00  0.24693223645E+03  0.13416219996E+04  0.13187016571E+04 0.  0.
        2    1    3    3  502    0  0.24566333389E+03 -0.15769597082E+03 -0.47801604809E+03  0.56010520000E+03  0.25500000920E-02 0. -1.
       -2    1    3    3    0  502 -0.24566333389E+03  0.15769597082E+03  0.72494828454E+03  0.78151679963E+03  0.25500000920E-02 0.  1.
</event>
<event>
 5   0  0.7770905E-04  0.1752058E+04  0.7818609E-02  0.8732218E-01
        2   -1    0    0  501    0  0.00000000000E+00  0.00000000000E+00  0.16301944546E+04  0.16301944546E+04  0.25500000920E-02 0.  1.
       -2   -1    0    0    0  501  0.00000000000E+00  0.00000000000E+00 -0.47075790918E+03  0.47075790918E+03  0.25500000920E-02 0. -1.
    10030    2    1    2    0    0  0.00000000000E+00  0.00000000000E+00  0.11594365454E+04  0.21009523637E+04  0.17520581417E+04 0.  0.
        2    1    3    3  502    0  0.18753060556E+03 -0.79705282961E+03  0.20631560761E+03  0.84440930310E+03  0.25500000920E-02 0. -1.
       -2    1    3    3    0  502 -0.18753060556E+03  0.79705282961E+03  0.95312093777E+03  0.12565430606E+04  0.25500000920E-02 0.  1.
</event>
<event>
 5   0  0.7395088E-04  0.1606028E+04  0.7818609E-02  0.8816853E-01
        2   -1    0    0  501    0  0.00000000000E+00  0.00000000000E+00  0.10216855177E+04  0.10216855177E+04  0.25500000920E-02 0.  1.
       -2   -1    0    0    0  501  0.00000000000E+00  0.00000000000E+00 -0.63114476029E+03  0.63114476029E+03  0.25500000920E-02 0. -1.
    10030    2    1    2    0    0  0.00000000000E+00  0.00000000000E+00  0.39054075745E+03  0.16528302780E+04  0.16060279713E+04 0.  0.
        1    1    3    3  502    0  0.78728744372E+02 -0.74023996763E+03  0.50517368414E+03  0.89964097063E+03  0.50400001928E-02 0.  1.
       -1    1    3    3    0  502 -0.78728744372E+02  0.74023996763E+03 -0.11463292670E+03  0.75318930739E+03  0.50400001928E-02 0. -1.
</event>
<event>
 5   0  0.3973227E-04  0.1542016E+04  0.7818609E-02  0.8856983E-01
        1   -1    0    0  501    0  0.00000000000E+00  0.00000000000E+00  0.63917399317E+03  0.63917399319E+03  0.50400001928E-02 0. -1.
       -1   -1    0    0    0  501  0.00000000000E+00  0.00000000000E+00 -0.93003406677E+03  0.93003406679E+03  0.50400001928E-02 0.  1.
    10030    2    1    2    0    0  0.00000000000E+00  0.00000000000E+00 -0.29086007360E+03  0.15692080600E+04  0.15420163271E+04 0.  0.
        3    1    3    3  502    0 -0.20683365883E+03  0.21923704728E+03  0.57673772618E+03  0.65074684811E+03  0.10100000352E+00 0. -1.
       -3    1    3    3    0  502  0.20683365883E+03 -0.21923704728E+03 -0.86759779978E+03  0.91846121187E+03  0.10100000352E+00 0.  1.
</event>
<event>
 5   0  0.3837251E-04  0.1595356E+04  0.7818609E-02  0.8823406E-01
       -1   -1    0    0    0  501  0.00000000000E+00  0.00000000000E+00  0.93378173152E+03  0.93378173154E+03  0.50400001928E-02 0.  1.
        1   -1    0    0  501    0  0.00000000000E+00  0.00000000000E+00 -0.68141184524E+03  0.68141184526E+03  0.50400001928E-02 0. -1.
    10030    2    1    2    0    0  0.00000000000E+00  0.00000000000E+00  0.25236988628E+03  0.16151935768E+04  0.15953556754E+04 0.  0.
        4    1    3    3  502    0 -0.19910084256E+03 -0.61003460389E+03 -0.35352643986E+03  0.73264310550E+03  0.12699999809E+01 0. -1.
       -4    1    3    3    0  502  0.19910084256E+03  0.61003460389E+03  0.60589632615E+03  0.88255047130E+03  0.12699999809E+01 0.  1.
</event>
<event>
 5   0  0.7770905E-04  0.1648728E+04  0.7818609E-02  0.8791159E-01
       -2   -1    0    0    0  501  0.00000000000E+00  0.00000000000E+00  0.49200211997E+03  0.49200211998E+03  0.25500000920E-02 0.  1.
        2   -1    0    0  501    0  0.00000000000E+00  0.00000000000E+00 -0.13812466676E+04  0.13812466676E+04  0.25500000920E-02 0. -1.
    10030    2    1    2    0    0  0.00000000000E+00  0.00000000000E+00 -0.88924454762E+03  0.18732487876E+04  0.16487283447E+04 0.  0.
        2    1    3    3  502    0 -0.30405001118E+03 -0.23512109532E+03 -0.12732130617E+04  0.13299623451E+04  0.25500000920E-02 0. -1.
       -2    1    3    3    0  502  0.30405001118E+03  0.23512109532E+03  0.38396851411E+03  0.54328644249E+03  0.25500000920E-02 0.  1.
</event>
<event>
 5   0  0.7553070E-04  0.1571759E+04  0.7818609E-02  0.8838088E-01
        2   -1    0    0  501    0  0.00000000000E+00  0.00000000000E+00  0.12105367506E+04  0.12105367507E+04  0.25500000920E-02 0.  1.
       -2   -1    0    0    0  501  0.00000000000E+00  0.00000000000E+00 -0.51019228817E+03  0.51019228818E+03  0.25500000920E-02 0. -1.
    10030    2    1    2    0    0  0.00000000000E+00  0.00000000000E+00  0.70034446248E+03  0.17207290388E+04  0.15717589061E+04 0.  0.
        4    1    3    3  502    0  0.28448590567E+03  0.58654915832E+03 -0.13032581628E+03  0.66479965173E+03  0.12699999809E+01 0. -1.
       -4    1    3    3    0  502 -0.28448590567E+03 -0.58654915832E+03  0.83067027875E+03  0.10559293871E+04  0.12699999809E+01 0.  1.
</event>
<event>
 5   0  0.7488884E-04  0.1712290E+04  0.7818609E-02  0.8754386E-01
       -2   -1    0    0    0  501  0.00000000000E+00  0.00000000000E+00  0.69100542297E+03  0.69100542297E+03  0.25500000920E-02 0.  1.
        2   -1    0    0  501    0  0.00000000000E+00  0.00000000000E+00 -0.10607500924E+04  0.10607500924E+04  0.25500000920E-02 0. -1.
    10030    2    1    2    0    0  0.00000000000E+00  0.00000000000E+00 -0.36974466939E+03  0.17517555153E+04  0.17122897725E+04 0.  0.
        3    1    3    3  502    0 -0.70877821499E+03 -0.28502342498E+03 -0.58027647804E+03  0.95933607875E+03  0.10100000352E+00 0. -1.
       -3    1    3    3    0  502  0.70877821499E+03  0.28502342498E+03  0.21053180865E+03  0.79241943659E+03  0.10100000352E+00 0.  1.
</event>
<event>
 5   0  0.7415102E-04  0.1583558E+04  0.7818609E-02  0.8830713E-01
        2   -1    0    0  501    0  0.00000000000E+00  0.00000000000E+00  0.74190074756E+03  0.74190074757E+03  0.25500000920E-02 0.  1.
       -2   -1    0    0    0  501  0.00000000000E+00  0.00000000000E+00 -0.84501020818E+03  0.84501020818E+03  0.25500000920E-02 0. -1.
    10030    2    1    2    0    0  0.00000000000E+00  0.00000000000E+00 -0.10310946062E+03  0.15869109557E+04  0.15835576468E+04 0.  0.
        5    1    3    3  502    0 -0.35388469404E+03  0.35687472138E+03 -0.66464898095E+03  0.83329124639E+03  0.46999998093E+01 0. -1.
       -5    1    3    3    0  502  0.35388469404E+03 -0.35687472138E+03  0.56153952033E+03  0.75361970936E+03  0.46999998093E+01 0.  1.
</event>
<event>
 5   0  0.3837251E-04  0.1606779E+04  0.7818609E-02  0.8816394E-01
       -1   -1    0    0    0  501  0.00000000000E+00  0.00000000000E+00  0.77775379007E+03  0.77775379009E+03  0.50400001928E-02 0. -1.
        1   -1    0    0  501    0  0.00000000000E+00  0.00000000000E+00 -0.82987054873E+03  0.82987054875E+03  0.50400001928E-02 0.  1.
    10030    2    1    2    0    0  0.00000000000E+00  0.00000000000E+00 -0.52116758659E+02  0.16076243388E+04  0.16067793434E+04 0.  0.
        4    1    3    3  502    0  0.76979134402E+03 -0.22314433516E+03 -0.81415986296E+02  0.80560677962E+03  0.12699999809E+01 0. -1.
       -4    1    3    3    0  502 -0.76979134402E+03  0.22314433516E+03  0.29299227637E+02  0.80201755921E+03  0.12699999809E+01 0.  1.
</event>
<event>
 5   0  0.4110803E-04  0.1621427E+04  0.7818609E-02  0.8807492E-01
       -1   -1    0    0    0  501  0.00000000000E+00  0.00000000000E+00  0.11305423830E+04  0.11305423830E+04  0.50400001928E-02 0. -1.
        1   -1    0    0  501    0  0.00000000000E+00  0.00000000000E+00 -0.58136361434E+03  0.58136361436E+03  0.50400001928E-02 0.  1.
    10030    2    1    2    0    0  0.00000000000E+00  0.00000000000E+00  0.54917876864E+03  0.17119059974E+04  0.16214267865E+04 0.  0.
        5    1    3    3  502    0  0.13672177295E+03  0.72367374393E+03  0.63237641643E+03  0.97073093744E+03  0.46999998093E+01 0. -1.
       -5    1    3    3    0  502 -0.13672177295E+03 -0.72367374393E+03 -0.83197647791E+02  0.74117505992E+03  0.46999998093E+01 0.  1.
</event>
<event>
 5   0  0.3889847E-04  0.1580813E+04  0.7818609E-02  0.8832423E-01
        1   -1    0    0  501    0  0.00000000000E+00  0.00000000000E+00  0.15057456957E+04  0.15057456957E+04  0.50400001928E-02 0. -1.
       -1   -1    0    0    0  501  0.00000000000E+00  0.00000000000E+00 -0.41490582133E+03  0.41490582136E+03  0.50400001928E-02 0.  1.
    10030    2    1    2    0    0  0.00000000000E+00  0.00000000000E+00  0.10908398744E+04  0.19206515171E+04  0.15808132776E+04 0.  0.
        1    1    3    3  502    0 -0.14914530233E+03  0.66124953357E+03  0.10393156997E+04  0.12408353600E+04  0.50400001928E-02 0. -1.
       -1    1    3    3    0  502  0.14914530233E+03 -0.66124953357E+03  0.51524174673E+02  0.67981615710E+03  0.50400001928E-02 0.  1.
</event>
<event>
 5   0  0.7553070E-04  0.1584805E+04  0.7818609E-02  0.8829938E-01
        2   -1    0    0  501    0  0.00000000000E+00  0.00000000000E+00  0.78585114119E+03  0.78585114120E+03  0.25500000920E-02 0.  1.
       -2   -1    0    0    0  501  0.00000000000E+00  0.00000000000E+00 -0.79900854008E+03  0.79900854008E+03  0.25500000920E-02 0. -1.
    10030    2    1    2    0    0  0.00000000000E+00  0.00000000000E+00 -0.13157398882E+02  0.15848596813E+04  0.15848050644E+04 0.  0.
        4    1    3    3  502    0  0.60309449977E+03  0.47459138650E+03  0.19076081606E+03  0.79079154120E+03  0.12699999809E+01 0.  1.
       -4    1    3    3    0  502 -0.60309449977E+03 -0.47459138650E+03 -0.20391821494E+03  0.79406814007E+03  0.12699999809E+01 0. -1.
</event>
<event>
 5   0  0.7553070E-04  0.1521097E+04  0.7818609E-02  0.8870544E-01
        2   -1    0    0  501    0  0.00000000000E+00  0.00000000000E+00  0.11523200926E+04  0.11523200926E+04  0.25500000920E-02 0. -1.
       -2   -1    0    0    0  501  0.00000000000E+00  0.00000000000E+00 -0.50197313794E+03  0.50197313795E+03  0.25500000920E-02 0.  1.
    10030    2    1    2    0    0  0.00000000000E+00  0.00000000000E+00  0.65034695466E+03  0.16542932306E+04  0.15210966213E+04 0.  0.
        4    1    3    3  502    0  0.19133211237E+03  0.29895488998E+03 -0.40637151723E+03  0.53955669432E+03  0.12699999809E+01 0. -1.
       -4    1    3    3    0  502 -0.19133211237E+03 -0.29895488998E+03  0.10567184719E+04  0.11147365362E+04  0.12699999809E+01 0.  1.
</event>
<event>
 5   0  0.2781000E-04  0.1604335E+04  0.7818609E-02  0.8817889E-01
       -3   -1    0    0    0  501  0.00000000000E+00  0.00000000000E+00  0.96276479535E+03  0.96276480065E+03  0.10100000352E+00 0. -1.
        3   -1    0    0  501    0  0.00000000000E+00  0.00000000000E+00 -0.66835906397E+03  0.66835907160E+03  0.10100000352E+00 0.  1.
    10030    2    1    2    0    0  0.00000000000E+00  0.00000000000E+00  0.29440573138E+03  0.16311238722E+04  0.16043348628E+04 0.  0.
        2    1    3    3  502    0 -0.13995094345E+03  0.47532996479E+03  0.78856740959E+03  0.93132346769E+03  0.25500000920E-02 0. -1.
       -2    1    3    3    0  502  0.13995094345E+03 -0.47532996479E+03 -0.49416167821E+03  0.69980040455E+03  0.25500000920E-02 0.  1.
</event>
<event>
 5   0  0.7770905E-04  0.1620074E+04  0.7818609E-02  0.8808310E-01
       -2   -1    0    0    0  501  0.00000000000E+00  0.00000000000E+00  0.40536959421E+03  0.40536959422E+03  0.25500000920E-02 0. -1.
        2   -1    0    0  501    0  0.00000000000E+00  0.00000000000E+00 -0.16186708841E+04  0.16186708841E+04  0.25500000920E-02 0.  1.
    10030    2    1    2    0    0  0.00000000000E+00  0.00000000000E+00 -0.12133012899E+04  0.20240404784E+04  0.16200740224E+04 0.  0.
        2    1    3    3  502    0  0.15189144249E+03 -0.63580408842E+03 -0.12043080536E+04  0.13702830865E+04  0.25500000920E-02 0.  1.
       -2    1    3    3    0  502 -0.15189144249E+03  0.63580408842E+03 -0.89932363453E+01  0.65375739189E+03  0.25500000920E-02 0. -1.
</event>
<event>
 5   0  0.3950195E-04  0.1577347E+04  0.7818609E-02  0.8834587E-01
       -1   -1    0    0    0  501  0.00000000000E+00  0.00000000000E+00  0.81883027255E+03  0.81883027257E+03  0.50400001928E-02 0.  1.
        1   -1    0    0  501    0  0.00000000000E+00  0.00000000000E+00 -0.75962708931E+03  0.75962708933E+03  0.50400001928E-02 0. -1.
    10030    2    1    2    0    0  0.00000000000E+00  0.00000000000E+00  0.59203183240E+02  0.15784573619E+04  0.15773467046E+04 0.  0.
        2    1    3    3  502    0 -0.51406753207E+03 -0.59205637937E+03  0.11456999224E+03  0.79241558984E+03  0.25500000920E-02 0.  1.
       -2    1    3    3    0  502  0.51406753207E+03  0.59205637937E+03 -0.55366808998E+02  0.78604177207E+03  0.25500000920E-02 0. -1.
</event>
<event>
 5   0  0.3973227E-04  0.1389035E+04  0.7818609E-02  0.8961794E-01
        1   -1    0    0  501    0  0.00000000000E+00  0.00000000000E+00  0.35993476472E+03  0.35993476476E+03  0.50400001928E-02 0. -1.
       -1   -1    0    0    0  501  0.00000000000E+00  0.00000000000E+00 -0.13401172259E+04  0.13401172259E+04  0.50400001928E-02 0.  1.
    10030    2    1    2    0    0  0.00000000000E+00  0.00000000000E+00 -0.98018246120E+03  0.17000519907E+04  0.13890353177E+04 0.  0.
        3    1    3    3  502    0  0.17486665842E+03  0.76987582197E+02 -0.13073187357E+04  0.13212069190E+04  0.10100000352E+00 0.  1.
       -3    1    3    3    0  502 -0.17486665842E+03 -0.76987582197E+02  0.32713627448E+03  0.37884507166E+03  0.10100000352E+00 0. -1.
</event>
<event>
 5   0  0.7415102E-04  0.1618232E+04  0.7818609E-02  0.8809425E-01
        2   -1    0    0  501    0  0.00000000000E+00  0.00000000000E+00  0.73482404516E+03  0.73482404517E+03  0.25500000920E-02 0. -1.
       -2   -1    0    0    0  501  0.00000000000E+00  0.00000000000E+00 -0.89091883236E+03  0.89091883237E+03  0.25500000920E-02 0.  1.
    10030    2    1    2    0    0  0.00000000000E+00  0.00000000000E+00 -0.15609478720E+03  0.16257428775E+04  0.16182318503E+04 0.  0.
        5    1    3    3  502    0  0.67437510662E+02  0.57103621034E+03  0.49381897589E+03  0.75796401123E+03  0.46999998093E+01 0. -1.
       -5    1    3    3    0  502 -0.67437510662E+02 -0.57103621034E+03 -0.64991376309E+03  0.86777886631E+03  0.46999998093E+01 0.  1.
</event>
<event>
 5   0  0.7395088E-04  0.1601226E+04  0.7818609E-02  0.8819795E-01
       -2   -1    0    0    0  501  0.00000000000E+00  0.00000000000E+00  0.76905010566E+03  0.76905010567E+03  0.25500000920E-02 0. -1.
        2   -1    0    0  501    0  0.00000000000E+00  0.00000000000E+00 -0.83347088298E+03  0.83347088298E+03  0.25500000920E-02 0.  1.
    10030    2    1    2    0    0  0.00000000000E+00  0.00000000000E+00 -0.64420777315E+02  0.16025209887E+04  0.16012256189E+04 0.  0.
        1    1    3    3  502    0 -0.11918090791E+02 -0.74291955646E+03  0.26620756233E+03  0.78926419818E+03  0.50400001928E-02 0. -1.
       -1    1    3    3    0  502  0.11918090791E+02  0.74291955646E+03 -0.33062833965E+03  0.81325679048E+03  0.50400001928E-02 0.  1.
</event>
<event>
 5   0  0.3837251E-04  0.1595597E+04  0.7818609E-02  0.8823258E-01
       -1   -1    0    0    0  501  0.00000000000E+00  0.00000000000E+00  0.27344443324E+03  0.27344443329E+03  0.50400001928E-02 0.  1.
        1   -1    0    0  501    0  0.00000000000E+00  0.00000000000E+00 -0.23276481410E+04  0.23276481410E+04  0.50400001928E-02 0. -1.
    10030    2    1    2    0    0  0.00000000000E+00  0.00000000000E+00 -0.20542037078E+04  0.26010925743E+04  0.15955969751E+04 0.  0.
        4    1    3    3  502    0  0.13550251288E+03  0.12410058691E+03 -0.22926830685E+04  0.23000345981E+04  0.12699999809E+01 0. -1.
       -4    1    3    3    0  502 -0.13550251288E+03 -0.12410058691E+03  0.23847936074E+03  0.30105797626E+03  0.12699999809E+01 0.  1.
</event>
<event>
 5   0  0.3837251E-04  0.1435795E+04  0.7818609E-02  0.8928308E-01
        1   -1    0    0  501    0  0.00000000000E+00  0.00000000000E+00  0.63411463427E+03  0.63411463429E+03  0.50400001928E-02 0. -1.
       -1   -1    0    0    0  501  0.00000000000E+00  0.00000000000E+00 -0.81275072817E+03  0.81275072818E+03  0.50400001928E-02 0.  1.
    10030    2    1    2    0    0  0.00000000000E+00  0.00000000000E+00 -0.17863609390E+03  0.14468653625E+04  0.14357954322E+04 0.  0.
        4    1    3    3  502    0  0.55456506119E+03  0.35340516769E+03  0.20089174731E+03  0.68760215726E+03  0.12699999809E+01 0. -1.
       -4    1    3    3    0  502 -0.55456506119E+03 -0.35340516769E+03 -0.37952784121E+03  0.75926320521E+03  0.12699999809E+01 0.  1.
</event>
<event>
 5   0  0.4110803E-04  0.1603726E+04  0.7818609E-02  0.8818262E-01
        1   -1    0    0  501    0  0.00000000000E+00  0.00000000000E+00  0.16803350940E+04  0.16803350940E+04  0.50400001928E-02 0. -1.
       -1   -1    0    0    0  501  0.00000000000E+00  0.00000000000E+00 -0.38265245033E+03  0.38265245036E+03  0.50400001928E-02 0.  1.
    10030    2    1    2    0    0  0.00000000000E+00  0.00000000000E+00  0.12976826437E+04  0.20629875444E+04  0.16037260878E+04 0.  0.
        5    1    3    3  502    0 -0.16325813947E+03 -0.50892410555E+03  0.14177701305E+04  0.15151736528E+04  0.46999998093E+01 0. -1.
       -5    1    3    3    0  502  0.16325813947E+03  0.50892410555E+03 -0.12008748679E+03  0.54781389156E+03  0.46999998093E+01 0.  1.
</event>
<event>
 5   0  0.7553070E-04  0.1585669E+04  0.7818609E-02  0.8829400E-01
       -2   -1    0    0    0  501  0.00000000000E+00  0.00000000000E+00  0.58985435497E+03  0.58985435498E+03  0.25500000920E-02 0. -1.
        2   -1    0    0  501    0  0.00000000000E+00  0.00000000000E+00 -0.10656646462E+04  0.10656646462E+04  0.25500000920E-02 0.  1.
    10030    2    1    2    0    0  0.00000000000E+00  0.00000000000E+00 -0.47581029120E+03  0.16555190012E+04  0.15856694895E+04 0.  0.
        4    1    3    3  502    0  0.15626004467E+03  0.71550863691E+03  0.79141733628E+02  0.73663752141E+03  0.12699999809E+01 0. -1.
       -4    1    3    3    0  502 -0.15626004467E+03 -0.71550863691E+03 -0.55495202483E+03  0.91888147974E+03  0.12699999809E+01 0.  1.
</event>
<event>
 5   0  0.4110803E-04  0.1603181E+04  0.7818609E-02  0.8818596E-01
        1   -1    0    0  501    0  0.00000000000E+00  0.00000000000E+00  0.12678669957E+04  0.12678669957E+04  0.50400001928E-02 0.  1.
       -1   -1    0    0    0  501  0.00000000000E+00  0.00000000000E+00 -0.50679392407E+03  0.50679392410E+03  0.50400001928E-02 0. -1.
    10030    2    1    2    0    0  0.00000000000E+00  0.00000000000E+00  0.76107307161E+03  0.17746609198E+04  0.16031809505E+04 0.  0.
        5    1    3    3  502    0  0.63231702667E+03  0.28469920629E+03 -0.64521161646E+02  0.69646502466E+03  0.46999998093E+01 0.  1.
       -5    1    3    3    0  502 -0.63231702667E+03 -0.28469920629E+03  0.82559423326E+03  0.10781958951E+04  0.46999998093E+01 0. -1.
</event>
<event>
 5   0  0.7488884E-04  0.1700514E+04  0.7818609E-02  0.8761071E-01
        2   -1    0    0  501    0  0.00000000000E+00  0.00000000000E+00  0.84882992706E+03  0.84882992706E+03  0.25500000920E-02 0. -1.
       -2   -1    0    0    0  501  0.00000000000E+00  0.00000000000E+00 -0.85168638182E+03  0.85168638182E+03  0.25500000920E-02 0.  1.
    10030    2    1    2    0    0  0.00000000000E+00  0.00000000000E+00 -0.28564547553E+01  0.17005163089E+04  0.17005139098E+04 0.  0.
        3    1    3    3  502    0 -0.44605197125E+03  0.17881144713E+01  0.72243142697E+03  0.84904224587E+03  0.10100000352E+00 0. -1.
       -3    1    3    3    0  502  0.44605197125E+03 -0.17881144713E+01 -0.72528788172E+03  0.85147406301E+03  0.10100000352E+00 0.  1.
</event>
<event>
 5   0  0.7488884E-04  0.1560799E+04  0.7818609E-02  0.8844999E-01
        2   -1    0    0  501    0  0.00000000000E+00  0.00000000000E+00  0.91480716583E+03  0.91480716584E+03  0.25500000920E-02 0. -1.
       -2   -1    0    0    0  501  0.00000000000E+00  0.00000000000E+00 -0.66573963837E+03  0.66573963838E+03  0.25500000920E-02 0.  1.
    10030    2    1    2    0    0  0.00000000000E+00  0.00000000000E+00  0.24906752746E+03  0.15805468042E+04  0.15607990156E+04 0.  0.
        3    1    3    3  502    0  0.26550857448E+03 -0.11301898846E+03 -0.60973018026E+03  0.67456578463E+03  0.10100000352E+00 0.  1.
       -3    1    3    3    0  502 -0.26550857448E+03  0.11301898846E+03  0.85879770771E+03  0.90598101959E+03  0.10100000352E+00 0. -1.
</event>
<event>
 5   0  0.2781000E-04  0.1604119E+04  0.7818609E-02  0.8818021E-01
        3   -1    0    0  501    0  0.00000000000E+00  0.00000000000E+00  0.35763450232E+03  0.35763451658E+03  0.10100000352E+00 0. -1.
       -3   -1    0    0    0  501  0.00000000000E+00  0.00000000000E+00 -0.17987624998E+04  0.17987625027E+04  0.10100000352E+00 0.  1.
    10030    2    1    2    0    0  0.00000000000E+00  0.00000000000E+00 -0.14411279975E+04  0.21563970192E+04  0.16041191350E+04 0.  0.
        4    1    3    3  502    0 -0.59592359750E+03  0.24816311592E+03 -0.80666188044E+02  0.65055246748E+03  0.12699999809E+01 0. -1.
       -4    1    3    3    0  502  0.59592359750E+03 -0.24816311592E+03 -0.13604618095E+04  0.15058445518E+04  0.12699999809E+01 0.  1.
</event>
<event>
 5   0  0.4110803E-04  0.1592133E+04  0.7818609E-02  0.8825396E-01
       -1   -1    0    0    0  501  0.00000000000E+00  0.00000000000E+00  0.15983353424E+04  0.15983353424E+04  0.50400001928E-02 0. -1.
        1   -1    0    0  501    0  0.00000000000E+00  0.00000000000E+00 -0.39648844541E+03  0.39648844544E+03  0.50400001928E-02 0.  1.
    10030    2    1    2    0    0  0.00000000000E+00  0.00000000000E+00  0.12018468970E+04  0.19948237878E+04  0.15921325261E+04 0.  0.
        5    1    3    3  502    0  0.64407850601E+03  0.91914257367E+02  0.26195000869E+02  0.65114792534E+03  0.46999998093E+01 0. -1.
       -5    1    3    3    0  502 -0.64407850601E+03 -0.91914257367E+02  0.11756518961E+04  0.13436758625E+04  0.46999998093E+01 0.  1.
</event>
<event>
 5   0  0.7488884E-04  0.1592694E+04  0.7818609E-02  0.8825049E-01
        2   -1    0    0  501    0  0.00000000000E+00  0.00000000000E+00  0.22523163174E+04  0.22523163174E+04  0.25500000920E-02 0.  1.
       -2   -1    0    0    0  501  0.00000000000E+00  0.00000000000E+00 -0.28156281400E+03  0.28156281401E+03  0.25500000920E-02 0. -1.
    10030    2    1    2    0    0  0.00000000000E+00  0.00000000000E+00  0.19707535034E+04  0.25338791314E+04  0.15926939698E+04 0.  0.
        3    1    3    3  502    0 -0.66626554595E+03  0.13360662225E+02  0.16789974236E+04  0.18064109841E+04  0.10100000352E+00 0.  1.
       -3    1    3    3    0  502  0.66626554595E+03 -0.13360662225E+02  0.29175607986E+03  0.72746814731E+03  0.10100000352E+00 0. -1.
</event>
<event>
 5   0  0.2781000E-04  0.1614418E+04  0.7818609E-02  0.8811739E-01
        3   -1    0    0  501    0  0.00000000000E+00  0.00000000000E+00  0.82131366877E+03  0.82131367498E+03  0.10100000352E+00 0. -1.
       -3   -1    0    0    0  501  0.00000000000E+00  0.00000000000E+00 -0.79334611395E+03  0.79334612038E+03  0.10100000352E+00 0.  1.
    10030    2    1    2    0    0  0.00000000000E+00  0.00000000000E+00  0.27967554817E+02  0.16146597954E+04  0.16144175639E+04 0.  0.
        3    1    3    3  502    0  0.12185442791E+03  0.74789994025E+03 -0.26423629472E+03  0.80251084221E+03  0.10100000352E+00 0.  1.
       -3    1    3    3    0  502 -0.12185442791E+03 -0.74789994025E+03  0.29220384954E+03  0.81214895315E+03  0.10100000352E+00 0. -1.
</event>
<event>
 5   0  0.7770905E-04  0.1621960E+04  0.7818609E-02  0.8807169E-01
        2   -1    0    0  501    0  0.00000000000E+00  0.00000000000E+00  0.69587248384E+03  0.69587248384E+03  0.25500000920E-02 0. -1.
       -2   -1    0    0    0  501  0.00000000000E+00  0.00000000000E+00 -0.94512836667E+03  0.94512836668E+03  0.25500000920E-02 0.  1.
    10030    2    1    2    0    0  0.00000000000E+00  0.00000000000E+00 -0.24925588284E+03  0.16410008505E+04  0.16219603251E+04 0.  0.
        2    1    3    3  502    0  0.77909577389E+03 -0.20232008961E+03 -0.24648957815E+02  0.80531435767E+03  0.25500000920E-02 0. -1.
       -2    1    3    3    0  502 -0.77909577389E+03  0.20232008961E+03 -0.22460692502E+03  0.83568649284E+03  0.25500000920E-02 0.  1.
</event>
<event>
 5   0  0.7395088E-04  0.1607027E+04  0.7818609E-02  0.8816243E-01
       -2   -1    0    0    0  501  0.00000000000E+00  0.00000000000E+00  0.43642331390E+03  0.43642331390E+03  0.25500000920E-02 0.  1.
        2   -1    0    0  501    0  0.00000000000E+00  0.00000000000E+00 -0.14793753381E+04  0.14793753381E+04  0.25500000920E-02 0. -1.
    10030    2    1    2    0    0  0.00000000000E+00  0.00000000000E+00 -0.10429520242E+04  0.19157986520E+04  0.16070269289E+04 0.  0.
        1    1    3    3  502    0  0.36237928031E+03 -0.59278625395E+03 -0.10026624508E+04  0.12198550225E+04  0.50400001928E-02 0. -1.
       -1    1    3    3    0  502 -0.36237928031E+03  0.59278625395E+03 -0.40289573378E+02  0.69594362948E+03  0.50400001928E-02 0.  1.
</event>
<event>
 5   0  0.3889847E-04  0.1600598E+04  0.7818609E-02  0.8820181E-01
       -1   -1    0    0    0  501  0.00000000000E+00  0.00000000000E+00  0.82572400782E+03  0.82572400783E+03  0.50400001928E-02 0. -1.
        1   -1    0    0  501    0  0.00000000000E+00  0.00000000000E+00 -0.77565665080E+03  0.77565665082E+03  0.50400001928E-02 0.  1.
    10030    2    1    2    0    0  0.00000000000E+00  0.00000000000E+00  0.50067357013E+02  0.16013806587E+04  0.16005977863E+04 0.  0.
        1    1    3    3  502    0 -0.72887543388E+03  0.31315224086E+03  0.13070064922E+03  0.80399401975E+03  0.50400001928E-02 0. -1.
       -1    1    3    3    0  502  0.72887543388E+03 -0.31315224086E+03 -0.80633292202E+02  0.79738663890E+03  0.50400001928E-02 0.  1.
</event>
<event>
 5   0  0.7553070E-04  0.1576573E+04  0.7818609E-02  0.8835071E-01
        2   -1    0    0  501    0  0.00000000000E+00  0.00000000000E+00  0.20580880930E+04  0.20580880930E+04  0.25500000920E-02 0.  1.
       -2   -1    0    0    0  501  0.00000000000E+00  0.00000000000E+00 -0.30192857653E+03  0.30192857654E+03  0.25500000920E-02 0. -1.
    10030    2    1    2    0    0  0.00000000000E+00  0.00000000000E+00  0.17561595165E+04  0.23600166696E+04  0.15765730028E+04 0.  0.
        4    1    3    3  502    0  0.72786066968E+03  0.28238421595E+03  0.71497642100E+03  0.10586382269E+04  0.12699999809E+01 0. -1.
       -4    1    3    3    0  502 -0.72786066968E+03 -0.28238421595E+03  0.10411830955E+04  0.13013784427E+04  0.12699999809E+01 0.  1.
</event>
<event>
 5   0  0.7553070E-04  0.1561776E+04  0.7818609E-02  0.8844381E-01
        2   -1    0    0  501    0  0.00000000000E+00  0.00000000000E+00  0.41643465084E+03  0.41643465085E+03  0.25500000920E-02 0. -1.
       -2   -1    0    0    0  501  0.00000000000E+00  0.00000000000E+00 -0.14643020311E+04  0.14643020311E+04  0.25500000920E-02 0.  1.
    10030    2    1    2    0    0  0.00000000000E+00  0.00000000000E+00 -0.10478673802E+04  0.18807366819E+04  0.15617760467E+04 0.  0.
        4    1    3    3  502    0 -0.66095179378E+03 -0.29957555543E+03 -0.17661900496E+03  0.74685920556E+03  0.12699999809E+01 0. -1.
       -4    1    3    3    0  502  0.66095179378E+03  0.29957555543E+03 -0.87124837527E+03  0.11338774764E+04  0.12699999809E+01 0.  1.
</event>
<event>
 5   0  0.7415102E-04  0.1597476E+04  0.7818609E-02  0.8822100E-01
       -2   -1    0    0    0  501  0.00000000000E+00  0.00000000000E+00  0.59533819639E+03  0.59533819640E+03  0.25500000920E-02 0. -1.
        2   -1    0    0  501    0  0.00000000000E+00  0.00000000000E+00 -0.10716306137E+04  0.10716306137E+04  0.25500000920E-02 0.  1.
    10030    2    1    2    0    0  0.00000000000E+00  0.00000000000E+00 -0.47629241728E+03  0.16669688101E+04  0.15974763056E+04 0.  0.
        5    1    3    3  502    0 -0.84069179556E+02 -0.39377042790E+03  0.48167146306E+03  0.62781547063E+03  0.46999998093E+01 0. -1.
       -5    1    3    3    0  502  0.84069179556E+02  0.39377042790E+03 -0.95796388033E+03  0.10391533394E+04  0.46999998093E+01 0.  1.
</event>
<event>
 5   0  0.3837251E-04  0.1598252E+04  0.7818609E-02  0.8821622E-01
        1   -1    0    0  501    0  0.00000000000E+00  0.00000000000E+00  0.89358797371E+03  0.89358797372E+03  0.50400001928E-02 0.  1.
       -1   -1    0    0    0  501  0.00000000000E+00  0.00000000000E+00 -0.71465001829E+03  0.71465001831E+03  0.50400001928E-02 0. -1.
    10030    2    1    2    0    0  0.00000000000E+00  0.00000000000E+00  0.17893795541E+03  0.16082379920E+04  0.15982523728E+04 0.  0.
        4    1    3    3  502    0  0.28898766419E+03 -0.74323801240E+03  0.14160422849E+03  0.80991973896E+03  0.12699999809E+01 0.  1.
       -4    1    3    3    0  502 -0.28898766419E+03  0.74323801240E+03  0.37333726927E+02  0.79831825308E+03  0.12699999809E+01 0. -1.
</event>
<event>
 5   0  0.3950195E-04  0.1646232E+04  0.7818609E-02  0.8792639E-01
       -1   -1    0    0    0  501  0.00000000000E+00  0.00000000000E+00  0.94594829540E+03  0.94594829542E+03  0.50400001928E-02 0.  1.
        1   -1    0    0  501    0  0.00000000000E+00  0.00000000000E+00 -0.71623365111E+03  0.71623365113E+03  0.50400001928E-02 0. -1.
    10030    2    1    2    0    0  0.00000000000E+00  0.00000000000E+00  0.22971464429E+03  0.16621819465E+04  0.16462320631E+04 0.  0.
        2    1    3    3  502    0  0.32601040123E+03 -0.74810748642E+03  0.62399273840E+01  0.81607997748E+03  0.25500000920E-02 0.  1.
       -2    1    3    3    0  502 -0.32601040123E+03  0.74810748642E+03  0.22347471691E+03  0.84610196906E+03  0.25500000920E-02 0. -1.
</event>
<event>
 5   0  0.7488884E-04  0.1514967E+04  0.7818609E-02  0.8874560E-01
       -2   -1    0    0    0  501  0.00000000000E+00  0.00000000000E+00  0.51934598855E+03  0.51934598856E+03  0.25500000920E-02 0.  1.
        2   -1    0    0  501    0  0.00000000000E+00  0.00000000000E+00 -0.11048156029E+04  0.11048156029E+04  0.25500000920E-02 0. -1.
    10030    2    1    2    0    0  0.00000000000E+00  0.00000000000E+00 -0.58546961431E+03  0.16241615914E+04  0.15149673943E+04 0.  0.
        3    1    3    3  502    0  0.29673227351E+03 -0.69511239437E+03 -0.23859483414E+03  0.79256469012E+03  0.10100000352E+00 0.  1.
       -3    1    3    3    0  502 -0.29673227351E+03  0.69511239437E+03 -0.34687478016E+03  0.83159690131E+03  0.10100000352E+00 0. -1.
</event>
<event>
 5   0  0.7395088E-04  0.1595682E+04  0.7818609E-02  0.8823205E-01
        2   -1    0    0  501    0  0.00000000000E+00  0.00000000000E+00  0.16899286644E+04  0.16899286644E+04  0.25500000920E-02 0.  1.
       -2   -1    0    0    0  501  0.00000000000E+00  0.00000000000E+00 -0.37667286375E+03  0.37667286376E+03  0.25500000920E-02 0. -1.
    10030    2    1    2    0    0  0.00000000000E+00  0.00000000000E+00  0.13132558006E+04  0.20666015281E+04  0.15956820104E+04 0.  0.
        1    1    3    3  502    0 -0.49837881765E+03 -0.59414092482E+03  0.89949466423E+03  0.11876344284E+04  0.50400001928E-02 0.  1.
       -1    1    3    3    0  502  0.49837881765E+03  0.59414092482E+03  0.41376113638E+03  0.87896709975E+03  0.50400001928E-02 0. -1.
</event>
<event>
 5   0  0.7553070E-04  0.1624225E+04  0.7818609E-02  0.8805802E-01
        2   -1    0    0  501    0  0.00000000000E+00  0.00000000000E+00  0.13821767131E+04  0.13821767131E+04  0.25500000920E-02 0.  1.
       -2   -1    0    0    0  501  0.00000000000E+00  0.00000000000E+00 -0.47716549911E+03  0.47716549911E+03  0.25500000920E-02 0. -1.
    10030    2    1    2    0    0  0.00000000000E+00  0.00000000000E+00  0.90501121402E+03  0.18593422122E+04  0.16242254045E+04 0.  0.
        4    1    3    3  502    0  0.74935526446E+03  0.20749702540E+03  0.72082119041E+03  0.10602703096E+04  0.12699999809E+01 0.  1.
       -4    1    3    3    0  502 -0.74935526446E+03 -0.20749702540E+03  0.18419002361E+03  0.79907190266E+03  0.12699999809E+01 0. -1.
</event>
<event>
 5   0  0.3973227E-04  0.1602415E+04  0.7818609E-02  0.8819066E-01
       -1   -1    0    0    0  501  0.00000000000E+00  0.00000000000E+00  0.38462268630E+03  0.38462268633E+03  0.50400001928E-02 0. -1.
        1   -1    0    0  501    0  0.00000000000E+00  0.00000000000E+00 -0.16689949567E+04  0.16689949567E+04  0.50400001928E-02 0.  1.
    10030    2    1    2    0    0  0.00000000000E+00  0.00000000000E+00 -0.12843722704E+04  0.20536176430E+04  0.16024148323E+04 0.  0.
        3    1    3    3  502    0 -0.50297562428E+02 -0.54765371692E+03 -0.13888944850E+04  0.14938146937E+04  0.10100000352E+00 0.  1.
       -3    1    3    3    0  502  0.50297562428E+02  0.54765371692E+03  0.10452221467E+03  0.55980294926E+03  0.10100000352E+00 0. -1.
</event>
<event>
 5   0  0.3889847E-04  0.1593279E+04  0.7818609E-02  0.8824688E-01
        1   -1    0    0  501    0  0.00000000000E+00  0.00000000000E+00  0.19869649638E+04  0.19869649638E+04  0.50400001928E-02 0. -1.
       -1   -1    0    0    0  501  0.00000000000E+00  0.00000000000E+00 -0.31939882430E+03  0.31939882434E+03  0.50400001928E-02 0.  1.
    10030    2    1    2    0    0  0.00000000000E+00  0.00000000000E+00  0.16675661395E+04  0.23063637882E+04  0.15932787244E+04 0.  0.
        1    1    3    3  502    0  0.29552046699E+03  0.29262138708E+03  0.18173503399E+04  0.18643288016E+04  0.50400001928E-02 0. -1.
       -1    1    3    3    0  502 -0.29552046699E+03 -0.29262138708E+03 -0.14978420041E+03  0.44203498652E+03  0.50400001928E-02 0.  1.
</event>
<event>
 5   0  0.3950195E-04  0.1607131E+04  0.7818609E-02  0.8816179E-01
        1   -1    0    0  501    0  0.00000000000E+00  0.00000000000E+00  0.19324793421E+04  0.19324793421E+04  0.50400001928E-02 0. -1.
       -1   -1    0    0    0  501  0.00000000000E+00  0.00000000000E+00 -0.33413938595E+03  0.33413938599E+03  0.50400001928E-02 0.  1.
    10030    2    1    2    0    0  0.00000000000E+00  0.00000000000E+00  0.15983399562E+04  0.22666187281E+04  0.16071309353E+04 0.  0.
        2    1    3    3  502    0 -0.34808375804E+03  0.71034734310E+03  0.99843321198E+03  0.12738228014E+04  0.25500000920E-02 0. -1.
       -2    1    3    3    0  502  0.34808375804E+03 -0.71034734310E+03  0.59990674417E+03  0.99279592675E+03  0.25500000920E-02 0.  1.
</event>
<event>
 5   0  0.7395088E-04  0.1598368E+04  0.7818609E-02  0.8821551E-01
       -2   -1    0    0    0  501  0.00000000000E+00  0.00000000000E+00  0.34694099047E+03  0.34694099048E+03  0.25500000920E-02 0.  1.
        2   -1    0    0  501    0  0.00000000000E+00  0.00000000000E+00 -0.18409331798E+04  0.18409331798E+04  0.25500000920E-02 0. -1.
    10030    2    1    2    0    0  0.00000000000E+00  0.00000000000E+00 -0.14939921893E+04  0.21878741703E+04  0.15983681438E+04 0.  0.
        1    1    3    3  502    0 -0.63127726358E+03  0.32837071543E+03 -0.12449839721E+04  0.14339886335E+04  0.50400001928E-02 0. -1.
       -1    1    3    3    0  502  0.63127726358E+03 -0.32837071543E+03 -0.24900821725E+03  0.75388553677E+03  0.50400001928E-02 0.  1.
</event>
<event>
 5   0  0.7553070E-04  0.1584365E+04  0.7818609E-02  0.8830211E-01
        2   -1    0    0  501    0  0.00000000000E+00  0.00000000000E+00  0.10923754209E+04  0.10923754209E+04  0.25500000920E-02 0.  1.
       -2   -1    0    0    0  501  0.00000000000E+00  0.00000000000E+00 -0.57448469741E+03  0.57448469742E+03  0.25500000920E-02 0. -1.
    10030    2    1    2    0    0  0.00000000000E+00  0.00000000000E+00  0.51789072353E+03  0.16668601184E+04  0.15843648105E+04 0.  0.
        4    1    3    3  502    0 -0.39535152466E+03 -0.46933363531E+03 -0.26811303040E+03  0.66967387529E+03  0.12699999809E+01 0. -1.
       -4    1    3    3    0  502  0.39535152466E+03  0.46933363531E+03  0.78600375393E+03  0.99718624307E+03  0.12699999809E+01 0.  1.
</event>
<event>
 5   0  0.4110803E-04  0.1504041E+04  0.7818609E-02  0.8881770E-01
       -1   -1    0    0    0  501  0.00000000000E+00  0.00000000000E+00  0.74282701411E+03  0.74282701413E+03  0.50400001928E-02 0.  1.
        1   -1    0    0  501    0  0.00000000000E+00  0.00000000000E+00 -0.76132750716E+03  0.76132750718E+03  0.50400001928E-02 0. -1.
    10030    2    1    2    0    0  0.00000000000E+00  0.00000000000E+00 -0.18500493045E+02  0.15041545213E+04  0.15040407427E+04 0.  0.
        5    1    3    3  502    0 -0.31243822273E+03  0.32195965864E+03  0.59431581800E+03  0.74465364186E+03  0.46999998093E+01 0.  1.
       -5    1    3    3    0  502  0.31243822273E+03 -0.32195965864E+03 -0.61281631104E+03  0.75950087945E+03  0.46999998093E+01 0. -1.
</event>
<event>
 5   0  0.7395088E-04  0.1589831E+04  0.7818609E-02  0.8826819E-01
       -2   -1    0    0    0  501  0.00000000000E+00  0.00000000000E+00  0.63983627093E+03  0.63983627094E+03  0.25500000920E-02 0.  1.
        2   -1    0    0  501    0  0.00000000000E+00  0.00000000000E+00 -0.98758228880E+03  0.98758228880E+03  0.25500000920E-02 0. -1.
    10030    2    1    2    0    0  0.00000000000E+00  0.00000000000E+00 -0.34774601787E+03  0.16274185597E+04  0.15898313985E+04 0.  0.
        1    1    3    3  502    0  0.24835239384E+03 -0.90161725442E+02 -0.94132000273E+03  0.97769698569E+03  0.50400001928E-02 0. -1.
       -1    1    3    3    0  502 -0.24835239384E+03  0.90161725442E+02  0.59357398486E+03  0.64972157405E+03  0.50400001928E-02 0.  1.
</event>
<event>
 5   0  0.3973227E-04  0.1611296E+04  0.7818609E-02  0.8813638E-01
       -1   -1    0    0    0  501  0.00000000000E+00  0.00000000000E+00  0.63466526323E+03  0.63466526325E+03  0.50400001928E-02 0.  1.
        1   -1    0    0  501    0  0.00000000000E+00  0.00000000000E+00 -0.10226946086E+04  0.10226946086E+04  0.50400001928E-02 0. -1.
    10030    2    1    2    0    0  0.00000000000E+00  0.00000000000E+00 -0.38802934533E+03  0.16573598718E+04  0.16112960535E+04 0.  0.
        3    1    3    3  502    0  0.69619847767E+03 -0.36920454043E+03 -0.36632825449E+03  0.86902284965E+03  0.10100000352E+00 0. -1.
       -3    1    3    3    0  502 -0.69619847767E+03  0.36920454043E+03 -0.21701090836E+02  0.78833702217E+03  0.10100000352E+00 0.  1.
</event>
<event>
 5   0  0.4110803E-04  0.1611742E+04  0.7818609E-02  0.8813367E-01
       -1   -1    0    0    0  501  0.00000000000E+00  0.00000000000E+00  0.62662305903E+03  0.62662305905E+03  0.50400001928E-02 0.  1.
        1   -1    0    0  501    0  0.00000000000E+00  0.00000000000E+00 -0.10363934745E+04  0.10363934746E+04  0.50400001928E-02 0. -1.
    10030    2    1    2    0    0  0.00000000000E+00  0.00000000000E+00 -0.40977041552E+03  0.16630165336E+04  0.16117419761E+04 0.  0.
        5    1    3    3  502    0  0.21864011368E+03 -0.44167773339E+03 -0.86276074738E+03  0.99361004257E+03  0.46999998093E+01 0. -1.
       -5    1    3    3    0  502 -0.21864011368E+03  0.44167773339E+03  0.45299033186E+03  0.66940649104E+03  0.46999998093E+01 0.  1.
</event>
<event>
 5   0  0.4110803E-04  0.1629625E+04  0.7818609E-02  0.8802552E-01
       -1   -1    0    0    0  501  0.00000000000E+00  0.00000000000E+00  0.29109221326E+03  0.29109221330E+03  0.50400001928E-02 0.  1.
        1   -1    0    0  501    0  0.00000000000E+00  0.00000000000E+00 -0.22807859960E+04  0.22807859960E+04  0.50400001928E-02 0. -1.
    10030    2    1    2    0    0  0.00000000000E+00  0.00000000000E+00 -0.19896937828E+04  0.25718782093E+04  0.16296245502E+04 0.  0.
        5    1    3    3  502    0 -0.74301183155E+03 -0.29186016398E+03 -0.73721757312E+03  0.10866281688E+04  0.46999998093E+01 0.  1.
       -5    1    3    3    0  502  0.74301183155E+03  0.29186016398E+03 -0.12524762097E+04  0.14852500405E+04  0.46999998093E+01 0. -1.
</event>
<event>
 5   0  0.2781000E-04  0.1655163E+04  0.7818609E-02  0.8787358E-01
        4   -1    0    0  501    0  0.00000000000E+00  0.00000000000E+00  0.19949130813E+04  0.19949134855E+04  0.12699999809E+01 0. -1.
       -4   -1    0    0    0  501  0.00000000000E+00  0.00000000000E+00 -0.34331716881E+03  0.34331951779E+03  0.12699999809E+01 0.  1.
    10030    2    1    2    0    0  0.00000000000E+00  0.00000000000E+00  0.16515959125E+04  0.23382330033E+04  0.16551629889E+04 0.  0.
        2    1    3    3  502    0 -0.79743815339E+02  0.80997613955E+03  0.10375635451E+04  0.13186957696E+04  0.25500000920E-02 0.  1.
       -2    1    3    3    0  502  0.79743815339E+02 -0.80997613955E+03  0.61403236741E+03  0.10195372337E+04  0.25500000920E-02 0. -1.
</event>
<event>
 5   0  0.7415102E-04  0.1597559E+04  0.7818609E-02  0.8822049E-01
        2   -1    0    0  501    0  0.00000000000E+00  0.00000000000E+00  0.24949799395E+04  0.24949799395E+04  0.25500000920E-02 0. -1.
       -2   -1    0    0    0  501  0.00000000000E+00  0.00000000000E+00 -0.25573303213E+03  0.25573303214E+03  0.25500000920E-02 0.  1.
    10030    2    1    2    0    0  0.00000000000E+00  0.00000000000E+00  0.22392469074E+04  0.27507129717E+04  0.15975591195E+04 0.  0.
        5    1    3    3  502    0  0.29077881175E+03  0.71649086263E+03  0.14644835410E+04  0.16560934773E+04  0.46999998093E+01 0. -1.
       -5    1    3    3    0  502 -0.29077881175E+03 -0.71649086263E+03  0.77476336642E+03  0.10946194944E+04  0.46999998093E+01 0.  1.
</event>
<event>
 5   0  0.7553070E-04  0.1262988E+04  0.7818609E-02  0.9059442E-01
       -2   -1    0    0    0  501  0.00000000000E+00  0.00000000000E+00  0.70483036818E+03  0.70483036819E+03  0.25500000920E-02 0. -1.
        2   -1    0    0  501    0  0.00000000000E+00  0.00000000000E+00 -0.56578802250E+03  0.56578802250E+03  0.25500000920E-02 0.  1.
    10030    2    1    2    0    0  0.00000000000E+00  0.00000000000E+00  0.13904234569E+03  0.12706183907E+04  0.12629878546E+04 0.  0.
        4    1    3    3  502    0 -0.37154942547E+02 -0.39694929711E+02  0.70246993517E+03  0.70457206865E+03  0.12699999809E+01 0. -1.
       -4    1    3    3    0  502  0.37154942547E+02  0.39694929711E+02 -0.56342758949E+03  0.56604632204E+03  0.12699999809E+01 0.  1.
</event>
<event>
 5   0  0.3889847E-04  0.1804017E+04  0.7818609E-02  0.8704166E-01
       -1   -1    0    0    0  501  0.00000000000E+00  0.00000000000E+00  0.14808800183E+04  0.14808800183E+04  0.50400001928E-02 0. -1.
        1   -1    0    0  501    0  0.00000000000E+00  0.00000000000E+00 -0.54941624427E+03  0.54941624429E+03  0.50400001928E-02 0.  1.
    10030    2    1    2    0    0  0.00000000000E+00  0.00000000000E+00  0.93146377405E+03  0.20302962626E+04  0.18040172260E+04 0.  0.
        1    1    3    3  502    0  0.73358194996E+03 -0.39168909193E+03  0.72544502369E+02  0.83476076028E+03  0.50400001928E-02 0.  1.
       -1    1    3    3    0  502 -0.73358194996E+03  0.39168909193E+03  0.85891927168E+03  0.11955355023E+04  0.50400001928E-02 0. -1.
</event>
<event>
 5   0  0.7415102E-04  0.1469581E+04  0.7818609E-02  0.8904937E-01
       -2   -1    0    0    0  501  0.00000000000E+00  0.00000000000E+00  0.45203731101E+03  0.45203731102E+03  0.25500000920E-02 0. -1.
        2   -1    0    0  501    0  0.00000000000E+00  0.00000000000E+00 -0.11944077124E+04  0.11944077124E+04  0.25500000920E-02 0.  1.
    10030    2    1    2    0    0  0.00000000000E+00  0.00000000000E+00 -0.74237040137E+03  0.16464450234E+04  0.14695806893E+04 0.  0.
        5    1    3    3  502    0  0.50481331566E+03  0.53306636411E+03 -0.33760218509E+03  0.80808016780E+03  0.46999998093E+01 0. -1.
       -5    1    3    3    0  502 -0.50481331566E+03 -0.53306636411E+03 -0.40476821628E+03  0.83836485561E+03  0.46999998093E+01 0.  1.
</event>
<event>
 5   0  0.4110803E-04  0.1586575E+04  0.7818609E-02  0.8828838E-01
        1   -1    0    0  501    0  0.00000000000E+00  0.00000000000E+00  0.10240623985E+04  0.10240623985E+04  0.50400001928E-02 0. -1.
       -1   -1    0    0    0  501  0.00000000000E+00  0.00000000000E+00 -0.61451824006E+03  0.61451824008E+03  0.50400001928E-02 0.  1.
    10030    2    1    2    0    0  0.00000000000E+00  0.00000000000E+00  0.40954415842E+03  0.16385806386E+04  0.15865749561E+04 0.  0.
        5    1    3    3  502    0 -0.35829257693E+03  0.32979542916E+03 -0.44196862934E+03  0.65764500690E+03  0.46999998093E+01 0.  1.
       -5    1    3    3    0  502  0.35829257693E+03 -0.32979542916E+03  0.85151278776E+03  0.98093563168E+03  0.46999998093E+01 0. -1.
</event>
<event>
 5   0  0.7488884E-04  0.1605759E+04  0.7818609E-02  0.8817018E-01
        2   -1    0    0  501    0  0.00000000000E+00  0.00000000000E+00  0.68786496506E+03  0.68786496506E+03  0.25500000920E-02 0.  1.
       -2   -1    0    0    0  501  0.00000000000E+00  0.00000000000E+00 -0.93712476116E+03  0.93712476117E+03  0.25500000920E-02 0. -1.
    10030    2    1    2    0    0  0.00000000000E+00  0.00000000000E+00 -0.24925979610E+03  0.16249897262E+04  0.16057587504E+04 0.  0.
        3    1    3    3  502    0 -0.10825952376E+03  0.79291708731E+03 -0.59221080221E+02  0.80246169901E+03  0.10100000352E+00 0. -1.
       -3    1    3    3    0  502  0.10825952376E+03 -0.79291708731E+03 -0.19003871588E+03  0.82252802722E+03  0.10100000352E+00 0.  1.
</event>
<event>
 5   0  0.7415102E-04  0.1613976E+04  0.7818609E-02  0.8812008E-01
        2   -1    0    0  501    0  0.00000000000E+00  0.00000000000E+00  0.62864681291E+03  0.62864681292E+03  0.25500000920E-02 0.  1.
       -2   -1    0    0    0  501  0.00000000000E+00  0.00000000000E+00 -0.10359225133E+04  0.10359225133E+04  0.25500000920E-02 0. -1.
    10030    2    1    2    0    0  0.00000000000E+00  0.00000000000E+00 -0.40727570040E+03  0.16645693262E+04  0.16139756955E+04 0.  0.
        5    1    3    3  502    0  0.79735116212E+03 -0.62428661106E+02 -0.31443489537E+03  0.85939374380E+03  0.46999998093E+01 0. -1.
       -5    1    3    3    0  502 -0.79735116212E+03  0.62428661106E+02 -0.92840805022E+02  0.80517558243E+03  0.46999998093E+01 0.  1.
</event>
<event>
 5   0  0.3837251E-04  0.1617102E+04  0.7818609E-02  0.8810110E-01
        1   -1    0    0  501    0  0.00000000000E+00  0.00000000000E+00  0.54068612780E+03  0.54068612782E+03  0.50400001928E-02 0. -1.
       -1   -1    0    0    0  501  0.00000000000E+00  0.00000000000E+00 -0.12091202100E+04  0.12091202100E+04  0.50400001928E-02 0.  1.
    10030    2    1    2    0    0  0.00000000000E+00  0.00000000000E+00 -0.66843408224E+03  0.17498063379E+04  0.16171017586E+04 0.  0.
        4    1    3    3  502    0  0.74330292639E+03  0.26615739027E+03 -0.52292438336E+03  0.94699024302E+03  0.12699999809E+01 0. -1.
       -4    1    3    3    0  502 -0.74330292639E+03 -0.26615739027E+03 -0.14550969888E+03  0.80281609485E+03  0.12699999809E+01 0.  1.
</event>
<event>
 5   0  0.7488884E-04  0.1586293E+04  0.7818609E-02  0.8829013E-01
        2   -1    0    0  501    0  0.00000000000E+00  0.00000000000E+00  0.13048940194E+04  0.13048940194E+04  0.25500000920E-02 0. -1.
       -2   -1    0    0    0  501  0.00000000000E+00  0.00000000000E+00 -0.48209398012E+03  0.48209398013E+03  0.25500000920E-02 0.  1.
    10030    2    1    2    0    0  0.00000000000E+00  0.00000000000E+00  0.82280003925E+03  0.17869879995E+04  0.15862932282E+04 0.  0.
        3    1    3    3  502    0 -0.29370089562E+03 -0.67945285236E+03  0.90460680201E+02  0.74572081876E+03  0.10100000352E+00 0.  1.
       -3    1    3    3    0  502  0.29370089562E+03  0.67945285236E+03  0.73233935905E+03  0.10412671807E+04  0.10100000352E+00 0. -1.
</event>
<event>
 5   0  0.7770905E-04  0.1581308E+04  0.7818609E-02  0.8832114E-01
        2   -1    0    0  501    0  0.00000000000E+00  0.00000000000E+00  0.25028268702E+04  0.25028268702E+04  0.25500000920E-02 0.  1.
       -2   -1    0    0    0  501  0.00000000000E+00  0.00000000000E+00 -0.24977094724E+03  0.24977094725E+03  0.25500000920E-02 0. -1.
    10030    2    1    2    0    0  0.00000000000E+00  0.00000000000E+00  0.22530559229E+04  0.27525978174E+04  0.15813076085E+04 0.  0.
        2    1    3    3  502    0 -0.40064495250E+03 -0.21932765379E+03  0.22499434039E+04  0.22958367360E+04  0.25500000920E-02 0.  1.
       -2    1    3    3    0  502  0.40064495250E+03  0.21932765379E+03  0.31125190082E+01  0.45676108138E+03  0.25500000920E-02 0. -1.
</event>
<event>
 5   0  0.7553070E-04  0.1649211E+04  0.7818609E-02  0.8790873E-01
        2   -1    0    0  501    0  0.00000000000E+00  0.00000000000E+00  0.13897832655E+04  0.13897832655E+04  0.25500000920E-02 0.  1.
       -2   -1    0    0    0  501  0.00000000000E+00  0.00000000000E+00 -0.48926659414E+03  0.48926659415E+03  0.25500000920E-02 0. -1.
    10030    2    1    2    0    0  0.00000000000E+00  0.00000000000E+00  0.90051667140E+03  0.18790498597E+04  0.16492113569E+04 0.  0.
        4    1    3    3  502    0 -0.89460037795E+02  0.64367809077E+03 -0.12807157264E+03  0.66236585323E+03  0.12699999809E+01 0. -1.
       -4    1    3    3    0  502  0.89460037795E+02 -0.64367809077E+03  0.10285882440E+04  0.12166840065E+04  0.12699999809E+01 0.  1.
</event>
<event>
 5   0  0.7415102E-04  0.1519256E+04  0.7818609E-02  0.8871748E-01
        2   -1    0    0  501    0  0.00000000000E+00  0.00000000000E+00  0.87432731892E+03  0.87432731892E+03  0.25500000920E-02 0.  1.
       -2   -1    0    0    0  501  0.00000000000E+00  0.00000000000E+00 -0.65997553138E+03  0.65997553139E+03  0.25500000920E-02 0. -1.
    10030    2    1    2    0    0  0.00000000000E+00  0.00000000000E+00  0.21435178754E+03  0.15343028503E+04  0.15192559191E+04 0.  0.
        5    1    3    3  502    0 -0.35774535536E+03 -0.47984168429E+03  0.57955068042E+03  0.83314516289E+03  0.46999998093E+01 0.  1.
       -5    1    3    3    0  502  0.35774535536E+03  0.47984168429E+03 -0.36519889288E+03  0.70115768742E+03  0.46999998093E+01 0. -1.
</event>
<event>
 5   0  0.7395088E-04  0.1606569E+04  0.7818609E-02  0.8816522E-01
        2   -1    0    0  501    0  0.00000000000E+00  0.00000000000E+00  0.16810428005E+04  0.16810428005E+04  0.25500000920E-02 0. -1.
       -2   -1    0    0    0  501  0.00000000000E+00  0.00000000000E+00 -0.38384881617E+03  0.38384881617E+03  0.25500000920E-02 0.  1.
    10030    2    1    2    0    0  0.00000000000E+00  0.00000000000E+00  0.12971939843E+04  0.20648916167E+04  0.16065693747E+04 0.  0.
        1    1    3    3  502    0 -0.15193553398E+03 -0.53153248271E+03 -0.10046342575E+03  0.56187550810E+03  0.50400001928E-02 0.  1.
       -1    1    3    3    0  502  0.15193553398E+03  0.53153248271E+03  0.13976574101E+04  0.15030161086E+04  0.50400001928E-02 0. -1.
</event>
<event>
 5   0  0.7395088E-04  0.1600274E+04  0.7818609E-02  0.8820380E-01
        2   -1    0    0  501    0  0.00000000000E+00  0.00000000000E+00  0.54132747049E+03  0.54132747049E+03  0.25500000920E-02 0. -1.
       -2   -1    0    0    0  501  0.00000000000E+00  0.00000000000E+00 -0.11826836317E+04  0.11826836317E+04  0.25500000920E-02 0.  1.
    10030    2    1    2    0    0  0.00000000000E+00  0.00000000000E+00 -0.64135616116E+03  0.17240111021E+04  0.16002739000E+04 0.  0.
        1    1    3    3  502    0  0.80623124219E+02  0.37167893789E+03  0.43772469355E+03  0.57986914765E+03  0.50400001928E-02 0. -1.
       -1    1    3    3    0  502 -0.80623124219E+02 -0.37167893789E+03 -0.10790808547E+04  0.11441419545E+04  0.50400001928E-02 0.  1.
</event>
<event>
 5   0  0.3889847E-04  0.1584179E+04  0.7818609E-02  0.8830327E-01
        1   -1    0    0  501    0  0.00000000000E+00  0.00000000000E+00  0.60718311903E+03  0.60718311905E+03  0.50400001928E-02 0.  1.
       -1   -1    0    0    0  501  0.00000000000E+00  0.00000000000E+00 -0.10333060862E+04  0.10333060862E+04  0.50400001928E-02 0. -1.
    10030    2    1    2    0    0  0.00000000000E+00  0.00000000000E+00 -0.42612296720E+03  0.16404892053E+04  0.15841792984E+04 0.  0.
        1    1    3    3  502    0 -0.33857547565E+03  0.84129524465E+02  0.52333774128E+03  0.62896225727E+03  0.50400001928E-02 0.  1.
       -1    1    3    3    0  502  0.33857547565E+03 -0.84129524465E+02 -0.94946070848E+03  0.10115269480E+04  0.50400001928E-02 0. -1.
</event>
<event>
 5   0  0.3950195E-04  0.1537856E+04  0.7818609E-02  0.8859662E-01
        1   -1    0    0  501    0  0.00000000000E+00  0.00000000000E+00  0.18769533202E+04  0.18769533202E+04  0.50400001928E-02 0. -1.
       -1   -1    0    0    0  501  0.00000000000E+00  0.00000000000E+00 -0.31500551147E+03  0.31500551151E+03  0.50400001928E-02 0.  1.
    10030    2    1    2    0    0  0.00000000000E+00  0.00000000000E+00  0.15619478087E+04  0.21919588317E+04  0.15378564831E+04 0.  0.
        2    1    3    3  502    0  0.59116671997E+03 -0.36427821134E+03  0.31023827016E+03  0.76054223442E+03  0.25500000920E-02 0.  1.
       -2    1    3    3    0  502 -0.59116671997E+03  0.36427821134E+03  0.12517095386E+04  0.14314165973E+04  0.25500000920E-02 0. -1.
</event>
<event>
 5   0  0.7395088E-04  0.1595122E+04  0.7818609E-02  0.8823551E-01
       -2   -1    0    0    0  501  0.00000000000E+00  0.00000000000E+00  0.72884596127E+03  0.72884596127E+03  0.25500000920E-02 0.  1.
        2   -1    0    0  501    0  0.00000000000E+00  0.00000000000E+00 -0.87275392476E+03  0.87275392476E+03  0.25500000920E-02 0. -1.
    10030    2    1    2    0    0  0.00000000000E+00  0.00000000000E+00 -0.14390796348E+03  0.16015998860E+04  0.15951215292E+04 0.  0.
        1    1    3    3  502    0 -0.22531400976E+03  0.60146488589E+02  0.69384880159E+03  0.73199054815E+03  0.50400001928E-02 0.  1.
       -1    1    3    3    0  502  0.22531400976E+03 -0.60146488589E+02 -0.83775676508E+03  0.86960933789E+03  0.50400001928E-02 0. -1.
</event>
<event>
 5   0  0.3973227E-04  0.1583244E+04  0.7818609E-02  0.8830908E-01
        1   -1    0    0  501    0  0.00000000000E+00  0.00000000000E+00  0.52437241352E+03  0.52437241355E+03  0.50400001928E-02 0.  1.
       -1   -1    0    0    0  501  0.00000000000E+00  0.00000000000E+00 -0.11950776828E+04  0.11950776828E+04  0.50400001928E-02 0. -1.
    10030    2    1    2    0    0  0.00000000000E+00  0.00000000000E+00 -0.67070526931E+03  0.17194500964E+04  0.15832444776E+04 0.  0.
        3    1    3    3  502    0 -0.27150936574E+03  0.30478514928E+03 -0.10719772125E+04  0.11470599275E+04  0.10100000352E+00 0. -1.
       -3    1    3    3    0  502  0.27150936574E+03 -0.30478514928E+03  0.40127194318E+03  0.57239016893E+03  0.10100000352E+00 0.  1.
</event>
<event>
 5   0  0.7415102E-04  0.1610637E+04  0.7818609E-02  0.8814040E-01
        2   -1    0    0  501    0  0.00000000000E+00  0.00000000000E+00  0.65936378502E+03  0.65936378502E+03  0.25500000920E-02 0. -1.
       -2   -1    0    0    0  501  0.00000000000E+00  0.00000000000E+00 -0.98358167347E+03  0.98358167347E+03  0.25500000920E-02 0.  1.
    10030    2    1    2    0    0  0.00000000000E+00  0.00000000000E+00 -0.32421788845E+03  0.16429454585E+04  0.16106373088E+04 0.  0.
        5    1    3    3  502    0  0.53628126116E+03  0.66857094190E+02 -0.77111812221E+03  0.94165424149E+03  0.46999998093E+01 0.  1.
       -5    1    3    3    0  502 -0.53628126116E+03 -0.66857094190E+02  0.44690023376E+03  0.70129121700E+03  0.46999998093E+01 0. -1.
</event>
<event>
 5   0  0.3973227E-04  0.1328143E+04  0.7818609E-02  0.9007540E-01
        1   -1    0    0  501    0  0.00000000000E+00  0.00000000000E+00  0.26023986802E+04  0.26023986802E+04  0.50400001928E-02 0. -1.
       -1   -1    0    0    0  501  0.00000000000E+00  0.00000000000E+00 -0.16945560859E+03  0.16945560867E+03  0.50400001928E-02 0.  1.
    10030    2    1    2    0    0  0.00000000000E+00  0.00000000000E+00  0.24329430716E+04  0.27718542888E+04  0.13281431433E+04 0.  0.
        3    1    3    3  502    0  0.59602626368E+03 -0.12183870341E+03  0.17721784075E+04  0.18736884199E+04  0.10100000352E+00 0. -1.
       -3    1    3    3    0  502 -0.59602626368E+03  0.12183870341E+03  0.66076466406E+03  0.89816586894E+03  0.10100000352E+00 0.  1.
</event>
<event>
 5   0  0.7770905E-04  0.1603662E+04  0.7818609E-02  0.8818301E-01
        2   -1    0    0  501    0  0.00000000000E+00  0.00000000000E+00  0.53006619042E+03  0.53006619042E+03  0.25500000920E-02 0. -1.
       -2   -1    0    0    0  501  0.00000000000E+00  0.00000000000E+00 -0.12129295872E+04  0.12129295872E+04  0.25500000920E-02 0.  1.
    10030    2    1    2    0    0  0.00000000000E+00  0.00000000000E+00 -0.68286339683E+03  0.17429957777E+04  0.16036620162E+04 0.  0.
        2    1    3    3  502    0  0.30300306131E+03 -0.36954537077E+03 -0.10412355284E+04  0.11456640266E+04  0.25500000920E-02 0.  1.
       -2    1    3    3    0  502 -0.30300306131E+03  0.36954537077E+03  0.35837213153E+03  0.59733175111E+03  0.25500000920E-02 0. -1.
</event>
<event>
 5   0  0.3837251E-04  0.1581092E+04  0.7818609E-02  0.8832249E-01
        1   -1    0    0  501    0  0.00000000000E+00  0.00000000000E+00  0.17120499141E+04  0.17120499141E+04  0.50400001928E-02 0. -1.
       -1   -1    0    0    0  501  0.00000000000E+00  0.00000000000E+00 -0.36503794610E+03  0.36503794613E+03  0.50400001928E-02 0.  1.
    10030    2    1    2    0    0  0.00000000000E+00  0.00000000000E+00  0.13470119680E+04  0.20770878602E+04  0.15810922608E+04 0.  0.
        4    1    3    3  502    0  0.13789856762E+03 -0.15706179344E+03  0.16750943700E+04  0.16880838792E+04  0.12699999809E+01 0. -1.
       -4    1    3    3    0  502 -0.13789856762E+03  0.15706179344E+03 -0.32808240197E+03  0.38900398107E+03  0.12699999809E+01 0.  1.
</event>
<event>
 5   0  0.4110803E-04  0.1604936E+04  0.7818609E-02  0.8817521E-01
        1   -1    0    0  501    0  0.00000000000E+00  0.00000000000E+00  0.24215449450E+04  0.24215449450E+04  0.50400001928E-02 0. -1.
       -1   -1    0    0    0  501  0.00000000000E+00  0.00000000000E+00 -0.26592724313E+03  0.26592724318E+03  0.50400001928E-02 0.  1.
    10030    2    1    2    0    0  0.00000000000E+00  0.00000000000E+00  0.21556177019E+04  0.26874721882E+04  0.16049358510E+04 0.  0.
        5    1    3    3  502    0  0.15195553439E+03 -0.51785625526E+02 -0.23873978198E+03  0.28773426793E+03  0.46999998093E+01 0.  1.
       -5    1    3    3    0  502 -0.15195553439E+03  0.51785625526E+02  0.23943574839E+04  0.23997379203E+04  0.46999998093E+01 0. -1.
</event>
<event>
 5   0  0.3889847E-04  0.1594701E+04  0.7818609E-02  0.8823810E-01
        1   -1    0    0  501    0  0.00000000000E+00  0.00000000000E+00  0.11798968073E+04  0.11798968073E+04  0.50400001928E-02 0. -1.
       -1   -1    0    0    0  501  0.00000000000E+00  0.00000000000E+00 -0.53883368763E+03  0.53883368765E+03  0.50400001928E-02 0.  1.
    10030    2    1    2    0    0  0.00000000000E+00  0.00000000000E+00  0.64106311967E+03  0.17187304950E+04  0.15947014112E+04 0.  0.
        1    1    3    3  502    0  0.34765024372E+03 -0.46611720137E+03 -0.26746619061E+03  0.64005007656E+03  0.50400001928E-02 0. -1.
       -1    1    3    3    0  502 -0.34765024372E+03  0.46611720137E+03  0.90852931028E+03  0.10786804184E+04  0.50400001928E-02 0.  1.
</event>
<event>
 5   0  0.3950195E-04  0.1616419E+04  0.7818609E-02  0.8810524E-01
       -1   -1    0    0    0  501  0.00000000000E+00  0.00000000000E+00  0.10807570009E+04  0.10807570009E+04  0.50400001928E-02 0.  1.
        1   -1    0    0  501    0  0.00000000000E+00  0.00000000000E+00 -0.60439358993E+03  0.60439358995E+03  0.50400001928E-02 0. -1.
    10030    2    1    2    0    0  0.00000000000E+00  0.00000000000E+00  0.47636341094E+03  0.16851505908E+04  0.16164190096E+04 0.  0.
        2    1    3    3  502    0  0.52351857343E+03 -0.21213283038E+03 -0.36443736745E+03  0.67222513286E+03  0.25500000920E-02 0. -1.
       -2    1    3    3    0  502 -0.52351857343E+03  0.21213283038E+03  0.84080077839E+03  0.10129254580E+04  0.25500000920E-02 0.  1.
</event>
<event>
 5   0  0.7488884E-04  0.1571060E+04  0.7818609E-02  0.8838527E-01
        2   -1    0    0  501    0  0.00000000000E+00  0.00000000000E+00  0.30595620907E+04  0.30595620907E+04  0.25500000920E-02 0.  1.
       -2   -1    0    0    0  501  0.00000000000E+00  0.00000000000E+00 -0.20168164695E+03  0.20168164696E+03  0.25500000920E-02 0. -1.
    10030    2    1    2    0    0  0.00000000000E+00  0.00000000000E+00  0.28578804437E+04  0.32612437376E+04  0.15710601789E+04 0.  0.
        3    1    3    3  502    0  0.76222759812E+03  0.14122123030E+03  0.11653583288E+04  0.13996408081E+04  0.10100000352E+00 0. -1.
       -3    1    3    3    0  502 -0.76222759812E+03 -0.14122123030E+03  0.16925221150E+04  0.18616029295E+04  0.10100000352E+00 0.  1.
</event>
<event>
 5   0  0.7395088E-04  0.1606591E+04  0.7818609E-02  0.8816509E-01
        2   -1    0    0  501    0  0.00000000000E+00  0.00000000000E+00  0.43149926191E+03  0.43149926192E+03  0.25500000920E-02 0. -1.
       -2   -1    0    0    0  501  0.00000000000E+00  0.00000000000E+00 -0.14954460915E+04  0.14954460915E+04  0.25500000920E-02 0.  1.
    10030    2    1    2    0    0  0.00000000000E+00  0.00000000000E+00 -0.10639468295E+04  0.19269453534E+04  0.16065912793E+04 0.  0.
        1    1    3    3  502    0  0.78153835824E+03  0.12218752933E+03 -0.69968317267E+03  0.10560722228E+04  0.50400001928E-02 0.  1.
       -1    1    3    3    0  502 -0.78153835824E+03 -0.12218752933E+03 -0.36426365688E+03  0.87087313053E+03  0.50400001928E-02 0. -1.
</event>
<event>
 5   0  0.3950195E-04  0.1538697E+04  0.7818609E-02  0.8859120E-01
        1   -1    0    0  501    0  0.00000000000E+00  0.00000000000E+00  0.12666666960E+04  0.12666666961E+04  0.50400001928E-02 0. -1.
       -1   -1    0    0    0  501  0.00000000000E+00  0.00000000000E+00 -0.46728730792E+03  0.46728730795E+03  0.50400001928E-02 0.  1.
    10030    2    1    2    0    0  0.00000000000E+00  0.00000000000E+00  0.79937938812E+03  0.17339540040E+04  0.15386972028E+04 0.  0.
        2    1    3    3  502    0 -0.11007246339E+03 -0.73142795262E+03  0.63819422082E+03  0.97693124660E+03  0.25500000920E-02 0. -1.
       -2    1    3    3    0  502  0.11007246339E+03  0.73142795262E+03  0.16118516730E+03  0.75702275741E+03  0.25500000920E-02 0.  1.
</event>
<event>
 5   0  0.3837251E-04  0.1616893E+04  0.7818609E-02  0.8810237E-01
        1   -1    0    0  501    0  0.00000000000E+00  0.00000000000E+00  0.13389830290E+04  0.13389830290E+04  0.50400001928E-02 0.  1.
       -1   -1    0    0    0  501  0.00000000000E+00  0.00000000000E+00 -0.48812111001E+03  0.48812111003E+03  0.50400001928E-02 0. -1.
    10030    2    1    2    0    0  0.00000000000E+00  0.00000000000E+00  0.85086191899E+03  0.18271041390E+04  0.16168931720E+04 0.  0.
        4    1    3    3  502    0  0.56657347799E+03  0.21667564023E+03  0.10293576333E+04  0.11947939526E+04  0.12699999809E+01 0.  1.
       -4    1    3    3    0  502 -0.56657347799E+03 -0.21667564023E+03 -0.17849571426E+03  0.63231018649E+03  0.12699999809E+01 0. -1.
</event>
<event>
 5   0  0.3973227E-04  0.1615494E+04  0.7818609E-02  0.8811085E-01
        1   -1    0    0  501    0  0.00000000000E+00  0.00000000000E+00  0.10387994608E+04  0.10387994608E+04  0.50400001928E-02 0.  1.
       -1   -1    0    0    0  501  0.00000000000E+00  0.00000000000E+00 -0.62808609847E+03  0.62808609849E+03  0.50400001928E-02 0. -1.
    10030    2    1    2    0    0  0.00000000000E+00  0.00000000000E+00  0.41071336233E+03  0.16668855593E+04  0.16154943521E+04 0.  0.
        3    1    3    3  502    0  0.18157670360E+02 -0.60378474244E+03  0.75867106253E+03  0.96977704010E+03  0.10100000352E+00 0.  1.
       -3    1    3    3    0  502 -0.18157670360E+02  0.60378474244E+03 -0.34795770020E+03  0.69710851919E+03  0.10100000352E+00 0. -1.
</event>
<event>
 5   0  0.3837251E-04  0.1593693E+04  0.7818609E-02  0.8824432E-01
       -1   -1    0    0    0  501  0.00000000000E+00  0.00000000000E+00  0.35050433396E+03  0.35050433400E+03  0.50400001928E-02 0.  1.
        1   -1    0    0  501    0  0.00000000000E+00  0.00000000000E+00 -0.18115745505E+04  0.18115745506E+04  0.50400001928E-02 0. -1.
    10030    2    1    2    0    0  0.00000000000E+00  0.00000000000E+00 -0.14610702166E+04  0.21620788846E+04  0.15936934854E+04 0.  0.
        4    1    3    3  502    0 -0.30434860159E+03  0.72989722432E+03 -0.86335551751E+03  0.11707956234E+04  0.12699999809E+01 0. -1.
       -4    1    3    3    0  502  0.30434860159E+03 -0.72989722432E+03 -0.59771469907E+03  0.99128326110E+03  0.12699999809E+01 0.  1.
</event>
<event>
 5   0  0.7770905E-04  0.1581771E+04  0.7818609E-02  0.8831826E-01
       -2   -1    0    0    0  501  0.00000000000E+00  0.00000000000E+00  0.93898993869E+03  0.93898993869E+03  0.25500000920E-02 0.  1.
        2   -1    0    0  501    0  0.00000000000E+00  0.00000000000E+00 -0.66614120796E+03  0.66614120796E+03  0.25500000920E-02 0. -1.
    10030    2    1    2    0    0  0.00000000000E+00  0.00000000000E+00  0.27284873073E+03  0.16051311467E+04  0.15817710226E+04 0.  0.
        2    1    3    3  502    0 -0.34297384821E+03  0.58260689640E+03  0.55289749929E+03  0.87335989204E+03  0.25500000920E-02 0.  1.
       -2    1    3    3    0  502  0.34297384821E+03 -0.58260689640E+03 -0.28004876857E+03  0.73177125461E+03  0.25500000920E-02 0. -1.
</event>
<event>
 5   0  0.7395088E-04  0.1558940E+04  0.7818609E-02  0.8846177E-01
        2   -1    0    0  501    0  0.00000000000E+00  0.00000000000E+00  0.85342002913E+03  0.85342002914E+03  0.25500000920E-02 0. -1.
       -2   -1    0    0    0  501  0.00000000000E+00  0.00000000000E+00 -0.71192799284E+03  0.71192799284E+03  0.25500000920E-02 0.  1.
    10030    2    1    2    0    0  0.00000000000E+00  0.00000000000E+00  0.14149203630E+03  0.15653480220E+04  0.15589401636E+04 0.  0.
        1    1    3    3  502    0  0.42752328590E+03  0.13490429822E+03 -0.56952557003E+03  0.72479976863E+03  0.50400001928E-02 0.  1.
       -1    1    3    3    0  502 -0.42752328590E+03 -0.13490429822E+03  0.71101760633E+03  0.84054825335E+03  0.50400001928E-02 0. -1.
</event>
<event>
 5   0  0.3889847E-04  0.1603410E+04  0.7818609E-02  0.8818456E-01
        1   -1    0    0  501    0  0.00000000000E+00  0.00000000000E+00  0.14129370595E+04  0.14129370595E+04  0.50400001928E-02 0. -1.
       -1   -1    0    0    0  501  0.00000000000E+00  0.00000000000E+00 -0.45488991630E+03  0.45488991633E+03  0.50400001928E-02 0.  1.
    10030    2    1    2    0    0  0.00000000000E+00  0.00000000000E+00  0.95804714317E+03  0.18678269758E+04  0.16034098924E+04 0.  0.
        1    1    3    3  502    0  0.34195228888E+03 -0.72930769531E+02 -0.36139248159E+03  0.50284668716E+03  0.50400001928E-02 0.  1.
       -1    1    3    3    0  502 -0.34195228888E+03  0.72930769531E+02  0.13194396248E+04  0.13649802887E+04  0.50400001928E-02 0. -1.
</event>
<event>
 5   0  0.7770905E-04  0.1616232E+04  0.7818609E-02  0.8810638E-01
        2   -1    0    0  501    0  0.00000000000E+00  0.00000000000E+00  0.16033613662E+04  0.16033613662E+04  0.25500000920E-02 0.  1.
       -2   -1    0    0    0  501  0.00000000000E+00  0.00000000000E+00 -0.40730144154E+03  0.40730144155E+03  0.25500000920E-02 0. -1.
    10030    2    1    2    0    0  0.00000000000E+00  0.00000000000E+00  0.11960599247E+04  0.20106628078E+04  0.16162319088E+04 0.  0.
        2    1    3    3  502    0 -0.45567931230E+03  0.66618569282E+03  0.64785981091E+03  0.10349731144E+04  0.25500000920E-02 0. -1.
       -2    1    3    3    0  502  0.45567931230E+03 -0.66618569282E+03  0.54820011377E+03  0.97568969336E+03  0.25500000920E-02 0.  1.
</event>
<event>
 5   0  0.3973227E-04  0.1600963E+04  0.7818609E-02  0.8819957E-01
       -1   -1    0    0    0  501  0.00000000000E+00  0.00000000000E+00  0.10937038807E+04  0.10937038807E+04  0.50400001928E-02 0.  1.
        1   -1    0    0  501    0  0.00000000000E+00  0.00000000000E+00 -0.58587191045E+03  0.58587191047E+03  0.50400001928E-02 0. -1.
    10030    2    1    2    0    0  0.00000000000E+00  0.00000000000E+00  0.50783197022E+03  0.16795757911E+04  0.16009626880E+04 0.  0.
        3    1    3    3  502    0  0.40330495043E+03 -0.67565373884E+03  0.40812891822E+03  0.88641529880E+03  0.10100000352E+00 0. -1.
       -3    1    3    3    0  502 -0.40330495043E+03  0.67565373884E+03  0.99703052005E+02  0.79316049235E+03  0.10100000352E+00 0.  1.
</event>
<event>
 5   0  0.7395088E-04  0.1531035E+04  0.7818609E-02  0.8864073E-01
       -2   -1    0    0    0  501  0.00000000000E+00  0.00000000000E+00  0.56570378528E+03  0.56570378528E+03  0.25500000920E-02 0. -1.
        2   -1    0    0  501    0  0.00000000000E+00  0.00000000000E+00 -0.10359081000E+04  0.10359081000E+04  0.25500000920E-02 0.  1.
    10030    2    1    2    0    0  0.00000000000E+00  0.00000000000E+00 -0.47020431477E+03  0.16016118853E+04  0.15310351183E+04 0.  0.
        1    1    3    3  502    0  0.25738264915E+03 -0.48944432581E+02  0.51734354152E+03  0.57990147917E+03  0.50400001928E-02 0. -1.
       -1    1    3    3    0  502 -0.25738264915E+03  0.48944432581E+02 -0.98754785629E+03  0.10217104062E+04  0.50400001928E-02 0.  1.
</event>
<event>
 5   0  0.3973227E-04  0.1604415E+04  0.7818609E-02  0.8817840E-01
       -1   -1    0    0    0  501  0.00000000000E+00  0.00000000000E+00  0.31920220998E+03  0.31920221002E+03  0.50400001928E-02 0.  1.
        1   -1    0    0  501    0  0.00000000000E+00  0.00000000000E+00 -0.20160787027E+04  0.20160787027E+04  0.50400001928E-02 0. -1.
    10030    2    1    2    0    0  0.00000000000E+00  0.00000000000E+00 -0.16968764927E+04  0.23352809127E+04  0.16044148808E+04 0.  0.
        3    1    3    3  502    0  0.77079230837E+03  0.17888018796E+03 -0.10405349369E+04  0.13072229609E+04  0.10100000352E+00 0. -1.
       -3    1    3    3    0  502 -0.77079230837E+03 -0.17888018796E+03 -0.65634155580E+03  0.10280579519E+04  0.10100000352E+00 0.  1.
</event>
<event>
 5   0  0.7415102E-04  0.1599690E+04  0.7818609E-02  0.8820739E-01
       -2   -1    0    0    0  501  0.00000000000E+00  0.00000000000E+00  0.64267397612E+03  0.64267397613E+03  0.25500000920E-02 0.  1.
        2   -1    0    0  501    0  0.00000000000E+00  0.00000000000E+00 -0.99545311895E+03  0.99545311895E+03  0.25500000920E-02 0. -1.
    10030    2    1    2    0    0  0.00000000000E+00  0.00000000000E+00 -0.35277914283E+03  0.16381270951E+04  0.15996897374E+04 0.  0.
        5    1    3    3  502    0  0.74873453758E+03  0.23410620046E+03 -0.16691744829E+02  0.78467179458E+03  0.46999998093E+01 0.  1.
       -5    1    3    3    0  502 -0.74873453758E+03 -0.23410620046E+03 -0.33608739800E+03  0.85345530050E+03  0.46999998093E+01 0. -1.
</event>
<event>
 5   0  0.7395088E-04  0.1596871E+04  0.7818609E-02  0.8822472E-01
       -2   -1    0    0    0  501  0.00000000000E+00  0.00000000000E+00  0.82182998312E+03  0.82182998312E+03  0.25500000920E-02 0. -1.
        2   -1    0    0  501    0  0.00000000000E+00  0.00000000000E+00 -0.77570713087E+03  0.77570713087E+03  0.25500000920E-02 0.  1.
    10030    2    1    2    0    0  0.00000000000E+00  0.00000000000E+00  0.46122852246E+02  0.15975371140E+04  0.15968711636E+04 0.  0.
        1    1    3    3  502    0  0.44234986074E+03  0.66246273296E+03  0.77573657345E+02  0.80034239185E+03  0.50400001928E-02 0. -1.
       -1    1    3    3    0  502 -0.44234986074E+03 -0.66246273296E+03 -0.31450805098E+02  0.79719472215E+03  0.50400001928E-02 0.  1.
</event>
<event>
 5   0  0.3950195E-04  0.1623549E+04  0.7818609E-02  0.8806210E-01
        1   -1    0    0  501    0  0.00000000000E+00  0.00000000000E+00  0.14704584245E+04  0.14704584245E+04  0.50400001928E-02 0.  1.
       -1   -1    0    0    0  501  0.00000000000E+00  0.00000000000E+00 -0.44814466115E+03  0.44814466118E+03  0.50400001928E-02 0. -1.
    10030    2    1    2    0    0  0.00000000000E+00  0.00000000000E+00  0.10223137634E+04  0.19186030857E+04  0.16235493124E+04 0.  0.
        2    1    3    3  502    0 -0.35422025169E+03 -0.24043172796E+03  0.13262094725E+04  0.13935964148E+04  0.25500000920E-02 0.  1.
       -2    1    3    3    0  502  0.35422025169E+03  0.24043172796E+03 -0.30389570907E+03  0.52500667092E+03  0.25500000920E-02 0. -1.
</event>
<event>
 5   0  0.7770905E-04  0.1590292E+04  0.7818609E-02  0.8826534E-01
        2   -1    0    0  501    0  0.00000000000E+00  0.00000000000E+00  0.21840819762E+04  0.21840819762E+04  0.25500000920E-02 0.  1.
       -2   -1    0    0    0  501  0.00000000000E+00  0.00000000000E+00 -0.28948407245E+03  0.28948407246E+03  0.25500000920E-02 0. -1.
    10030    2    1    2    0    0  0.00000000000E+00  0.00000000000E+00  0.18945979037E+04  0.24735660487E+04  0.15902917280E+04 0.  0.
        2    1    3    3  502    0  0.67777038782E+03 -0.39790551447E+03  0.11349536750E+04  0.13805148828E+04  0.25500000920E-02 0.  1.
       -2    1    3    3    0  502 -0.67777038782E+03  0.39790551447E+03  0.75964422872E+03  0.10930511659E+04  0.25500000920E-02 0. -1.
</event>
<event>
 5   0  0.7395088E-04  0.1621631E+04  0.7818609E-02  0.8807368E-01
        2   -1    0    0  501    0  0.00000000000E+00  0.00000000000E+00  0.96837251247E+03  0.96837251247E+03  0.25500000920E-02 0.  1.
       -2   -1    0    0    0  501  0.00000000000E+00  0.00000000000E+00 -0.67889376002E+03  0.67889376002E+03  0.25500000920E-02 0. -1.
    10030    2    1    2    0    0  0.00000000000E+00  0.00000000000E+00  0.28947875245E+03  0.16472662725E+04  0.16216313466E+04 0.  0.
        1    1    3    3  502    0  0.56895420803E+03  0.33599234053E+03  0.62208522736E+03  0.90751847026E+03  0.50400001928E-02 0.  1.
       -1    1    3    3    0  502 -0.56895420803E+03 -0.33599234053E+03 -0.33260647492E+03  0.73974780224E+03  0.50400001928E-02 0. -1.
</event>
<event>
 5   0  0.3950195E-04  0.1605613E+04  0.7818609E-02  0.8817107E-01
        1   -1    0    0  501    0  0.00000000000E+00  0.00000000000E+00  0.41742914784E+03  0.41742914787E+03  0.50400001928E-02 0.  1.
       -1   -1    0    0    0  501  0.00000000000E+00  0.00000000000E+00 -0.15439696258E+04  0.15439696259E+04  0.50400001928E-02 0. -1.
    10030    2    1    2    0    0  0.00000000000E+00  0.00000000000E+00 -0.11265404780E+04  0.19613987737E+04  0.16056125625E+04 0.  0.
        2    1    3    3  502    0 -0.77429743310E+02  0.47557825941E+03  0.22114584876E+03  0.53016557074E+03  0.25500000920E-02 0.  1.
       -2    1    3    3    0  502  0.77429743310E+02 -0.47557825941E+03 -0.13476863268E+04  0.14312332030E+04  0.25500000920E-02 0. -1.
</event>
<event>
 5   0  0.3837251E-04  0.1603484E+04  0.7818609E-02  0.8818411E-01
        1   -1    0    0  501    0  0.00000000000E+00  0.00000000000E+00  0.18052697105E+04  0.18052697105E+04  0.50400001928E-02 0.  1.
       -1   -1    0    0    0  501  0.00000000000E+00  0.00000000000E+00 -0.35606327127E+03  0.35606327131E+03  0.50400001928E-02 0. -1.
    10030    2    1    2    0    0  0.00000000000E+00  0.00000000000E+00  0.14492064392E+04  0.21613329818E+04  0.16034840052E+04 0.  0.
        4    1    3    3  502    0  0.17083179448E+03  0.69205366063E+03  0.12192411392E+04  0.14123286939E+04  0.12699999809E+01 0.  1.
       -4    1    3    3    0  502 -0.17083179448E+03 -0.69205366063E+03  0.22996530002E+03  0.74900428791E+03  0.12699999809E+01 0. -1.
</event>
<event>
 5   0  0.7415102E-04  0.1598593E+04  0.7818609E-02  0.8821413E-01
        2   -1    0    0  501    0  0.00000000000E+00  0.00000000000E+00  0.62166112688E+03  0.62166112688E+03  0.25500000920E-02 0. -1.
       -2   -1    0    0    0  501  0.00000000000E+00  0.00000000000E+00 -0.10276901013E+04  0.10276901013E+04  0.25500000920E-02 0.  1.
    10030    2    1    2    0    0  0.00000000000E+00  0.00000000000E+00 -0.40602897440E+03  0.16493512282E+04  0.15985931145E+04 0.  0.
        5    1    3    3  502    0 -0.33185140184E+03 -0.65730152055E+02 -0.95016738949E+03  0.10086059507E+04  0.46999998093E+01 0.  1.
       -5    1    3    3    0  502  0.33185140184E+03  0.65730152055E+02  0.54413841509E+03  0.64074527744E+03  0.46999998093E+01 0. -1.
</event>
<event>
 5   0  0.3973227E-04  0.1609555E+04  0.7818609E-02  0.8814700E-01
        1   -1    0    0  501    0  0.00000000000E+00  0.00000000000E+00  0.10079361479E+04  0.10079361479E+04  0.50400001928E-02 0. -1.
       -1   -1    0    0    0  501  0.00000000000E+00  0.00000000000E+00 -0.64256694746E+03  0.64256694748E+03  0.50400001928E-02 0.  1.
    10030    2    1    2    0    0  0.00000000000E+00  0.00000000000E+00  0.36536920042E+03  0.16505030954E+04  0.16095545394E+04 0.  0.
        3    1    3    3  502    0 -0.16807358155E+03 -0.22516165038E+03  0.95600572847E+03  0.99644039495E+03  0.10100000352E+00 0. -1.
       -3    1    3    3    0  502  0.16807358155E+03  0.22516165038E+03 -0.59063652805E+03  0.65406270042E+03  0.10100000352E+00 0.  1.
</event>
<event>
 5   0  0.3973227E-04  0.1632460E+04  0.7818609E-02  0.8800851E-01
        1   -1    0    0  501    0  0.00000000000E+00  0.00000000000E+00  0.13073950732E+04  0.13073950732E+04  0.50400001928E-02 0. -1.
       -1   -1    0    0    0  501  0.00000000000E+00  0.00000000000E+00 -0.50958697903E+03  0.50958697906E+03  0.50400001928E-02 0.  1.
    10030    2    1    2    0    0  0.00000000000E+00  0.00000000000E+00  0.79780809415E+03  0.18169820523E+04  0.16324601138E+04 0.  0.
        3    1    3    3  502    0  0.19725311865E+03  0.32807919032E+03  0.12012818017E+04  0.12608024133E+04  0.10100000352E+00 0. -1.
       -3    1    3    3    0  502 -0.19725311865E+03 -0.32807919032E+03 -0.40347370756E+03  0.55617963900E+03  0.10100000352E+00 0.  1.
</event>
<event>
 5   0  0.7488884E-04  0.1591599E+04  0.7818609E-02  0.8825726E-01
        2   -1    0    0  501    0  0.00000000000E+00  0.00000000000E+00  0.11939521938E+04  0.11939521938E+04  0.25500000920E-02 0. -1.
       -2   -1    0    0    0  501  0.00000000000E+00  0.00000000000E+00 -0.53042081983E+03  0.53042081984E+03  0.25500000920E-02 0.  1.
    10030    2    1    2    0    0  0.00000000000E+00  0.00000000000E+00  0.66353137395E+03  0.17243730136E+04  0.15915993233E+04 0.  0.
        3    1    3    3  502    0 -0.26269537483E+03 -0.63819487453E+03  0.76104614639E+03  0.10273717949E+04  0.10100000352E+00 0. -1.
       -3    1    3    3    0  502  0.26269537483E+03  0.63819487453E+03 -0.97514772442E+02  0.69700121871E+03  0.10100000352E+00 0.  1.
</event>
<event>
 5   0  0.7415102E-04  0.1607144E+04  0.7818609E-02  0.8816171E-01
        2   -1    0    0  501    0  0.00000000000E+00  0.00000000000E+00  0.90799207533E+03  0.90799207533E+03  0.25500000920E-02 0.  1.
       -2   -1    0    0    0  501  0.00000000000E+00  0.00000000000E+00 -0.71115993685E+03  0.71115993685E+03  0.25500000920E-02 0. -1.
    10030    2    1    2    0    0  0.00000000000E+00  0.00000000000E+00  0.19683213848E+03  0.16191520122E+04  0.16071435368E+04 0.  0.
        5    1    3    3  502    0  0.29497686433E+03  0.47082415677E+03 -0.48645480669E+03  0.73847620547E+03  0.46999998093E+01 0. -1.
       -5    1    3    3    0  502 -0.29497686433E+03 -0.47082415677E+03  0.68328694517E+03  0.88067580671E+03  0.46999998093E+01 0.  1.
</event>
<event>
 5   0  0.4110803E-04  0.1403952E+04  0.7818609E-02  0.8950963E-01
        1   -1    0    0  501    0  0.00000000000E+00  0.00000000000E+00  0.11300196361E+04  0.11300196361E+04  0.50400001928E-02 0. -1.
       -1   -1    0    0    0  501  0.00000000000E+00  0.00000000000E+00 -0.43607254633E+03  0.43607254636E+03  0.50400001928E-02 0.  1.
    10030    2    1    2    0    0  0.00000000000E+00  0.00000000000E+00  0.69394708976E+03  0.15660921825E+04  0.14039523356E+04 0.  0.
        5    1    3    3  502    0 -0.27631731674E+03 -0.54007508731E+03 -0.46962937461E+02  0.60848990703E+03  0.46999998093E+01 0.  1.
       -5    1    3    3    0  502  0.27631731674E+03  0.54007508731E+03  0.74091002722E+03  0.95760227542E+03  0.46999998093E+01 0. -1.
</event>
<event>
 5   0  0.3950195E-04  0.1560161E+04  0.7818609E-02  0.8845403E-01
        1   -1    0    0  501    0  0.00000000000E+00  0.00000000000E+00  0.75885974630E+03  0.75885974632E+03  0.50400001928E-02 0.  1.
       -1   -1    0    0    0  501  0.00000000000E+00  0.00000000000E+00 -0.80189510934E+03  0.80189510936E+03  0.50400001928E-02 0. -1.
    10030    2    1    2    0    0  0.00000000000E+00  0.00000000000E+00 -0.43035363039E+02  0.15607548557E+04  0.15601614266E+04 0.  0.
        2    1    3    3  502    0  0.10108775189E+03  0.51413779230E+03 -0.59963845126E+03  0.79631819977E+03  0.25500000920E-02 0. -1.
       -2    1    3    3    0  502 -0.10108775189E+03 -0.51413779230E+03  0.55660308822E+03  0.76443665590E+03  0.25500000920E-02 0.  1.
</event>
<event>
 5   0  0.7553070E-04  0.1559666E+04  0.7818609E-02  0.8845717E-01
       -2   -1    0    0    0  501  0.00000000000E+00  0.00000000000E+00  0.34534069621E+03  0.34534069622E+03  0.25500000920E-02 0.  1.
        2   -1    0    0  501    0  0.00000000000E+00  0.00000000000E+00 -0.17609852694E+04  0.17609852694E+04  0.25500000920E-02 0. -1.
    10030    2    1    2    0    0  0.00000000000E+00  0.00000000000E+00 -0.14156445732E+04  0.21063259657E+04  0.15596664759E+04 0.  0.
        4    1    3    3  502    0  0.24911133044E+03 -0.65029048710E+03 -0.23379164781E+03  0.73457084073E+03  0.12699999809E+01 0.  1.
       -4    1    3    3    0  502 -0.24911133044E+03  0.65029048710E+03 -0.11818529254E+04  0.13717551249E+04  0.12699999809E+01 0. -1.
</event>
<event>
 5   0  0.7415102E-04  0.1569003E+04  0.7818609E-02  0.8839820E-01
        2   -1    0    0  501    0  0.00000000000E+00  0.00000000000E+00  0.12147002826E+04  0.12147002826E+04  0.25500000920E-02 0. -1.
       -2   -1    0    0    0  501  0.00000000000E+00  0.00000000000E+00 -0.50666224817E+03  0.50666224818E+03  0.25500000920E-02 0.  1.
    10030    2    1    2    0    0  0.00000000000E+00  0.00000000000E+00  0.70803803441E+03  0.17213625308E+04  0.15690032199E+04 0.  0.
        5    1    3    3  502    0 -0.59357942830E+03  0.18583218957E+03 -0.17047391682E+03  0.64494463847E+03  0.46999998093E+01 0.  1.
       -5    1    3    3    0  502  0.59357942830E+03 -0.18583218957E+03  0.87851195123E+03  0.10764178923E+04  0.46999998093E+01 0. -1.
</event>
<event>
 5   0  0.3889847E-04  0.1598734E+04  0.7818609E-02  0.8821326E-01
        1   -1    0    0  501    0  0.00000000000E+00  0.00000000000E+00  0.13053826294E+04  0.13053826294E+04  0.50400001928E-02 0.  1.
       -1   -1    0    0    0  501  0.00000000000E+00  0.00000000000E+00 -0.48950231637E+03  0.48950231639E+03  0.50400001928E-02 0. -1.
    10030    2    1    2    0    0  0.00000000000E+00  0.00000000000E+00  0.81588031307E+03  0.17948849458E+04  0.15987342755E+04 0.  0.
        1    1    3    3  502    0 -0.32993997100E+03 -0.16738027223E+03 -0.38759672474E+03  0.53582437519E+03  0.50400001928E-02 0. -1.
       -1    1    3    3    0  502  0.32993997100E+03  0.16738027223E+03  0.12034770378E+04  0.12590605706E+04  0.50400001928E-02 0.  1.
</event>
<event>
 5   0  0.7770905E-04  0.1619020E+04  0.7818609E-02  0.8808948E-01
       -2   -1    0    0    0  501  0.00000000000E+00  0.00000000000E+00  0.51728273442E+03  0.51728273442E+03  0.25500000920E-02 0.  1.
        2   -1    0    0  501    0  0.00000000000E+00  0.00000000000E+00 -0.12668246609E+04  0.12668246609E+04  0.25500000920E-02 0. -1.
    10030    2    1    2    0    0  0.00000000000E+00  0.00000000000E+00 -0.74954192644E+03  0.17841073953E+04  0.16190201044E+04 0.  0.
        2    1    3    3  502    0  0.39253569798E+03  0.64370100444E+03 -0.49977836371E+02  0.75560111265E+03  0.25500000920E-02 0.  1.
       -2    1    3    3    0  502 -0.39253569798E+03 -0.64370100444E+03 -0.69956409007E+03  0.10285062826E+04  0.25500000920E-02 0. -1.
</event>
<event>
 5   0  0.3950195E-04  0.1576565E+04  0.7818609E-02  0.8835076E-01
        1   -1    0    0  501    0  0.00000000000E+00  0.00000000000E+00  0.85773980637E+03  0.85773980639E+03  0.50400001928E-02 0.  1.
       -1   -1    0    0    0  501  0.00000000000E+00  0.00000000000E+00 -0.72444937813E+03  0.72444937815E+03  0.50400001928E-02 0. -1.
    10030    2    1    2    0    0  0.00000000000E+00  0.00000000000E+00  0.13329042824E+03  0.15821891845E+04  0.15765647077E+04 0.  0.
        2    1    3    3  502    0  0.17687845345E+03 -0.24090482685E+03 -0.66538694272E+03  0.72942505198E+03  0.25500000920E-02 0. -1.
       -2    1    3    3    0  502 -0.17687845345E+03  0.24090482685E+03  0.79867737096E+03  0.85276413256E+03  0.25500000920E-02 0.  1.
</event>
<event>
 5   0  0.7395088E-04  0.1605870E+04  0.7818609E-02  0.8816950E-01
        2   -1    0    0  501    0  0.00000000000E+00  0.00000000000E+00  0.91225715453E+03  0.91225715453E+03  0.25500000920E-02 0. -1.
       -2   -1    0    0    0  501  0.00000000000E+00  0.00000000000E+00 -0.70671407418E+03  0.70671407419E+03  0.25500000920E-02 0.  1.
    10030    2    1    2    0    0  0.00000000000E+00  0.00000000000E+00  0.20554308035E+03  0.16189712287E+04  0.16058704436E+04 0.  0.
        1    1    3    3  502    0  0.22741487501E+03  0.53916991246E+02  0.87720520175E+03  0.90780699123E+03  0.50400001928E-02 0. -1.
       -1    1    3    3    0  502 -0.22741487501E+03 -0.53916991246E+02 -0.67166212141E+03  0.71116423749E+03  0.50400001928E-02 0.  1.
</event>
<event>
 5   0  0.3973227E-04  0.1578198E+04  0.7818609E-02  0.8834055E-01
       -1   -1    0    0    0  501  0.00000000000E+00  0.00000000000E+00  0.41774860789E+03  0.41774860792E+03  0.50400001928E-02 0.  1.
        1   -1    0    0  501    0  0.00000000000E+00  0.00000000000E+00 -0.14905543166E+04  0.14905543166E+04  0.50400001928E-02 0. -1.
    10030    2    1    2    0    0  0.00000000000E+00  0.00000000000E+00 -0.10728057087E+04  0.19083029245E+04  0.15781976945E+04 0.  0.
        3    1    3    3  502    0 -0.24004310782E+03 -0.45321393979E+03 -0.12615531084E+04  0.13618149009E+04  0.10100000352E+00 0. -1.
       -3    1    3    3    0  502  0.24004310782E+03  0.45321393979E+03  0.18874739972E+03  0.54648802359E+03  0.10100000352E+00 0.  1.
</event>
<event>
 5   0  0.3973227E-04  0.1591477E+04  0.7818609E-02  0.8825801E-01
       -1   -1    0    0    0  501  0.00000000000E+00  0.00000000000E+00  0.73034791613E+03  0.73034791614E+03  0.50400001928E-02 0.  1.
        1   -1    0    0  501    0  0.00000000000E+00  0.00000000000E+00 -0.86698426300E+03  0.86698426301E+03  0.50400001928E-02 0. -1.
    10030    2    1    2    0    0  0.00000000000E+00  0.00000000000E+00 -0.13663634687E+03  0.15973321792E+04  0.15914774894E+04 0.  0.
        3    1    3    3  502    0 -0.72125957718E+03 -0.32950211048E+03 -0.16424610114E+01  0.79296262608E+03  0.10100000352E+00 0.  1.
       -3    1    3    3    0  502  0.72125957718E+03  0.32950211048E+03 -0.13499388586E+03  0.80436955307E+03  0.10100000352E+00 0. -1.
</event>
<event>
 5   0  0.7553070E-04  0.1596076E+04  0.7818609E-02  0.8822962E-01
       -2   -1    0    0    0  501  0.00000000000E+00  0.00000000000E+00  0.13017355297E+04  0.13017355297E+04  0.25500000920E-02 0. -1.
        2   -1    0    0  501    0  0.00000000000E+00  0.00000000000E+00 -0.48924302001E+03  0.48924302002E+03  0.25500000920E-02 0.  1.
    10030    2    1    2    0    0  0.00000000000E+00  0.00000000000E+00  0.81249250967E+03  0.17909785497E+04  0.15960764666E+04 0.  0.
        4    1    3    3  502    0 -0.31391777694E+03 -0.44321079408E+03  0.10623546421E+04  0.11931383731E+04  0.12699999809E+01 0. -1.
       -4    1    3    3    0  502  0.31391777694E+03  0.44321079408E+03 -0.24986213247E+03  0.59784017665E+03  0.12699999809E+01 0.  1.
</event>
<event>
 5   0  0.7395088E-04  0.1603471E+04  0.7818609E-02  0.8818418E-01
       -2   -1    0    0    0  501  0.00000000000E+00  0.00000000000E+00  0.39484856661E+03  0.39484856662E+03  0.25500000920E-02 0. -1.
        2   -1    0    0  501    0  0.00000000000E+00  0.00000000000E+00 -0.16279148377E+04  0.16279148377E+04  0.25500000920E-02 0.  1.
    10030    2    1    2    0    0  0.00000000000E+00  0.00000000000E+00 -0.12330662711E+04  0.20227634043E+04  0.16034710353E+04 0.  0.
        1    1    3    3  502    0 -0.10203912208E+01 -0.32686367180E+03 -0.15400431825E+04  0.15743487242E+04  0.50400001928E-02 0.  1.
       -1    1    3    3    0  502  0.10203912208E+01  0.32686367180E+03  0.30697691149E+03  0.44841468013E+03  0.50400001928E-02 0. -1.
</event>
<event>
 5   0  0.2781000E-04  0.1591311E+04  0.7818609E-02  0.8825904E-01
       -4   -1    0    0    0  501  0.00000000000E+00  0.00000000000E+00  0.54953992628E+03  0.54954139378E+03  0.12699999809E+01 0. -1.
        4   -1    0    0  501    0  0.00000000000E+00  0.00000000000E+00 -0.11519926384E+04  0.11519933385E+04  0.12699999809E+01 0.  1.
    10030    2    1    2    0    0  0.00000000000E+00  0.00000000000E+00 -0.60245271215E+03  0.17015347323E+04  0.15913111496E+04 0.  0.
        1    1    3    3  502    0  0.63011915605E+03 -0.33476283057E+03 -0.67768007240E+03  0.98405618951E+03  0.50400001928E-02 0.  1.
       -1    1    3    3    0  502 -0.63011915605E+03  0.33476283057E+03  0.75227360245E+02  0.71747854275E+03  0.50400001928E-02 0. -1.
</event>
<event>
 5   0  0.3837251E-04  0.1600446E+04  0.7818609E-02  0.8820274E-01
        1   -1    0    0  501    0  0.00000000000E+00  0.00000000000E+00  0.95422656597E+03  0.95422656598E+03  0.50400001928E-02 0. -1.
       -1   -1    0    0    0  501  0.00000000000E+00  0.00000000000E+00 -0.67107430487E+03  0.67107430488E+03  0.50400001928E-02 0.  1.
    10030    2    1    2    0    0  0.00000000000E+00  0.00000000000E+00  0.28315226110E+03  0.16253008709E+04  0.16004460996E+04 0.  0.
        4    1    3    3  502    0 -0.22078140823E+03 -0.55813551255E+03  0.67903580759E+03  0.90628412845E+03  0.12699999809E+01 0. -1.
       -4    1    3    3    0  502  0.22078140823E+03  0.55813551255E+03 -0.39588354649E+03  0.71901674241E+03  0.12699999809E+01 0.  1.
</event>
<event>
 5   0  0.4110803E-04  0.1431319E+04  0.7818609E-02  0.8931455E-01
        1   -1    0    0  501    0  0.00000000000E+00  0.00000000000E+00  0.57609746958E+03  0.57609746960E+03  0.50400001928E-02 0.  1.
       -1   -1    0    0    0  501  0.00000000000E+00  0.00000000000E+00 -0.88903067262E+03  0.88903067264E+03  0.50400001928E-02 0. -1.
    10030    2    1    2    0    0  0.00000000000E+00  0.00000000000E+00 -0.31293320304E+03  0.14651281422E+04  0.14313187219E+04 0.  0.
        5    1    3    3  502    0 -0.19972025144E+03 -0.65304525044E+03  0.62573865643E+02  0.68577974352E+03  0.46999998093E+01 0.  1.
       -5    1    3    3    0  502  0.19972025144E+03  0.65304525044E+03 -0.37550706869E+03  0.77934839872E+03  0.46999998093E+01 0. -1.
</event>
<event>
 5   0  0.7770905E-04  0.1601572E+04  0.7818609E-02  0.8819583E-01
        2   -1    0    0  501    0  0.00000000000E+00  0.00000000000E+00  0.14212633667E+04  0.14212633667E+04  0.25500000920E-02 0.  1.
       -2   -1    0    0    0  501  0.00000000000E+00  0.00000000000E+00 -0.45118896464E+03  0.45118896465E+03  0.25500000920E-02 0. -1.
    10030    2    1    2    0    0  0.00000000000E+00  0.00000000000E+00  0.97007440203E+03  0.18724523313E+04  0.16015721612E+04 0.  0.
        2    1    3    3  502    0  0.55033985283E+03 -0.25981044812E+03  0.10935294824E+04  0.12514719939E+04  0.25500000920E-02 0.  1.
       -2    1    3    3    0  502 -0.55033985283E+03  0.25981044812E+03 -0.12345508042E+03  0.62098033741E+03  0.25500000920E-02 0. -1.
</event>
<event>
 5   0  0.3837251E-04  0.1548465E+04  0.7818609E-02  0.8852849E-01
        1   -1    0    0  501    0  0.00000000000E+00  0.00000000000E+00  0.12821492222E+04  0.12821492222E+04  0.50400001928E-02 0.  1.
       -1   -1    0    0    0  501  0.00000000000E+00  0.00000000000E+00 -0.46752460811E+03  0.46752460814E+03  0.50400001928E-02 0. -1.
    10030    2    1    2    0    0  0.00000000000E+00  0.00000000000E+00  0.81462461407E+03  0.17496738303E+04  0.15484654503E+04 0.  0.
        4    1    3    3  502    0 -0.36484161055E+03  0.41797763946E+03 -0.20287648077E+03  0.59074121849E+03  0.12699999809E+01 0. -1.
       -4    1    3    3    0  502  0.36484161055E+03 -0.41797763946E+03  0.10175010948E+04  0.11589326118E+04  0.12699999809E+01 0.  1.
</event>
<event>
 5   0  0.7415102E-04  0.1145826E+04  0.7818609E-02  0.9161643E-01
        2   -1    0    0  501    0  0.00000000000E+00  0.00000000000E+00  0.10921443422E+04  0.10921443422E+04  0.25500000920E-02 0. -1.
       -2   -1    0    0    0  501  0.00000000000E+00  0.00000000000E+00 -0.30053659494E+03  0.30053659495E+03  0.25500000920E-02 0.  1.
    10030    2    1    2    0    0  0.00000000000E+00  0.00000000000E+00  0.79160774725E+03  0.13926809371E+04  0.11458260632E+04 0.  0.
        5    1    3    3  502    0  0.37963966551E+03  0.33612502350E+02 -0.12407304604E+03  0.40083947746E+03  0.46999998093E+01 0.  1.
       -5    1    3    3    0  502 -0.37963966551E+03 -0.33612502350E+02  0.91568079329E+03  0.99184145968E+03  0.46999998093E+01 0. -1.
</event>
<event>
 5   0  0.4110803E-04  0.1526170E+04  0.7818609E-02  0.8867234E-01
       -1   -1    0    0    0  501  0.00000000000E+00  0.00000000000E+00  0.10576891438E+04  0.10576891438E+04  0.50400001928E-02 0.  1.
        1   -1    0    0  501    0  0.00000000000E+00  0.00000000000E+00 -0.55053877868E+03  0.55053877870E+03  0.50400001928E-02 0. -1.
    10030    2    1    2    0    0  0.00000000000E+00  0.00000000000E+00  0.50715036515E+03  0.16082279225E+04  0.15261702257E+04 0.  0.
        5    1    3    3  502    0 -0.18863367606E+03  0.53800542584E+03  0.78803800371E+03  0.97265537949E+03  0.46999998093E+01 0.  1.
       -5    1    3    3    0  502  0.18863367606E+03 -0.53800542584E+03 -0.28088763856E+03  0.63557254304E+03  0.46999998093E+01 0. -1.
</event>
<event>
 5   0  0.3889847E-04  0.1609952E+04  0.7818609E-02  0.8814457E-01
        1   -1    0    0  501    0  0.00000000000E+00  0.00000000000E+00  0.98792632200E+03  0.98792632201E+03  0.50400001928E-02 0. -1.
       -1   -1    0    0    0  501  0.00000000000E+00  0.00000000000E+00 -0.65590575303E+03  0.65590575305E+03  0.50400001928E-02 0.  1.
    10030    2    1    2    0    0  0.00000000000E+00  0.00000000000E+00  0.33202056897E+03  0.16438320751E+04  0.16099522455E+04 0.  0.
        1    1    3    3  502    0 -0.57350277878E+03 -0.32991355170E+03 -0.30215611315E+03  0.72735596897E+03  0.50400001928E-02 0.  1.
       -1    1    3    3    0  502  0.57350277878E+03  0.32991355170E+03  0.63417668212E+03  0.91647610609E+03  0.50400001928E-02 0. -1.
</event>
<event>
 5   0  0.7770905E-04  0.1269405E+04  0.7818609E-02  0.9054186E-01
        2   -1    0    0  501    0  0.00000000000E+00  0.00000000000E+00  0.18702284447E+04  0.18702284447E+04  0.25500000920E-02 0.  1.
       -2   -1    0    0    0  501  0.00000000000E+00  0.00000000000E+00 -0.21539991090E+03  0.21539991091E+03  0.25500000920E-02 0. -1.
    10030    2    1    2    0    0  0.00000000000E+00  0.00000000000E+00  0.16548285338E+04  0.20856283556E+04  0.12694046484E+04 0.  0.
        2    1    3    3  502    0  0.54109622680E+03 -0.11002380505E+03  0.13416400619E+04  0.14508233594E+04  0.25500000920E-02 0.  1.
       -2    1    3    3    0  502 -0.54109622680E+03  0.11002380505E+03  0.31318847189E+03  0.63480499625E+03  0.25500000920E-02 0. -1.
</event>
<event>
 5   0  0.4110803E-04  0.1258208E+04  0.7818609E-02  0.9063380E-01
        1   -1    0    0  501    0  0.00000000000E+00  0.00000000000E+00  0.21285979454E+04  0.21285979454E+04  0.50400001928E-02 0. -1.
       -1   -1    0    0    0  501  0.00000000000E+00  0.00000000000E+00 -0.18593063023E+03  0.18593063030E+03  0.50400001928E-02 0.  1.
    10030    2    1    2    0    0  0.00000000000E+00  0.00000000000E+00  0.19426673152E+04  0.23145285757E+04  0.12582075466E+04 0.  0.
        5    1    3    3  502    0 -0.43211482559E+03 -0.21832507461E+03  0.17102729349E+04  0.17774826757E+04  0.46999998093E+01 0. -1.
       -5    1    3    3    0  502  0.43211482559E+03  0.21832507461E+03  0.23239438027E+03  0.53704589997E+03  0.46999998093E+01 0.  1.
</event>
<event>
 5   0  0.7395088E-04  0.1606514E+04  0.7818609E-02  0.8816556E-01
       -2   -1    0    0    0  501  0.00000000000E+00  0.00000000000E+00  0.92054445633E+03  0.92054445633E+03  0.25500000920E-02 0.  1.
        2   -1    0    0  501    0  0.00000000000E+00  0.00000000000E+00 -0.70091325197E+03  0.70091325197E+03  0.25500000920E-02 0. -1.
    10030    2    1    2    0    0  0.00000000000E+00  0.00000000000E+00  0.21963120436E+03  0.16214577083E+04  0.16065140005E+04 0.  0.
        1    1    3    3  502    0  0.81397679214E+02  0.76081364216E+03 -0.13691450494E+03  0.77730853717E+03  0.50400001928E-02 0. -1.
       -1    1    3    3    0  502 -0.81397679214E+02 -0.76081364216E+03  0.35654570929E+03  0.84414917113E+03  0.50400001928E-02 0.  1.
</event>
<event>
 5   0  0.3889847E-04  0.1601144E+04  0.7818609E-02  0.8819845E-01
        1   -1    0    0  501    0  0.00000000000E+00  0.00000000000E+00  0.11088910112E+04  0.11088910112E+04  0.50400001928E-02 0.  1.
       -1   -1    0    0    0  501  0.00000000000E+00  0.00000000000E+00 -0.57797885600E+03  0.57797885602E+03  0.50400001928E-02 0. -1.
    10030    2    1    2    0    0  0.00000000000E+00  0.00000000000E+00  0.53091215524E+03  0.16868698673E+04  0.16011440387E+04 0.  0.
        1    1    3    3  502    0 -0.59887340458E+03  0.42089568280E+03 -0.76113710551E+02  0.73593194486E+03  0.50400001928E-02 0. -1.
       -1    1    3    3    0  502  0.59887340458E+03 -0.42089568280E+03  0.60702586579E+03  0.95093792241E+03  0.50400001928E-02 0.  1.
</event>
<event>
 5   0  0.3950195E-04  0.1587257E+04  0.7818609E-02  0.8828415E-01
       -1   -1    0    0    0  501  0.00000000000E+00  0.00000000000E+00  0.41056135443E+03  0.41056135446E+03  0.50400001928E-02 0. -1.
        1   -1    0    0  501    0  0.00000000000E+00  0.00000000000E+00 -0.15341096932E+04  0.15341096932E+04  0.50400001928E-02 0.  1.
    10030    2    1    2    0    0  0.00000000000E+00  0.00000000000E+00 -0.11235483388E+04  0.19446710477E+04  0.15872569465E+04 0.  0.
        2    1    3    3  502    0 -0.74283491302E+02  0.62330141362E+03  0.33192202259E+02  0.62858922325E+03  0.25500000920E-02 0. -1.
       -2    1    3    3    0  502  0.74283491302E+02 -0.62330141362E+03 -0.11567405410E+04  0.13160818244E+04  0.25500000920E-02 0.  1.
</event>
<event>
 5   0  0.7553070E-04  0.1611008E+04  0.7818609E-02  0.8813814E-01
        2   -1    0    0  501    0  0.00000000000E+00  0.00000000000E+00  0.15117436346E+04  0.15117436346E+04  0.25500000920E-02 0. -1.
       -2   -1    0    0    0  501  0.00000000000E+00  0.00000000000E+00 -0.42919751785E+03  0.42919751786E+03  0.25500000920E-02 0.  1.
    10030    2    1    2    0    0  0.00000000000E+00  0.00000000000E+00  0.10825461167E+04  0.19409411524E+04  0.16110079026E+04 0.  0.
        4    1    3    3  502    0  0.77045857153E+03 -0.56446385802E+02  0.81612154263E+03  0.11237653626E+04  0.12699999809E+01 0. -1.
       -4    1    3    3    0  502 -0.77045857153E+03  0.56446385802E+02  0.26642457408E+03  0.81717578983E+03  0.12699999809E+01 0.  1.
</event>
<event>
 5   0  0.7770905E-04  0.1560164E+04  0.7818609E-02  0.8845402E-01
        2   -1    0    0  501    0  0.00000000000E+00  0.00000000000E+00  0.16390325482E+04  0.16390325482E+04  0.25500000920E-02 0. -1.
       -2   -1    0    0    0  501  0.00000000000E+00  0.00000000000E+00 -0.37127251619E+03  0.37127251620E+03  0.25500000920E-02 0.  1.
    10030    2    1    2    0    0  0.00000000000E+00  0.00000000000E+00  0.12677600320E+04  0.20103050644E+04  0.15601637585E+04 0.  0.
        2    1    3    3  502    0 -0.58496167545E+02  0.26053417594E+03  0.15783127966E+04  0.16007408105E+04  0.25500000920E-02 0. -1.
       -2    1    3    3    0  502  0.58496167545E+02 -0.26053417594E+03 -0.31055276461E+03  0.40956425389E+03  0.25500000920E-02 0.  1.
</event>
<event>
 5   0  0.7553070E-04  0.1632582E+04  0.7818609E-02  0.8800778E-01
       -2   -1    0    0    0  501  0.00000000000E+00  0.00000000000E+00  0.24642692364E+04  0.24642692364E+04  0.25500000920E-02 0.  1.
        2   -1    0    0  501    0  0.00000000000E+00  0.00000000000E+00 -0.27039685116E+03  0.27039685118E+03  0.25500000920E-02 0. -1.
    10030    2    1    2    0    0  0.00000000000E+00  0.00000000000E+00  0.21938723853E+04  0.27346660876E+04  0.16325815655E+04 0.  0.
        4    1    3    3  502    0  0.36054775440E+03 -0.71801637200E+03  0.85543259463E+03  0.11735879731E+04  0.12699999809E+01 0. -1.
       -4    1    3    3    0  502 -0.36054775440E+03  0.71801637200E+03  0.13384397906E+04  0.15610781146E+04  0.12699999809E+01 0.  1.
</event>
<event>
 5   0  0.3950195E-04  0.1588859E+04  0.7818609E-02  0.8827422E-01
       -1   -1    0    0    0  501  0.00000000000E+00  0.00000000000E+00  0.39802231976E+03  0.39802231980E+03  0.50400001928E-02 0. -1.
        1   -1    0    0  501    0  0.00000000000E+00  0.00000000000E+00 -0.15856351047E+04  0.15856351047E+04  0.50400001928E-02 0.  1.
    10030    2    1    2    0    0  0.00000000000E+00  0.00000000000E+00 -0.11876127849E+04  0.19836574245E+04  0.15888589147E+04 0.  0.
        2    1    3    3  502    0  0.61588677752E+03  0.85930909537E+02 -0.12110370691E+04  0.13613638113E+04  0.25500000920E-02 0.  1.
       -2    1    3    3    0  502 -0.61588677752E+03 -0.85930909537E+02  0.23424284177E+02  0.62229361320E+03  0.25500000920E-02 0. -1.
</event>
<event>
 5   0  0.7395088E-04  0.1593567E+04  0.7818609E-02  0.8824510E-01
       -2   -1    0    0    0  501  0.00000000000E+00  0.00000000000E+00  0.12104143732E+04  0.12104143732E+04  0.25500000920E-02 0. -1.
        2   -1    0    0  501    0  0.00000000000E+00  0.00000000000E+00 -0.52450148513E+03  0.52450148514E+03  0.25500000920E-02 0.  1.
    10030    2    1    2    0    0  0.00000000000E+00  0.00000000000E+00  0.68591288805E+03  0.17349158583E+04  0.15935672391E+04 0.  0.
        1    1    3    3  502    0  0.39859922845E+03  0.55765777990E+03  0.78518906523E+03  0.10422981400E+04  0.50400001928E-02 0. -1.
       -1    1    3    3    0  502 -0.39859922845E+03 -0.55765777990E+03 -0.99276177177E+02  0.69261771836E+03  0.50400001928E-02 0.  1.
</event>
<event>
 5   0  0.3837251E-04  0.1580993E+04  0.7818609E-02  0.8832311E-01
       -1   -1    0    0    0  501  0.00000000000E+00  0.00000000000E+00  0.70023259509E+03  0.70023259511E+03  0.50400001928E-02 0. -1.
        1   -1    0    0  501    0  0.00000000000E+00  0.00000000000E+00 -0.89239586828E+03  0.89239586829E+03  0.50400001928E-02 0.  1.
    10030    2    1    2    0    0  0.00000000000E+00  0.00000000000E+00 -0.19216327318E+03  0.15926284634E+04  0.15809929471E+04 0.  0.
        4    1    3    3  502    0  0.41245749679E+03 -0.62086694449E+03  0.16907813585E+03  0.76432059919E+03  0.12699999809E+01 0. -1.
       -4    1    3    3    0  502 -0.41245749679E+03  0.62086694449E+03 -0.36124140903E+03  0.82830786422E+03  0.12699999809E+01 0.  1.
</event>
<event>
 5   0  0.3950195E-04  0.1616093E+04  0.7818609E-02  0.8810722E-01
       -1   -1    0    0    0  501  0.00000000000E+00  0.00000000000E+00  0.77219271517E+03  0.77219271519E+03  0.50400001928E-02 0. -1.
        1   -1    0    0  501    0  0.00000000000E+00  0.00000000000E+00 -0.84556544146E+03  0.84556544148E+03  0.50400001928E-02 0.  1.
    10030    2    1    2    0    0  0.00000000000E+00  0.00000000000E+00 -0.73372726293E+02  0.16177581567E+04  0.16160934059E+04 0.  0.
        2    1    3    3  502    0  0.78076771765E+03  0.74062898109E+02 -0.23145279734E+03  0.81771262629E+03  0.25500000920E-02 0.  1.
       -2    1    3    3    0  502 -0.78076771765E+03 -0.74062898109E+02  0.15808007104E+03  0.80004553037E+03  0.25500000920E-02 0. -1.
</event>
<event>
 5   0  0.3889847E-04  0.1612544E+04  0.7818609E-02  0.8812879E-01
        1   -1    0    0  501    0  0.00000000000E+00  0.00000000000E+00  0.12802063974E+04  0.12802063974E+04  0.50400001928E-02 0.  1.
       -1   -1    0    0    0  501  0.00000000000E+00  0.00000000000E+00 -0.50778884567E+03  0.50778884570E+03  0.50400001928E-02 0. -1.
    10030    2    1    2    0    0  0.00000000000E+00  0.00000000000E+00  0.77241755177E+03  0.17879952431E+04  0.16125439886E+04 0.  0.
        1    1    3    3  502    0 -0.34224578662E+03  0.43022577126E+03  0.10401664322E+04  0.11765086483E+04  0.50400001928E-02 0.  1.
       -1    1    3    3    0  502  0.34224578662E+03 -0.43022577126E+03 -0.26774888045E+03  0.61148659488E+03  0.50400001928E-02 0. -1.
</event>
<event>
 5   0  0.7395088E-04  0.1593333E+04  0.7818609E-02  0.8824654E-01
        2   -1    0    0  501    0  0.00000000000E+00  0.00000000000E+00  0.21329846072E+04  0.21329846072E+04  0.25500000920E-02 0.  1.
       -2   -1    0    0    0  501  0.00000000000E+00  0.00000000000E+00 -0.29755383627E+03  0.29755383628E+03  0.25500000920E-02 0. -1.
    10030    2    1    2    0    0  0.00000000000E+00  0.00000000000E+00  0.18354307709E+04  0.24305384435E+04  0.15933333017E+04 0.  0.
        1    1    3    3  502    0  0.58804482748E+03 -0.31720491382E+03  0.15795923754E+04  0.17150882627E+04  0.50400001928E-02 0.  1.
       -1    1    3    3    0  502 -0.58804482748E+03  0.31720491382E+03  0.25583839550E+03  0.71545018074E+03  0.50400001928E-02 0. -1.
</event>
<event>
 5   0  0.3973227E-04  0.1598188E+04  0.7818609E-02  0.8821662E-01
       -1   -1    0    0    0  501  0.00000000000E+00  0.00000000000E+00  0.63540516637E+03  0.63540516639E+03  0.50400001928E-02 0.  1.
        1   -1    0    0  501    0  0.00000000000E+00  0.00000000000E+00 -0.10049508305E+04  0.10049508305E+04  0.50400001928E-02 0. -1.
    10030    2    1    2    0    0  0.00000000000E+00  0.00000000000E+00 -0.36954566416E+03  0.16403559969E+04  0.15981876607E+04 0.  0.
        3    1    3    3  502    0  0.68021606202E+03  0.12545787259E+03 -0.59547742760E+03  0.91270309839E+03  0.10100000352E+00 0.  1.
       -3    1    3    3    0  502 -0.68021606202E+03 -0.12545787259E+03  0.22593176343E+03  0.72765289854E+03  0.10100000352E+00 0. -1.
</event>
<event>
 5   0  0.4110803E-04  0.1587514E+04  0.7818609E-02  0.8828256E-01
        1   -1    0    0  501    0  0.00000000000E+00  0.00000000000E+00  0.18949101511E+04  0.18949101511E+04  0.50400001928E-02 0. -1.
       -1   -1    0    0    0  501  0.00000000000E+00  0.00000000000E+00 -0.33249604107E+03  0.33249604111E+03  0.50400001928E-02 0.  1.
    10030    2    1    2    0    0  0.00000000000E+00  0.00000000000E+00  0.15624141101E+04  0.22274061922E+04  0.15875139350E+04 0.  0.
        5    1    3    3  502    0  0.11391088778E+03  0.66226281887E+03  0.18848281547E+03  0.69793666857E+03  0.46999998093E+01 0. -1.
       -5    1    3    3    0  502 -0.11391088778E+03 -0.66226281887E+03  0.13739312946E+04  0.15294695237E+04  0.46999998093E+01 0.  1.
</event>
<event>
 5   0  0.3973227E-04  0.1565662E+04  0.7818609E-02  0.8841925E-01
       -1   -1    0    0    0  501  0.00000000000E+00  0.00000000000E+00  0.28916756736E+03  0.28916756740E+03  0.50400001928E-02 0.  1.
        1   -1    0    0  501    0  0.00000000000E+00  0.00000000000E+00 -0.21192719028E+04  0.21192719028E+04  0.50400001928E-02 0. -1.
    10030    2    1    2    0    0  0.00000000000E+00  0.00000000000E+00 -0.18301043355E+04  0.24084394703E+04  0.15656624167E+04 0.  0.
        3    1    3    3  502    0 -0.16890093107E+03 -0.34778069281E+03  0.13205276139E+03  0.40855461911E+03  0.10100000352E+00 0.  1.
       -3    1    3    3    0  502  0.16890093107E+03  0.34778069281E+03 -0.19621570969E+04  0.19998848511E+04  0.10100000352E+00 0. -1.
</event>
<event>
 5   0  0.7770905E-04  0.1570569E+04  0.7818609E-02  0.8838836E-01
       -2   -1    0    0    0  501  0.00000000000E+00  0.00000000000E+00  0.48417880532E+03  0.48417880532E+03  0.25500000920E-02 0.  1.
        2   -1    0    0  501    0  0.00000000000E+00  0.00000000000E+00 -0.12736442615E+04  0.12736442615E+04  0.25500000920E-02 0. -1.
    10030    2    1    2    0    0  0.00000000000E+00  0.00000000000E+00 -0.78946545620E+03  0.17578230668E+04  0.15705687593E+04 0.  0.
        2    1    3    3  502    0 -0.35302472138E+02  0.67086485902E+03  0.60402900430E+02  0.67450310154E+03  0.25500000920E-02 0.  1.
       -2    1    3    3    0  502  0.35302472138E+02 -0.67086485902E+03 -0.84986835663E+03  0.10833199653E+04  0.25500000920E-02 0. -1.
</event>
<event>
 5   0  0.7553070E-04  0.1591317E+04  0.7818609E-02  0.8825900E-01
       -2   -1    0    0    0  501  0.00000000000E+00  0.00000000000E+00  0.48257555909E+03  0.48257555910E+03  0.25500000920E-02 0.  1.
        2   -1    0    0  501    0  0.00000000000E+00  0.00000000000E+00 -0.13118621544E+04  0.13118621544E+04  0.25500000920E-02 0. -1.
    10030    2    1    2    0    0  0.00000000000E+00  0.00000000000E+00 -0.82928659528E+03  0.17944377135E+04  0.15913172061E+04 0.  0.
        4    1    3    3  502    0  0.35285306075E+03  0.68936501527E+03 -0.20873928884E+03  0.80206178713E+03  0.12699999809E+01 0.  1.
       -4    1    3    3    0  502 -0.35285306075E+03 -0.68936501527E+03 -0.62054730644E+03  0.99237592634E+03  0.12699999809E+01 0. -1.
</event>
<event>
 5   0  0.7553070E-04  0.1583556E+04  0.7818609E-02  0.8830714E-01
        2   -1    0    0  501    0  0.00000000000E+00  0.00000000000E+00  0.12269548038E+04  0.12269548038E+04  0.25500000920E-02 0.  1.
       -2   -1    0    0    0  501  0.00000000000E+00  0.00000000000E+00 -0.51094987488E+03  0.51094987488E+03  0.25500000920E-02 0. -1.
    10030    2    1    2    0    0  0.00000000000E+00  0.00000000000E+00  0.71600492893E+03  0.17379046787E+04  0.15835560028E+04 0.  0.
        4    1    3    3  502    0 -0.16581572879E+03  0.76347693558E+03  0.49905572639E+03  0.92706532564E+03  0.12699999809E+01 0.  1.
       -4    1    3    3    0  502  0.16581572879E+03 -0.76347693558E+03  0.21694920254E+03  0.81083935305E+03  0.12699999809E+01 0. -1.
</event>
<event>
 5   0  0.2781000E-04  0.1594682E+04  0.7818609E-02  0.8823822E-01
       -3   -1    0    0    0  501  0.00000000000E+00  0.00000000000E+00  0.78173248809E+03  0.78173249461E+03  0.10100000352E+00 0.  1.
        3   -1    0    0  501    0  0.00000000000E+00  0.00000000000E+00 -0.81326102781E+03  0.81326103409E+03  0.10100000352E+00 0. -1.
    10030    2    1    2    0    0  0.00000000000E+00  0.00000000000E+00 -0.31528539726E+02  0.15949935287E+04  0.15946818829E+04 0.  0.
        4    1    3    3  502    0  0.43672421284E+03  0.26907743079E+03 -0.62630985983E+03  0.80956553488E+03  0.12699999809E+01 0. -1.
       -4    1    3    3    0  502 -0.43672421284E+03 -0.26907743079E+03  0.59478132010E+03  0.78542799382E+03  0.12699999809E+01 0.  1.
</event>
<event>
 5   0  0.3973227E-04  0.1517392E+04  0.7818609E-02  0.8872969E-01
        1   -1    0    0  501    0  0.00000000000E+00  0.00000000000E+00  0.87984698999E+03  0.87984699000E+03  0.50400001928E-02 0.  1.
       -1   -1    0    0    0  501  0.00000000000E+00  0.00000000000E+00 -0.65422666432E+03  0.65422666434E+03  0.50400001928E-02 0. -1.
    10030    2    1    2    0    0  0.00000000000E+00  0.00000000000E+00  0.22562032566E+03  0.15340736543E+04  0.15173916586E+04 0.  0.
        3    1    3    3  502    0  0.19804622386E+02  0.60176458579E+03 -0.35389959285E+03  0.69839657201E+03  0.10100000352E+00 0. -1.
       -3    1    3    3    0  502 -0.19804622386E+02 -0.60176458579E+03  0.57951991852E+03  0.83567708233E+03  0.10100000352E+00 0.  1.
</event>
<event>
 5   0  0.3837251E-04  0.1452199E+04  0.7818609E-02  0.8916878E-01
       -1   -1    0    0    0  501  0.00000000000E+00  0.00000000000E+00  0.12789431620E+04  0.12789431620E+04  0.50400001928E-02 0.  1.
        1   -1    0    0  501    0  0.00000000000E+00  0.00000000000E+00 -0.41223115728E+03  0.41223115731E+03  0.50400001928E-02 0. -1.
    10030    2    1    2    0    0  0.00000000000E+00  0.00000000000E+00  0.86671200470E+03  0.16911743193E+04  0.14521986363E+04 0.  0.
        4    1    3    3  502    0  0.54015573200E+03 -0.28100990699E+02 -0.13077836240E+03  0.55647324595E+03  0.12699999809E+01 0. -1.
       -4    1    3    3    0  502 -0.54015573200E+03  0.28100990699E+02  0.99749036710E+03  0.11347010733E+04  0.12699999809E+01 0.  1.
</event>
<event>
 5   0  0.7415102E-04  0.1507186E+04  0.7818609E-02  0.8879689E-01
        2   -1    0    0  501    0  0.00000000000E+00  0.00000000000E+00  0.52026999187E+03  0.52026999187E+03  0.25500000920E-02 0.  1.
       -2   -1    0    0    0  501  0.00000000000E+00  0.00000000000E+00 -0.10915525942E+04  0.10915525942E+04  0.25500000920E-02 0. -1.
    10030    2    1    2    0    0  0.00000000000E+00  0.00000000000E+00 -0.57128260238E+03  0.16118225861E+04  0.15071855351E+04 0.  0.
        5    1    3    3  502    0  0.32564100044E+03 -0.42540925406E+03  0.28111875457E+03  0.60503300635E+03  0.46999998093E+01 0.  1.
       -5    1    3    3    0  502 -0.32564100044E+03  0.42540925406E+03 -0.85240135695E+03  0.10067895798E+04  0.46999998093E+01 0. -1.
</event>
<event>
 5   0  0.3973227E-04  0.1576253E+04  0.7818609E-02  0.8835271E-01
        1   -1    0    0  501    0  0.00000000000E+00  0.00000000000E+00  0.40761480168E+03  0.40761480171E+03  0.50400001928E-02 0. -1.
       -1   -1    0    0    0  501  0.00000000000E+00  0.00000000000E+00 -0.15238494638E+04  0.15238494639E+04  0.50400001928E-02 0.  1.
    10030    2    1    2    0    0  0.00000000000E+00  0.00000000000E+00 -0.11162346622E+04  0.19314642656E+04  0.15762532754E+04 0.  0.
        3    1    3    3  502    0 -0.56405444363E+03  0.53751884350E+03 -0.70341148886E+03  0.10497007456E+04  0.10100000352E+00 0.  1.
       -3    1    3    3    0  502  0.56405444363E+03 -0.53751884350E+03 -0.41282317331E+03  0.88176351995E+03  0.10100000352E+00 0. -1.
</event>
<event>
 5   0  0.3950195E-04  0.1602255E+04  0.7818609E-02  0.8819164E-01
        1   -1    0    0  501    0  0.00000000000E+00  0.00000000000E+00  0.83149536744E+03  0.83149536745E+03  0.50400001928E-02 0.  1.
       -1   -1    0    0    0  501  0.00000000000E+00  0.00000000000E+00 -0.77186854687E+03  0.77186854688E+03  0.50400001928E-02 0. -1.
    10030    2    1    2    0    0  0.00000000000E+00  0.00000000000E+00  0.59626820568E+02  0.16033639143E+04  0.16022548125E+04 0.  0.
        2    1    3    3  502    0 -0.96083895150E+02 -0.19998146117E+03 -0.74051190357E+03  0.77303465579E+03  0.25500000920E-02 0. -1.
       -2    1    3    3    0  502  0.96083895150E+02  0.19998146117E+03  0.80013872414E+03  0.83032925854E+03  0.25500000920E-02 0.  1.
</event>
<event>
 5   0  0.7488884E-04  0.1562505E+04  0.7818609E-02  0.8843920E-01
       -2   -1    0    0    0  501  0.00000000000E+00  0.00000000000E+00  0.43815358248E+03  0.43815358249E+03  0.25500000920E-02 0.  1.
        2   -1    0    0  501    0  0.00000000000E+00  0.00000000000E+00 -0.13930170945E+04  0.13930170945E+04  0.25500000920E-02 0. -1.
    10030    2    1    2    0    0  0.00000000000E+00  0.00000000000E+00 -0.95486351199E+03  0.18311706770E+04  0.15625049509E+04 0.  0.
        3    1    3    3  502    0  0.51795927315E+03  0.17450027454E+03  0.17678605027E+03  0.57444361971E+03  0.10100000352E+00 0.  1.
       -3    1    3    3    0  502 -0.51795927315E+03 -0.17450027454E+03 -0.11316495623E+04  0.12567270573E+04  0.10100000352E+00 0. -1.
</event>
<event>
 5   0  0.3973227E-04  0.1604820E+04  0.7818609E-02  0.8817592E-01
        1   -1    0    0  501    0  0.00000000000E+00  0.00000000000E+00  0.86042695087E+03  0.86042695088E+03  0.50400001928E-02 0.  1.
       -1   -1    0    0    0  501  0.00000000000E+00  0.00000000000E+00 -0.74830500027E+03  0.74830500028E+03  0.50400001928E-02 0. -1.
    10030    2    1    2    0    0  0.00000000000E+00  0.00000000000E+00  0.11212195060E+03  0.16087319512E+04  0.16048199771E+04 0.  0.
        3    1    3    3  502    0 -0.48381219118E+03 -0.59267676846E+03 -0.18644149731E+03  0.78746455814E+03  0.10100000352E+00 0. -1.
       -3    1    3    3    0  502  0.48381219118E+03  0.59267676846E+03  0.29856344791E+03  0.82126739302E+03  0.10100000352E+00 0.  1.
</event>
<event>
 5   0  0.3973227E-04  0.1596613E+04  0.7818609E-02  0.8822631E-01
       -1   -1    0    0    0  501  0.00000000000E+00  0.00000000000E+00  0.98057413079E+03  0.98057413080E+03  0.50400001928E-02 0. -1.
        1   -1    0    0  501    0  0.00000000000E+00  0.00000000000E+00 -0.64991851395E+03  0.64991851397E+03  0.50400001928E-02 0.  1.
    10030    2    1    2    0    0  0.00000000000E+00  0.00000000000E+00  0.33065561684E+03  0.16304926448E+04  0.15966130175E+04 0.  0.
        3    1    3    3  502    0  0.69508638661E+03  0.13297621245E+03 -0.21192339647E+03  0.73874169647E+03  0.10100000352E+00 0.  1.
       -3    1    3    3    0  502 -0.69508638661E+03 -0.13297621245E+03  0.54257901331E+03  0.89175094831E+03  0.10100000352E+00 0. -1.
</event>
<event>
 5   0  0.3973227E-04  0.1596328E+04  0.7818609E-02  0.8822807E-01
       -1   -1    0    0    0  501  0.00000000000E+00  0.00000000000E+00  0.53998090774E+03  0.53998090776E+03  0.50400001928E-02 0. -1.
        1   -1    0    0  501    0  0.00000000000E+00  0.00000000000E+00 -0.11797935906E+04  0.11797935906E+04  0.50400001928E-02 0.  1.
    10030    2    1    2    0    0  0.00000000000E+00  0.00000000000E+00 -0.63981268285E+03  0.17197744984E+04  0.15963283046E+04 0.  0.
        3    1    3    3  502    0 -0.18711395293E+03 -0.32973116264E+02  0.51526321630E+03  0.54917670203E+03  0.10100000352E+00 0. -1.
       -3    1    3    3    0  502  0.18711395293E+03  0.32973116264E+02 -0.11550758992E+04  0.11705977963E+04  0.10100000352E+00 0.  1.
</event>
<event>
 5   0  0.2781000E-04  0.1607988E+04  0.7818609E-02  0.8815656E-01
        4   -1    0    0  501    0  0.00000000000E+00  0.00000000000E+00  0.12158966553E+04  0.12158973185E+04  0.12699999809E+01 0. -1.
       -4   -1    0    0    0  501  0.00000000000E+00  0.00000000000E+00 -0.53162780427E+03  0.53162932121E+03  0.12699999809E+01 0.  1.
    10030    2    1    2    0    0  0.00000000000E+00  0.00000000000E+00  0.68426885098E+03  0.17475266397E+04  0.16079880273E+04 0.  0.
        1    1    3    3  502    0  0.31719452008E+03  0.48211813690E+03  0.95049362467E+03  0.11119749961E+04  0.50400001928E-02 0. -1.
       -1    1    3    3    0  502 -0.31719452008E+03 -0.48211813690E+03 -0.26622477369E+03  0.63555164357E+03  0.50400001928E-02 0.  1.
</event>
<event>
 5   0  0.3837251E-04  0.1601942E+04  0.7818609E-02  0.8819356E-01
       -1   -1    0    0    0  501  0.00000000000E+00  0.00000000000E+00  0.10731441131E+04  0.10731441132E+04  0.50400001928E-02 0. -1.
        1   -1    0    0  501    0  0.00000000000E+00  0.00000000000E+00 -0.59782733503E+03  0.59782733505E+03  0.50400001928E-02 0.  1.
    10030    2    1    2    0    0  0.00000000000E+00  0.00000000000E+00  0.47531677812E+03  0.16709714482E+04  0.16019424275E+04 0.  0.
        4    1    3    3  502    0 -0.94633645967E+02  0.76735138964E+03  0.45588533049E+03  0.89756154641E+03  0.12699999809E+01 0. -1.
       -4    1    3    3    0  502  0.94633645967E+02 -0.76735138964E+03  0.19431447625E+02  0.77340990179E+03  0.12699999809E+01 0.  1.
</event>
<event>
 5   0  0.3837251E-04  0.1582399E+04  0.7818609E-02  0.8831434E-01
       -1   -1    0    0    0  501  0.00000000000E+00  0.00000000000E+00  0.37747110292E+03  0.37747110296E+03  0.50400001928E-02 0. -1.
        1   -1    0    0  501    0  0.00000000000E+00  0.00000000000E+00 -0.16583970537E+04  0.16583970537E+04  0.50400001928E-02 0.  1.
    10030    2    1    2    0    0  0.00000000000E+00  0.00000000000E+00 -0.12809259508E+04  0.20358681567E+04  0.15823993996E+04 0.  0.
        4    1    3    3  502    0 -0.60905850665E+03 -0.10695963005E+03 -0.54616800273E+01  0.61840445489E+03  0.12699999809E+01 0. -1.
       -4    1    3    3    0  502  0.60905850665E+03  0.10695963005E+03 -0.12754642707E+04  0.14174637018E+04  0.12699999809E+01 0.  1.
</event>
<event>
 5   0  0.7488884E-04  0.1596019E+04  0.7818609E-02  0.8822997E-01
       -2   -1    0    0    0  501  0.00000000000E+00  0.00000000000E+00  0.55091050331E+03  0.55091050331E+03  0.25500000920E-02 0.  1.
        2   -1    0    0  501    0  0.00000000000E+00  0.00000000000E+00 -0.11559397575E+04  0.11559397575E+04  0.25500000920E-02 0. -1.
    10030    2    1    2    0    0  0.00000000000E+00  0.00000000000E+00 -0.60502925420E+03  0.17068502608E+04  0.15960192400E+04 0.  0.
        3    1    3    3  502    0 -0.23824004639E+03  0.17117851542E+03  0.49115192485E+03  0.57209319812E+03  0.10100000352E+00 0.  1.
       -3    1    3    3    0  502  0.23824004639E+03 -0.17117851542E+03 -0.10961811791E+04  0.11347570627E+04  0.10100000352E+00 0. -1.
</event>
<event>
 5   0  0.7553070E-04  0.1608126E+04  0.7818609E-02  0.8815571E-01
       -2   -1    0    0    0  501  0.00000000000E+00  0.00000000000E+00  0.48392195086E+03  0.48392195087E+03  0.25500000920E-02 0.  1.
        2   -1    0    0  501    0  0.00000000000E+00  0.00000000000E+00 -0.13359957396E+04  0.13359957396E+04  0.25500000920E-02 0. -1.
    10030    2    1    2    0    0  0.00000000000E+00  0.00000000000E+00 -0.85207378869E+03  0.18199176904E+04  0.16081264436E+04 0.  0.
        4    1    3    3  502    0 -0.43996430105E+03  0.45304504793E+03  0.13720181723E+03  0.64625409338E+03  0.12699999809E+01 0.  1.
       -4    1    3    3    0  502  0.43996430105E+03 -0.45304504793E+03 -0.98927560593E+03  0.11736635970E+04  0.12699999809E+01 0. -1.
</event>
<event>
 5   0  0.7553070E-04  0.1600182E+04  0.7818609E-02  0.8820436E-01
        2   -1    0    0  501    0  0.00000000000E+00  0.00000000000E+00  0.19063235222E+04  0.19063235222E+04  0.25500000920E-02 0. -1.
       -2   -1    0    0    0  501  0.00000000000E+00  0.00000000000E+00 -0.33580099960E+03  0.33580099961E+03  0.25500000920E-02 0.  1.
    10030    2    1    2    0    0  0.00000000000E+00  0.00000000000E+00  0.15705225226E+04  0.22421245218E+04  0.16001816701E+04 0.  0.
        4    1    3    3  502    0  0.72142837670E+03  0.28444349232E+03  0.50934581134E+03  0.92779403504E+03  0.12699999809E+01 0.  1.
       -4    1    3    3    0  502 -0.72142837670E+03 -0.28444349232E+03  0.10611767112E+04  0.13143304868E+04  0.12699999809E+01 0. -1.
</event>
<event>
 5   0  0.4110803E-04  0.1527726E+04  0.7818609E-02  0.8866222E-01
       -1   -1    0    0    0  501  0.00000000000E+00  0.00000000000E+00  0.44690551079E+03  0.44690551082E+03  0.50400001928E-02 0.  1.
        1   -1    0    0  501    0  0.00000000000E+00  0.00000000000E+00 -0.13056149303E+04  0.13056149303E+04  0.50400001928E-02 0. -1.
    10030    2    1    2    0    0  0.00000000000E+00  0.00000000000E+00 -0.85870941947E+03  0.17525204411E+04  0.15277257703E+04 0.  0.
        5    1    3    3  502    0  0.22459484884E+03  0.48133896828E+02 -0.12650426871E+04  0.12857351237E+04  0.46999998093E+01 0. -1.
       -5    1    3    3    0  502 -0.22459484884E+03 -0.48133896828E+02  0.40633326763E+03  0.46678531739E+03  0.46999998093E+01 0.  1.
</event>
<event>
 5   0  0.3973227E-04  0.1645014E+04  0.7818609E-02  0.8793362E-01
        1   -1    0    0  501    0  0.00000000000E+00  0.00000000000E+00  0.11108159792E+04  0.11108159792E+04  0.50400001928E-02 0.  1.
       -1   -1    0    0    0  501  0.00000000000E+00  0.00000000000E+00 -0.60902769931E+03  0.60902769933E+03  0.50400001928E-02 0. -1.
    10030    2    1    2    0    0  0.00000000000E+00  0.00000000000E+00  0.50178827985E+03  0.17198436785E+04  0.16450139211E+04 0.  0.
        3    1    3    3  502    0  0.72516840361E+02 -0.52660706419E+03  0.90709476660E+03  0.10513774860E+04  0.10100000352E+00 0.  1.
       -3    1    3    3    0  502 -0.72516840361E+02  0.52660706419E+03 -0.40530648675E+03  0.66846619255E+03  0.10100000352E+00 0. -1.
</event>
<event>
 5   0  0.7553070E-04  0.1623633E+04  0.7818609E-02  0.8806160E-01
       -2   -1    0    0    0  501  0.00000000000E+00  0.00000000000E+00  0.86600983593E+03  0.86600983593E+03  0.25500000920E-02 0. -1.
        2   -1    0    0  501    0  0.00000000000E+00  0.00000000000E+00 -0.76101443587E+03  0.76101443587E+03  0.25500000920E-02 0.  1.
    10030    2    1    2    0    0  0.00000000000E+00  0.00000000000E+00  0.10499540006E+03  0.16270242718E+04  0.16236329471E+04 0.  0.
        4    1    3    3  502    0  0.37511335635E+03 -0.67199623490E+03  0.31140803738E+03  0.83022018072E+03  0.12699999809E+01 0.  1.
       -4    1    3    3    0  502 -0.37511335635E+03  0.67199623490E+03 -0.20641263732E+03  0.79680409109E+03  0.12699999809E+01 0. -1.
</event>
<event>
 5   0  0.7415102E-04  0.1584291E+04  0.7818609E-02  0.8830257E-01
        2   -1    0    0  501    0  0.00000000000E+00  0.00000000000E+00  0.17311657399E+04  0.17311657399E+04  0.25500000920E-02 0.  1.
       -2   -1    0    0    0  501  0.00000000000E+00  0.00000000000E+00 -0.36246930870E+03  0.36246930871E+03  0.25500000920E-02 0. -1.
    10030    2    1    2    0    0  0.00000000000E+00  0.00000000000E+00  0.13686964312E+04  0.20936350486E+04  0.15842909442E+04 0.  0.
        5    1    3    3  502    0 -0.73403740450E+03  0.27616542384E+03  0.83146887107E+03  0.11429964244E+04  0.46999998093E+01 0.  1.
       -5    1    3    3    0  502  0.73403740450E+03 -0.27616542384E+03  0.53722756012E+03  0.95063862423E+03  0.46999998093E+01 0. -1.
</event>
<event>
 5   0  0.4110803E-04  0.1561434E+04  0.7818609E-02  0.8844598E-01
        1   -1    0    0  501    0  0.00000000000E+00  0.00000000000E+00  0.74597750361E+03  0.74597750363E+03  0.50400001928E-02 0.  1.
       -1   -1    0    0    0  501  0.00000000000E+00  0.00000000000E+00 -0.81707378504E+03  0.81707378506E+03  0.50400001928E-02 0. -1.
    10030    2    1    2    0    0  0.00000000000E+00  0.00000000000E+00 -0.71096281428E+02  0.15630512887E+04  0.15614335240E+04 0.  0.
        5    1    3    3  502    0 -0.56223599373E+03 -0.37465369369E+03 -0.42713353195E+03  0.79933712972E+03  0.46999998093E+01 0.  1.
       -5    1    3    3    0  502  0.56223599373E+03  0.37465369369E+03  0.35603725053E+03  0.76371415896E+03  0.46999998093E+01 0. -1.
</event>
<event>
 5   0  0.3973227E-04  0.1611424E+04  0.7818609E-02  0.8813560E-01
        1   -1    0    0  501    0  0.00000000000E+00  0.00000000000E+00  0.82101450288E+03  0.82101450290E+03  0.50400001928E-02 0. -1.
       -1   -1    0    0    0  501  0.00000000000E+00  0.00000000000E+00 -0.79069465840E+03  0.79069465842E+03  0.50400001928E-02 0.  1.
    10030    2    1    2    0    0  0.00000000000E+00  0.00000000000E+00  0.30319844485E+02  0.16117091613E+04  0.16114239441E+04 0.  0.
        3    1    3    3  502    0 -0.45574820134E+01  0.72609112338E+03 -0.33410480890E+03  0.79928413198E+03  0.10100000352E+00 0.  1.
       -3    1    3    3    0  502  0.45574820134E+01 -0.72609112338E+03  0.36442465339E+03  0.81242502934E+03  0.10100000352E+00 0. -1.
</event>
<event>
 5   0  0.7770905E-04  0.1603035E+04  0.7818609E-02  0.8818686E-01
       -2   -1    0    0    0  501  0.00000000000E+00  0.00000000000E+00  0.11822146698E+04  0.11822146698E+04  0.25500000920E-02 0.  1.
        2   -1    0    0  501    0  0.00000000000E+00  0.00000000000E+00 -0.54341230973E+03  0.54341230974E+03  0.25500000920E-02 0. -1.
    10030    2    1    2    0    0  0.00000000000E+00  0.00000000000E+00  0.63880236002E+03  0.17256269795E+04  0.16030346276E+04 0.  0.
        2    1    3    3  502    0 -0.56137187996E+03 -0.23487863176E+02 -0.29592462545E+03  0.63502870115E+03  0.25500000920E-02 0. -1.
       -2    1    3    3    0  502  0.56137187996E+03  0.23487863176E+02  0.93472698548E+03  0.10905982783E+04  0.25500000920E-02 0.  1.
</event>
<event>
 5   0  0.7415102E-04  0.1630196E+04  0.7818609E-02  0.8802209E-01
        2   -1    0    0  501    0  0.00000000000E+00  0.00000000000E+00  0.11465373343E+04  0.11465373343E+04  0.25500000920E-02 0. -1.
       -2   -1    0    0    0  501  0.00000000000E+00  0.00000000000E+00 -0.57947068498E+03  0.57947068498E+03  0.25500000920E-02 0.  1.
    10030    2    1    2    0    0  0.00000000000E+00  0.00000000000E+00  0.56706664933E+03  0.17260080193E+04  0.16301960305E+04 0.  0.
        5    1    3    3  502    0  0.74819559172E+03  0.27414434466E+03  0.10195781260E+03  0.80334877278E+03  0.46999998093E+01 0.  1.
       -5    1    3    3    0  502 -0.74819559172E+03 -0.27414434466E+03  0.46510883673E+03  0.92265924652E+03  0.46999998093E+01 0. -1.
</event>
<event>
 5   0  0.7395088E-04  0.1593489E+04  0.7818609E-02  0.8824558E-01
       -2   -1    0    0    0  501  0.00000000000E+00  0.00000000000E+00  0.98760909003E+03  0.98760909003E+03  0.25500000920E-02 0.  1.
        2   -1    0    0  501    0  0.00000000000E+00  0.00000000000E+00 -0.64276598643E+03  0.64276598643E+03  0.25500000920E-02 0. -1.
    10030    2    1    2    0    0  0.00000000000E+00  0.00000000000E+00  0.34484310360E+03  0.16303750765E+04  0.15934886645E+04 0.  0.
        1    1    3    3  502    0  0.72067122923E+03 -0.20778932303E+03  0.44745267393E+03  0.87335978774E+03  0.50400001928E-02 0.  1.
       -1    1    3    3    0  502 -0.72067122923E+03  0.20778932303E+03 -0.10260957034E+03  0.75701528872E+03  0.50400001928E-02 0. -1.
</event>
<event>
 5   0  0.7553070E-04  0.1657750E+04  0.7818609E-02  0.8785835E-01
        2   -1    0    0  501    0  0.00000000000E+00  0.00000000000E+00  0.14866267947E+04  0.14866267947E+04  0.25500000920E-02 0.  1.
       -2   -1    0    0    0  501  0.00000000000E+00  0.00000000000E+00 -0.46214273697E+03  0.46214273697E+03  0.25500000920E-02 0. -1.
    10030    2    1    2    0    0  0.00000000000E+00  0.00000000000E+00  0.10244840577E+04  0.19487695316E+04  0.16577500122E+04 0.  0.
        4    1    3    3  502    0 -0.61048497085E+03 -0.55261614567E+03  0.40099454172E+03  0.91590105332E+03  0.12699999809E+01 0.  1.
       -4    1    3    3    0  502  0.61048497085E+03  0.55261614567E+03  0.62348951598E+03  0.10328684783E+04  0.12699999809E+01 0. -1.
</event>
<event>
 5   0  0.7415102E-04  0.1600045E+04  0.7818609E-02  0.8820520E-01
       -2   -1    0    0    0  501  0.00000000000E+00  0.00000000000E+00  0.56315724564E+03  0.56315724565E+03  0.25500000920E-02 0.  1.
        2   -1    0    0  501    0  0.00000000000E+00  0.00000000000E+00 -0.11365142611E+04  0.11365142611E+04  0.25500000920E-02 0. -1.
    10030    2    1    2    0    0  0.00000000000E+00  0.00000000000E+00 -0.57335701546E+03  0.16996715068E+04  0.16000453005E+04 0.  0.
        5    1    3    3  502    0  0.14396472699E+03  0.83832750927E+02 -0.11178694331E+04  0.11302247264E+04  0.46999998093E+01 0. -1.
       -5    1    3    3    0  502 -0.14396472699E+03 -0.83832750927E+02  0.54451241761E+03  0.56944678037E+03  0.46999998093E+01 0.  1.
</event>
<event>
 5   0  0.7488884E-04  0.1596672E+04  0.7818609E-02  0.8822595E-01
        2   -1    0    0  501    0  0.00000000000E+00  0.00000000000E+00  0.19848169697E+04  0.19848169697E+04  0.25500000920E-02 0.  1.
       -2   -1    0    0    0  501  0.00000000000E+00  0.00000000000E+00 -0.32110769398E+03  0.32110769399E+03  0.25500000920E-02 0. -1.
    10030    2    1    2    0    0  0.00000000000E+00  0.00000000000E+00  0.16637092757E+04  0.23059246637E+04  0.15966715381E+04 0.  0.
        3    1    3    3  502    0  0.46644203110E+03 -0.64548606518E+03  0.91251799364E+03  0.12111604054E+04  0.10100000352E+00 0. -1.
       -3    1    3    3    0  502 -0.46644203110E+03  0.64548606518E+03  0.75119128207E+03  0.10947642583E+04  0.10100000352E+00 0.  1.
</event>
<event>
 5   0  0.3837251E-04  0.1623846E+04  0.7818609E-02  0.8806031E-01
       -1   -1    0    0    0  501  0.00000000000E+00  0.00000000000E+00  0.46023797603E+03  0.46023797606E+03  0.50400001928E-02 0. -1.
        1   -1    0    0  501    0  0.00000000000E+00  0.00000000000E+00 -0.14323436769E+04  0.14323436769E+04  0.50400001928E-02 0.  1.
    10030    2    1    2    0    0  0.00000000000E+00  0.00000000000E+00 -0.97210570086E+03  0.18925816530E+04  0.16238459962E+04 0.  0.
        4    1    3    3  502    0 -0.39363483495E+03  0.12346150332E+03  0.32898139617E+03  0.52765660994E+03  0.12699999809E+01 0. -1.
       -4    1    3    3    0  502  0.39363483495E+03 -0.12346150332E+03 -0.13010870970E+04  0.13649250430E+04  0.12699999809E+01 0.  1.
</event>
<event>
 5   0  0.7415102E-04  0.1603548E+04  0.7818609E-02  0.8818371E-01
       -2   -1    0    0    0  501  0.00000000000E+00  0.00000000000E+00  0.69706768954E+03  0.69706768954E+03  0.25500000920E-02 0.  1.
        2   -1    0    0  501    0  0.00000000000E+00  0.00000000000E+00 -0.92220815958E+03  0.92220815958E+03  0.25500000920E-02 0. -1.
    10030    2    1    2    0    0  0.00000000000E+00  0.00000000000E+00 -0.22514047004E+03  0.16192758491E+04  0.16035479551E+04 0.  0.
        5    1    3    3  502    0  0.33145698675E+02  0.52210908639E+03  0.50094361657E+03  0.72433633929E+03  0.46999998093E+01 0.  1.
       -5    1    3    3    0  502 -0.33145698675E+02 -0.52210908639E+03 -0.72608408662E+03  0.89493950984E+03  0.46999998093E+01 0. -1.
</event>
<event>
 5   0  0.4110803E-04  0.1618475E+04  0.7818609E-02  0.8809278E-01
        1   -1    0    0  501    0  0.00000000000E+00  0.00000000000E+00  0.12416391595E+04  0.12416391595E+04  0.50400001928E-02 0. -1.
       -1   -1    0    0    0  501  0.00000000000E+00  0.00000000000E+00 -0.52742020219E+03  0.52742020221E+03  0.50400001928E-02 0.  1.
    10030    2    1    2    0    0  0.00000000000E+00  0.00000000000E+00  0.71421895727E+03  0.17690593617E+04  0.16184753029E+04 0.  0.
        5    1    3    3  502    0 -0.51258461924E+03  0.36579644778E+03 -0.19840198933E+03  0.66025409688E+03  0.46999998093E+01 0.  1.
       -5    1    3    3    0  502  0.51258461924E+03 -0.36579644778E+03  0.91262094660E+03  0.11088052648E+04  0.46999998093E+01 0. -1.
</event>
<event>
 5   0  0.4110803E-04  0.1644937E+04  0.7818609E-02  0.8793408E-01
       -1   -1    0    0    0  501  0.00000000000E+00  0.00000000000E+00  0.12428707849E+04  0.12428707849E+04  0.50400001928E-02 0. -1.
        1   -1    0    0  501    0  0.00000000000E+00  0.00000000000E+00 -0.54426750387E+03  0.54426750389E+03  0.50400001928E-02 0.  1.
    10030    2    1    2    0    0  0.00000000000E+00  0.00000000000E+00  0.69860328099E+03  0.17871382888E+04  0.16449366915E+04 0.  0.
        5    1    3    3  502    0  0.27889738049E+03 -0.73029752787E+03  0.62696057494E+03  0.10021077190E+04  0.46999998093E+01 0. -1.
       -5    1    3    3    0  502 -0.27889738049E+03  0.73029752787E+03  0.71642706055E+02  0.78503056971E+03  0.46999998093E+01 0.  1.
</event>
<event>
 5   0  0.4110803E-04  0.1588308E+04  0.7818609E-02  0.8827763E-01
        1   -1    0    0  501    0  0.00000000000E+00  0.00000000000E+00  0.85910674488E+03  0.85910674490E+03  0.50400001928E-02 0. -1.
       -1   -1    0    0    0  501  0.00000000000E+00  0.00000000000E+00 -0.73411161742E+03  0.73411161744E+03  0.50400001928E-02 0.  1.
    10030    2    1    2    0    0  0.00000000000E+00  0.00000000000E+00  0.12499512746E+03  0.15932183623E+04  0.15883075798E+04 0.  0.
        5    1    3    3  502    0  0.33827637911E+03  0.30835373361E+03 -0.58846592680E+03  0.74553817521E+03  0.46999998093E+01 0.  1.
       -5    1    3    3    0  502 -0.33827637911E+03 -0.30835373361E+03  0.71346105426E+03  0.84768018712E+03  0.46999998093E+01 0. -1.
</event>
<event>
 5   0  0.3889847E-04  0.1607849E+04  0.7818609E-02  0.8815741E-01
        1   -1    0    0  501    0  0.00000000000E+00  0.00000000000E+00  0.92369094255E+03  0.92369094257E+03  0.50400001928E-02 0.  1.
       -1   -1    0    0    0  501  0.00000000000E+00  0.00000000000E+00 -0.69968675092E+03  0.69968675094E+03  0.50400001928E-02 0. -1.
    10030    2    1    2    0    0  0.00000000000E+00  0.00000000000E+00  0.22400419163E+03  0.16233776935E+04  0.16078486427E+04 0.  0.
        1    1    3    3  502    0  0.76473185799E+03 -0.12455663365E+03  0.32846761492E+03  0.84155816418E+03  0.50400001928E-02 0.  1.
       -1    1    3    3    0  502 -0.76473185799E+03  0.12455663365E+03 -0.10446342329E+03  0.78181952933E+03  0.50400001928E-02 0. -1.
</event>
<event>
 5   0  0.7488884E-04  0.1591163E+04  0.7818609E-02  0.8825995E-01
        2   -1    0    0  501    0  0.00000000000E+00  0.00000000000E+00  0.71849546505E+03  0.71849546505E+03  0.25500000920E-02 0.  1.
       -2   -1    0    0    0  501  0.00000000000E+00  0.00000000000E+00 -0.88093789185E+03  0.88093789185E+03  0.25500000920E-02 0. -1.
    10030    2    1    2    0    0  0.00000000000E+00  0.00000000000E+00 -0.16244242680E+03  0.15994333569E+04  0.15911629461E+04 0.  0.
        3    1    3    3  502    0 -0.65701919306E+02 -0.57320628810E+03  0.46941034958E+03  0.74379316843E+03  0.10100000352E+00 0.  1.
       -3    1    3    3    0  502  0.65701919306E+02  0.57320628810E+03 -0.63185277638E+03  0.85564018847E+03  0.10100000352E+00 0. -1.
</event>
<event>
 5   0  0.2781000E-04  0.1503544E+04  0.7818609E-02  0.8882100E-01
       -4   -1    0    0    0  501  0.00000000000E+00  0.00000000000E+00  0.10657777617E+04  0.10657785184E+04  0.12699999809E+01 0.  1.
        4   -1    0    0  501    0  0.00000000000E+00  0.00000000000E+00 -0.53027849524E+03  0.53028001604E+03  0.12699999809E+01 0. -1.
    10030    2    1    2    0    0  0.00000000000E+00  0.00000000000E+00  0.53549926651E+03  0.15960585345E+04  0.15035436079E+04 0.  0.
        4    1    3    3  502    0  0.44171332645E+03  0.36015283758E+03 -0.25265896349E+03  0.62342513096E+03  0.12699999809E+01 0. -1.
       -4    1    3    3    0  502 -0.44171332645E+03 -0.36015283758E+03  0.78815823001E+03  0.97263340350E+03  0.12699999809E+01 0.  1.
</event>
<event>
 5   0  0.3837251E-04  0.1535331E+04  0.7818609E-02  0.8861292E-01
       -1   -1    0    0    0  501  0.00000000000E+00  0.00000000000E+00  0.49548724196E+03  0.49548724198E+03  0.50400001928E-02 0. -1.
        1   -1    0    0  501    0  0.00000000000E+00  0.00000000000E+00 -0.11893556851E+04  0.11893556851E+04  0.50400001928E-02 0.  1.
    10030    2    1    2    0    0  0.00000000000E+00  0.00000000000E+00 -0.69386844317E+03  0.16848429271E+04  0.15353313234E+04 0.  0.
        4    1    3    3  502    0  0.67213818063E+03 -0.37082726412E+03 -0.35256856176E+03  0.84474185247E+03  0.12699999809E+01 0. -1.
       -4    1    3    3    0  502 -0.67213818063E+03  0.37082726412E+03 -0.34129988141E+03  0.84010107465E+03  0.12699999809E+01 0.  1.
</event>
<event>
 5   0  0.7553070E-04  0.1361024E+04  0.7818609E-02  0.8982525E-01
        2   -1    0    0  501    0  0.00000000000E+00  0.00000000000E+00  0.93680095358E+03  0.93680095359E+03  0.25500000920E-02 0.  1.
       -2   -1    0    0    0  501  0.00000000000E+00  0.00000000000E+00 -0.49433832379E+03  0.49433832380E+03  0.25500000920E-02 0. -1.
    10030    2    1    2    0    0  0.00000000000E+00  0.00000000000E+00  0.44246262979E+03  0.14311392774E+04  0.13610240455E+04 0.  0.
        4    1    3    3  502    0  0.60434347319E+03 -0.14816102721E+03 -0.68484438771E+02  0.62599876583E+03  0.12699999809E+01 0. -1.
       -4    1    3    3    0  502 -0.60434347319E+03  0.14816102721E+03  0.51094706856E+03  0.80514051155E+03  0.12699999809E+01 0.  1.
</event>
<event>
 5   0  0.7770905E-04  0.1577279E+04  0.7818609E-02  0.8834630E-01
       -2   -1    0    0    0  501  0.00000000000E+00  0.00000000000E+00  0.34171331576E+03  0.34171331577E+03  0.25500000920E-02 0.  1.
        2   -1    0    0  501    0  0.00000000000E+00  0.00000000000E+00 -0.18200984284E+04  0.18200984284E+04  0.25500000920E-02 0. -1.
    10030    2    1    2    0    0  0.00000000000E+00  0.00000000000E+00 -0.14783851127E+04  0.21618117442E+04  0.15772785030E+04 0.  0.
        2    1    3    3  502    0 -0.61120450334E+03 -0.15207874850E+03 -0.88696364282E+02  0.63605497851E+03  0.25500000920E-02 0.  1.
       -2    1    3    3    0  502  0.61120450334E+03  0.15207874850E+03 -0.13896887484E+04  0.15257567657E+04  0.25500000920E-02 0. -1.
</event>
<event>
 5   0  0.3889847E-04  0.1609742E+04  0.7818609E-02  0.8814585E-01
       -1   -1    0    0    0  501  0.00000000000E+00  0.00000000000E+00  0.22146490625E+03  0.22146490630E+03  0.50400001928E-02 0.  1.
        1   -1    0    0  501    0  0.00000000000E+00  0.00000000000E+00 -0.29251481871E+04  0.29251481871E+04  0.50400001928E-02 0. -1.
    10030    2    1    2    0    0  0.00000000000E+00  0.00000000000E+00 -0.27036832808E+04  0.31466130934E+04  0.16097424255E+04 0.  0.
        1    1    3    3  502    0  0.62419191364E+03  0.50540999123E+03 -0.14545880776E+04  0.16615899855E+04  0.50400001928E-02 0.  1.
       -1    1    3    3    0  502 -0.62419191364E+03 -0.50540999123E+03 -0.12490952032E+04  0.14850231079E+04  0.50400001928E-02 0. -1.
</event>
<event>
 5   0  0.7415102E-04  0.1594356E+04  0.7818609E-02  0.8824023E-01
        2   -1    0    0  501    0  0.00000000000E+00  0.00000000000E+00  0.20850237202E+04  0.20850237202E+04  0.25500000920E-02 0.  1.
       -2   -1    0    0    0  501  0.00000000000E+00  0.00000000000E+00 -0.30478921764E+03  0.30478921765E+03  0.25500000920E-02 0. -1.
    10030    2    1    2    0    0  0.00000000000E+00  0.00000000000E+00  0.17802345025E+04  0.23898129378E+04  0.15943559809E+04 0.  0.
        5    1    3    3  502    0 -0.13530760312E+02 -0.17394975692E+03 -0.27579731902E+03  0.32638604533E+03  0.46999998093E+01 0. -1.
       -5    1    3    3    0  502  0.13530760312E+02  0.17394975692E+03  0.20560318216E+04  0.20634268925E+04  0.46999998093E+01 0.  1.
</event>
<event>
 5   0  0.3973227E-04  0.1642575E+04  0.7818609E-02  0.8794811E-01
       -1   -1    0    0    0  501  0.00000000000E+00  0.00000000000E+00  0.32934621922E+03  0.32934621926E+03  0.50400001928E-02 0. -1.
        1   -1    0    0  501    0  0.00000000000E+00  0.00000000000E+00 -0.20480358271E+04  0.20480358271E+04  0.50400001928E-02 0.  1.
    10030    2    1    2    0    0  0.00000000000E+00  0.00000000000E+00 -0.17186896079E+04  0.23773820464E+04  0.16425746334E+04 0.  0.
        3    1    3    3  502    0 -0.50874167791E+02 -0.41060569124E+03 -0.18861764707E+04  0.19310222431E+04  0.10100000352E+00 0.  1.
       -3    1    3    3    0  502  0.50874167791E+02  0.41060569124E+03  0.16748686274E+03  0.44635980332E+03  0.10100000352E+00 0. -1.
</event>
<event>
 5   0  0.7553070E-04  0.1587068E+04  0.7818609E-02  0.8828532E-01
        2   -1    0    0  501    0  0.00000000000E+00  0.00000000000E+00  0.11813216068E+04  0.11813216068E+04  0.25500000920E-02 0. -1.
       -2   -1    0    0    0  501  0.00000000000E+00  0.00000000000E+00 -0.53304378301E+03  0.53304378302E+03  0.25500000920E-02 0.  1.
    10030    2    1    2    0    0  0.00000000000E+00  0.00000000000E+00  0.64827782377E+03  0.17143653898E+04  0.15870679106E+04 0.  0.
        4    1    3    3  502    0 -0.65821454878E+03 -0.44259454249E+03  0.29861751854E+03  0.84753192067E+03  0.12699999809E+01 0.  1.
       -4    1    3    3    0  502  0.65821454878E+03  0.44259454249E+03  0.34966030523E+03  0.86683346914E+03  0.12699999809E+01 0. -1.
</event>
<event>
 5   0  0.2781000E-04  0.1598259E+04  0.7818609E-02  0.8821618E-01
       -3   -1    0    0    0  501  0.00000000000E+00  0.00000000000E+00  0.84749095528E+03  0.84749096130E+03  0.10100000352E+00 0.  1.
        3   -1    0    0  501    0  0.00000000000E+00  0.00000000000E+00 -0.75352767783E+03  0.75352768460E+03  0.10100000352E+00 0. -1.
    10030    2    1    2    0    0  0.00000000000E+00  0.00000000000E+00  0.93963277451E+02  0.16010186459E+04  0.15982589299E+04 0.  0.
        5    1    3    3  502    0 -0.40987600151E+03  0.68503764639E+03  0.10712793563E+02  0.79838071591E+03  0.46999998093E+01 0.  1.
       -5    1    3    3    0  502  0.40987600151E+03 -0.68503764639E+03  0.83250483888E+02  0.80263792999E+03  0.46999998093E+01 0. -1.
</event>
<event>
 5   0  0.2781000E-04  0.1619142E+04  0.7818609E-02  0.8808874E-01
       -4   -1    0    0    0  501  0.00000000000E+00  0.00000000000E+00  0.10554864618E+04  0.10554872258E+04  0.12699999809E+01 0.  1.
        4   -1    0    0  501    0  0.00000000000E+00  0.00000000000E+00 -0.62094888533E+03  0.62095018407E+03  0.12699999809E+01 0. -1.
    10030    2    1    2    0    0  0.00000000000E+00  0.00000000000E+00  0.43453757642E+03  0.16764374099E+04  0.16191415886E+04 0.  0.
        4    1    3    3  502    0 -0.41474391374E+03 -0.18359992524E+03 -0.47704401934E+03  0.65825075452E+03  0.12699999809E+01 0. -1.
       -4    1    3    3    0  502  0.41474391374E+03  0.18359992524E+03  0.91158159576E+03  0.10181866554E+04  0.12699999809E+01 0.  1.
</event>
<event>
 5   0  0.3889847E-04  0.1595918E+04  0.7818609E-02  0.8823060E-01
       -1   -1    0    0    0  501  0.00000000000E+00  0.00000000000E+00  0.31802293449E+03  0.31802293453E+03  0.50400001928E-02 0.  1.
        1   -1    0    0  501    0  0.00000000000E+00  0.00000000000E+00 -0.20021770020E+04  0.20021770021E+04  0.50400001928E-02 0. -1.
    10030    2    1    2    0    0  0.00000000000E+00  0.00000000000E+00 -0.16841540676E+04  0.23201999366E+04  0.15959175488E+04 0.  0.
        1    1    3    3  502    0 -0.10878804898E+03 -0.17689790291E+03  0.27804604828E+03  0.34704079392E+03  0.50400001928E-02 0.  1.
       -1    1    3    3    0  502  0.10878804898E+03  0.17689790291E+03 -0.19622001158E+04  0.19731591427E+04  0.50400001928E-02 0. -1.
</event>
<event>
 5   0  0.3889847E-04  0.1580766E+04  0.7818609E-02  0.8832452E-01
       -1   -1    0    0    0  501  0.00000000000E+00  0.00000000000E+00  0.11512327238E+04  0.11512327238E+04  0.50400001928E-02 0.  1.
        1   -1    0    0  501    0  0.00000000000E+00  0.00000000000E+00 -0.54264018130E+03  0.54264018132E+03  0.50400001928E-02 0. -1.
    10030    2    1    2    0    0  0.00000000000E+00  0.00000000000E+00  0.60859254248E+03  0.16938729051E+04  0.15807658068E+04 0.  0.
        1    1    3    3  502    0  0.72489810456E+03 -0.33050869565E+02  0.63997698058E+03  0.96754336217E+03  0.50400001928E-02 0. -1.
       -1    1    3    3    0  502 -0.72489810456E+03  0.33050869565E+02 -0.31384438100E+02  0.72632954294E+03  0.50400001928E-02 0.  1.
</event>
<event>
 5   0  0.3973227E-04  0.1944720E+04  0.7818609E-02  0.8632911E-01
        1   -1    0    0  501    0  0.00000000000E+00  0.00000000000E+00  0.97575950282E+03  0.97575950283E+03  0.50400001928E-02 0. -1.
       -1   -1    0    0    0  501  0.00000000000E+00  0.00000000000E+00 -0.96897206706E+03  0.96897206707E+03  0.50400001928E-02 0.  1.
    10030    2    1    2    0    0  0.00000000000E+00  0.00000000000E+00  0.67874357569E+01  0.19447315699E+04  0.19447197252E+04 0.  0.
        3    1    3    3  502    0 -0.31811698327E+03  0.40215048955E+01  0.92224048914E+03  0.97557271260E+03  0.10100000352E+00 0. -1.
       -3    1    3    3    0  502  0.31811698327E+03 -0.40215048955E+01 -0.91545305339E+03  0.96915885731E+03  0.10100000352E+00 0.  1.
</event>
<event>
 5   0  0.7553070E-04  0.1555076E+04  0.7818609E-02  0.8848632E-01
       -2   -1    0    0    0  501  0.00000000000E+00  0.00000000000E+00  0.45722439409E+03  0.45722439409E+03  0.25500000920E-02 0.  1.
        2   -1    0    0  501    0  0.00000000000E+00  0.00000000000E+00 -0.13222514757E+04  0.13222514757E+04  0.25500000920E-02 0. -1.
    10030    2    1    2    0    0  0.00000000000E+00  0.00000000000E+00 -0.86502708158E+03  0.17794758698E+04  0.15550763709E+04 0.  0.
        4    1    3    3  502    0 -0.69984951575E+03 -0.82795587082E+02 -0.56597835998E+02  0.70700027007E+03  0.12699999809E+01 0.  1.
       -4    1    3    3    0  502  0.69984951575E+03  0.82795587082E+02 -0.80842924558E+03  0.10724755997E+04  0.12699999809E+01 0. -1.
</event>
<event>
 5   0  0.7395088E-04  0.1605014E+04  0.7818609E-02  0.8817474E-01
       -2   -1    0    0    0  501  0.00000000000E+00  0.00000000000E+00  0.40311646297E+03  0.40311646298E+03  0.25500000920E-02 0. -1.
        2   -1    0    0  501    0  0.00000000000E+00  0.00000000000E+00 -0.15975968955E+04  0.15975968955E+04  0.25500000920E-02 0.  1.
    10030    2    1    2    0    0  0.00000000000E+00  0.00000000000E+00 -0.11944804325E+04  0.20007133585E+04  0.16050141554E+04 0.  0.
        1    1    3    3  502    0  0.56232967190E+03 -0.56107898291E+03 -0.45514935325E+03  0.91552455934E+03  0.50400001928E-02 0. -1.
       -1    1    3    3    0  502 -0.56232967190E+03  0.56107898291E+03 -0.73933107925E+03  0.10851887991E+04  0.50400001928E-02 0.  1.
</event>
<event>
 5   0  0.2781000E-04  0.1599819E+04  0.7818609E-02  0.8820659E-01
        4   -1    0    0  501    0  0.00000000000E+00  0.00000000000E+00  0.59689043356E+03  0.59689178464E+03  0.12699999809E+01 0.  1.
       -4   -1    0    0    0  501  0.00000000000E+00  0.00000000000E+00 -0.10719783397E+04  0.10719790920E+04  0.12699999809E+01 0. -1.
    10030    2    1    2    0    0  0.00000000000E+00  0.00000000000E+00 -0.47508790610E+03  0.16688708766E+04  0.15998192036E+04 0.  0.
        4    1    3    3  502    0  0.66378778876E+03  0.39211690479E+03 -0.15069319613E+02  0.77110219350E+03  0.12699999809E+01 0.  1.
       -4    1    3    3    0  502 -0.66378778876E+03 -0.39211690479E+03 -0.46001858649E+03  0.89776868310E+03  0.12699999809E+01 0. -1.
</event>
<event>
 5   0  0.3950195E-04  0.1605151E+04  0.7818609E-02  0.8817390E-01
       -1   -1    0    0    0  501  0.00000000000E+00  0.00000000000E+00  0.37358741103E+03  0.37358741107E+03  0.50400001928E-02 0. -1.
        1   -1    0    0  501    0  0.00000000000E+00  0.00000000000E+00 -0.17241672210E+04  0.17241672210E+04  0.50400001928E-02 0.  1.
    10030    2    1    2    0    0  0.00000000000E+00  0.00000000000E+00 -0.13505798100E+04  0.20977546321E+04  0.16051506700E+04 0.  0.
        2    1    3    3  502    0  0.69333289946E+03 -0.13802669462E+03 -0.17873156697E+03  0.72918231666E+03  0.25500000920E-02 0. -1.
       -2    1    3    3    0  502 -0.69333289946E+03  0.13802669462E+03 -0.11718482430E+04  0.13685723154E+04  0.25500000920E-02 0.  1.
</event>
<event>
 5   0  0.4110803E-04  0.1591348E+04  0.7818609E-02  0.8825881E-01
        1   -1    0    0  501    0  0.00000000000E+00  0.00000000000E+00  0.41546125812E+03  0.41546125815E+03  0.50400001928E-02 0.  1.
       -1   -1    0    0    0  501  0.00000000000E+00  0.00000000000E+00 -0.15238417335E+04  0.15238417335E+04  0.50400001928E-02 0. -1.
    10030    2    1    2    0    0  0.00000000000E+00  0.00000000000E+00 -0.11083804753E+04  0.19393029916E+04  0.15913481125E+04 0.  0.
        5    1    3    3  502    0 -0.73666236954E+03 -0.20955872592E+03 -0.81694746899E+03  0.11198265774E+04  0.46999998093E+01 0. -1.
       -5    1    3    3    0  502  0.73666236954E+03  0.20955872592E+03 -0.29143300634E+03  0.81947641424E+03  0.46999998093E+01 0.  1.
</event>
<event>
 5   0  0.7553070E-04  0.1642379E+04  0.7818609E-02  0.8794927E-01
       -2   -1    0    0    0  501  0.00000000000E+00  0.00000000000E+00  0.69808763800E+03  0.69808763800E+03  0.25500000920E-02 0.  1.
        2   -1    0    0  501    0  0.00000000000E+00  0.00000000000E+00 -0.96599989929E+03  0.96599989929E+03  0.25500000920E-02 0. -1.
    10030    2    1    2    0    0  0.00000000000E+00  0.00000000000E+00 -0.26791226129E+03  0.16640875373E+04  0.16423794787E+04 0.  0.
        4    1    3    3  502    0 -0.42032914749E+03 -0.70524030973E+03 -0.11610254902E+03  0.82916940458E+03  0.12699999809E+01 0.  1.
       -4    1    3    3    0  502  0.42032914749E+03  0.70524030973E+03 -0.15180971227E+03  0.83491813272E+03  0.12699999809E+01 0. -1.
</event>
<event>
 5   0  0.3973227E-04  0.1593475E+04  0.7818609E-02  0.8824566E-01
        1   -1    0    0  501    0  0.00000000000E+00  0.00000000000E+00  0.84381957272E+03  0.84381957273E+03  0.50400001928E-02 0. -1.
       -1   -1    0    0    0  501  0.00000000000E+00  0.00000000000E+00 -0.75228265017E+03  0.75228265019E+03  0.50400001928E-02 0.  1.
    10030    2    1    2    0    0  0.00000000000E+00  0.00000000000E+00  0.91536922545E+02  0.15961022229E+04  0.15934752266E+04 0.  0.
        3    1    3    3  502    0 -0.67988508829E+03 -0.17189466164E+02  0.46148473215E+03  0.82189255942E+03  0.10100000352E+00 0. -1.
       -3    1    3    3    0  502  0.67988508829E+03  0.17189466164E+02 -0.36994780961E+03  0.77420966350E+03  0.10100000352E+00 0.  1.
</event>
<event>
 5   0  0.7553070E-04  0.1619029E+04  0.7818609E-02  0.8808942E-01
        2   -1    0    0  501    0  0.00000000000E+00  0.00000000000E+00  0.15948679208E+04  0.15948679208E+04  0.25500000920E-02 0. -1.
       -2   -1    0    0    0  501  0.00000000000E+00  0.00000000000E+00 -0.41088909950E+03  0.41088909951E+03  0.25500000920E-02 0.  1.
    10030    2    1    2    0    0  0.00000000000E+00  0.00000000000E+00  0.11839788213E+04  0.20057570204E+04  0.16190291459E+04 0.  0.
        4    1    3    3  502    0 -0.51516866350E+03  0.41111100948E+03  0.97216987669E+01  0.65917155453E+03  0.12699999809E+01 0.  1.
       -4    1    3    3    0  502  0.51516866350E+03 -0.41111100948E+03  0.11742571226E+04  0.13465854658E+04  0.12699999809E+01 0. -1.
</event>
<event>
 5   0  0.3973227E-04  0.1557127E+04  0.7818609E-02  0.8847329E-01
       -1   -1    0    0    0  501  0.00000000000E+00  0.00000000000E+00  0.38401802893E+03  0.38401802897E+03  0.50400001928E-02 0.  1.
        1   -1    0    0  501    0  0.00000000000E+00  0.00000000000E+00 -0.15784695535E+04  0.15784695535E+04  0.50400001928E-02 0. -1.
    10030    2    1    2    0    0  0.00000000000E+00  0.00000000000E+00 -0.11944515246E+04  0.19624875825E+04  0.15571265417E+04 0.  0.
        3    1    3    3  502    0 -0.31254212431E+03 -0.70970425547E+03 -0.50992555995E+03  0.92810925898E+03  0.10100000352E+00 0.  1.
       -3    1    3    3    0  502  0.31254212431E+03  0.70970425547E+03 -0.68452596466E+03  0.10343783235E+04  0.10100000352E+00 0. -1.
</event>
<event>
 5   0  0.3889847E-04  0.1604657E+04  0.7818609E-02  0.8817692E-01
        1   -1    0    0  501    0  0.00000000000E+00  0.00000000000E+00  0.16295962109E+04  0.16295962109E+04  0.50400001928E-02 0. -1.
       -1   -1    0    0    0  501  0.00000000000E+00  0.00000000000E+00 -0.39502508858E+03  0.39502508861E+03  0.50400001928E-02 0.  1.
    10030    2    1    2    0    0  0.00000000000E+00  0.00000000000E+00  0.12345711223E+04  0.20246212995E+04  0.16046574558E+04 0.  0.
        1    1    3    3  502    0  0.30056003618E+03  0.23555955930E+03  0.15075837060E+04  0.15551955735E+04  0.50400001928E-02 0. -1.
       -1    1    3    3    0  502 -0.30056003618E+03 -0.23555955930E+03 -0.27301258369E+03  0.46942572597E+03  0.50400001928E-02 0.  1.
</event>
<event>
 5   0  0.7395088E-04  0.1586914E+04  0.7818609E-02  0.8828628E-01
        2   -1    0    0  501    0  0.00000000000E+00  0.00000000000E+00  0.19710819187E+04  0.19710819187E+04  0.25500000920E-02 0. -1.
       -2   -1    0    0    0  501  0.00000000000E+00  0.00000000000E+00 -0.31940534690E+03  0.31940534691E+03  0.25500000920E-02 0.  1.
    10030    2    1    2    0    0  0.00000000000E+00  0.00000000000E+00  0.16516765718E+04  0.22904872656E+04  0.15869141174E+04 0.  0.
        1    1    3    3  502    0 -0.43152192442E+03 -0.70236768919E+02  0.17815446003E+04  0.18344060450E+04  0.50400001928E-02 0. -1.
       -1    1    3    3    0  502  0.43152192442E+03  0.70236768919E+02 -0.12986802850E+03  0.45608122063E+03  0.50400001928E-02 0.  1.
</event>
<event>
 5   0  0.7395088E-04  0.1419532E+04  0.7818609E-02  0.8939800E-01
        2   -1    0    0  501    0  0.00000000000E+00  0.00000000000E+00  0.19801421145E+04  0.19801421145E+04  0.25500000920E-02 0.  1.
       -2   -1    0    0    0  501  0.00000000000E+00  0.00000000000E+00 -0.25441006625E+03  0.25441006626E+03  0.25500000920E-02 0. -1.
    10030    2    1    2    0    0  0.00000000000E+00  0.00000000000E+00  0.17257320483E+04  0.22345521808E+04  0.14195324393E+04 0.  0.
        1    1    3    3  502    0  0.59863165598E+03  0.75135177167E+02  0.27437318751E+03  0.66278639126E+03  0.50400001928E-02 0. -1.
       -1    1    3    3    0  502 -0.59863165598E+03 -0.75135177167E+02  0.14513588608E+04  0.15717657895E+04  0.50400001928E-02 0.  1.
</event>
<event>
 5   0  0.7553070E-04  0.1676529E+04  0.7818609E-02  0.8774865E-01
       -2   -1    0    0    0  501  0.00000000000E+00  0.00000000000E+00  0.52830669938E+03  0.52830669938E+03  0.25500000920E-02 0.  1.
        2   -1    0    0  501    0  0.00000000000E+00  0.00000000000E+00 -0.13300742184E+04  0.13300742184E+04  0.25500000920E-02 0. -1.
    10030    2    1    2    0    0  0.00000000000E+00  0.00000000000E+00 -0.80176751907E+03  0.18583809178E+04  0.16765286998E+04 0.  0.
        4    1    3    3  502    0 -0.23151834880E+02  0.55526440017E+02  0.52590964140E+03  0.52934087015E+03  0.12699999809E+01 0.  1.
       -4    1    3    3    0  502  0.23151834880E+02 -0.55526440017E+02 -0.13276771605E+04  0.13290400477E+04  0.12699999809E+01 0. -1.
</event>
<event>
 5   0  0.7553070E-04  0.1652618E+04  0.7818609E-02  0.8788859E-01
       -2   -1    0    0    0  501  0.00000000000E+00  0.00000000000E+00  0.88119428131E+03  0.88119428131E+03  0.25500000920E-02 0.  1.
        2   -1    0    0  501    0  0.00000000000E+00  0.00000000000E+00 -0.77484201679E+03  0.77484201679E+03  0.25500000920E-02 0. -1.
    10030    2    1    2    0    0  0.00000000000E+00  0.00000000000E+00  0.10635226452E+03  0.16560362981E+04  0.16526177466E+04 0.  0.
        4    1    3    3  502    0 -0.14749998656E+03 -0.12825813595E+03  0.85769326173E+03  0.87968502294E+03  0.12699999809E+01 0.  1.
       -4    1    3    3    0  502  0.14749998656E+03  0.12825813595E+03 -0.75134099720E+03  0.77635127517E+03  0.12699999809E+01 0. -1.
</event>
<event>
 5   0  0.3889847E-04  0.1546681E+04  0.7818609E-02  0.8853990E-01
       -1   -1    0    0    0  501  0.00000000000E+00  0.00000000000E+00  0.81236356674E+03  0.81236356675E+03  0.50400001928E-02 0.  1.
        1   -1    0    0  501    0  0.00000000000E+00  0.00000000000E+00 -0.73619240723E+03  0.73619240725E+03  0.50400001928E-02 0. -1.
    10030    2    1    2    0    0  0.00000000000E+00  0.00000000000E+00  0.76171159502E+02  0.15485559740E+04  0.15466814666E+04 0.  0.
        1    1    3    3  502    0  0.18092243159E+03 -0.23284517207E+03  0.75386886722E+03  0.80948629970E+03  0.50400001928E-02 0.  1.
       -1    1    3    3    0  502 -0.18092243159E+03  0.23284517207E+03 -0.67769770771E+03  0.73906967431E+03  0.50400001928E-02 0. -1.
</event>
<event>
 5   0  0.3973227E-04  0.1571949E+04  0.7818609E-02  0.8837969E-01
        1   -1    0    0  501    0  0.00000000000E+00  0.00000000000E+00  0.72469971977E+03  0.72469971979E+03  0.50400001928E-02 0.  1.
       -1   -1    0    0    0  501  0.00000000000E+00  0.00000000000E+00 -0.85243015492E+03  0.85243015493E+03  0.50400001928E-02 0. -1.
    10030    2    1    2    0    0  0.00000000000E+00  0.00000000000E+00 -0.12773043514E+03  0.15771298747E+04  0.15719489743E+04 0.  0.
        3    1    3    3  502    0 -0.21910812959E+03  0.16291273887E+03  0.67558965188E+03  0.72867710329E+03  0.10100000352E+00 0.  1.
       -3    1    3    3    0  502  0.21910812959E+03 -0.16291273887E+03 -0.80332008702E+03  0.84845277143E+03  0.10100000352E+00 0. -1.
</event>
<event>
 5   0  0.7770905E-04  0.1597162E+04  0.7818609E-02  0.8822293E-01
        2   -1    0    0  501    0  0.00000000000E+00  0.00000000000E+00  0.99190294890E+03  0.99190294890E+03  0.25500000920E-02 0.  1.
       -2   -1    0    0    0  501  0.00000000000E+00  0.00000000000E+00 -0.64293774117E+03  0.64293774118E+03  0.25500000920E-02 0. -1.
    10030    2    1    2    0    0  0.00000000000E+00  0.00000000000E+00  0.34896520773E+03  0.16348406901E+04  0.15971622853E+04 0.  0.
        2    1    3    3  502    0  0.59617448417E+03  0.32881124339E+03 -0.25272525996E+03  0.72623061515E+03  0.25500000920E-02 0. -1.
       -2    1    3    3    0  502 -0.59617448417E+03 -0.32881124339E+03  0.60169046768E+03  0.90861007493E+03  0.25500000920E-02 0.  1.
</event>
<event>
 5   0  0.3950195E-04  0.1586749E+04  0.7818609E-02  0.8828730E-01
        1   -1    0    0  501    0  0.00000000000E+00  0.00000000000E+00  0.99920883132E+03  0.99920883133E+03  0.50400001928E-02 0.  1.
       -1   -1    0    0    0  501  0.00000000000E+00  0.00000000000E+00 -0.62994152983E+03  0.62994152985E+03  0.50400001928E-02 0. -1.
    10030    2    1    2    0    0  0.00000000000E+00  0.00000000000E+00  0.36926730149E+03  0.16291503612E+04  0.15867490537E+04 0.  0.
        2    1    3    3  502    0  0.62492180268E+03  0.46134185348E+03  0.35044076950E+03  0.85215743743E+03  0.25500000920E-02 0.  1.
       -2    1    3    3    0  502 -0.62492180268E+03 -0.46134185348E+03  0.18826531992E+02  0.77699292375E+03  0.25500000920E-02 0. -1.
</event>
<event>
 5   0  0.3837251E-04  0.1597796E+04  0.7818609E-02  0.8821903E-01
       -1   -1    0    0    0  501  0.00000000000E+00  0.00000000000E+00  0.74699228016E+03  0.74699228018E+03  0.50400001928E-02 0. -1.
        1   -1    0    0  501    0  0.00000000000E+00  0.00000000000E+00 -0.85441062094E+03  0.85441062096E+03  0.50400001928E-02 0.  1.
    10030    2    1    2    0    0  0.00000000000E+00  0.00000000000E+00 -0.10741834078E+03  0.16014029011E+04  0.15977961547E+04 0.  0.
        4    1    3    3  502    0 -0.60358305945E+02  0.84889865474E+02 -0.84757486545E+03  0.85395209456E+03  0.12699999809E+01 0.  1.
       -4    1    3    3    0  502  0.60358305945E+02 -0.84889865474E+02  0.74015652467E+03  0.74745080658E+03  0.12699999809E+01 0. -1.
</event>
<event>
 5   0  0.3837251E-04  0.1599776E+04  0.7818609E-02  0.8820685E-01
       -1   -1    0    0    0  501  0.00000000000E+00  0.00000000000E+00  0.12846376107E+04  0.12846376107E+04  0.50400001928E-02 0.  1.
        1   -1    0    0  501    0  0.00000000000E+00  0.00000000000E+00 -0.49805562773E+03  0.49805562776E+03  0.50400001928E-02 0. -1.
    10030    2    1    2    0    0  0.00000000000E+00  0.00000000000E+00  0.78658198296E+03  0.17826932385E+04  0.15997762239E+04 0.  0.
        4    1    3    3  502    0 -0.73430105061E+02 -0.12168979793E+03  0.12704528510E+04  0.12783788354E+04  0.12699999809E+01 0.  1.
       -4    1    3    3    0  502  0.73430105061E+02  0.12168979793E+03 -0.48387086807E+03  0.50431440305E+03  0.12699999809E+01 0. -1.
</event>
<event>
 5   0  0.7770905E-04  0.1584237E+04  0.7818609E-02  0.8830291E-01
        2   -1    0    0  501    0  0.00000000000E+00  0.00000000000E+00  0.10329327596E+04  0.10329327596E+04  0.25500000920E-02 0. -1.
       -2   -1    0    0    0  501  0.00000000000E+00  0.00000000000E+00 -0.60744709577E+03  0.60744709577E+03  0.25500000920E-02 0.  1.
    10030    2    1    2    0    0  0.00000000000E+00  0.00000000000E+00  0.42548566381E+03  0.16403798553E+04  0.15842373622E+04 0.  0.
        2    1    3    3  502    0  0.57854433295E+03 -0.47132491755E+03  0.48784860871E+03  0.89154752432E+03  0.25500000920E-02 0. -1.
       -2    1    3    3    0  502 -0.57854433295E+03  0.47132491755E+03 -0.62362944902E+02  0.74883233103E+03  0.25500000920E-02 0.  1.
</event>
<event>
 5   0  0.3889847E-04  0.1625073E+04  0.7818609E-02  0.8805291E-01
        1   -1    0    0  501    0  0.00000000000E+00  0.00000000000E+00  0.13124366624E+04  0.13124366625E+04  0.50400001928E-02 0. -1.
       -1   -1    0    0    0  501  0.00000000000E+00  0.00000000000E+00 -0.50304583167E+03  0.50304583169E+03  0.50400001928E-02 0.  1.
    10030    2    1    2    0    0  0.00000000000E+00  0.00000000000E+00  0.80939083077E+03  0.18154824941E+04  0.16250732813E+04 0.  0.
        1    1    3    3  502    0 -0.61769940291E+02  0.12672530085E+03 -0.48927831828E+03  0.50918375874E+03  0.50400001928E-02 0.  1.
       -1    1    3    3    0  502  0.61769940291E+02 -0.12672530085E+03  0.12986691491E+04  0.13062987354E+04  0.50400001928E-02 0. -1.
</event>
<event>
 5   0  0.7770905E-04  0.1608359E+04  0.7818609E-02  0.8815429E-01
       -2   -1    0    0    0  501  0.00000000000E+00  0.00000000000E+00  0.88080292418E+03  0.88080292418E+03  0.25500000920E-02 0.  1.
        2   -1    0    0  501    0  0.00000000000E+00  0.00000000000E+00 -0.73422143149E+03  0.73422143150E+03  0.25500000920E-02 0. -1.
    10030    2    1    2    0    0  0.00000000000E+00  0.00000000000E+00  0.14658149269E+03  0.16150243557E+04  0.16083586464E+04 0.  0.
        2    1    3    3  502    0  0.26988971305E+03 -0.60899671206E+03 -0.37911719231E+03  0.76645110609E+03  0.25500000920E-02 0. -1.
       -2    1    3    3    0  502 -0.26988971305E+03  0.60899671206E+03  0.52569868500E+03  0.84857324959E+03  0.25500000920E-02 0.  1.
</event>
<event>
 5   0  0.7770905E-04  0.1607497E+04  0.7818609E-02  0.8815956E-01
       -2   -1    0    0    0  501  0.00000000000E+00  0.00000000000E+00  0.51071821948E+03  0.51071821948E+03  0.25500000920E-02 0.  1.
        2   -1    0    0  501    0  0.00000000000E+00  0.00000000000E+00 -0.12649080522E+04  0.12649080522E+04  0.25500000920E-02 0. -1.
    10030    2    1    2    0    0  0.00000000000E+00  0.00000000000E+00 -0.75418983276E+03  0.17756262717E+04  0.16074969216E+04 0.  0.
        2    1    3    3  502    0 -0.56503793328E+03  0.54494396753E+02 -0.10056197665E+04  0.11547764373E+04  0.25500000920E-02 0. -1.
       -2    1    3    3    0  502  0.56503793328E+03 -0.54494396753E+02  0.25142993375E+03  0.62084983443E+03  0.25500000920E-02 0.  1.
</event>
<event>
 5   0  0.7770905E-04  0.1598581E+04  0.7818609E-02  0.8821420E-01
       -2   -1    0    0    0  501  0.00000000000E+00  0.00000000000E+00  0.44914125486E+03  0.44914125487E+03  0.25500000920E-02 0. -1.
        2   -1    0    0  501    0  0.00000000000E+00  0.00000000000E+00 -0.14224153027E+04  0.14224153027E+04  0.25500000920E-02 0.  1.
    10030    2    1    2    0    0  0.00000000000E+00  0.00000000000E+00 -0.97327404781E+03  0.18715565575E+04  0.15985811133E+04 0.  0.
        2    1    3    3  502    0 -0.17032956795E+03 -0.58842590793E+01  0.42762064985E+03  0.46033271273E+03  0.25500000920E-02 0. -1.
       -2    1    3    3    0  502  0.17032956795E+03  0.58842590793E+01 -0.14008946977E+04  0.14112238448E+04  0.25500000920E-02 0.  1.
</event>
<event>
 5   0  0.7395088E-04  0.1580480E+04  0.7818609E-02  0.8832630E-01
       -2   -1    0    0    0  501  0.00000000000E+00  0.00000000000E+00  0.63921409243E+03  0.63921409243E+03  0.25500000920E-02 0. -1.
        2   -1    0    0  501    0  0.00000000000E+00  0.00000000000E+00 -0.97694843986E+03  0.97694843986E+03  0.25500000920E-02 0.  1.
    10030    2    1    2    0    0  0.00000000000E+00  0.00000000000E+00 -0.33773434743E+03  0.16161625323E+04  0.15804799402E+04 0.  0.
        1    1    3    3  502    0  0.51154873215E+03  0.38861982280E+03 -0.63944346963E+03  0.90641901068E+03  0.50400001928E-02 0.  1.
       -1    1    3    3    0  502 -0.51154873215E+03 -0.38861982280E+03  0.30170912220E+03  0.70974352162E+03  0.50400001928E-02 0. -1.
</event>
<event>
 5   0  0.3950195E-04  0.1589734E+04  0.7818609E-02  0.8826880E-01
        1   -1    0    0  501    0  0.00000000000E+00  0.00000000000E+00  0.36798769370E+03  0.36798769373E+03  0.50400001928E-02 0.  1.
       -1   -1    0    0    0  501  0.00000000000E+00  0.00000000000E+00 -0.17169425907E+04  0.17169425907E+04  0.50400001928E-02 0. -1.
    10030    2    1    2    0    0  0.00000000000E+00  0.00000000000E+00 -0.13489548970E+04  0.20849302845E+04  0.15897342472E+04 0.  0.
        2    1    3    3  502    0  0.23522424572E+03  0.15925790911E+03 -0.16480990003E+04  0.16724006226E+04  0.25500000920E-02 0. -1.
       -2    1    3    3    0  502 -0.23522424572E+03 -0.15925790911E+03  0.29914410332E+03  0.41252966190E+03  0.25500000920E-02 0.  1.
</event>
<event>
 5   0  0.7553070E-04  0.1586062E+04  0.7818609E-02  0.8829157E-01
        2   -1    0    0  501    0  0.00000000000E+00  0.00000000000E+00  0.27864803865E+04  0.27864803865E+04  0.25500000920E-02 0.  1.
       -2   -1    0    0    0  501  0.00000000000E+00  0.00000000000E+00 -0.22569612560E+03  0.22569612562E+03  0.25500000920E-02 0. -1.
    10030    2    1    2    0    0  0.00000000000E+00  0.00000000000E+00  0.25607842609E+04  0.30121765121E+04  0.15860615717E+04 0.  0.
        4    1    3    3  502    0 -0.64857139276E+03 -0.43195028606E+03  0.10008205833E+04  0.12684121388E+04  0.12699999809E+01 0. -1.
       -4    1    3    3    0  502  0.64857139276E+03  0.43195028606E+03  0.15599636776E+04  0.17437643733E+04  0.12699999809E+01 0.  1.
</event>
<event>
 5   0  0.7415102E-04  0.1696208E+04  0.7818609E-02  0.8763530E-01
        2   -1    0    0  501    0  0.00000000000E+00  0.00000000000E+00  0.13031568279E+04  0.13031568279E+04  0.25500000920E-02 0.  1.
       -2   -1    0    0    0  501  0.00000000000E+00  0.00000000000E+00 -0.55195218638E+03  0.55195218639E+03  0.25500000920E-02 0. -1.
    10030    2    1    2    0    0  0.00000000000E+00  0.00000000000E+00  0.75120464156E+03  0.18551090143E+04  0.16962078415E+04 0.  0.
        5    1    3    3  502    0 -0.33602361519E+03  0.16451145107E+03  0.12080088770E+04  0.12646277809E+04  0.46999998093E+01 0.  1.
       -5    1    3    3    0  502  0.33602361519E+03 -0.16451145107E+03 -0.45680423541E+03  0.59048123339E+03  0.46999998093E+01 0. -1.
</event>
<event>
 5   0  0.3973227E-04  0.1592002E+04  0.7818609E-02  0.8825477E-01
       -1   -1    0    0    0  501  0.00000000000E+00  0.00000000000E+00  0.53893712095E+03  0.53893712097E+03  0.50400001928E-02 0. -1.
        1   -1    0    0  501    0  0.00000000000E+00  0.00000000000E+00 -0.11756799929E+04  0.11756799929E+04  0.50400001928E-02 0.  1.
    10030    2    1    2    0    0  0.00000000000E+00  0.00000000000E+00 -0.63674287191E+03  0.17146171138E+04  0.15920019982E+04 0.  0.
        3    1    3    3  502    0 -0.97637295736E+02  0.45287064880E+03 -0.10155223182E+04  0.11162035903E+04  0.10100000352E+00 0.  1.
       -3    1    3    3    0  502  0.97637295736E+02 -0.45287064880E+03  0.37877944626E+03  0.59841352355E+03  0.10100000352E+00 0. -1.
</event>
<event>
 5   0  0.7415102E-04  0.1511607E+04  0.7818609E-02  0.8876771E-01
        2   -1    0    0  501    0  0.00000000000E+00  0.00000000000E+00  0.12851447434E+04  0.12851447434E+04  0.25500000920E-02 0. -1.
       -2   -1    0    0    0  501  0.00000000000E+00  0.00000000000E+00 -0.44449412313E+03  0.44449412314E+03  0.25500000920E-02 0.  1.
    10030    2    1    2    0    0  0.00000000000E+00  0.00000000000E+00  0.84065062031E+03  0.17296388666E+04  0.15116074700E+04 0.  0.
        5    1    3    3  502    0 -0.15500873267E+01  0.20712433804E+03  0.12520174364E+04  0.12690439887E+04  0.46999998093E+01 0. -1.
       -5    1    3    3    0  502  0.15500873267E+01 -0.20712433804E+03 -0.41136681608E+03  0.46059487790E+03  0.46999998093E+01 0.  1.
</event>
<event>
 5   0  0.4110803E-04  0.1678229E+04  0.7818609E-02  0.8773879E-01
       -1   -1    0    0    0  501  0.00000000000E+00  0.00000000000E+00  0.45757216607E+03  0.45757216609E+03  0.50400001928E-02 0. -1.
        1   -1    0    0  501    0  0.00000000000E+00  0.00000000000E+00 -0.15388026059E+04  0.15388026059E+04  0.50400001928E-02 0.  1.
    10030    2    1    2    0    0  0.00000000000E+00  0.00000000000E+00 -0.10812304398E+04  0.19963747720E+04  0.16782291161E+04 0.  0.
        5    1    3    3  502    0 -0.67793001082E+02 -0.77651370506E+03 -0.91019088078E+03  0.11983484279E+04  0.46999998093E+01 0.  1.
       -5    1    3    3    0  502  0.67793001082E+02  0.77651370506E+03 -0.17103955904E+03  0.79802634411E+03  0.46999998093E+01 0. -1.
</event>
<event>
 5   0  0.7415102E-04  0.1611305E+04  0.7818609E-02  0.8813633E-01
        2   -1    0    0  501    0  0.00000000000E+00  0.00000000000E+00  0.85224477551E+03  0.85224477551E+03  0.25500000920E-02 0.  1.
       -2   -1    0    0    0  501  0.00000000000E+00  0.00000000000E+00 -0.76160733803E+03  0.76160733803E+03  0.25500000920E-02 0. -1.
    10030    2    1    2    0    0  0.00000000000E+00  0.00000000000E+00  0.90637437480E+02  0.16138521135E+04  0.16113049058E+04 0.  0.
        5    1    3    3  502    0  0.23444615978E+03  0.52835601514E+03 -0.51675351163E+03  0.77535886037E+03  0.46999998093E+01 0. -1.
       -5    1    3    3    0  502 -0.23444615978E+03 -0.52835601514E+03  0.60739094911E+03  0.83849325318E+03  0.46999998093E+01 0.  1.
</event>
<event>
 5   0  0.7770905E-04  0.1533809E+04  0.7818609E-02  0.8862276E-01
       -2   -1    0    0    0  501  0.00000000000E+00  0.00000000000E+00  0.71781522665E+03  0.71781522666E+03  0.25500000920E-02 0.  1.
        2   -1    0    0  501    0  0.00000000000E+00  0.00000000000E+00 -0.81935118180E+03  0.81935118180E+03  0.25500000920E-02 0. -1.
    10030    2    1    2    0    0  0.00000000000E+00  0.00000000000E+00 -0.10153595515E+03  0.15371664085E+04  0.15338093158E+04 0.  0.
        2    1    3    3  502    0 -0.13719951300E+03  0.48577429284E+02 -0.80538300365E+03  0.81842852808E+03  0.25500000920E-02 0. -1.
       -2    1    3    3    0  502  0.13719951300E+03 -0.48577429284E+02  0.70384704850E+03  0.71873788038E+03  0.25500000920E-02 0.  1.
</event>
<event>
 5   0  0.3889847E-04  0.1602252E+04  0.7818609E-02  0.8819166E-01
        1   -1    0    0  501    0  0.00000000000E+00  0.00000000000E+00  0.86941712359E+03  0.86941712360E+03  0.50400001928E-02 0.  1.
       -1   -1    0    0    0  501  0.00000000000E+00  0.00000000000E+00 -0.73819866341E+03  0.73819866343E+03  0.50400001928E-02 0. -1.
    10030    2    1    2    0    0  0.00000000000E+00  0.00000000000E+00  0.13121846017E+03  0.16076157870E+04  0.16022516140E+04 0.  0.
        1    1    3    3  502    0  0.10528925301E+03  0.39107078423E+03  0.75913994133E+03  0.86041596663E+03  0.50400001928E-02 0.  1.
       -1    1    3    3    0  502 -0.10528925301E+03 -0.39107078423E+03 -0.62792148116E+03  0.74719982040E+03  0.50400001928E-02 0. -1.
</event>
<event>
 5   0  0.3973227E-04  0.1599607E+04  0.7818609E-02  0.8820789E-01
        1   -1    0    0  501    0  0.00000000000E+00  0.00000000000E+00  0.92723851203E+03  0.92723851204E+03  0.50400001928E-02 0.  1.
       -1   -1    0    0    0  501  0.00000000000E+00  0.00000000000E+00 -0.68988259274E+03  0.68988259276E+03  0.50400001928E-02 0. -1.
    10030    2    1    2    0    0  0.00000000000E+00  0.00000000000E+00  0.23735591929E+03  0.16171211048E+04  0.15996070877E+04 0.  0.
        3    1    3    3  502    0  0.56233357936E+03 -0.13641170787E+03 -0.43950731131E+03  0.72663188439E+03  0.10100000352E+00 0. -1.
       -3    1    3    3    0  502 -0.56233357936E+03  0.13641170787E+03  0.67686323061E+03  0.89048922041E+03  0.10100000352E+00 0.  1.
</event>
<event>
 5   0  0.7553070E-04  0.1595542E+04  0.7818609E-02  0.8823292E-01
        2   -1    0    0  501    0  0.00000000000E+00  0.00000000000E+00  0.61532715670E+03  0.61532715670E+03  0.25500000920E-02 0. -1.
       -2   -1    0    0    0  501  0.00000000000E+00  0.00000000000E+00 -0.10343088041E+04  0.10343088041E+04  0.25500000920E-02 0.  1.
    10030    2    1    2    0    0  0.00000000000E+00  0.00000000000E+00 -0.41898164744E+03  0.16496359608E+04  0.15955416580E+04 0.  0.
        4    1    3    3  502    0  0.31428265160E+03  0.24308370806E+03  0.50575321949E+03  0.64315721729E+03  0.12699999809E+01 0. -1.
       -4    1    3    3    0  502 -0.31428265160E+03 -0.24308370806E+03 -0.92473486693E+03  0.10064787436E+04  0.12699999809E+01 0.  1.
</event>
<event>
 5   0  0.7553070E-04  0.1593589E+04  0.7818609E-02  0.8824496E-01
       -2   -1    0    0    0  501  0.00000000000E+00  0.00000000000E+00  0.86190003017E+03  0.86190003017E+03  0.25500000920E-02 0. -1.
        2   -1    0    0  501    0  0.00000000000E+00  0.00000000000E+00 -0.73660658854E+03  0.73660658855E+03  0.25500000920E-02 0.  1.
    10030    2    1    2    0    0  0.00000000000E+00  0.00000000000E+00  0.12529344162E+03  0.15985066187E+04  0.15935887059E+04 0.  0.
        4    1    3    3  502    0  0.65848776082E+02 -0.34526709550E+03 -0.65463640801E+03  0.74303153913E+03  0.12699999809E+01 0.  1.
       -4    1    3    3    0  502 -0.65848776082E+02  0.34526709550E+03  0.77992984963E+03  0.85547507959E+03  0.12699999809E+01 0. -1.
</event>
<event>
 5   0  0.7395088E-04  0.1585994E+04  0.7818609E-02  0.8829199E-01
       -2   -1    0    0    0  501  0.00000000000E+00  0.00000000000E+00  0.49929391031E+03  0.49929391032E+03  0.25500000920E-02 0.  1.
        2   -1    0    0  501    0  0.00000000000E+00  0.00000000000E+00 -0.12594665454E+04  0.12594665454E+04  0.25500000920E-02 0. -1.
    10030    2    1    2    0    0  0.00000000000E+00  0.00000000000E+00 -0.76017263509E+03  0.17587604557E+04  0.15859936650E+04 0.  0.
        1    1    3    3  502    0 -0.49831273846E+03  0.54838985092E+03 -0.69334161489E+03  0.10147756446E+04  0.50400001928E-02 0. -1.
       -1    1    3    3    0  502  0.49831273846E+03 -0.54838985092E+03 -0.66831020198E+02  0.74398481113E+03  0.50400001928E-02 0.  1.
</event>
<event>
 5   0  0.7415102E-04  0.1599163E+04  0.7818609E-02  0.8821062E-01
       -2   -1    0    0    0  501  0.00000000000E+00  0.00000000000E+00  0.45068739128E+03  0.45068739129E+03  0.25500000920E-02 0. -1.
        2   -1    0    0  501    0  0.00000000000E+00  0.00000000000E+00 -0.14185678212E+04  0.14185678212E+04  0.25500000920E-02 0.  1.
    10030    2    1    2    0    0  0.00000000000E+00  0.00000000000E+00 -0.96788042994E+03  0.18692552125E+04  0.15991630695E+04 0.  0.
        5    1    3    3  502    0  0.38755422419E+03  0.45596159217E+02 -0.12996849222E+04  0.13570115229E+04  0.46999998093E+01 0.  1.
       -5    1    3    3    0  502 -0.38755422419E+03 -0.45596159217E+02  0.33180449225E+03  0.51224368957E+03  0.46999998093E+01 0. -1.
</event>
<event>
 5   0  0.3973227E-04  0.1603143E+04  0.7818609E-02  0.8818619E-01
       -1   -1    0    0    0  501  0.00000000000E+00  0.00000000000E+00  0.44895290685E+03  0.44895290687E+03  0.50400001928E-02 0. -1.
        1   -1    0    0  501    0  0.00000000000E+00  0.00000000000E+00 -0.14311459100E+04  0.14311459100E+04  0.50400001928E-02 0.  1.
    10030    2    1    2    0    0  0.00000000000E+00  0.00000000000E+00 -0.98219300318E+03  0.18800988169E+04  0.16031433080E+04 0.  0.
        3    1    3    3  502    0 -0.50792288670E+03  0.12494765260E+03  0.22122188378E+03  0.56792315219E+03  0.10100000352E+00 0. -1.
       -3    1    3    3    0  502  0.50792288670E+03 -0.12494765260E+03 -0.12034148870E+04  0.13121756647E+04  0.10100000352E+00 0.  1.
</event>
<event>
 5   0  0.3889847E-04  0.1596313E+04  0.7818609E-02  0.8822816E-01
       -1   -1    0    0    0  501  0.00000000000E+00  0.00000000000E+00  0.49765629725E+03  0.49765629727E+03  0.50400001928E-02 0.  1.
        1   -1    0    0  501    0  0.00000000000E+00  0.00000000000E+00 -0.12801085103E+04  0.12801085103E+04  0.50400001928E-02 0. -1.
    10030    2    1    2    0    0  0.00000000000E+00  0.00000000000E+00 -0.78245221302E+03  0.17777648076E+04  0.15963133293E+04 0.  0.
        1    1    3    3  502    0  0.58014117152E+03 -0.42597129202E+03 -0.77546411858E+03  0.10579980717E+04  0.50400001928E-02 0.  1.
       -1    1    3    3    0  502 -0.58014117152E+03  0.42597129202E+03 -0.69880944422E+01  0.71976673583E+03  0.50400001928E-02 0. -1.
</event>
<event>
 5   0  0.7770905E-04  0.1627931E+04  0.7818609E-02  0.8803570E-01
        2   -1    0    0  501    0  0.00000000000E+00  0.00000000000E+00  0.15093811756E+04  0.15093811756E+04  0.25500000920E-02 0. -1.
       -2   -1    0    0    0  501  0.00000000000E+00  0.00000000000E+00 -0.43894810987E+03  0.43894810988E+03  0.25500000920E-02 0.  1.
    10030    2    1    2    0    0  0.00000000000E+00  0.00000000000E+00  0.10704330657E+04  0.19483292854E+04  0.16279312198E+04 0.  0.
        2    1    3    3  502    0  0.65621059657E+03  0.30298071885E+03  0.87201680731E+02  0.72802046411E+03  0.25500000920E-02 0.  1.
       -2    1    3    3    0  502 -0.65621059657E+03 -0.30298071885E+03  0.98323138496E+03  0.12203088213E+04  0.25500000920E-02 0. -1.
</event>
<event>
 5   0  0.4110803E-04  0.1184360E+04  0.7818609E-02  0.9126658E-01
        1   -1    0    0  501    0  0.00000000000E+00  0.00000000000E+00  0.84745770063E+03  0.84745770064E+03  0.50400001928E-02 0. -1.
       -1   -1    0    0    0  501  0.00000000000E+00  0.00000000000E+00 -0.41379888864E+03  0.41379888867E+03  0.50400001928E-02 0.  1.
    10030    2    1    2    0    0  0.00000000000E+00  0.00000000000E+00  0.43365881199E+03  0.12612565893E+04  0.11843598350E+04 0.  0.
        5    1    3    3  502    0  0.26561565185E+03 -0.22529972997E+03  0.72682077553E+03  0.80597901497E+03  0.46999998093E+01 0. -1.
       -5    1    3    3    0  502 -0.26561565185E+03  0.22529972997E+03 -0.29316196354E+03  0.45527757434E+03  0.46999998093E+01 0.  1.
</event>
<event>
 5   0  0.3889847E-04  0.1600832E+04  0.7818609E-02  0.8820037E-01
       -1   -1    0    0    0  501  0.00000000000E+00  0.00000000000E+00  0.40623941487E+03  0.40623941490E+03  0.50400001928E-02 0.  1.
        1   -1    0    0  501    0  0.00000000000E+00  0.00000000000E+00 -0.15770645064E+04  0.15770645064E+04  0.50400001928E-02 0. -1.
    10030    2    1    2    0    0  0.00000000000E+00  0.00000000000E+00 -0.11708250915E+04  0.19833039213E+04  0.16008319866E+04 0.  0.
        1    1    3    3  502    0 -0.48326139314E+03 -0.58667291639E+03 -0.27459630513E+03  0.80816447319E+03  0.50400001928E-02 0.  1.
       -1    1    3    3    0  502  0.48326139314E+03  0.58667291639E+03 -0.89622878637E+03  0.11751394481E+04  0.50400001928E-02 0. -1.
</event>
<event>
 5   0  0.3950195E-04  0.1576931E+04  0.7818609E-02  0.8834847E-01
        1   -1    0    0  501    0  0.00000000000E+00  0.00000000000E+00  0.14539134029E+04  0.14539134029E+04  0.50400001928E-02 0.  1.
       -1   -1    0    0    0  501  0.00000000000E+00  0.00000000000E+00 -0.42758922266E+03  0.42758922269E+03  0.50400001928E-02 0. -1.
    10030    2    1    2    0    0  0.00000000000E+00  0.00000000000E+00  0.10263241803E+04  0.18815026256E+04  0.15769308188E+04 0.  0.
        2    1    3    3  502    0 -0.24144104993E+03 -0.71915205147E+03  0.25669411597E+03  0.80085287219E+03  0.25500000920E-02 0. -1.
       -2    1    3    3    0  502  0.24144104993E+03  0.71915205147E+03  0.76963006429E+03  0.10806497534E+04  0.25500000920E-02 0.  1.
</event>
<event>
 5   0  0.7770905E-04  0.1601973E+04  0.7818609E-02  0.8819337E-01
        2   -1    0    0  501    0  0.00000000000E+00  0.00000000000E+00  0.17559360425E+04  0.17559360425E+04  0.25500000920E-02 0. -1.
       -2   -1    0    0    0  501  0.00000000000E+00  0.00000000000E+00 -0.36537748491E+03  0.36537748492E+03  0.25500000920E-02 0.  1.
    10030    2    1    2    0    0  0.00000000000E+00  0.00000000000E+00  0.13905585576E+04  0.21213135275E+04  0.16019731520E+04 0.  0.
        2    1    3    3  502    0  0.43398323128E+02 -0.70018109535E+03  0.12071811426E+04  0.13962174945E+04  0.25500000920E-02 0. -1.
       -2    1    3    3    0  502 -0.43398323128E+02  0.70018109535E+03  0.18337741500E+03  0.72509603300E+03  0.25500000920E-02 0.  1.
</event>
<event>
 5   0  0.7488884E-04  0.1470350E+04  0.7818609E-02  0.8904413E-01
        2   -1    0    0  501    0  0.00000000000E+00  0.00000000000E+00  0.17329366349E+04  0.17329366349E+04  0.25500000920E-02 0.  1.
       -2   -1    0    0    0  501  0.00000000000E+00  0.00000000000E+00 -0.31188814206E+03  0.31188814207E+03  0.25500000920E-02 0. -1.
    10030    2    1    2    0    0  0.00000000000E+00  0.00000000000E+00  0.14210484928E+04  0.20448247770E+04  0.14703501452E+04 0.  0.
        3    1    3    3  502    0 -0.30493711978E+03 -0.57863579040E+03  0.11773466812E+04  0.13468300720E+04  0.10100000352E+00 0. -1.
       -3    1    3    3    0  502  0.30493711978E+03  0.57863579040E+03  0.24370181166E+03  0.69799470497E+03  0.10100000352E+00 0.  1.
</event>
<event>
 5   0  0.4110803E-04  0.1556779E+04  0.7818609E-02  0.8847549E-01
       -1   -1    0    0    0  501  0.00000000000E+00  0.00000000000E+00  0.13004227624E+04  0.13004227624E+04  0.50400001928E-02 0.  1.
        1   -1    0    0  501    0  0.00000000000E+00  0.00000000000E+00 -0.46591807731E+03  0.46591807734E+03  0.50400001928E-02 0. -1.
    10030    2    1    2    0    0  0.00000000000E+00  0.00000000000E+00  0.83450468505E+03  0.17663408397E+04  0.15567793333E+04 0.  0.
        5    1    3    3  502    0 -0.70862687717E+03 -0.26208514092E+03  0.62960286401E+03  0.98349505769E+03  0.46999998093E+01 0.  1.
       -5    1    3    3    0  502  0.70862687717E+03  0.26208514092E+03  0.20490182105E+03  0.78284578201E+03  0.46999998093E+01 0. -1.
</event>
<event>
 5   0  0.3889847E-04  0.1500439E+04  0.7818609E-02  0.8884161E-01
        1   -1    0    0  501    0  0.00000000000E+00  0.00000000000E+00  0.87223540987E+03  0.87223540989E+03  0.50400001928E-02 0.  1.
       -1   -1    0    0    0  501  0.00000000000E+00  0.00000000000E+00 -0.64527254566E+03  0.64527254568E+03  0.50400001928E-02 0. -1.
    10030    2    1    2    0    0  0.00000000000E+00  0.00000000000E+00  0.22696286422E+03  0.15175079556E+04  0.15004393535E+04 0.  0.
        1    1    3    3  502    0  0.42971619992E+03  0.56304931943E+03 -0.13661486534E+03  0.72134885461E+03  0.50400001928E-02 0. -1.
       -1    1    3    3    0  502 -0.42971619992E+03 -0.56304931943E+03  0.36357772956E+03  0.79615910096E+03  0.50400001928E-02 0.  1.
</event>
<event>
 5   0  0.3973227E-04  0.1596035E+04  0.7818609E-02  0.8822988E-01
        1   -1    0    0  501    0  0.00000000000E+00  0.00000000000E+00  0.17818567712E+04  0.17818567712E+04  0.50400001928E-02 0.  1.
       -1   -1    0    0    0  501  0.00000000000E+00  0.00000000000E+00 -0.35739785363E+03  0.35739785367E+03  0.50400001928E-02 0. -1.
    10030    2    1    2    0    0  0.00000000000E+00  0.00000000000E+00  0.14244589176E+04  0.21392546249E+04  0.15960348186E+04 0.  0.
        3    1    3    3  502    0  0.31073560096E+02  0.49368502745E+02  0.17789952384E+04  0.17799513711E+04  0.10100000352E+00 0.  1.
       -3    1    3    3    0  502 -0.31073560096E+02 -0.49368502745E+02 -0.35453632079E+03  0.35930325376E+03  0.10100000352E+00 0. -1.
</event>
<event>
 5   0  0.7415102E-04  0.1596075E+04  0.7818609E-02  0.8822963E-01
       -2   -1    0    0    0  501  0.00000000000E+00  0.00000000000E+00  0.59184531516E+03  0.59184531516E+03  0.25500000920E-02 0.  1.
        2   -1    0    0  501    0  0.00000000000E+00  0.00000000000E+00 -0.10760644568E+04  0.10760644568E+04  0.25500000920E-02 0. -1.
    10030    2    1    2    0    0  0.00000000000E+00  0.00000000000E+00 -0.48421914160E+03  0.16679097719E+04  0.15960748197E+04 0.  0.
        5    1    3    3  502    0  0.28737337553E+02 -0.15282643044E+02  0.59113692822E+03  0.59205097048E+03  0.46999998093E+01 0.  1.
       -5    1    3    3    0  502 -0.28737337553E+02  0.15282643044E+02 -0.10753560698E+04  0.10758588014E+04  0.46999998093E+01 0. -1.
</event>
<event>
 5   0  0.2781000E-04  0.1596815E+04  0.7818609E-02  0.8822507E-01
       -3   -1    0    0    0  501  0.00000000000E+00  0.00000000000E+00  0.33259142914E+03  0.33259144447E+03  0.10100000352E+00 0.  1.
        3   -1    0    0  501    0  0.00000000000E+00  0.00000000000E+00 -0.19166297261E+04  0.19166297287E+04  0.10100000352E+00 0. -1.
    10030    2    1    2    0    0  0.00000000000E+00  0.00000000000E+00 -0.15840382969E+04  0.22492211732E+04  0.15968151301E+04 0.  0.
        4    1    3    3  502    0 -0.11930707096E+03 -0.54526545194E+03 -0.15961424750E+04  0.16909231217E+04  0.12699999809E+01 0. -1.
       -4    1    3    3    0  502  0.11930707096E+03  0.54526545194E+03  0.12104178048E+02  0.55829805148E+03  0.12699999809E+01 0.  1.
</event>
<event>
 5   0  0.7770905E-04  0.1531024E+04  0.7818609E-02  0.8864081E-01
       -2   -1    0    0    0  501  0.00000000000E+00  0.00000000000E+00  0.74647322656E+03  0.74647322656E+03  0.25500000920E-02 0.  1.
        2   -1    0    0  501    0  0.00000000000E+00  0.00000000000E+00 -0.78503588218E+03  0.78503588218E+03  0.25500000920E-02 0. -1.
    10030    2    1    2    0    0  0.00000000000E+00  0.00000000000E+00 -0.38562655619E+02  0.15315091087E+04  0.15310235373E+04 0.  0.
        2    1    3    3  502    0 -0.68573145270E+03 -0.77048558254E+02 -0.35081390333E+03  0.77410238362E+03  0.25500000920E-02 0. -1.
       -2    1    3    3    0  502  0.68573145270E+03  0.77048558254E+02  0.31225124771E+03  0.75740672512E+03  0.25500000920E-02 0.  1.
</event>
<event>
 5   0  0.7770905E-04  0.1619791E+04  0.7818609E-02  0.8808481E-01
        2   -1    0    0  501    0  0.00000000000E+00  0.00000000000E+00  0.10888333687E+04  0.10888333687E+04  0.25500000920E-02 0. -1.
       -2   -1    0    0    0  501  0.00000000000E+00  0.00000000000E+00 -0.60241614392E+03  0.60241614392E+03  0.25500000920E-02 0.  1.
    10030    2    1    2    0    0  0.00000000000E+00  0.00000000000E+00  0.48641722480E+03  0.16912495126E+04  0.16197910969E+04 0.  0.
        2    1    3    3  502    0 -0.64639040756E+03  0.25305199921E+03  0.67883761582E+03  0.97091522902E+03  0.25500000920E-02 0. -1.
       -2    1    3    3    0  502  0.64639040756E+03 -0.25305199921E+03 -0.19242039102E+03  0.72033428363E+03  0.25500000920E-02 0.  1.
</event>
<event>
 5   0  0.7415102E-04  0.1575984E+04  0.7818609E-02  0.8835440E-01
       -2   -1    0    0    0  501  0.00000000000E+00  0.00000000000E+00  0.54771620930E+03  0.54771620930E+03  0.25500000920E-02 0. -1.
        2   -1    0    0  501    0  0.00000000000E+00  0.00000000000E+00 -0.11336729190E+04  0.11336729190E+04  0.25500000920E-02 0.  1.
    10030    2    1    2    0    0  0.00000000000E+00  0.00000000000E+00 -0.58595670974E+03  0.16813891283E+04  0.15759835454E+04 0.  0.
        5    1    3    3  502    0  0.26618084832E+03 -0.73949578889E+03 -0.23260112345E+03  0.81965336480E+03  0.46999998093E+01 0.  1.
       -5    1    3    3    0  502 -0.26618084832E+03  0.73949578889E+03 -0.35335558629E+03  0.86173576354E+03  0.46999998093E+01 0. -1.
</event>
<event>
 5   0  0.7395088E-04  0.1580140E+04  0.7818609E-02  0.8832842E-01
       -2   -1    0    0    0  501  0.00000000000E+00  0.00000000000E+00  0.44981130611E+03  0.44981130611E+03  0.25500000920E-02 0.  1.
        2   -1    0    0  501    0  0.00000000000E+00  0.00000000000E+00 -0.13877171783E+04  0.13877171783E+04  0.25500000920E-02 0. -1.
    10030    2    1    2    0    0  0.00000000000E+00  0.00000000000E+00 -0.93790587216E+03  0.18375284844E+04  0.15801403437E+04 0.  0.
        1    1    3    3  502    0  0.40383263983E+03 -0.24364316294E+03  0.26814659647E+03  0.54253607167E+03  0.50400001928E-02 0.  1.
       -1    1    3    3    0  502 -0.40383263983E+03  0.24364316294E+03 -0.12060524686E+04  0.12949924127E+04  0.50400001928E-02 0. -1.
</event>
<event>
 5   0  0.7770905E-04  0.1593914E+04  0.7818609E-02  0.8824295E-01
        2   -1    0    0  501    0  0.00000000000E+00  0.00000000000E+00  0.10270387749E+04  0.10270387749E+04  0.25500000920E-02 0. -1.
       -2   -1    0    0    0  501  0.00000000000E+00  0.00000000000E+00 -0.61841949208E+03  0.61841949209E+03  0.25500000920E-02 0.  1.
    10030    2    1    2    0    0  0.00000000000E+00  0.00000000000E+00  0.40861928284E+03  0.16454582670E+04  0.15939144237E+04 0.  0.
        2    1    3    3  502    0  0.11000803485E+03 -0.28134776322E+03 -0.55702291251E+03  0.63366620287E+03  0.25500000920E-02 0.  1.
       -2    1    3    3    0  502 -0.11000803485E+03  0.28134776322E+03  0.96564219535E+03  0.10117920641E+04  0.25500000920E-02 0. -1.
</event>
<event>
 5   0  0.7395088E-04  0.1616604E+04  0.7818609E-02  0.8810412E-01
        2   -1    0    0  501    0  0.00000000000E+00  0.00000000000E+00  0.95420365099E+03  0.95420365099E+03  0.25500000920E-02 0.  1.
       -2   -1    0    0    0  501  0.00000000000E+00  0.00000000000E+00 -0.68470956965E+03  0.68470956965E+03  0.25500000920E-02 0. -1.
    10030    2    1    2    0    0  0.00000000000E+00  0.00000000000E+00  0.26949408134E+03  0.16389132206E+04  0.16166043068E+04 0.  0.
        1    1    3    3  502    0  0.44154255790E+03  0.51138976386E+03  0.58457387753E+03  0.89342371769E+03  0.50400001928E-02 0.  1.
       -1    1    3    3    0  502 -0.44154255790E+03 -0.51138976386E+03 -0.31507979620E+03  0.74548950295E+03  0.50400001928E-02 0. -1.
</event>
<event>
 5   0  0.3837251E-04  0.1599583E+04  0.7818609E-02  0.8820804E-01
       -1   -1    0    0    0  501  0.00000000000E+00  0.00000000000E+00  0.75628025022E+03  0.75628025023E+03  0.50400001928E-02 0. -1.
        1   -1    0    0  501    0  0.00000000000E+00  0.00000000000E+00 -0.84580607778E+03  0.84580607780E+03  0.50400001928E-02 0.  1.
    10030    2    1    2    0    0  0.00000000000E+00  0.00000000000E+00 -0.89525827567E+02  0.16020863280E+04  0.15995829859E+04 0.  0.
        4    1    3    3  502    0  0.45133399747E+03 -0.78098875288E+01 -0.70602449891E+03  0.83799497467E+03  0.12699999809E+01 0.  1.
       -4    1    3    3    0  502 -0.45133399747E+03  0.78098875288E+01  0.61649867134E+03  0.76409135336E+03  0.12699999809E+01 0. -1.
</event>
<event>
 5   0  0.3837251E-04  0.1572208E+04  0.7818609E-02  0.8837806E-01
        1   -1    0    0  501    0  0.00000000000E+00  0.00000000000E+00  0.12830868304E+04  0.12830868304E+04  0.50400001928E-02 0.  1.
       -1   -1    0    0    0  501  0.00000000000E+00  0.00000000000E+00 -0.48161922842E+03  0.48161922844E+03  0.50400001928E-02 0. -1.
    10030    2    1    2    0    0  0.00000000000E+00  0.00000000000E+00  0.80146760202E+03  0.17647060589E+04  0.15722077335E+04 0.  0.
        4    1    3    3  502    0 -0.59699199288E+03 -0.28757120714E+03  0.87543499229E+03  0.10979456623E+04  0.12699999809E+01 0.  1.
       -4    1    3    3    0  502  0.59699199288E+03  0.28757120714E+03 -0.73967390267E+02  0.66676039659E+03  0.12699999809E+01 0. -1.
</event>
<event>
 5   0  0.3837251E-04  0.1488971E+04  0.7818609E-02  0.8891820E-01
        1   -1    0    0  501    0  0.00000000000E+00  0.00000000000E+00  0.49094085531E+03  0.49094085533E+03  0.50400001928E-02 0.  1.
       -1   -1    0    0    0  501  0.00000000000E+00  0.00000000000E+00 -0.11289725994E+04  0.11289725994E+04  0.50400001928E-02 0. -1.
    10030    2    1    2    0    0  0.00000000000E+00  0.00000000000E+00 -0.63803174412E+03  0.16199134548E+04  0.14889711530E+04 0.  0.
        4    1    3    3  502    0 -0.26489105195E+03  0.53011426027E+03  0.17124483777E+03  0.61685882154E+03  0.12699999809E+01 0.  1.
       -4    1    3    3    0  502  0.26489105195E+03 -0.53011426027E+03 -0.80927658190E+03  0.10030546332E+04  0.12699999809E+01 0. -1.
</event>
<event>
 5   0  0.7553070E-04  0.1635558E+04  0.7818609E-02  0.8798996E-01
       -2   -1    0    0    0  501  0.00000000000E+00  0.00000000000E+00  0.37801231188E+03  0.37801231189E+03  0.25500000920E-02 0.  1.
        2   -1    0    0  501    0  0.00000000000E+00  0.00000000000E+00 -0.17691559380E+04  0.17691559380E+04  0.25500000920E-02 0. -1.
    10030    2    1    2    0    0  0.00000000000E+00  0.00000000000E+00 -0.13911436261E+04  0.21471682499E+04  0.16355582854E+04 0.  0.
        4    1    3    3  502    0  0.30479812262E+03  0.15903086802E+03 -0.16696766329E+04  0.17047036058E+04  0.12699999809E+01 0. -1.
       -4    1    3    3    0  502 -0.30479812262E+03 -0.15903086802E+03  0.27853300672E+03  0.44246464408E+03  0.12699999809E+01 0.  1.
</event>
<event>
 5   0  0.4110803E-04  0.1598982E+04  0.7818609E-02  0.8821174E-01
       -1   -1    0    0    0  501  0.00000000000E+00  0.00000000000E+00  0.90266388708E+03  0.90266388709E+03  0.50400001928E-02 0. -1.
        1   -1    0    0  501    0  0.00000000000E+00  0.00000000000E+00 -0.70811057278E+03  0.70811057280E+03  0.50400001928E-02 0.  1.
    10030    2    1    2    0    0  0.00000000000E+00  0.00000000000E+00  0.19455331430E+03  0.16107744599E+04  0.15989819788E+04 0.  0.
        5    1    3    3  502    0 -0.67702295710E+03 -0.38090468737E+03 -0.93101990296E+02  0.78239282709E+03  0.46999998093E+01 0. -1.
       -5    1    3    3    0  502  0.67702295710E+03  0.38090468737E+03  0.28765530459E+03  0.82838163280E+03  0.46999998093E+01 0.  1.
</event>
<event>
 5   0  0.3950195E-04  0.1716756E+04  0.7818609E-02  0.8751865E-01
       -1   -1    0    0    0  501  0.00000000000E+00  0.00000000000E+00  0.63030088626E+03  0.63030088628E+03  0.50400001928E-02 0. -1.
        1   -1    0    0  501    0  0.00000000000E+00  0.00000000000E+00 -0.11689858079E+04  0.11689858079E+04  0.50400001928E-02 0.  1.
    10030    2    1    2    0    0  0.00000000000E+00  0.00000000000E+00 -0.53868492164E+03  0.17992866942E+04  0.17167559999E+04 0.  0.
        2    1    3    3  502    0  0.22905174480E+03  0.49339292073E+03  0.42659067443E+03  0.69128928788E+03  0.25500000920E-02 0. -1.
       -2    1    3    3    0  502 -0.22905174480E+03 -0.49339292073E+03 -0.96527559607E+03  0.11079974063E+04  0.25500000920E-02 0.  1.
</event>
<event>
 5   0  0.3837251E-04  0.1552958E+04  0.7818609E-02  0.8849981E-01
       -1   -1    0    0    0  501  0.00000000000E+00  0.00000000000E+00  0.38264468171E+03  0.38264468175E+03  0.50400001928E-02 0.  1.
        1   -1    0    0  501    0  0.00000000000E+00  0.00000000000E+00 -0.15756641874E+04  0.15756641874E+04  0.50400001928E-02 0. -1.
    10030    2    1    2    0    0  0.00000000000E+00  0.00000000000E+00 -0.11930195057E+04  0.19583088692E+04  0.15529578507E+04 0.  0.
        4    1    3    3  502    0  0.18214416770E+03 -0.49337745925E+03  0.12384003174E+03  0.54031081933E+03  0.12699999809E+01 0.  1.
       -4    1    3    3    0  502 -0.18214416770E+03  0.49337745925E+03 -0.13168595374E+04  0.14179980498E+04  0.12699999809E+01 0. -1.
</event>
<event>
 5   0  0.3837251E-04  0.1582519E+04  0.7818609E-02  0.8831359E-01
        1   -1    0    0  501    0  0.00000000000E+00  0.00000000000E+00  0.52575935286E+03  0.52575935288E+03  0.50400001928E-02 0. -1.
       -1   -1    0    0    0  501  0.00000000000E+00  0.00000000000E+00 -0.11908337616E+04  0.11908337616E+04  0.50400001928E-02 0.  1.
    10030    2    1    2    0    0  0.00000000000E+00  0.00000000000E+00 -0.66507440870E+03  0.17165931144E+04  0.15825194948E+04 0.  0.
        4    1    3    3  502    0  0.44676525062E+03  0.64648465321E+03 -0.23224426918E+03  0.81943920425E+03  0.12699999809E+01 0.  1.
       -4    1    3    3    0  502 -0.44676525062E+03 -0.64648465321E+03 -0.43283013952E+03  0.89715391019E+03  0.12699999809E+01 0. -1.
</event>
<event>
 5   0  0.7488884E-04  0.1449471E+04  0.7818609E-02  0.8918768E-01
        2   -1    0    0  501    0  0.00000000000E+00  0.00000000000E+00  0.13486492119E+04  0.13486492119E+04  0.25500000920E-02 0. -1.
       -2   -1    0    0    0  501  0.00000000000E+00  0.00000000000E+00 -0.38945724658E+03  0.38945724659E+03  0.25500000920E-02 0.  1.
    10030    2    1    2    0    0  0.00000000000E+00  0.00000000000E+00  0.95919196535E+03  0.17381064585E+04  0.14494705360E+04 0.  0.
        3    1    3    3  502    0  0.71527160429E+03 -0.16392500749E+02  0.34099885662E+03  0.79256697660E+03  0.10100000352E+00 0.  1.
       -3    1    3    3    0  502 -0.71527160429E+03  0.16392500749E+02  0.61819310874E+03  0.94553948192E+03  0.10100000352E+00 0. -1.
</event>
<event>
 5   0  0.3950195E-04  0.1663165E+04  0.7818609E-02  0.8782656E-01
        1   -1    0    0  501    0  0.00000000000E+00  0.00000000000E+00  0.73702496365E+03  0.73702496367E+03  0.50400001928E-02 0. -1.
       -1   -1    0    0    0  501  0.00000000000E+00  0.00000000000E+00 -0.93827170138E+03  0.93827170139E+03  0.50400001928E-02 0.  1.
    10030    2    1    2    0    0  0.00000000000E+00  0.00000000000E+00 -0.20124673772E+03  0.16752966651E+04  0.16631652553E+04 0.  0.
        2    1    3    3  502    0  0.75694396835E+02 -0.50584043668E+03 -0.76109308847E+03  0.91698793799E+03  0.25500000920E-02 0.  1.
       -2    1    3    3    0  502 -0.75694396835E+02  0.50584043668E+03  0.55984635075E+03  0.75830872707E+03  0.25500000920E-02 0. -1.
</event>
<event>
 5   0  0.7488884E-04  0.1600421E+04  0.7818609E-02  0.8820289E-01
        2   -1    0    0  501    0  0.00000000000E+00  0.00000000000E+00  0.86775731238E+03  0.86775731238E+03  0.25500000920E-02 0.  1.
       -2   -1    0    0    0  501  0.00000000000E+00  0.00000000000E+00 -0.73792160479E+03  0.73792160479E+03  0.25500000920E-02 0. -1.
    10030    2    1    2    0    0  0.00000000000E+00  0.00000000000E+00  0.12983570759E+03  0.16056789172E+04  0.16004210303E+04 0.  0.
        3    1    3    3  502    0  0.61996491611E+03 -0.48363352229E+03 -0.84160274459E+02  0.79078495375E+03  0.10100000352E+00 0.  1.
       -3    1    3    3    0  502 -0.61996491611E+03  0.48363352229E+03  0.21399598205E+03  0.81489396342E+03  0.10100000352E+00 0. -1.
</event>
<event>
 5   0  0.4110803E-04  0.1570969E+04  0.7818609E-02  0.8838584E-01
       -1   -1    0    0    0  501  0.00000000000E+00  0.00000000000E+00  0.75049402516E+03  0.75049402518E+03  0.50400001928E-02 0.  1.
        1   -1    0    0  501    0  0.00000000000E+00  0.00000000000E+00 -0.82210668832E+03  0.82210668834E+03  0.50400001928E-02 0. -1.
    10030    2    1    2    0    0  0.00000000000E+00  0.00000000000E+00 -0.71612663162E+02  0.15726007135E+04  0.15709693284E+04 0.  0.
        5    1    3    3  502    0  0.29794317959E+03  0.23784697354E+03 -0.72326744007E+03  0.81760577356E+03  0.46999998093E+01 0. -1.
       -5    1    3    3    0  502 -0.29794317959E+03 -0.23784697354E+03  0.65165477691E+03  0.75499493996E+03  0.46999998093E+01 0.  1.
</event>
<event>
 5   0  0.7488884E-04  0.1422933E+04  0.7818609E-02  0.8937384E-01
        2   -1    0    0  501    0  0.00000000000E+00  0.00000000000E+00  0.11195167534E+04  0.11195167534E+04  0.25500000920E-02 0. -1.
       -2   -1    0    0    0  501  0.00000000000E+00  0.00000000000E+00 -0.45214536719E+03  0.45214536720E+03  0.25500000920E-02 0.  1.
    10030    2    1    2    0    0  0.00000000000E+00  0.00000000000E+00  0.66737138618E+03  0.15716621206E+04  0.14229326246E+04 0.  0.
        3    1    3    3  502    0  0.34527191678E+02 -0.30114319514E+03 -0.37725751830E+03  0.48394482770E+03  0.10100000352E+00 0.  1.
       -3    1    3    3    0  502 -0.34527191678E+02  0.30114319514E+03  0.10446289045E+04  0.10877172929E+04  0.10100000352E+00 0. -1.
</event>
<event>
 5   0  0.3973227E-04  0.1492832E+04  0.7818609E-02  0.8889233E-01
       -1   -1    0    0    0  501  0.00000000000E+00  0.00000000000E+00  0.20350622127E+03  0.20350622133E+03  0.50400001928E-02 0. -1.
        1   -1    0    0  501    0  0.00000000000E+00  0.00000000000E+00 -0.27376907834E+04  0.27376907834E+04  0.50400001928E-02 0.  1.
    10030    2    1    2    0    0  0.00000000000E+00  0.00000000000E+00 -0.25341845621E+04  0.29411970047E+04  0.14928323502E+04 0.  0.
        3    1    3    3  502    0 -0.25623738020E+03  0.69526645440E+03 -0.10899477277E+04  0.13179677906E+04  0.10100000352E+00 0. -1.
       -3    1    3    3    0  502  0.25623738020E+03 -0.69526645440E+03 -0.14442368344E+04  0.16232292142E+04  0.10100000352E+00 0.  1.
</event>
<event>
 5   0  0.4110803E-04  0.1589106E+04  0.7818609E-02  0.8827268E-01
        1   -1    0    0  501    0  0.00000000000E+00  0.00000000000E+00  0.62978885422E+03  0.62978885424E+03  0.50400001928E-02 0.  1.
       -1   -1    0    0    0  501  0.00000000000E+00  0.00000000000E+00 -0.10024228033E+04  0.10024228033E+04  0.50400001928E-02 0. -1.
    10030    2    1    2    0    0  0.00000000000E+00  0.00000000000E+00 -0.37263394906E+03  0.16322116575E+04  0.15891063007E+04 0.  0.
        5    1    3    3  502    0 -0.69417894388E+03  0.24830874479E+03 -0.49058023380E+03  0.88556913601E+03  0.46999998093E+01 0. -1.
       -5    1    3    3    0  502  0.69417894388E+03 -0.24830874479E+03  0.11794628474E+03  0.74664252152E+03  0.46999998093E+01 0.  1.
</event>
<event>
 5   0  0.7415102E-04  0.1575342E+04  0.7818609E-02  0.8835841E-01
       -2   -1    0    0    0  501  0.00000000000E+00  0.00000000000E+00  0.80046770200E+03  0.80046770200E+03  0.25500000920E-02 0.  1.
        2   -1    0    0  501    0  0.00000000000E+00  0.00000000000E+00 -0.77507936040E+03  0.77507936040E+03  0.25500000920E-02 0. -1.
    10030    2    1    2    0    0  0.00000000000E+00  0.00000000000E+00  0.25388341602E+02  0.15755470624E+04  0.15753424954E+04 0.  0.
        5    1    3    3  502    0 -0.27992496786E+03  0.21490098379E+03  0.71696135990E+03  0.79912208207E+03  0.46999998093E+01 0.  1.
       -5    1    3    3    0  502  0.27992496786E+03 -0.21490098379E+03 -0.69157301829E+03  0.77642498034E+03  0.46999998093E+01 0. -1.
</event>
<event>
 5   0  0.3889847E-04  0.1538545E+04  0.7818609E-02  0.8859218E-01
       -1   -1    0    0    0  501  0.00000000000E+00  0.00000000000E+00  0.74251641627E+03  0.74251641629E+03  0.50400001928E-02 0.  1.
        1   -1    0    0  501    0  0.00000000000E+00  0.00000000000E+00 -0.79699235398E+03  0.79699235399E+03  0.50400001928E-02 0. -1.
    10030    2    1    2    0    0  0.00000000000E+00  0.00000000000E+00 -0.54475937706E+02  0.15395087703E+04  0.15385446454E+04 0.  0.
        1    1    3    3  502    0 -0.19709664969E+03 -0.35819799176E+03  0.62480448785E+03  0.74668168498E+03  0.50400001928E-02 0.  1.
       -1    1    3    3    0  502  0.19709664969E+03  0.35819799176E+03 -0.67928042556E+03  0.79282708530E+03  0.50400001928E-02 0. -1.
</event>
<event>
 5   0  0.3950195E-04  0.1607655E+04  0.7818609E-02  0.8815859E-01
       -1   -1    0    0    0  501  0.00000000000E+00  0.00000000000E+00  0.21937965698E+03  0.21937965703E+03  0.50400001928E-02 0.  1.
        1   -1    0    0  501    0  0.00000000000E+00  0.00000000000E+00 -0.29452971295E+04  0.29452971296E+04  0.50400001928E-02 0. -1.
    10030    2    1    2    0    0  0.00000000000E+00  0.00000000000E+00 -0.27259174726E+04  0.31646767866E+04  0.16076545326E+04 0.  0.
        2    1    3    3  502    0  0.49773091104E+03  0.43415742405E+03 -0.46107049189E+03  0.80549036442E+03  0.25500000920E-02 0.  1.
       -2    1    3    3    0  502 -0.49773091104E+03 -0.43415742405E+03 -0.22648469807E+04  0.23591864222E+04  0.25500000920E-02 0. -1.
</event>
<event>
 5   0  0.7770905E-04  0.1594252E+04  0.7818609E-02  0.8824087E-01
        2   -1    0    0  501    0  0.00000000000E+00  0.00000000000E+00  0.47490699780E+03  0.47490699781E+03  0.25500000920E-02 0. -1.
       -2   -1    0    0    0  501  0.00000000000E+00  0.00000000000E+00 -0.13379675507E+04  0.13379675507E+04  0.25500000920E-02 0.  1.
    10030    2    1    2    0    0  0.00000000000E+00  0.00000000000E+00 -0.86306055291E+03  0.18128745485E+04  0.15942523673E+04 0.  0.
        2    1    3    3  502    0 -0.17889600970E+03 -0.39464423367E+03  0.32929676809E+03  0.54422809091E+03  0.25500000920E-02 0. -1.
       -2    1    3    3    0  502  0.17889600970E+03  0.39464423367E+03 -0.11923573210E+04  0.12686464576E+04  0.25500000920E-02 0.  1.
</event>
<event>
 5   0  0.7770905E-04  0.1425038E+04  0.7818609E-02  0.8935892E-01
       -2   -1    0    0    0  501  0.00000000000E+00  0.00000000000E+00  0.58672560381E+03  0.58672560382E+03  0.25500000920E-02 0.  1.
        2   -1    0    0  501    0  0.00000000000E+00  0.00000000000E+00 -0.86528185943E+03  0.86528185943E+03  0.25500000920E-02 0. -1.
    10030    2    1    2    0    0  0.00000000000E+00  0.00000000000E+00 -0.27855625561E+03  0.14520074633E+04  0.14250375735E+04 0.  0.
        2    1    3    3  502    0 -0.25030923416E+03 -0.61846888694E+03 -0.39405957606E+03  0.77488155631E+03  0.25500000920E-02 0. -1.
       -2    1    3    3    0  502  0.25030923416E+03  0.61846888694E+03  0.11550332045E+03  0.67712590695E+03  0.25500000920E-02 0.  1.
</event>
<event>
 5   0  0.7553070E-04  0.1620043E+04  0.7818609E-02  0.8808328E-01
        2   -1    0    0  501    0  0.00000000000E+00  0.00000000000E+00  0.12937724791E+04  0.12937724791E+04  0.25500000920E-02 0.  1.
       -2   -1    0    0    0  501  0.00000000000E+00  0.00000000000E+00 -0.50714879717E+03  0.50714879717E+03  0.25500000920E-02 0. -1.
    10030    2    1    2    0    0  0.00000000000E+00  0.00000000000E+00  0.78662368198E+03  0.18009212763E+04  0.16200434026E+04 0.  0.
        4    1    3    3  502    0  0.72150198716E+03 -0.33113682449E+03  0.57227309595E+03  0.97862905294E+03  0.12699999809E+01 0.  1.
       -4    1    3    3    0  502 -0.72150198716E+03  0.33113682449E+03  0.21435058602E+03  0.82229222338E+03  0.12699999809E+01 0. -1.
</event>
<event>
 5   0  0.7395088E-04  0.1603581E+04  0.7818609E-02  0.8818351E-01
        2   -1    0    0  501    0  0.00000000000E+00  0.00000000000E+00  0.13160431451E+04  0.13160431451E+04  0.25500000920E-02 0. -1.
       -2   -1    0    0    0  501  0.00000000000E+00  0.00000000000E+00 -0.48848521618E+03  0.48848521619E+03  0.25500000920E-02 0.  1.
    10030    2    1    2    0    0  0.00000000000E+00  0.00000000000E+00  0.82755792891E+03  0.18045283613E+04  0.16035805190E+04 0.  0.
        1    1    3    3  502    0 -0.67176775023E+03 -0.34112406685E+03  0.10512724180E+03  0.76071629154E+03  0.50400001928E-02 0.  1.
       -1    1    3    3    0  502  0.67176775023E+03  0.34112406685E+03  0.72243068711E+03  0.10438120697E+04  0.50400001928E-02 0. -1.
</event>
<event>
 5   0  0.2781000E-04  0.1624728E+04  0.7818609E-02  0.8805499E-01
       -4   -1    0    0    0  501  0.00000000000E+00  0.00000000000E+00  0.61580818647E+03  0.61580949605E+03  0.12699999809E+01 0. -1.
        4   -1    0    0  501    0  0.00000000000E+00  0.00000000000E+00 -0.10716539819E+04  0.10716547345E+04  0.12699999809E+01 0.  1.
    10030    2    1    2    0    0  0.00000000000E+00  0.00000000000E+00 -0.45584579545E+03  0.16874642305E+04  0.16247277126E+04 0.  0.
        4    1    3    3  502    0  0.80723973970E+03  0.63981687500E+02 -0.16058285635E+03  0.82554110760E+03  0.12699999809E+01 0.  1.
       -4    1    3    3    0  502 -0.80723973970E+03 -0.63981687500E+02 -0.29526293911E+03  0.86192312290E+03  0.12699999809E+01 0. -1.
</event>
<event>
 5   0  0.7553070E-04  0.1601916E+04  0.7818609E-02  0.8819372E-01
       -2   -1    0    0    0  501  0.00000000000E+00  0.00000000000E+00  0.73563689289E+03  0.73563689289E+03  0.25500000920E-02 0.  1.
        2   -1    0    0  501    0  0.00000000000E+00  0.00000000000E+00 -0.87207977091E+03  0.87207977091E+03  0.25500000920E-02 0. -1.
    10030    2    1    2    0    0  0.00000000000E+00  0.00000000000E+00 -0.13644287802E+03  0.16077166638E+04  0.16019164186E+04 0.  0.
        4    1    3    3  502    0  0.20647403168E+03  0.46958369698E+03  0.54914166576E+03  0.75146427473E+03  0.12699999809E+01 0.  1.
       -4    1    3    3    0  502 -0.20647403168E+03 -0.46958369698E+03 -0.68558454378E+03  0.85625238908E+03  0.12699999809E+01 0. -1.
</event>
<event>
 5   0  0.7488884E-04  0.1558389E+04  0.7818609E-02  0.8846527E-01
       -2   -1    0    0    0  501  0.00000000000E+00  0.00000000000E+00  0.93215145591E+03  0.93215145591E+03  0.25500000920E-02 0.  1.
        2   -1    0    0  501    0  0.00000000000E+00  0.00000000000E+00 -0.65133596142E+03  0.65133596143E+03  0.25500000920E-02 0. -1.
    10030    2    1    2    0    0  0.00000000000E+00  0.00000000000E+00  0.28081549449E+03  0.15834874173E+04  0.15583886097E+04 0.  0.
        3    1    3    3  502    0 -0.41997262159E+03  0.65412019904E+03  0.19506551105E+03  0.80143671084E+03  0.10100000352E+00 0. -1.
       -3    1    3    3    0  502  0.41997262159E+03 -0.65412019904E+03  0.85749983444E+02  0.78205070650E+03  0.10100000352E+00 0.  1.
</event>
<event>
 5   0  0.2781000E-04  0.1592564E+04  0.7818609E-02  0.8825129E-01
        3   -1    0    0  501    0  0.00000000000E+00  0.00000000000E+00  0.99550188792E+03  0.99550189304E+03  0.10100000352E+00 0. -1.
       -3   -1    0    0    0  501  0.00000000000E+00  0.00000000000E+00 -0.63692974114E+03  0.63692974914E+03  0.10100000352E+00 0.  1.
    10030    2    1    2    0    0  0.00000000000E+00  0.00000000000E+00  0.35857214678E+03  0.16324316422E+04  0.15925636822E+04 0.  0.
        1    1    3    3  502    0  0.76404011255E+03 -0.46883010942E+01  0.40914404446E+03  0.86670532645E+03  0.50400001928E-02 0. -1.
       -1    1    3    3    0  502 -0.76404011255E+03  0.46883010942E+01 -0.50571897676E+02  0.76572631574E+03  0.50400001928E-02 0.  1.
</event>
<event>
 5   0  0.2781000E-04  0.1621055E+04  0.7818609E-02  0.8807717E-01
        3   -1    0    0  501    0  0.00000000000E+00  0.00000000000E+00  0.66299749843E+03  0.66299750612E+03  0.10100000352E+00 0. -1.
       -3   -1    0    0    0  501  0.00000000000E+00  0.00000000000E+00 -0.99088545331E+03  0.99088545845E+03  0.10100000352E+00 0.  1.
    10030    2    1    2    0    0  0.00000000000E+00  0.00000000000E+00 -0.32788795488E+03  0.16538829646E+04  0.16210547028E+04 0.  0.
        1    1    3    3  502    0  0.49629177954E+03 -0.22148782292E+03  0.44955893812E+03  0.70531243078E+03  0.50400001928E-02 0. -1.
       -1    1    3    3    0  502 -0.49629177954E+03  0.22148782292E+03 -0.77744689299E+03  0.94857053380E+03  0.50400001928E-02 0.  1.
</event>
<event>
 5   0  0.3973227E-04  0.1590271E+04  0.7818609E-02  0.8826547E-01
        1   -1    0    0  501    0  0.00000000000E+00  0.00000000000E+00  0.12187398381E+04  0.12187398381E+04  0.50400001928E-02 0.  1.
       -1   -1    0    0    0  501  0.00000000000E+00  0.00000000000E+00 -0.51876571469E+03  0.51876571472E+03  0.50400001928E-02 0. -1.
    10030    2    1    2    0    0  0.00000000000E+00  0.00000000000E+00  0.69997412337E+03  0.17375055528E+04  0.15902709746E+04 0.  0.
        3    1    3    3  502    0 -0.28742348304E+03  0.25481620359E+03 -0.41067223843E+03  0.56231241658E+03  0.10100000352E+00 0. -1.
       -3    1    3    3    0  502  0.28742348304E+03 -0.25481620359E+03  0.11106463618E+04  0.11751931362E+04  0.10100000352E+00 0.  1.
</event>
<event>
 5   0  0.7415102E-04  0.1175465E+04  0.7818609E-02  0.9134607E-01
        2   -1    0    0  501    0  0.00000000000E+00  0.00000000000E+00  0.58537885472E+03  0.58537885473E+03  0.25500000920E-02 0. -1.
       -2   -1    0    0    0  501  0.00000000000E+00  0.00000000000E+00 -0.59009604118E+03  0.59009604118E+03  0.25500000920E-02 0.  1.
    10030    2    1    2    0    0  0.00000000000E+00  0.00000000000E+00 -0.47171864555E+01  0.11754748959E+04  0.11754654308E+04 0.  0.
        5    1    3    3  502    0 -0.34632530308E+03 -0.34951998865E+03  0.31905061694E+03  0.58644763124E+03  0.46999998093E+01 0. -1.
       -5    1    3    3    0  502  0.34632530308E+03  0.34951998865E+03 -0.32376780339E+03  0.58902726467E+03  0.46999998093E+01 0.  1.
</event>
<event>
 5   0  0.3837251E-04  0.1609708E+04  0.7818609E-02  0.8814606E-01
        1   -1    0    0  501    0  0.00000000000E+00  0.00000000000E+00  0.49133239690E+03  0.49133239692E+03  0.50400001928E-02 0.  1.
       -1   -1    0    0    0  501  0.00000000000E+00  0.00000000000E+00 -0.13184351568E+04  0.13184351568E+04  0.50400001928E-02 0. -1.
    10030    2    1    2    0    0  0.00000000000E+00  0.00000000000E+00 -0.82710275988E+03  0.18097675537E+04  0.16097079310E+04 0.  0.
        4    1    3    3  502    0 -0.24180429944E+03 -0.31895999338E+03 -0.11986066123E+04  0.12636709305E+04  0.12699999809E+01 0. -1.
       -4    1    3    3    0  502  0.24180429944E+03  0.31895999338E+03  0.37150385244E+03  0.54609662321E+03  0.12699999809E+01 0.  1.
</event>
<event>
 5   0  0.7395088E-04  0.1615424E+04  0.7818609E-02  0.8811128E-01
        2   -1    0    0  501    0  0.00000000000E+00  0.00000000000E+00  0.21627505254E+04  0.21627505254E+04  0.25500000920E-02 0.  1.
       -2   -1    0    0    0  501  0.00000000000E+00  0.00000000000E+00 -0.30165247230E+03  0.30165247232E+03  0.25500000920E-02 0. -1.
    10030    2    1    2    0    0  0.00000000000E+00  0.00000000000E+00  0.18610980531E+04  0.24644029977E+04  0.16154244557E+04 0.  0.
        1    1    3    3  502    0 -0.50612685173E+03  0.22451531572E+03  0.18276779405E+04  0.19097063049E+04  0.50400001928E-02 0.  1.
       -1    1    3    3    0  502  0.50612685173E+03 -0.22451531572E+03  0.33420112644E+02  0.55469669279E+03  0.50400001928E-02 0. -1.
</event>
<event>
 5   0  0.7770905E-04  0.1580473E+04  0.7818609E-02  0.8832635E-01
       -2   -1    0    0    0  501  0.00000000000E+00  0.00000000000E+00  0.63966963011E+03  0.63966963012E+03  0.25500000920E-02 0. -1.
        2   -1    0    0  501    0  0.00000000000E+00  0.00000000000E+00 -0.97624429827E+03  0.97624429828E+03  0.25500000920E-02 0.  1.
    10030    2    1    2    0    0  0.00000000000E+00  0.00000000000E+00 -0.33657466816E+03  0.16159139284E+04  0.15804731307E+04 0.  0.
        2    1    3    3  502    0 -0.21686869261E+03  0.54282310282E+03  0.37541249774E+03  0.69471108689E+03  0.25500000920E-02 0. -1.
       -2    1    3    3    0  502  0.21686869261E+03 -0.54282310282E+03 -0.71198716590E+03  0.92120284150E+03  0.25500000920E-02 0.  1.
</event>
<event>
 5   0  0.4110803E-04  0.1644461E+04  0.7818609E-02  0.8793690E-01
        1   -1    0    0  501    0  0.00000000000E+00  0.00000000000E+00  0.11006332249E+04  0.11006332250E+04  0.50400001928E-02 0. -1.
       -1   -1    0    0    0  501  0.00000000000E+00  0.00000000000E+00 -0.61424907473E+03  0.61424907475E+03  0.50400001928E-02 0.  1.
    10030    2    1    2    0    0  0.00000000000E+00  0.00000000000E+00  0.48638415021E+03  0.17148822997E+04  0.16444609330E+04 0.  0.
        5    1    3    3  502    0 -0.72717930688E+02 -0.68750705042E+03 -0.22093697672E+03  0.72580236945E+03  0.46999998093E+01 0.  1.
       -5    1    3    3    0  502  0.72717930688E+02  0.68750705042E+03  0.70732112693E+03  0.98907993025E+03  0.46999998093E+01 0. -1.
</event>
<event>
 5   0  0.7553070E-04  0.1523298E+04  0.7818609E-02  0.8869106E-01
        2   -1    0    0  501    0  0.00000000000E+00  0.00000000000E+00  0.64707499719E+03  0.64707499719E+03  0.25500000920E-02 0.  1.
       -2   -1    0    0    0  501  0.00000000000E+00  0.00000000000E+00 -0.89651049683E+03  0.89651049684E+03  0.25500000920E-02 0. -1.
    10030    2    1    2    0    0  0.00000000000E+00  0.00000000000E+00 -0.24943549965E+03  0.15435854940E+04  0.15232984307E+04 0.  0.
        4    1    3    3  502    0  0.19805973535E+03  0.32438232038E+03 -0.79355080091E+03  0.87987273800E+03  0.12699999809E+01 0. -1.
       -4    1    3    3    0  502 -0.19805973535E+03 -0.32438232038E+03  0.54411530127E+03  0.66371275603E+03  0.12699999809E+01 0.  1.
</event>
<event>
 5   0  0.7415102E-04  0.1471821E+04  0.7818609E-02  0.8903411E-01
        2   -1    0    0  501    0  0.00000000000E+00  0.00000000000E+00  0.29056070776E+04  0.29056070776E+04  0.25500000920E-02 0. -1.
       -2   -1    0    0    0  501  0.00000000000E+00  0.00000000000E+00 -0.18638580601E+03  0.18638580602E+03  0.25500000920E-02 0.  1.
    10030    2    1    2    0    0  0.00000000000E+00  0.00000000000E+00  0.27192212716E+04  0.30919928836E+04  0.14718205286E+04 0.  0.
        5    1    3    3  502    0 -0.14000608794E+02  0.52999367164E+03  0.28747949660E+03  0.60312176216E+03  0.46999998093E+01 0.  1.
       -5    1    3    3    0  502  0.14000608794E+02 -0.52999367164E+03  0.24317417750E+04  0.24888711214E+04  0.46999998093E+01 0. -1.
</event>
<event>
 5   0  0.3837251E-04  0.1690563E+04  0.7818609E-02  0.8766765E-01
       -1   -1    0    0    0  501  0.00000000000E+00  0.00000000000E+00  0.60760468837E+03  0.60760468839E+03  0.50400001928E-02 0.  1.
        1   -1    0    0  501    0  0.00000000000E+00  0.00000000000E+00 -0.11759299680E+04  0.11759299680E+04  0.50400001928E-02 0. -1.
    10030    2    1    2    0    0  0.00000000000E+00  0.00000000000E+00 -0.56832527961E+03  0.17835346564E+04  0.16905627013E+04 0.  0.
        4    1    3    3  502    0 -0.29867410499E+03 -0.69932502603E+03  0.10523936352E+03  0.76768395161E+03  0.12699999809E+01 0.  1.
       -4    1    3    3    0  502  0.29867410499E+03  0.69932502603E+03 -0.67356464313E+03  0.10158507048E+04  0.12699999809E+01 0. -1.
</event>
<event>
 5   0  0.7488884E-04  0.1599170E+04  0.7818609E-02  0.8821058E-01
        2   -1    0    0  501    0  0.00000000000E+00  0.00000000000E+00  0.56125908048E+03  0.56125908049E+03  0.25500000920E-02 0. -1.
       -2   -1    0    0    0  501  0.00000000000E+00  0.00000000000E+00 -0.11391105276E+04  0.11391105276E+04  0.25500000920E-02 0.  1.
    10030    2    1    2    0    0  0.00000000000E+00  0.00000000000E+00 -0.57785144710E+03  0.17003696081E+04  0.15991699438E+04 0.  0.
        3    1    3    3  502    0 -0.67960379341E+02  0.46478194677E+03 -0.97694044363E+03  0.10839988523E+04  0.10100000352E+00 0.  1.
       -3    1    3    3    0  502  0.67960379341E+02 -0.46478194677E+03  0.39908899653E+03  0.61637075576E+03  0.10100000352E+00 0. -1.
</event>
<event>
 5   0  0.4110803E-04  0.1628892E+04  0.7818609E-02  0.8802993E-01
       -1   -1    0    0    0  501  0.00000000000E+00  0.00000000000E+00  0.80024564941E+03  0.80024564943E+03  0.50400001928E-02 0.  1.
        1   -1    0    0  501    0  0.00000000000E+00  0.00000000000E+00 -0.82889839527E+03  0.82889839529E+03  0.50400001928E-02 0. -1.
    10030    2    1    2    0    0  0.00000000000E+00  0.00000000000E+00 -0.28652745862E+02  0.16291440447E+04  0.16288920586E+04 0.  0.
        5    1    3    3  502    0 -0.45761417705E+02  0.78797421829E+03 -0.21511292396E+03  0.81810337739E+03  0.46999998093E+01 0. -1.
       -5    1    3    3    0  502  0.45761417705E+02 -0.78797421829E+03  0.18646017810E+03  0.81104066733E+03  0.46999998093E+01 0.  1.
</event>
<event>
 5   0  0.3973227E-04  0.1552170E+04  0.7818609E-02  0.8850483E-01
       -1   -1    0    0    0  501  0.00000000000E+00  0.00000000000E+00  0.84773565247E+03  0.84773565249E+03  0.50400001928E-02 0.  1.
        1   -1    0    0  501    0  0.00000000000E+00  0.00000000000E+00 -0.71049047774E+03  0.71049047776E+03  0.50400001928E-02 0. -1.
    10030    2    1    2    0    0  0.00000000000E+00  0.00000000000E+00  0.13724517474E+03  0.15582261302E+04  0.15521702339E+04 0.  0.
        3    1    3    3  502    0  0.12581503872E+03 -0.73807586103E+03  0.27368087388E+03  0.79717415383E+03  0.10100000352E+00 0.  1.
       -3    1    3    3    0  502 -0.12581503872E+03  0.73807586103E+03 -0.13643569915E+03  0.76105197642E+03  0.10100000352E+00 0. -1.
</event>
<event>
 5   0  0.3973227E-04  0.1579514E+04  0.7818609E-02  0.8833233E-01
        1   -1    0    0  501    0  0.00000000000E+00  0.00000000000E+00  0.15540787645E+04  0.15540787645E+04  0.50400001928E-02 0.  1.
       -1   -1    0    0    0  501  0.00000000000E+00  0.00000000000E+00 -0.40134134011E+03  0.40134134014E+03  0.50400001928E-02 0. -1.
    10030    2    1    2    0    0  0.00000000000E+00  0.00000000000E+00  0.11527374244E+04  0.19554201046E+04  0.15795139177E+04 0.  0.
        3    1    3    3  502    0 -0.64319941809E+03  0.44676518581E+03  0.45004885498E+03  0.90324338068E+03  0.10100000352E+00 0. -1.
       -3    1    3    3    0  502  0.64319941809E+03 -0.44676518581E+03  0.70268856938E+03  0.10521767239E+04  0.10100000352E+00 0.  1.
</event>
<event>
 5   0  0.3889847E-04  0.1627076E+04  0.7818609E-02  0.8804085E-01
       -1   -1    0    0    0  501  0.00000000000E+00  0.00000000000E+00  0.46260145438E+03  0.46260145441E+03  0.50400001928E-02 0. -1.
        1   -1    0    0  501    0  0.00000000000E+00  0.00000000000E+00 -0.14306998707E+04  0.14306998707E+04  0.50400001928E-02 0.  1.
    10030    2    1    2    0    0  0.00000000000E+00  0.00000000000E+00 -0.96809841629E+03  0.18933013251E+04  0.16270757094E+04 0.  0.
        1    1    3    3  502    0  0.33789458165E+03 -0.41544092073E+03 -0.11966952754E+04  0.13110467150E+04  0.50400001928E-02 0.  1.
       -1    1    3    3    0  502 -0.33789458165E+03  0.41544092073E+03  0.22859685907E+03  0.58225461005E+03  0.50400001928E-02 0. -1.
</event>
<event>
 5   0  0.7488884E-04  0.1601794E+04  0.7818609E-02  0.8819447E-01
        2   -1    0    0  501    0  0.00000000000E+00  0.00000000000E+00  0.44117528791E+03  0.44117528792E+03  0.25500000920E-02 0.  1.
       -2   -1    0    0    0  501  0.00000000000E+00  0.00000000000E+00 -0.14539248568E+04  0.14539248568E+04  0.25500000920E-02 0. -1.
    10030    2    1    2    0    0  0.00000000000E+00  0.00000000000E+00 -0.10127495689E+04  0.18951001447E+04  0.16017936413E+04 0.  0.
        3    1    3    3  502    0 -0.36162241175E+03 -0.58491544826E+02  0.33624940192E+03  0.49724812718E+03  0.10100000352E+00 0.  1.
       -3    1    3    3    0  502  0.36162241175E+03  0.58491544826E+02 -0.13489989708E+04  0.13978520175E+04  0.10100000352E+00 0. -1.
</event>
<event>
 5   0  0.2781000E-04  0.1598173E+04  0.7818609E-02  0.8821671E-01
       -3   -1    0    0    0  501  0.00000000000E+00  0.00000000000E+00  0.64985419775E+03  0.64985420560E+03  0.10100000352E+00 0. -1.
        3   -1    0    0  501    0  0.00000000000E+00  0.00000000000E+00 -0.98258902064E+03  0.98258902583E+03  0.10100000352E+00 0.  1.
    10030    2    1    2    0    0  0.00000000000E+00  0.00000000000E+00 -0.33273482289E+03  0.16324432314E+04  0.15981734704E+04 0.  0.
        4    1    3    3  502    0 -0.31350347715E+03 -0.23598742272E+03 -0.87740002410E+03  0.96114874450E+03  0.12699999809E+01 0.  1.
       -4    1    3    3    0  502  0.31350347715E+03  0.23598742272E+03  0.54466520121E+03  0.67129448692E+03  0.12699999809E+01 0. -1.
</event>
<event>
 5   0  0.7488884E-04  0.1552787E+04  0.7818609E-02  0.8850090E-01
       -2   -1    0    0    0  501  0.00000000000E+00  0.00000000000E+00  0.29806576210E+03  0.29806576211E+03  0.25500000920E-02 0. -1.
        2   -1    0    0  501    0  0.00000000000E+00  0.00000000000E+00 -0.20223278661E+04  0.20223278661E+04  0.25500000920E-02 0.  1.
    10030    2    1    2    0    0  0.00000000000E+00  0.00000000000E+00 -0.17242621040E+04  0.23203936282E+04  0.15527867808E+04 0.  0.
        3    1    3    3  502    0 -0.29587845889E+03  0.55110799441E+03 -0.17485971834E+03  0.64949212100E+03  0.10100000352E+00 0.  1.
       -3    1    3    3    0  502  0.29587845889E+03 -0.55110799441E+03 -0.15494023857E+04  0.16709015072E+04  0.10100000352E+00 0. -1.
</event>
<event>
 5   0  0.7415102E-04  0.1596808E+04  0.7818609E-02  0.8822512E-01
       -2   -1    0    0    0  501  0.00000000000E+00  0.00000000000E+00  0.41921680106E+03  0.41921680107E+03  0.25500000920E-02 0.  1.
        2   -1    0    0  501    0  0.00000000000E+00  0.00000000000E+00 -0.15205704616E+04  0.15205704616E+04  0.25500000920E-02 0. -1.
    10030    2    1    2    0    0  0.00000000000E+00  0.00000000000E+00 -0.11013536605E+04  0.19397872627E+04  0.15968076712E+04 0.  0.
        5    1    3    3  502    0 -0.22191661142E+03  0.20037171696E+03  0.34862188180E+03  0.45929850190E+03  0.46999998093E+01 0.  1.
       -5    1    3    3    0  502  0.22191661142E+03 -0.20037171696E+03 -0.14499755423E+04  0.14804887608E+04  0.46999998093E+01 0. -1.
</event>
<event>
 5   0  0.3950195E-04  0.1622025E+04  0.7818609E-02  0.8807130E-01
       -1   -1    0    0    0  501  0.00000000000E+00  0.00000000000E+00  0.86591108140E+03  0.86591108142E+03  0.50400001928E-02 0.  1.
        1   -1    0    0  501    0  0.00000000000E+00  0.00000000000E+00 -0.75959481833E+03  0.75959481835E+03  0.50400001928E-02 0. -1.
    10030    2    1    2    0    0  0.00000000000E+00  0.00000000000E+00  0.10631626307E+03  0.16255058998E+04  0.16220253643E+04 0.  0.
        2    1    3    3  502    0 -0.13353618537E+03 -0.46982527398E+03 -0.59566751760E+03  0.77031648847E+03  0.25500000920E-02 0. -1.
       -2    1    3    3    0  502  0.13353618537E+03  0.46982527398E+03  0.70198378067E+03  0.85518941130E+03  0.25500000920E-02 0.  1.
</event>
<event>
 5   0  0.3837251E-04  0.1603381E+04  0.7818609E-02  0.8818473E-01
        1   -1    0    0  501    0  0.00000000000E+00  0.00000000000E+00  0.67318379872E+03  0.67318379874E+03  0.50400001928E-02 0. -1.
       -1   -1    0    0    0  501  0.00000000000E+00  0.00000000000E+00 -0.95472868158E+03  0.95472868159E+03  0.50400001928E-02 0.  1.
    10030    2    1    2    0    0  0.00000000000E+00  0.00000000000E+00 -0.28154488286E+03  0.16279124803E+04  0.16033812780E+04 0.  0.
        4    1    3    3  502    0 -0.26396418591E+03  0.50419235692E+03 -0.71405206804E+03  0.91310404281E+03  0.12699999809E+01 0.  1.
       -4    1    3    3    0  502  0.26396418591E+03 -0.50419235692E+03  0.43250718518E+03  0.71480843752E+03  0.12699999809E+01 0. -1.
</event>
<event>
 5   0  0.7770905E-04  0.1551699E+04  0.7818609E-02  0.8850783E-01
       -2   -1    0    0    0  501  0.00000000000E+00  0.00000000000E+00  0.35959088830E+03  0.35959088831E+03  0.25500000920E-02 0.  1.
        2   -1    0    0  501    0  0.00000000000E+00  0.00000000000E+00 -0.16739644940E+04  0.16739644940E+04  0.25500000920E-02 0. -1.
    10030    2    1    2    0    0  0.00000000000E+00  0.00000000000E+00 -0.13143736057E+04  0.20335553823E+04  0.15516989133E+04 0.  0.
        2    1    3    3  502    0  0.28338583585E+03 -0.62151490366E+03 -0.11393390679E+04  0.13284132712E+04  0.25500000920E-02 0. -1.
       -2    1    3    3    0  502 -0.28338583585E+03  0.62151490366E+03 -0.17503453779E+03  0.70514211111E+03  0.25500000920E-02 0.  1.
</event>
<event>
 5   0  0.7488884E-04  0.1731775E+04  0.7818609E-02  0.8743447E-01
       -2   -1    0    0    0  501  0.00000000000E+00  0.00000000000E+00  0.35454622331E+03  0.35454622332E+03  0.25500000920E-02 0.  1.
        2   -1    0    0  501    0  0.00000000000E+00  0.00000000000E+00 -0.21147056056E+04  0.21147056056E+04  0.25500000920E-02 0. -1.
    10030    2    1    2    0    0  0.00000000000E+00  0.00000000000E+00 -0.17601593823E+04  0.24692518289E+04  0.17317746804E+04 0.  0.
        3    1    3    3  502    0  0.57547175873E+03  0.31390627819E+03 -0.16867330952E+04  0.18096335102E+04  0.10100000352E+00 0. -1.
       -3    1    3    3    0  502 -0.57547175873E+03 -0.31390627819E+03 -0.73426287113E+02  0.65961831874E+03  0.10100000352E+00 0.  1.
</event>
<event>
 5   0  0.3889847E-04  0.1745027E+04  0.7818609E-02  0.8736092E-01
       -1   -1    0    0    0  501  0.00000000000E+00  0.00000000000E+00  0.56372749609E+03  0.56372749611E+03  0.50400001928E-02 0. -1.
        1   -1    0    0  501    0  0.00000000000E+00  0.00000000000E+00 -0.13504401287E+04  0.13504401287E+04  0.50400001928E-02 0.  1.
    10030    2    1    2    0    0  0.00000000000E+00  0.00000000000E+00 -0.78671263262E+03  0.19141676248E+04  0.17450274868E+04 0.  0.
        1    1    3    3  502    0  0.10067967921E+03 -0.85360304244E+03 -0.55791612326E+03  0.10247170109E+04  0.50400001928E-02 0.  1.
       -1    1    3    3    0  502 -0.10067967921E+03  0.85360304244E+03 -0.22879650936E+03  0.88945061391E+03  0.50400001928E-02 0. -1.
</event>
<event>
 5   0  0.7415102E-04  0.1414896E+04  0.7818609E-02  0.8943106E-01
       -2   -1    0    0    0  501  0.00000000000E+00  0.00000000000E+00  0.26818766580E+03  0.26818766581E+03  0.25500000920E-02 0.  1.
        2   -1    0    0  501    0  0.00000000000E+00  0.00000000000E+00 -0.18661660411E+04  0.18661660411E+04  0.25500000920E-02 0. -1.
    10030    2    1    2    0    0  0.00000000000E+00  0.00000000000E+00 -0.15979783753E+04  0.21343537069E+04  0.14148960592E+04 0.  0.
        5    1    3    3  502    0  0.49131433359E+03  0.50879447763E+03 -0.82027061834E+03  0.10831101385E+04  0.46999998093E+01 0. -1.
       -5    1    3    3    0  502 -0.49131433359E+03 -0.50879447763E+03 -0.77770775698E+03  0.10512435684E+04  0.46999998093E+01 0.  1.
</event>
<event>
 5   0  0.3837251E-04  0.1587478E+04  0.7818609E-02  0.8828278E-01
       -1   -1    0    0    0  501  0.00000000000E+00  0.00000000000E+00  0.45497868276E+03  0.45497868279E+03  0.50400001928E-02 0.  1.
        1   -1    0    0  501    0  0.00000000000E+00  0.00000000000E+00 -0.13847274699E+04  0.13847274699E+04  0.50400001928E-02 0. -1.
    10030    2    1    2    0    0  0.00000000000E+00  0.00000000000E+00 -0.92974878715E+03  0.18397061527E+04  0.15874778490E+04 0.  0.
        4    1    3    3  502    0  0.34102787805E+03  0.22508624932E+03  0.32372703726E+03  0.52131050325E+03  0.12699999809E+01 0.  1.
       -4    1    3    3    0  502 -0.34102787805E+03 -0.22508624932E+03 -0.12534758244E+04  0.13183956495E+04  0.12699999809E+01 0. -1.
</event>
<event>
 5   0  0.4110803E-04  0.1639733E+04  0.7818609E-02  0.8796503E-01
        1   -1    0    0  501    0  0.00000000000E+00  0.00000000000E+00  0.14096107219E+04  0.14096107219E+04  0.50400001928E-02 0. -1.
       -1   -1    0    0    0  501  0.00000000000E+00  0.00000000000E+00 -0.47685609258E+03  0.47685609260E+03  0.50400001928E-02 0.  1.
    10030    2    1    2    0    0  0.00000000000E+00  0.00000000000E+00  0.93275462935E+03  0.18864668145E+04  0.16397334673E+04 0.  0.
        5    1    3    3  502    0 -0.28495519336E+03 -0.56863513826E+03 -0.12877799729E+03  0.64896166703E+03  0.46999998093E+01 0.  1.
       -5    1    3    3    0  502  0.28495519336E+03  0.56863513826E+03  0.10615326266E+04  0.12375051475E+04  0.46999998093E+01 0. -1.
</event>
<event>
 5   0  0.7770905E-04  0.1582524E+04  0.7818609E-02  0.8831357E-01
        2   -1    0    0  501    0  0.00000000000E+00  0.00000000000E+00  0.22119185110E+04  0.22119185110E+04  0.25500000920E-02 0.  1.
       -2   -1    0    0    0  501  0.00000000000E+00  0.00000000000E+00 -0.28305542256E+03  0.28305542257E+03  0.25500000920E-02 0. -1.
    10030    2    1    2    0    0  0.00000000000E+00  0.00000000000E+00  0.19288630885E+04  0.24949739336E+04  0.15825239699E+04 0.  0.
        2    1    3    3  502    0 -0.23140519353E+03 -0.61497557036E+03  0.26939048518E+03  0.71015107494E+03  0.25500000920E-02 0. -1.
       -2    1    3    3    0  502  0.23140519353E+03  0.61497557036E+03  0.16594726033E+04  0.17848228587E+04  0.25500000920E-02 0.  1.
</event>
<event>
 5   0  0.3889847E-04  0.1608511E+04  0.7818609E-02  0.8815336E-01
        1   -1    0    0  501    0  0.00000000000E+00  0.00000000000E+00  0.66492482152E+03  0.66492482154E+03  0.50400001928E-02 0. -1.
       -1   -1    0    0    0  501  0.00000000000E+00  0.00000000000E+00 -0.97278251803E+03  0.97278251804E+03  0.50400001928E-02 0.  1.
    10030    2    1    2    0    0  0.00000000000E+00  0.00000000000E+00 -0.30785769651E+03  0.16377073396E+04  0.16085114140E+04 0.  0.
        1    1    3    3  502    0  0.87778116778E+02 -0.28127983985E+03 -0.91584586390E+03  0.96207951467E+03  0.50400001928E-02 0.  1.
       -1    1    3    3    0  502 -0.87778116778E+02  0.28127983985E+03  0.60798816739E+03  0.67562782492E+03  0.50400001928E-02 0. -1.
</event>
<event>
 5   0  0.3950195E-04  0.1587978E+04  0.7818609E-02  0.8827968E-01
        1   -1    0    0  501    0  0.00000000000E+00  0.00000000000E+00  0.14633851962E+04  0.14633851962E+04  0.50400001928E-02 0. -1.
       -1   -1    0    0    0  501  0.00000000000E+00  0.00000000000E+00 -0.43079445817E+03  0.43079445820E+03  0.50400001928E-02 0.  1.
    10030    2    1    2    0    0  0.00000000000E+00  0.00000000000E+00  0.10325907380E+04  0.18941796544E+04  0.15879776229E+04 0.  0.
        2    1    3    3  502    0  0.38247310162E+03  0.64182160807E+03  0.83680281071E+03  0.11218108549E+04  0.25500000920E-02 0. -1.
       -2    1    3    3    0  502 -0.38247310162E+03 -0.64182160807E+03  0.19578792734E+03  0.77236879957E+03  0.25500000920E-02 0.  1.
</event>
<event>
 5   0  0.7415102E-04  0.1606933E+04  0.7818609E-02  0.8816300E-01
        2   -1    0    0  501    0  0.00000000000E+00  0.00000000000E+00  0.11281529208E+04  0.11281529208E+04  0.25500000920E-02 0.  1.
       -2   -1    0    0    0  501  0.00000000000E+00  0.00000000000E+00 -0.57222571496E+03  0.57222571496E+03  0.25500000920E-02 0. -1.
    10030    2    1    2    0    0  0.00000000000E+00  0.00000000000E+00  0.55592720582E+03  0.17003786357E+04  0.16069326205E+04 0.  0.
        5    1    3    3  502    0 -0.73682054414E+03 -0.33079121493E+02 -0.59215564169E+02  0.73995088728E+03  0.46999998093E+01 0.  1.
       -5    1    3    3    0  502  0.73682054414E+03  0.33079121493E+02  0.61514276998E+03  0.96042774846E+03  0.46999998093E+01 0. -1.
</event>
<event>
 5   0  0.7553070E-04  0.1587967E+04  0.7818609E-02  0.8827975E-01
       -2   -1    0    0    0  501  0.00000000000E+00  0.00000000000E+00  0.42272178309E+03  0.42272178310E+03  0.25500000920E-02 0.  1.
        2   -1    0    0  501    0  0.00000000000E+00  0.00000000000E+00 -0.14913107313E+04  0.14913107314E+04  0.25500000920E-02 0. -1.
    10030    2    1    2    0    0  0.00000000000E+00  0.00000000000E+00 -0.10685889483E+04  0.19140325145E+04  0.15879666640E+04 0.  0.
        4    1    3    3  502    0 -0.66100321319E+03 -0.68009592137E+02 -0.10483136546E+02  0.66457660321E+03  0.12699999809E+01 0.  1.
       -4    1    3    3    0  502  0.66100321319E+03  0.68009592137E+02 -0.10581058117E+04  0.12494559112E+04  0.12699999809E+01 0. -1.
</event>
<event>
 5   0  0.3950195E-04  0.1174336E+04  0.7818609E-02  0.9135622E-01
       -1   -1    0    0    0  501  0.00000000000E+00  0.00000000000E+00  0.17573419210E+03  0.17573419217E+03  0.50400001928E-02 0.  1.
        1   -1    0    0  501    0  0.00000000000E+00  0.00000000000E+00 -0.19618620075E+04  0.19618620075E+04  0.50400001928E-02 0. -1.
    10030    2    1    2    0    0  0.00000000000E+00  0.00000000000E+00 -0.17861278154E+04  0.21375961997E+04  0.11743359570E+04 0.  0.
        2    1    3    3  502    0 -0.51151453413E+03 -0.28795925179E+03 -0.91871508203E+03  0.10902316503E+04  0.25500000920E-02 0. -1.
       -2    1    3    3    0  502  0.51151453413E+03  0.28795925179E+03 -0.86741273336E+03  0.10473645494E+04  0.25500000920E-02 0.  1.
</event>
<event>
 5   0  0.3973227E-04  0.1597996E+04  0.7818609E-02  0.8821780E-01
       -1   -1    0    0    0  501  0.00000000000E+00  0.00000000000E+00  0.13442341353E+04  0.13442341353E+04  0.50400001928E-02 0. -1.
        1   -1    0    0  501    0  0.00000000000E+00  0.00000000000E+00 -0.47491564664E+03  0.47491564667E+03  0.50400001928E-02 0.  1.
    10030    2    1    2    0    0  0.00000000000E+00  0.00000000000E+00  0.86931848862E+03  0.18191497819E+04  0.15979960245E+04 0.  0.
        3    1    3    3  502    0 -0.61449558007E+03 -0.20401738997E+03  0.96760525902E+03  0.11642542080E+04  0.10100000352E+00 0. -1.
       -3    1    3    3    0  502  0.61449558007E+03  0.20401738997E+03 -0.98286770398E+02  0.65489557395E+03  0.10100000352E+00 0.  1.
</event>
<event>
 5   0  0.3950195E-04  0.1596966E+04  0.7818609E-02  0.8822414E-01
        1   -1    0    0  501    0  0.00000000000E+00  0.00000000000E+00  0.77713181110E+03  0.77713181112E+03  0.50400001928E-02 0. -1.
       -1   -1    0    0    0  501  0.00000000000E+00  0.00000000000E+00 -0.82042069157E+03  0.82042069158E+03  0.50400001928E-02 0.  1.
    10030    2    1    2    0    0  0.00000000000E+00  0.00000000000E+00 -0.43288880467E+02  0.15975525027E+04  0.15969658956E+04 0.  0.
        2    1    3    3  502    0 -0.55709762429E+03  0.48222386429E+03  0.28616551307E+03  0.79043552499E+03  0.25500000920E-02 0.  1.
       -2    1    3    3    0  502  0.55709762429E+03 -0.48222386429E+03 -0.32945439353E+03  0.80711697771E+03  0.25500000920E-02 0. -1.
</event>
<event>
 5   0  0.7488884E-04  0.1635139E+04  0.7818609E-02  0.8799247E-01
       -2   -1    0    0    0  501  0.00000000000E+00  0.00000000000E+00  0.80054189864E+03  0.80054189865E+03  0.25500000920E-02 0. -1.
        2   -1    0    0  501    0  0.00000000000E+00  0.00000000000E+00 -0.83495918571E+03  0.83495918571E+03  0.25500000920E-02 0.  1.
    10030    2    1    2    0    0  0.00000000000E+00  0.00000000000E+00 -0.34417287063E+02  0.16355010844E+04  0.16351389076E+04 0.  0.
        3    1    3    3  502    0 -0.43847534158E+03 -0.32888620740E+03 -0.62396730647E+03  0.83051909812E+03  0.10100000352E+00 0.  1.
       -3    1    3    3    0  502  0.43847534158E+03  0.32888620740E+03  0.58955001941E+03  0.80498198624E+03  0.10100000352E+00 0. -1.
</event>
<event>
 5   0  0.4110803E-04  0.1611177E+04  0.7818609E-02  0.8813711E-01
        1   -1    0    0  501    0  0.00000000000E+00  0.00000000000E+00  0.12469378633E+04  0.12469378633E+04  0.50400001928E-02 0.  1.
       -1   -1    0    0    0  501  0.00000000000E+00  0.00000000000E+00 -0.52045354173E+03  0.52045354176E+03  0.50400001928E-02 0. -1.
    10030    2    1    2    0    0  0.00000000000E+00  0.00000000000E+00  0.72648432155E+03  0.17673914050E+04  0.16111774915E+04 0.  0.
        5    1    3    3  502    0  0.59730213688E+03 -0.23342248003E+03 -0.17156793298E+03  0.66386259311E+03  0.46999998093E+01 0. -1.
       -5    1    3    3    0  502 -0.59730213688E+03  0.23342248003E+03  0.89805225453E+03  0.11035288119E+04  0.46999998093E+01 0.  1.
</event>
<event>
 5   0  0.3837251E-04  0.1343382E+04  0.7818609E-02  0.8995853E-01
       -1   -1    0    0    0  501  0.00000000000E+00  0.00000000000E+00  0.48264628979E+03  0.48264628981E+03  0.50400001928E-02 0.  1.
        1   -1    0    0  501    0  0.00000000000E+00  0.00000000000E+00 -0.93478192225E+03  0.93478192227E+03  0.50400001928E-02 0. -1.
    10030    2    1    2    0    0  0.00000000000E+00  0.00000000000E+00 -0.45213563246E+03  0.14174282121E+04  0.13433823381E+04 0.  0.
        4    1    3    3  502    0  0.18560611641E+03 -0.47642585731E+03 -0.68566411359E+03  0.85531755362E+03  0.12699999809E+01 0. -1.
       -4    1    3    3    0  502 -0.18560611641E+03  0.47642585731E+03  0.23352848112E+03  0.56211065846E+03  0.12699999809E+01 0.  1.
</event>
<event>
 5   0  0.3973227E-04  0.1634553E+04  0.7818609E-02  0.8799597E-01
        1   -1    0    0  501    0  0.00000000000E+00  0.00000000000E+00  0.12588823498E+04  0.12588823498E+04  0.50400001928E-02 0. -1.
       -1   -1    0    0    0  501  0.00000000000E+00  0.00000000000E+00 -0.53058248886E+03  0.53058248889E+03  0.50400001928E-02 0.  1.
    10030    2    1    2    0    0  0.00000000000E+00  0.00000000000E+00  0.72829986090E+03  0.17894648387E+04  0.16345530647E+04 0.  0.
        3    1    3    3  502    0 -0.66755079665E+03 -0.24608646503E+03 -0.76158945090E+02  0.71552974047E+03  0.10100000352E+00 0.  1.
       -3    1    3    3    0  502  0.66755079665E+03  0.24608646503E+03  0.80445880599E+03  0.10739350982E+04  0.10100000352E+00 0. -1.
</event>
<event>
 5   0  0.7395088E-04  0.1624486E+04  0.7818609E-02  0.8805645E-01
        2   -1    0    0  501    0  0.00000000000E+00  0.00000000000E+00  0.15669880037E+04  0.15669880037E+04  0.25500000920E-02 0.  1.
       -2   -1    0    0    0  501  0.00000000000E+00  0.00000000000E+00 -0.42102358326E+03  0.42102358327E+03  0.25500000920E-02 0. -1.
    10030    2    1    2    0    0  0.00000000000E+00  0.00000000000E+00  0.11459644205E+04  0.19880115870E+04  0.16244862625E+04 0.  0.
        1    1    3    3  502    0  0.27051813907E+03 -0.29890726772E+03 -0.28994513331E+03  0.49658211669E+03  0.50400001928E-02 0. -1.
       -1    1    3    3    0  502 -0.27051813907E+03  0.29890726772E+03  0.14359095538E+04  0.14914294703E+04  0.50400001928E-02 0.  1.
</event>
<event>
 5   0  0.3889847E-04  0.1615209E+04  0.7818609E-02  0.8811259E-01
        1   -1    0    0  501    0  0.00000000000E+00  0.00000000000E+00  0.76193033421E+03  0.76193033423E+03  0.50400001928E-02 0. -1.
       -1   -1    0    0    0  501  0.00000000000E+00  0.00000000000E+00 -0.85601662968E+03  0.85601662970E+03  0.50400001928E-02 0.  1.
    10030    2    1    2    0    0  0.00000000000E+00  0.00000000000E+00 -0.94086295471E+02  0.16179469639E+04  0.16152090103E+04 0.  0.
        1    1    3    3  502    0 -0.58822554405E+02  0.38828891356E+03 -0.75392815292E+03  0.85008001570E+03  0.50400001928E-02 0.  1.
       -1    1    3    3    0  502  0.58822554405E+02 -0.38828891356E+03  0.65984185745E+03  0.76786694822E+03  0.50400001928E-02 0. -1.
</event>
<event>
 5   0  0.7488884E-04  0.1562765E+04  0.7818609E-02  0.8843755E-01
       -2   -1    0    0    0  501  0.00000000000E+00  0.00000000000E+00  0.23398060213E+03  0.23398060214E+03  0.25500000920E-02 0.  1.
        2   -1    0    0  501    0  0.00000000000E+00  0.00000000000E+00 -0.26094396644E+04  0.26094396644E+04  0.25500000920E-02 0. -1.
    10030    2    1    2    0    0  0.00000000000E+00  0.00000000000E+00 -0.23754590623E+04  0.28434202665E+04  0.15627645554E+04 0.  0.
        3    1    3    3  502    0 -0.14312521310E+03 -0.74792666015E+03 -0.86903905921E+03  0.11554687413E+04  0.10100000352E+00 0. -1.
       -3    1    3    3    0  502  0.14312521310E+03  0.74792666015E+03 -0.15064200031E+04  0.16879515252E+04  0.10100000352E+00 0.  1.
</event>
<event>
 5   0  0.7488884E-04  0.1586735E+04  0.7818609E-02  0.8828739E-01
       -2   -1    0    0    0  501  0.00000000000E+00  0.00000000000E+00  0.35272199213E+03  0.35272199214E+03  0.25500000920E-02 0.  1.
        2   -1    0    0  501    0  0.00000000000E+00  0.00000000000E+00 -0.17844996962E+04  0.17844996962E+04  0.25500000920E-02 0. -1.
    10030    2    1    2    0    0  0.00000000000E+00  0.00000000000E+00 -0.14317777041E+04  0.21372216884E+04  0.15867353753E+04 0.  0.
        3    1    3    3  502    0  0.45044764220E+03  0.88374131896E+02  0.15568965595E+03  0.48471883059E+03  0.10100000352E+00 0.  1.
       -3    1    3    3    0  502 -0.45044764220E+03 -0.88374131896E+02 -0.15874673601E+04  0.16525028578E+04  0.10100000352E+00 0. -1.
</event>
<event>
 5   0  0.7553070E-04  0.1608932E+04  0.7818609E-02  0.8815079E-01
       -2   -1    0    0    0  501  0.00000000000E+00  0.00000000000E+00  0.47263280212E+03  0.47263280213E+03  0.25500000920E-02 0.  1.
        2   -1    0    0  501    0  0.00000000000E+00  0.00000000000E+00 -0.13692776263E+04  0.13692776263E+04  0.25500000920E-02 0. -1.
    10030    2    1    2    0    0  0.00000000000E+00  0.00000000000E+00 -0.89664482415E+03  0.18419104284E+04  0.16089319705E+04 0.  0.
        4    1    3    3  502    0 -0.13508033338E+03 -0.38070107833E+03  0.34810515338E+03  0.53325305271E+03  0.12699999809E+01 0.  1.
       -4    1    3    3    0  502  0.13508033338E+03  0.38070107833E+03 -0.12447499775E+04  0.13086573757E+04  0.12699999809E+01 0. -1.
</event>
<event>
 5   0  0.3973227E-04  0.1615265E+04  0.7818609E-02  0.8811225E-01
        1   -1    0    0  501    0  0.00000000000E+00  0.00000000000E+00  0.82516040623E+03  0.82516040624E+03  0.50400001928E-02 0.  1.
       -1   -1    0    0    0  501  0.00000000000E+00  0.00000000000E+00 -0.79047673397E+03  0.79047673398E+03  0.50400001928E-02 0. -1.
    10030    2    1    2    0    0  0.00000000000E+00  0.00000000000E+00  0.34683672262E+02  0.16156371402E+04  0.16152648117E+04 0.  0.
        3    1    3    3  502    0  0.47477212403E+03 -0.27597539570E+03  0.60967687581E+03  0.82053451596E+03  0.10100000352E+00 0.  1.
       -3    1    3    3    0  502 -0.47477212403E+03  0.27597539570E+03 -0.57499320355E+03  0.79510262427E+03  0.10100000352E+00 0. -1.
</event>
<event>
 5   0  0.7553070E-04  0.1597321E+04  0.7818609E-02  0.8822195E-01
       -2   -1    0    0    0  501  0.00000000000E+00  0.00000000000E+00  0.10396274975E+04  0.10396274975E+04  0.25500000920E-02 0.  1.
        2   -1    0    0  501    0  0.00000000000E+00  0.00000000000E+00 -0.61354554100E+03  0.61354554101E+03  0.25500000920E-02 0. -1.
    10030    2    1    2    0    0  0.00000000000E+00  0.00000000000E+00  0.42608195653E+03  0.16531730385E+04  0.15973212769E+04 0.  0.
        4    1    3    3  502    0  0.48258594602E+03 -0.51035430358E+03  0.60647301068E+03  0.92798805814E+03  0.12699999809E+01 0.  1.
       -4    1    3    3    0  502 -0.48258594602E+03  0.51035430358E+03 -0.18039105416E+03  0.72518498040E+03  0.12699999809E+01 0. -1.
</event>
<event>
 5   0  0.4110803E-04  0.1593194E+04  0.7818609E-02  0.8824740E-01
        1   -1    0    0  501    0  0.00000000000E+00  0.00000000000E+00  0.90416796344E+03  0.90416796345E+03  0.50400001928E-02 0. -1.
       -1   -1    0    0    0  501  0.00000000000E+00  0.00000000000E+00 -0.70182412302E+03  0.70182412304E+03  0.50400001928E-02 0.  1.
    10030    2    1    2    0    0  0.00000000000E+00  0.00000000000E+00  0.20234384042E+03  0.16059920865E+04  0.15931941351E+04 0.  0.
        5    1    3    3  502    0 -0.30140070885E+03 -0.40068723366E+03  0.72513707354E+03  0.88161131568E+03  0.46999998093E+01 0. -1.
       -5    1    3    3    0  502  0.30140070885E+03  0.40068723366E+03 -0.52279323313E+03  0.72438077081E+03  0.46999998093E+01 0.  1.
</event>
<event>
 5   0  0.7395088E-04  0.1586406E+04  0.7818609E-02  0.8828943E-01
        2   -1    0    0  501    0  0.00000000000E+00  0.00000000000E+00  0.17770232049E+04  0.17770232049E+04  0.25500000920E-02 0.  1.
       -2   -1    0    0    0  501  0.00000000000E+00  0.00000000000E+00 -0.35405887329E+03  0.35405887330E+03  0.25500000920E-02 0. -1.
    10030    2    1    2    0    0  0.00000000000E+00  0.00000000000E+00  0.14229643316E+04  0.21310820782E+04  0.15864057914E+04 0.  0.
        1    1    3    3  502    0  0.10576286909E+02 -0.21082114898E+03 -0.31563569193E+03  0.37971476762E+03  0.50400001928E-02 0. -1.
       -1    1    3    3    0  502 -0.10576286909E+02  0.21082114898E+03  0.17386000235E+04  0.17513673106E+04  0.50400001928E-02 0.  1.
</event>
<event>
 5   0  0.3950195E-04  0.1592069E+04  0.7818609E-02  0.8825435E-01
       -1   -1    0    0    0  501  0.00000000000E+00  0.00000000000E+00  0.54295597196E+03  0.54295597198E+03  0.50400001928E-02 0. -1.
        1   -1    0    0  501    0  0.00000000000E+00  0.00000000000E+00 -0.11670764789E+04  0.11670764789E+04  0.50400001928E-02 0.  1.
    10030    2    1    2    0    0  0.00000000000E+00  0.00000000000E+00 -0.62412050694E+03  0.17100324509E+04  0.15920692748E+04 0.  0.
        2    1    3    3  502    0 -0.60078995094E+03 -0.21211327657E+03  0.20050955987E+03  0.66794063423E+03  0.25500000920E-02 0. -1.
       -2    1    3    3    0  502  0.60078995094E+03  0.21211327657E+03 -0.82463006681E+03  0.10420918167E+04  0.25500000920E-02 0.  1.
</event>
<event>
 5   0  0.7415102E-04  0.1599907E+04  0.7818609E-02  0.8820605E-01
       -2   -1    0    0    0  501  0.00000000000E+00  0.00000000000E+00  0.37090011740E+03  0.37090011741E+03  0.25500000920E-02 0. -1.
        2   -1    0    0  501    0  0.00000000000E+00  0.00000000000E+00 -0.17253319446E+04  0.17253319446E+04  0.25500000920E-02 0.  1.
    10030    2    1    2    0    0  0.00000000000E+00  0.00000000000E+00 -0.13544318272E+04  0.20962320620E+04  0.15999072733E+04 0.  0.
        5    1    3    3  502    0 -0.22278839094E+03 -0.14998438628E+03 -0.16644774118E+04  0.16860121968E+04  0.46999998093E+01 0.  1.
       -5    1    3    3    0  502  0.22278839094E+03  0.14998438628E+03  0.31004558463E+03  0.41021986521E+03  0.46999998093E+01 0. -1.
</event>
<event>
 5   0  0.3973227E-04  0.1589042E+04  0.7818609E-02  0.8827308E-01
       -1   -1    0    0    0  501  0.00000000000E+00  0.00000000000E+00  0.90155896592E+03  0.90155896593E+03  0.50400001928E-02 0. -1.
        1   -1    0    0  501    0  0.00000000000E+00  0.00000000000E+00 -0.70019146686E+03  0.70019146688E+03  0.50400001928E-02 0.  1.
    10030    2    1    2    0    0  0.00000000000E+00  0.00000000000E+00  0.20136749906E+03  0.16017504328E+04  0.15890423466E+04 0.  0.
        3    1    3    3  502    0 -0.23995743228E+03 -0.23039150685E+03 -0.62661553131E+03  0.70944122379E+03  0.10100000352E+00 0.  1.
       -3    1    3    3    0  502  0.23995743228E+03  0.23039150685E+03  0.82798303037E+03  0.89230920902E+03  0.10100000352E+00 0. -1.
</event>
<event>
 5   0  0.3973227E-04  0.1585558E+04  0.7818609E-02  0.8829470E-01
       -1   -1    0    0    0  501  0.00000000000E+00  0.00000000000E+00  0.42981144580E+03  0.42981144582E+03  0.50400001928E-02 0. -1.
        1   -1    0    0  501    0  0.00000000000E+00  0.00000000000E+00 -0.14622659214E+04  0.14622659214E+04  0.50400001928E-02 0.  1.
    10030    2    1    2    0    0  0.00000000000E+00  0.00000000000E+00 -0.10324544756E+04  0.18920773672E+04  0.15855581097E+04 0.  0.
        3    1    3    3  502    0 -0.20992634970E+03  0.67783657034E+03 -0.94380565433E+02  0.71584858016E+03  0.10100000352E+00 0.  1.
       -3    1    3    3    0  502  0.20992634970E+03 -0.67783657034E+03 -0.93807391016E+03  0.11762287871E+04  0.10100000352E+00 0. -1.
</event>
<event>
 5   0  0.2781000E-04  0.1578995E+04  0.7818609E-02  0.8833557E-01
       -3   -1    0    0    0  501  0.00000000000E+00  0.00000000000E+00  0.10470243279E+04  0.10470243328E+04  0.10100000352E+00 0.  1.
        3   -1    0    0  501    0  0.00000000000E+00  0.00000000000E+00 -0.59531179048E+03  0.59531179904E+03  0.10100000352E+00 0. -1.
    10030    2    1    2    0    0  0.00000000000E+00  0.00000000000E+00  0.45171253745E+03  0.16423361318E+04  0.15789945388E+04 0.  0.
        1    1    3    3  502    0  0.86249568674E+02  0.39357049995E+03 -0.48032692803E+03  0.62693754421E+03  0.50400001928E-02 0. -1.
       -1    1    3    3    0  502 -0.86249568674E+02 -0.39357049995E+03  0.93203946548E+03  0.10153985876E+04  0.50400001928E-02 0.  1.
</event>
<event>
 5   0  0.3889847E-04  0.1605651E+04  0.7818609E-02  0.8817084E-01
        1   -1    0    0  501    0  0.00000000000E+00  0.00000000000E+00  0.20926419381E+04  0.20926419381E+04  0.50400001928E-02 0. -1.
       -1   -1    0    0    0  501  0.00000000000E+00  0.00000000000E+00 -0.30799758569E+03  0.30799758573E+03  0.50400001928E-02 0.  1.
    10030    2    1    2    0    0  0.00000000000E+00  0.00000000000E+00  0.17846443524E+04  0.24006395238E+04  0.16056508521E+04 0.  0.
        1    1    3    3  502    0 -0.35405444580E+03 -0.27104916247E+03 -0.10583815224E+03  0.45828366059E+03  0.50400001928E-02 0.  1.
       -1    1    3    3    0  502  0.35405444580E+03  0.27104916247E+03  0.18904825046E+04  0.19423558632E+04  0.50400001928E-02 0. -1.
</event>
<event>
 5   0  0.3950195E-04  0.1582961E+04  0.7818609E-02  0.8831085E-01
       -1   -1    0    0    0  501  0.00000000000E+00  0.00000000000E+00  0.40187080425E+03  0.40187080428E+03  0.50400001928E-02 0. -1.
        1   -1    0    0  501    0  0.00000000000E+00  0.00000000000E+00 -0.15588131185E+04  0.15588131185E+04  0.50400001928E-02 0.  1.
    10030    2    1    2    0    0  0.00000000000E+00  0.00000000000E+00 -0.11569423143E+04  0.19606839228E+04  0.15829611261E+04 0.  0.
        2    1    3    3  502    0  0.51247710220E+03  0.47344320093E+03 -0.10413568155E+04  0.12534772682E+04  0.25500000920E-02 0. -1.
       -2    1    3    3    0  502 -0.51247710220E+03 -0.47344320093E+03 -0.11558549882E+03  0.70720665462E+03  0.25500000920E-02 0.  1.
</event>
<event>
 5   0  0.4110803E-04  0.1482464E+04  0.7818609E-02  0.8896199E-01
        1   -1    0    0  501    0  0.00000000000E+00  0.00000000000E+00  0.17146183858E+04  0.17146183858E+04  0.50400001928E-02 0. -1.
       -1   -1    0    0    0  501  0.00000000000E+00  0.00000000000E+00 -0.32043569109E+03  0.32043569113E+03  0.50400001928E-02 0.  1.
    10030    2    1    2    0    0  0.00000000000E+00  0.00000000000E+00  0.13941826947E+04  0.20350540770E+04  0.14824640670E+04 0.  0.
        5    1    3    3  502    0 -0.53682232594E+03 -0.47724037334E+03  0.44596323663E+03  0.84548322396E+03  0.46999998093E+01 0.  1.
       -5    1    3    3    0  502  0.53682232594E+03  0.47724037334E+03  0.94821945812E+03  0.11895708530E+04  0.46999998093E+01 0. -1.
</event>
<event>
 5   0  0.7415102E-04  0.1593391E+04  0.7818609E-02  0.8824619E-01
       -2   -1    0    0    0  501  0.00000000000E+00  0.00000000000E+00  0.13201911821E+04  0.13201911821E+04  0.25500000920E-02 0. -1.
        2   -1    0    0  501    0  0.00000000000E+00  0.00000000000E+00 -0.48078149860E+03  0.48078149861E+03  0.25500000920E-02 0.  1.
    10030    2    1    2    0    0  0.00000000000E+00  0.00000000000E+00  0.83940968351E+03  0.18009726807E+04  0.15933907179E+04 0.  0.
        5    1    3    3  502    0  0.79011741720E+03 -0.99449400042E+02  0.39378996008E+03  0.88840775480E+03  0.46999998093E+01 0.  1.
       -5    1    3    3    0  502 -0.79011741720E+03  0.99449400042E+02  0.44561972343E+03  0.91256492593E+03  0.46999998093E+01 0. -1.
</event>
<event>
 5   0  0.4110803E-04  0.1558709E+04  0.7818609E-02  0.8846324E-01
        1   -1    0    0  501    0  0.00000000000E+00  0.00000000000E+00  0.79732690800E+03  0.79732690802E+03  0.50400001928E-02 0.  1.
       -1   -1    0    0    0  501  0.00000000000E+00  0.00000000000E+00 -0.76178732336E+03  0.76178732338E+03  0.50400001928E-02 0. -1.
    10030    2    1    2    0    0  0.00000000000E+00  0.00000000000E+00  0.35539584638E+02  0.15591142314E+04  0.15587091212E+04 0.  0.
        5    1    3    3  502    0  0.13984505356E+02  0.43394792141E+03 -0.62959627994E+03  0.76480058224E+03  0.46999998093E+01 0. -1.
       -5    1    3    3    0  502 -0.13984505356E+02 -0.43394792141E+03  0.66513586458E+03  0.79431364915E+03  0.46999998093E+01 0.  1.
</event>
<event>
 5   0  0.7395088E-04  0.1625116E+04  0.7818609E-02  0.8805265E-01
       -2   -1    0    0    0  501  0.00000000000E+00  0.00000000000E+00  0.44359406862E+03  0.44359406862E+03  0.25500000920E-02 0. -1.
        2   -1    0    0  501    0  0.00000000000E+00  0.00000000000E+00 -0.14884107718E+04  0.14884107718E+04  0.25500000920E-02 0.  1.
    10030    2    1    2    0    0  0.00000000000E+00  0.00000000000E+00 -0.10448167032E+04  0.19320048404E+04  0.16251156144E+04 0.  0.
        1    1    3    3  502    0 -0.78394711006E+02  0.36158294763E+02  0.43812629453E+03  0.44655100826E+03  0.50400001928E-02 0. -1.
       -1    1    3    3    0  502  0.78394711006E+02 -0.36158294763E+02 -0.14829429977E+04  0.14854538322E+04  0.50400001928E-02 0.  1.
</event>
<event>
 5   0  0.3889847E-04  0.1618252E+04  0.7818609E-02  0.8809413E-01
        1   -1    0    0  501    0  0.00000000000E+00  0.00000000000E+00  0.22174248153E+04  0.22174248153E+04  0.50400001928E-02 0.  1.
       -1   -1    0    0    0  501  0.00000000000E+00  0.00000000000E+00 -0.29524567838E+03  0.29524567843E+03  0.50400001928E-02 0. -1.
    10030    2    1    2    0    0  0.00000000000E+00  0.00000000000E+00  0.19221791370E+04  0.25126704938E+04  0.16182522596E+04 0.  0.
        1    1    3    3  502    0 -0.50775785149E+03  0.21186251673E+03  0.18822793951E+04  0.19610404083E+04  0.50400001928E-02 0.  1.
       -1    1    3    3    0  502  0.50775785149E+03 -0.21186251673E+03  0.39899741821E+02  0.55163008544E+03  0.50400001928E-02 0. -1.
</event>
<event>
 5   0  0.7553070E-04  0.1602257E+04  0.7818609E-02  0.8819163E-01
        2   -1    0    0  501    0  0.00000000000E+00  0.00000000000E+00  0.16973138444E+04  0.16973138444E+04  0.25500000920E-02 0. -1.
       -2   -1    0    0    0  501  0.00000000000E+00  0.00000000000E+00 -0.37813094761E+03  0.37813094762E+03  0.25500000920E-02 0.  1.
    10030    2    1    2    0    0  0.00000000000E+00  0.00000000000E+00  0.13191828968E+04  0.20754447920E+04  0.16022570236E+04 0.  0.
        4    1    3    3  502    0 -0.24976222765E+03  0.71757067324E+03  0.98860530759E+03  0.12468483904E+04  0.12699999809E+01 0. -1.
       -4    1    3    3    0  502  0.24976222765E+03 -0.71757067324E+03  0.33057758920E+03  0.82859640165E+03  0.12699999809E+01 0.  1.
</event>
<event>
 5   0  0.7488884E-04  0.1582051E+04  0.7818609E-02  0.8831651E-01
       -2   -1    0    0    0  501  0.00000000000E+00  0.00000000000E+00  0.29825446576E+03  0.29825446577E+03  0.25500000920E-02 0. -1.
        2   -1    0    0  501    0  0.00000000000E+00  0.00000000000E+00 -0.20979453706E+04  0.20979453706E+04  0.25500000920E-02 0.  1.
    10030    2    1    2    0    0  0.00000000000E+00  0.00000000000E+00 -0.17996909048E+04  0.23961998364E+04  0.15820512959E+04 0.  0.
        3    1    3    3  502    0  0.69103168663E+03  0.35242109495E+03 -0.66522103026E+03  0.10218827963E+04  0.10100000352E+00 0. -1.
       -3    1    3    3    0  502 -0.69103168663E+03 -0.35242109495E+03 -0.11344698746E+04  0.13743170401E+04  0.10100000352E+00 0.  1.
</event>
<event>
 5   0  0.3973227E-04  0.1494559E+04  0.7818609E-02  0.8888079E-01
        1   -1    0    0  501    0  0.00000000000E+00  0.00000000000E+00  0.10342729963E+04  0.10342729963E+04  0.50400001928E-02 0.  1.
       -1   -1    0    0    0  501  0.00000000000E+00  0.00000000000E+00 -0.53992172508E+03  0.53992172510E+03  0.50400001928E-02 0. -1.
    10030    2    1    2    0    0  0.00000000000E+00  0.00000000000E+00  0.49435127123E+03  0.15741947214E+04  0.14945587448E+04 0.  0.
        3    1    3    3  502    0 -0.39902024640E+03  0.52027880812E+03  0.62477352791E+03  0.90567608260E+03  0.10100000352E+00 0.  1.
       -3    1    3    3    0  502  0.39902024640E+03 -0.52027880812E+03 -0.13042225668E+03  0.66851863882E+03  0.10100000352E+00 0. -1.
</event>
<event>
 5   0  0.4110803E-04  0.1568620E+04  0.7818609E-02  0.8840061E-01
       -1   -1    0    0    0  501  0.00000000000E+00  0.00000000000E+00  0.10183562695E+04  0.10183562695E+04  0.50400001928E-02 0.  1.
        1   -1    0    0  501    0  0.00000000000E+00  0.00000000000E+00 -0.60405438000E+03  0.60405438003E+03  0.50400001928E-02 0. -1.
    10030    2    1    2    0    0  0.00000000000E+00  0.00000000000E+00  0.41430188951E+03  0.16224106495E+04  0.15686204959E+04 0.  0.
        5    1    3    3  502    0  0.14237827953E+03  0.20434048880E+03 -0.56205445412E+03  0.61477956151E+03  0.46999998093E+01 0. -1.
       -5    1    3    3    0  502 -0.14237827953E+03 -0.20434048880E+03  0.97635634363E+03  0.10076310880E+04  0.46999998093E+01 0.  1.
</event>
<event>
 5   0  0.2781000E-04  0.1638410E+04  0.7818609E-02  0.8797292E-01
        3   -1    0    0  501    0  0.00000000000E+00  0.00000000000E+00  0.92525267792E+03  0.92525268343E+03  0.10100000352E+00 0. -1.
       -3   -1    0    0    0  501  0.00000000000E+00  0.00000000000E+00 -0.72531230404E+03  0.72531231107E+03  0.10100000352E+00 0.  1.
    10030    2    1    2    0    0  0.00000000000E+00  0.00000000000E+00  0.19994037388E+03  0.16505649945E+04  0.16384104028E+04 0.  0.
        3    1    3    3  502    0 -0.24144338142E+03 -0.83231486191E+01 -0.68860945022E+03  0.72975829311E+03  0.10100000352E+00 0.  1.
       -3    1    3    3    0  502  0.24144338142E+03  0.83231486191E+01  0.88854982410E+03  0.92080670140E+03  0.10100000352E+00 0. -1.
</event>
<event>
 5   0  0.3837251E-04  0.1611990E+04  0.7818609E-02  0.8813216E-01
       -1   -1    0    0    0  501  0.00000000000E+00  0.00000000000E+00  0.11447106510E+04  0.11447106510E+04  0.50400001928E-02 0. -1.
        1   -1    0    0  501    0  0.00000000000E+00  0.00000000000E+00 -0.56750406043E+03  0.56750406046E+03  0.50400001928E-02 0.  1.
    10030    2    1    2    0    0  0.00000000000E+00  0.00000000000E+00  0.57720659052E+03  0.17122147114E+04  0.16119900030E+04 0.  0.
        4    1    3    3  502    0 -0.61390556156E+03  0.46385272319E+03  0.54349628396E+03  0.94203461237E+03  0.12699999809E+01 0. -1.
       -4    1    3    3    0  502  0.61390556156E+03 -0.46385272319E+03  0.33710306566E+02  0.77018009906E+03  0.12699999809E+01 0.  1.
</event>
<event>
 5   0  0.7415102E-04  0.1608684E+04  0.7818609E-02  0.8815231E-01
       -2   -1    0    0    0  501  0.00000000000E+00  0.00000000000E+00  0.73117127489E+03  0.73117127490E+03  0.25500000920E-02 0.  1.
        2   -1    0    0  501    0  0.00000000000E+00  0.00000000000E+00 -0.88483542691E+03  0.88483542691E+03  0.25500000920E-02 0. -1.
    10030    2    1    2    0    0  0.00000000000E+00  0.00000000000E+00 -0.15366415201E+03  0.16160067018E+04  0.16086842414E+04 0.  0.
        5    1    3    3  502    0 -0.44529470510E+03 -0.36507959544E+03  0.48730555080E+03  0.75436017607E+03  0.46999998093E+01 0.  1.
       -5    1    3    3    0  502  0.44529470510E+03  0.36507959544E+03 -0.64096970282E+03  0.86164652574E+03  0.46999998093E+01 0. -1.
</event>
<event>
 5   0  0.7770905E-04  0.1595901E+04  0.7818609E-02  0.8823070E-01
       -2   -1    0    0    0  501  0.00000000000E+00  0.00000000000E+00  0.69952068875E+03  0.69952068875E+03  0.25500000920E-02 0.  1.
        2   -1    0    0  501    0  0.00000000000E+00  0.00000000000E+00 -0.91022993369E+03  0.91022993369E+03  0.25500000920E-02 0. -1.
    10030    2    1    2    0    0  0.00000000000E+00  0.00000000000E+00 -0.21070924494E+03  0.16097506224E+04  0.15959005860E+04 0.  0.
        2    1    3    3  502    0  0.53023521934E+03 -0.45344943205E+03  0.28525135324E+03  0.75374671462E+03  0.25500000920E-02 0.  1.
       -2    1    3    3    0  502 -0.53023521934E+03  0.45344943205E+03 -0.49596059818E+03  0.85600390783E+03  0.25500000920E-02 0. -1.
</event>
<event>
 5   0  0.7488884E-04  0.1583893E+04  0.7818609E-02  0.8830505E-01
        2   -1    0    0  501    0  0.00000000000E+00  0.00000000000E+00  0.11671661525E+04  0.11671661525E+04  0.25500000920E-02 0. -1.
       -2   -1    0    0    0  501  0.00000000000E+00  0.00000000000E+00 -0.53735189480E+03  0.53735189481E+03  0.25500000920E-02 0.  1.
    10030    2    1    2    0    0  0.00000000000E+00  0.00000000000E+00  0.62981425769E+03  0.17045180473E+04  0.15838926019E+04 0.  0.
        3    1    3    3  502    0  0.57487983403E+03 -0.51948346940E+03  0.49117712633E+03  0.91739025402E+03  0.10100000352E+00 0.  1.
       -3    1    3    3    0  502 -0.57487983403E+03  0.51948346940E+03  0.13863713136E+03  0.78712779327E+03  0.10100000352E+00 0. -1.
</event>
<event>
 5   0  0.7770905E-04  0.1556296E+04  0.7818609E-02  0.8847856E-01
        2   -1    0    0  501    0  0.00000000000E+00  0.00000000000E+00  0.84711784087E+03  0.84711784087E+03  0.25500000920E-02 0.  1.
       -2   -1    0    0    0  501  0.00000000000E+00  0.00000000000E+00 -0.71479364535E+03  0.71479364536E+03  0.25500000920E-02 0. -1.
    10030    2    1    2    0    0  0.00000000000E+00  0.00000000000E+00  0.13232419552E+03  0.15619114862E+04  0.15562961794E+04 0.  0.
        2    1    3    3  502    0 -0.73569026318E+03  0.25352283888E+03  0.65484126551E+02  0.78089830580E+03  0.25500000920E-02 0.  1.
       -2    1    3    3    0  502  0.73569026318E+03 -0.25352283888E+03  0.66840068966E+02  0.78101318042E+03  0.25500000920E-02 0. -1.
</event>
<event>
 5   0  0.7488884E-04  0.1608823E+04  0.7818609E-02  0.8815146E-01
        2   -1    0    0  501    0  0.00000000000E+00  0.00000000000E+00  0.10301316391E+04  0.10301316391E+04  0.25500000920E-02 0. -1.
       -2   -1    0    0    0  501  0.00000000000E+00  0.00000000000E+00 -0.62815073313E+03  0.62815073314E+03  0.25500000920E-02 0.  1.
    10030    2    1    2    0    0  0.00000000000E+00  0.00000000000E+00  0.40198090600E+03  0.16582823723E+04  0.16088231032E+04 0.  0.
        3    1    3    3  502    0  0.22307996052E+03 -0.57196981845E+03  0.73674240460E+03  0.95901174286E+03  0.10100000352E+00 0. -1.
       -3    1    3    3    0  502 -0.22307996052E+03  0.57196981845E+03 -0.33476149860E+03  0.69927062941E+03  0.10100000352E+00 0.  1.
</event>
<event>
 5   0  0.7415102E-04  0.1605970E+04  0.7818609E-02  0.8816889E-01
       -2   -1    0    0    0  501  0.00000000000E+00  0.00000000000E+00  0.51179369134E+03  0.51179369135E+03  0.25500000920E-02 0.  1.
        2   -1    0    0  501    0  0.00000000000E+00  0.00000000000E+00 -0.12598532765E+04  0.12598532765E+04  0.25500000920E-02 0. -1.
    10030    2    1    2    0    0  0.00000000000E+00  0.00000000000E+00 -0.74805958511E+03  0.17716469678E+04  0.16059700606E+04 0.  0.
        5    1    3    3  502    0 -0.14520404585E+03  0.57087510614E+03 -0.97601760415E+03  0.11400066032E+04  0.46999998093E+01 0. -1.
       -5    1    3    3    0  502  0.14520404585E+03 -0.57087510614E+03  0.22795801904E+03  0.63164036459E+03  0.46999998093E+01 0.  1.
</event>
<event>
 5   0  0.7553070E-04  0.1591792E+04  0.7818609E-02  0.8825606E-01
       -2   -1    0    0    0  501  0.00000000000E+00  0.00000000000E+00  0.59996263758E+03  0.59996263759E+03  0.25500000920E-02 0. -1.
        2   -1    0    0  501    0  0.00000000000E+00  0.00000000000E+00 -0.10558171316E+04  0.10558171316E+04  0.25500000920E-02 0.  1.
    10030    2    1    2    0    0  0.00000000000E+00  0.00000000000E+00 -0.45585449403E+03  0.16557797692E+04  0.15917924879E+04 0.  0.
        4    1    3    3  502    0 -0.85066430888E+00  0.39852314422E+03 -0.94455348722E+03  0.10251850190E+04  0.12699999809E+01 0.  1.
       -4    1    3    3    0  502  0.85066430888E+00 -0.39852314422E+03  0.48869899319E+03  0.63059475018E+03  0.12699999809E+01 0. -1.
</event>
<event>
 5   0  0.7553070E-04  0.1589481E+04  0.7818609E-02  0.8827037E-01
        2   -1    0    0  501    0  0.00000000000E+00  0.00000000000E+00  0.74617080663E+03  0.74617080663E+03  0.25500000920E-02 0. -1.
       -2   -1    0    0    0  501  0.00000000000E+00  0.00000000000E+00 -0.84647135548E+03  0.84647135548E+03  0.25500000920E-02 0.  1.
    10030    2    1    2    0    0  0.00000000000E+00  0.00000000000E+00 -0.10030054885E+03  0.15926421621E+04  0.15894806877E+04 0.  0.
        4    1    3    3  502    0  0.13076751628E+03  0.54673168715E+03  0.51274545681E+03  0.76087134091E+03  0.12699999809E+01 0. -1.
       -4    1    3    3    0  502 -0.13076751628E+03 -0.54673168715E+03 -0.61304600567E+03  0.83177082120E+03  0.12699999809E+01 0.  1.
</event>
<event>
 5   0  0.3889847E-04  0.1566697E+04  0.7818609E-02  0.8841273E-01
        1   -1    0    0  501    0  0.00000000000E+00  0.00000000000E+00  0.60963679939E+03  0.60963679941E+03  0.50400001928E-02 0. -1.
       -1   -1    0    0    0  501  0.00000000000E+00  0.00000000000E+00 -0.10065577441E+04  0.10065577441E+04  0.50400001928E-02 0.  1.
    10030    2    1    2    0    0  0.00000000000E+00  0.00000000000E+00 -0.39692094471E+03  0.16161945435E+04  0.15666967052E+04 0.  0.
        1    1    3    3  502    0 -0.85219720636E+02 -0.77635865096E+03 -0.13622632829E+03  0.79281319884E+03  0.50400001928E-02 0. -1.
       -1    1    3    3    0  502  0.85219720636E+02  0.77635865096E+03 -0.26069461642E+03  0.82338134468E+03  0.50400001928E-02 0.  1.
</event>
<event>
 5   0  0.7770905E-04  0.1562811E+04  0.7818609E-02  0.8843726E-01
        2   -1    0    0  501    0  0.00000000000E+00  0.00000000000E+00  0.25827337349E+04  0.25827337349E+04  0.25500000920E-02 0. -1.
       -2   -1    0    0    0  501  0.00000000000E+00  0.00000000000E+00 -0.23641391054E+03  0.23641391056E+03  0.25500000920E-02 0.  1.
    10030    2    1    2    0    0  0.00000000000E+00  0.00000000000E+00  0.23463198244E+04  0.28191476455E+04  0.15628105223E+04 0.  0.
        2    1    3    3  502    0 -0.24683577569E+02  0.56704373040E+03  0.20433791850E+03  0.60324278374E+03  0.25500000920E-02 0.  1.
       -2    1    3    3    0  502  0.24683577569E+02 -0.56704373040E+03  0.21419819059E+04  0.22159048618E+04  0.25500000920E-02 0. -1.
</event>
<event>
 5   0  0.4110803E-04  0.1557845E+04  0.7818609E-02  0.8846872E-01
       -1   -1    0    0    0  501  0.00000000000E+00  0.00000000000E+00  0.28510228311E+03  0.28510228316E+03  0.50400001928E-02 0.  1.
        1   -1    0    0  501    0  0.00000000000E+00  0.00000000000E+00 -0.21280793158E+04  0.21280793159E+04  0.50400001928E-02 0. -1.
    10030    2    1    2    0    0  0.00000000000E+00  0.00000000000E+00 -0.18429770327E+04  0.24131815990E+04  0.15578450137E+04 0.  0.
        5    1    3    3  502    0 -0.41850372627E+03  0.64416196789E+03 -0.72185811873E+03  0.10541305628E+04  0.46999998093E+01 0.  1.
       -5    1    3    3    0  502  0.41850372627E+03 -0.64416196789E+03 -0.11211189140E+04  0.13590510362E+04  0.46999998093E+01 0. -1.
</event>
<event>
 5   0  0.3837251E-04  0.1386470E+04  0.7818609E-02  0.8963671E-01
       -1   -1    0    0    0  501  0.00000000000E+00  0.00000000000E+00  0.21880760239E+03  0.21880760245E+03  0.50400001928E-02 0. -1.
        1   -1    0    0  501    0  0.00000000000E+00  0.00000000000E+00 -0.21963353856E+04  0.21963353856E+04  0.50400001928E-02 0.  1.
    10030    2    1    2    0    0  0.00000000000E+00  0.00000000000E+00 -0.19775277832E+04  0.24151429880E+04  0.13864701653E+04 0.  0.
        4    1    3    3  502    0  0.47337740120E+03 -0.44533196790E+02 -0.10998515866E+03  0.48802430023E+03  0.12699999809E+01 0. -1.
       -4    1    3    3    0  502 -0.47337740120E+03  0.44533196790E+02 -0.18675426245E+04  0.19271186878E+04  0.12699999809E+01 0.  1.
</event>
<event>
 5   0  0.4110803E-04  0.1591965E+04  0.7818609E-02  0.8825500E-01
        1   -1    0    0  501    0  0.00000000000E+00  0.00000000000E+00  0.26894027438E+04  0.26894027438E+04  0.50400001928E-02 0. -1.
       -1   -1    0    0    0  501  0.00000000000E+00  0.00000000000E+00 -0.23558686635E+03  0.23558686641E+03  0.50400001928E-02 0.  1.
    10030    2    1    2    0    0  0.00000000000E+00  0.00000000000E+00  0.24538158774E+04  0.29249896102E+04  0.15919647796E+04 0.  0.
        5    1    3    3  502    0 -0.35999891775E+03 -0.33893473003E+03  0.80825513316E+02  0.50102976519E+03  0.46999998093E+01 0.  1.
       -5    1    3    3    0  502  0.35999891775E+03  0.33893473003E+03  0.23729903641E+04  0.24239598450E+04  0.46999998093E+01 0. -1.
</event>
<event>
 5   0  0.7395088E-04  0.1592709E+04  0.7818609E-02  0.8825039E-01
        2   -1    0    0  501    0  0.00000000000E+00  0.00000000000E+00  0.12716951983E+04  0.12716951983E+04  0.25500000920E-02 0. -1.
       -2   -1    0    0    0  501  0.00000000000E+00  0.00000000000E+00 -0.49868930941E+03  0.49868930942E+03  0.25500000920E-02 0.  1.
    10030    2    1    2    0    0  0.00000000000E+00  0.00000000000E+00  0.77300588891E+03  0.17703845077E+04  0.15927093900E+04 0.  0.
        1    1    3    3  502    0  0.33266285241E+03  0.60170140235E+02  0.11879765169E+04  0.12351409732E+04  0.50400001928E-02 0. -1.
       -1    1    3    3    0  502 -0.33266285241E+03 -0.60170140235E+02 -0.41497062794E+03  0.53524353451E+03  0.50400001928E-02 0.  1.
</event>
<event>
 5   0  0.7488884E-04  0.1555561E+04  0.7818609E-02  0.8848324E-01
       -2   -1    0    0    0  501  0.00000000000E+00  0.00000000000E+00  0.14301079399E+04  0.14301079399E+04  0.25500000920E-02 0.  1.
        2   -1    0    0  501    0  0.00000000000E+00  0.00000000000E+00 -0.42300466233E+03  0.42300466234E+03  0.25500000920E-02 0. -1.
    10030    2    1    2    0    0  0.00000000000E+00  0.00000000000E+00  0.10071032776E+04  0.18531126022E+04  0.15555607686E+04 0.  0.
        3    1    3    3  502    0 -0.31891139282E+03  0.14793584512E+03  0.13300587422E+04  0.13757346251E+04  0.10100000352E+00 0.  1.
       -3    1    3    3    0  502  0.31891139282E+03 -0.14793584512E+03 -0.32295546463E+03  0.47737797716E+03  0.10100000352E+00 0. -1.
</event>
<event>
 5   0  0.7415102E-04  0.1605542E+04  0.7818609E-02  0.8817150E-01
       -2   -1    0    0    0  501  0.00000000000E+00  0.00000000000E+00  0.31114620053E+03  0.31114620054E+03  0.25500000920E-02 0.  1.
        2   -1    0    0  501    0  0.00000000000E+00  0.00000000000E+00 -0.20711851009E+04  0.20711851009E+04  0.25500000920E-02 0. -1.
    10030    2    1    2    0    0  0.00000000000E+00  0.00000000000E+00 -0.17600389004E+04  0.23823313015E+04  0.16055421200E+04 0.  0.
        5    1    3    3  502    0  0.13714976092E+03  0.71806357942E+03 -0.38790649200E+03  0.82759827063E+03  0.46999998093E+01 0.  1.
       -5    1    3    3    0  502 -0.13714976092E+03 -0.71806357942E+03 -0.13721324084E+04  0.15547330309E+04  0.46999998093E+01 0. -1.
</event>
<event>
 5   0  0.4110803E-04  0.1653401E+04  0.7818609E-02  0.8788397E-01
        1   -1    0    0  501    0  0.00000000000E+00  0.00000000000E+00  0.96021342951E+03  0.96021342952E+03  0.50400001928E-02 0. -1.
       -1   -1    0    0    0  501  0.00000000000E+00  0.00000000000E+00 -0.71175211813E+03  0.71175211815E+03  0.50400001928E-02 0.  1.
    10030    2    1    2    0    0  0.00000000000E+00  0.00000000000E+00  0.24846131138E+03  0.16719655477E+04  0.16534012729E+04 0.  0.
        5    1    3    3  502    0  0.27054425080E+02 -0.70984536323E+03  0.55182521532E+03  0.89952517468E+03  0.46999998093E+01 0. -1.
       -5    1    3    3    0  502 -0.27054425080E+02  0.70984536323E+03 -0.30336390394E+03  0.77244037299E+03  0.46999998093E+01 0.  1.
</event>
<event>
 5   0  0.7488884E-04  0.1602871E+04  0.7818609E-02  0.8818786E-01
        2   -1    0    0  501    0  0.00000000000E+00  0.00000000000E+00  0.10376361382E+04  0.10376361382E+04  0.25500000920E-02 0.  1.
       -2   -1    0    0    0  501  0.00000000000E+00  0.00000000000E+00 -0.61900166166E+03  0.61900166167E+03  0.25500000920E-02 0. -1.
    10030    2    1    2    0    0  0.00000000000E+00  0.00000000000E+00  0.41863447651E+03  0.16566377998E+04  0.16028705422E+04 0.  0.
        3    1    3    3  502    0 -0.32780995501E+02 -0.73877740216E+02 -0.61477867025E+03  0.62006881696E+03  0.10100000352E+00 0. -1.
       -3    1    3    3    0  502  0.32780995501E+02  0.73877740216E+02  0.10334131468E+04  0.10365689829E+04  0.10100000352E+00 0.  1.
</event>
<event>
 5   0  0.7553070E-04  0.1597767E+04  0.7818609E-02  0.8821921E-01
       -2   -1    0    0    0  501  0.00000000000E+00  0.00000000000E+00  0.71754505330E+03  0.71754505330E+03  0.25500000920E-02 0. -1.
        2   -1    0    0  501    0  0.00000000000E+00  0.00000000000E+00 -0.88944174278E+03  0.88944174279E+03  0.25500000920E-02 0.  1.
    10030    2    1    2    0    0  0.00000000000E+00  0.00000000000E+00 -0.17189668949E+03  0.16069867961E+04  0.15977665946E+04 0.  0.
        4    1    3    3  502    0 -0.46449094309E+03 -0.64978876630E+03 -0.70509426673E+02  0.80184192280E+03  0.12699999809E+01 0. -1.
       -4    1    3    3    0  502  0.46449094309E+03  0.64978876630E+03 -0.10138726282E+03  0.80514487329E+03  0.12699999809E+01 0.  1.
</event>
<event>
 5   0  0.7415102E-04  0.1560215E+04  0.7818609E-02  0.8845369E-01
       -2   -1    0    0    0  501  0.00000000000E+00  0.00000000000E+00  0.89381290149E+03  0.89381290149E+03  0.25500000920E-02 0. -1.
        2   -1    0    0  501    0  0.00000000000E+00  0.00000000000E+00 -0.68086678745E+03  0.68086678745E+03  0.25500000920E-02 0.  1.
    10030    2    1    2    0    0  0.00000000000E+00  0.00000000000E+00  0.21294611404E+03  0.15746796889E+04  0.15602147529E+04 0.  0.
        5    1    3    3  502    0  0.53400413663E+03 -0.26720653434E+03  0.61310874093E+03  0.85585288930E+03  0.46999998093E+01 0. -1.
       -5    1    3    3    0  502 -0.53400413663E+03  0.26720653434E+03 -0.40016262688E+03  0.71882679964E+03  0.46999998093E+01 0.  1.
</event>
<event>
 5   0  0.4110803E-04  0.1640356E+04  0.7818609E-02  0.8796132E-01
        1   -1    0    0  501    0  0.00000000000E+00  0.00000000000E+00  0.61853714297E+03  0.61853714300E+03  0.50400001928E-02 0. -1.
       -1   -1    0    0    0  501  0.00000000000E+00  0.00000000000E+00 -0.10875526363E+04  0.10875526363E+04  0.50400001928E-02 0.  1.
    10030    2    1    2    0    0  0.00000000000E+00  0.00000000000E+00 -0.46901549335E+03  0.17060897793E+04  0.16403556938E+04 0.  0.
        5    1    3    3  502    0  0.52779871849E+03 -0.48178423734E+03 -0.65310591701E+03  0.96812032693E+03  0.46999998093E+01 0.  1.
       -5    1    3    3    0  502 -0.52779871849E+03  0.48178423734E+03  0.18409042367E+03  0.73796945240E+03  0.46999998093E+01 0. -1.
</event>
<event>
 5   0  0.7488884E-04  0.1582286E+04  0.7818609E-02  0.8831505E-01
        2   -1    0    0  501    0  0.00000000000E+00  0.00000000000E+00  0.12416364023E+04  0.12416364023E+04  0.25500000920E-02 0.  1.
       -2   -1    0    0    0  501  0.00000000000E+00  0.00000000000E+00 -0.50409834494E+03  0.50409834494E+03  0.25500000920E-02 0. -1.
    10030    2    1    2    0    0  0.00000000000E+00  0.00000000000E+00  0.73753805738E+03  0.17457347473E+04  0.15822855058E+04 0.  0.
        3    1    3    3  502    0  0.57519235558E+02  0.50189314573E+02 -0.50002547281E+03  0.50581905205E+03  0.10100000352E+00 0. -1.
       -3    1    3    3    0  502 -0.57519235558E+02 -0.50189314573E+02  0.12375635302E+04  0.12399156952E+04  0.10100000352E+00 0.  1.
</event>
<event>
 5   0  0.7395088E-04  0.1567067E+04  0.7818609E-02  0.8841039E-01
       -2   -1    0    0    0  501  0.00000000000E+00  0.00000000000E+00  0.12565662402E+04  0.12565662402E+04  0.25500000920E-02 0.  1.
        2   -1    0    0  501    0  0.00000000000E+00  0.00000000000E+00 -0.48857336440E+03  0.48857336440E+03  0.25500000920E-02 0. -1.
    10030    2    1    2    0    0  0.00000000000E+00  0.00000000000E+00  0.76799287580E+03  0.17451396046E+04  0.15670670637E+04 0.  0.
        1    1    3    3  502    0  0.49522625976E+01 -0.72843348309E+03  0.62611286354E+02  0.73113612781E+03  0.50400001928E-02 0. -1.
       -1    1    3    3    0  502 -0.49522625976E+01  0.72843348309E+03  0.70538158945E+03  0.10140034768E+04  0.50400001928E-02 0.  1.
</event>
<event>
 5   0  0.7553070E-04  0.1597391E+04  0.7818609E-02  0.8822152E-01
        2   -1    0    0  501    0  0.00000000000E+00  0.00000000000E+00  0.22997923536E+04  0.22997923536E+04  0.25500000920E-02 0.  1.
       -2   -1    0    0    0  501  0.00000000000E+00  0.00000000000E+00 -0.27737929055E+03  0.27737929056E+03  0.25500000920E-02 0. -1.
    10030    2    1    2    0    0  0.00000000000E+00  0.00000000000E+00  0.20224130631E+04  0.25771716442E+04  0.15973913377E+04 0.  0.
        4    1    3    3  502    0 -0.42411423123E+03 -0.67472635059E+03  0.10963430153E+04  0.13553959383E+04  0.12699999809E+01 0. -1.
       -4    1    3    3    0  502  0.42411423123E+03  0.67472635059E+03  0.92607004773E+03  0.12217757059E+04  0.12699999809E+01 0.  1.
</event>
<event>
 5   0  0.7395088E-04  0.1586960E+04  0.7818609E-02  0.8828599E-01
        2   -1    0    0  501    0  0.00000000000E+00  0.00000000000E+00  0.11612930943E+04  0.11612930943E+04  0.25500000920E-02 0. -1.
       -2   -1    0    0    0  501  0.00000000000E+00  0.00000000000E+00 -0.54216354830E+03  0.54216354831E+03  0.25500000920E-02 0.  1.
    10030    2    1    2    0    0  0.00000000000E+00  0.00000000000E+00  0.61912954597E+03  0.17034566426E+04  0.15869603456E+04 0.  0.
        1    1    3    3  502    0 -0.33268186560E+03 -0.32797160279E+03 -0.37889784094E+03  0.60150325837E+03  0.50400001928E-02 0.  1.
       -1    1    3    3    0  502  0.33268186560E+03  0.32797160279E+03  0.99802738691E+03  0.11019533842E+04  0.50400001928E-02 0. -1.
</event>
<event>
 5   0  0.7488884E-04  0.1600164E+04  0.7818609E-02  0.8820447E-01
       -2   -1    0    0    0  501  0.00000000000E+00  0.00000000000E+00  0.40539158286E+03  0.40539158287E+03  0.25500000920E-02 0.  1.
        2   -1    0    0  501    0  0.00000000000E+00  0.00000000000E+00 -0.15790438252E+04  0.15790438252E+04  0.25500000920E-02 0. -1.
    10030    2    1    2    0    0  0.00000000000E+00  0.00000000000E+00 -0.11736522423E+04  0.19844354080E+04  0.16001638362E+04 0.  0.
        3    1    3    3  502    0 -0.67523100253E+02  0.79642990099E+03 -0.54261169877E+03  0.96606802147E+03  0.10100000352E+00 0.  1.
       -3    1    3    3    0  502  0.67523100253E+02 -0.79642990099E+03 -0.63104054354E+03  0.10183673866E+04  0.10100000352E+00 0. -1.
</event>
<event>
 5   0  0.7770905E-04  0.1583190E+04  0.7818609E-02  0.8830942E-01
        2   -1    0    0  501    0  0.00000000000E+00  0.00000000000E+00  0.84184612789E+03  0.84184612790E+03  0.25500000920E-02 0.  1.
       -2   -1    0    0    0  501  0.00000000000E+00  0.00000000000E+00 -0.74434349052E+03  0.74434349052E+03  0.25500000920E-02 0. -1.
    10030    2    1    2    0    0  0.00000000000E+00  0.00000000000E+00  0.97502637373E+02  0.15861896184E+04  0.15831900522E+04 0.  0.
        2    1    3    3  502    0  0.74623484024E+02  0.33790214779E+02  0.83758810893E+03  0.84158438865E+03  0.25500000920E-02 0.  1.
       -2    1    3    3    0  502 -0.74623484024E+02 -0.33790214779E+02 -0.74008547156E+03  0.74460522977E+03  0.25500000920E-02 0. -1.
</event>
<event>
 5   0  0.7395088E-04  0.1602799E+04  0.7818609E-02  0.8818830E-01
        2   -1    0    0  501    0  0.00000000000E+00  0.00000000000E+00  0.16905881638E+04  0.16905881638E+04  0.25500000920E-02 0.  1.
       -2   -1    0    0    0  501  0.00000000000E+00  0.00000000000E+00 -0.37989230707E+03  0.37989230708E+03  0.25500000920E-02 0. -1.
    10030    2    1    2    0    0  0.00000000000E+00  0.00000000000E+00  0.13106958568E+04  0.20704804709E+04  0.16027993485E+04 0.  0.
        1    1    3    3  502    0  0.79072886493E+03 -0.12602664926E+03  0.69831978475E+03  0.10624431166E+04  0.50400001928E-02 0.  1.
       -1    1    3    3    0  502 -0.79072886493E+03  0.12602664926E+03  0.61237607203E+03  0.10080373544E+04  0.50400001928E-02 0. -1.
</event>
<event>
 5   0  0.7770905E-04  0.1600751E+04  0.7818609E-02  0.8820087E-01
        2   -1    0    0  501    0  0.00000000000E+00  0.00000000000E+00  0.11122330020E+04  0.11122330020E+04  0.25500000920E-02 0.  1.
       -2   -1    0    0    0  501  0.00000000000E+00  0.00000000000E+00 -0.57595896752E+03  0.57595896752E+03  0.25500000920E-02 0. -1.
    10030    2    1    2    0    0  0.00000000000E+00  0.00000000000E+00  0.53627403449E+03  0.16881919695E+04  0.16007505383E+04 0.  0.
        2    1    3    3  502    0  0.29755342076E+03  0.56397003529E+03 -0.24202299081E+03  0.68203765805E+03  0.25500000920E-02 0. -1.
       -2    1    3    3    0  502 -0.29755342076E+03 -0.56397003529E+03  0.77829702531E+03  0.10061543115E+04  0.25500000920E-02 0.  1.
</event>
<event>
 5   0  0.3889847E-04  0.1634403E+04  0.7818609E-02  0.8799687E-01
        1   -1    0    0  501    0  0.00000000000E+00  0.00000000000E+00  0.19022844212E+04  0.19022844213E+04  0.50400001928E-02 0. -1.
       -1   -1    0    0    0  501  0.00000000000E+00  0.00000000000E+00 -0.35106120517E+03  0.35106120521E+03  0.50400001928E-02 0.  1.
    10030    2    1    2    0    0  0.00000000000E+00  0.00000000000E+00  0.15512232161E+04  0.22533456265E+04  0.16344029632E+04 0.  0.
        1    1    3    3  502    0  0.60959918955E+03  0.51680150738E+03  0.10108937140E+04  0.12886431123E+04  0.50400001928E-02 0. -1.
       -1    1    3    3    0  502 -0.60959918955E+03 -0.51680150738E+03  0.54032950207E+03  0.96470251413E+03  0.50400001928E-02 0.  1.
</event>
<event>
 5   0  0.3950195E-04  0.1601993E+04  0.7818609E-02  0.8819324E-01
       -1   -1    0    0    0  501  0.00000000000E+00  0.00000000000E+00  0.71259176797E+03  0.71259176799E+03  0.50400001928E-02 0.  1.
        1   -1    0    0  501    0  0.00000000000E+00  0.00000000000E+00 -0.90036925316E+03  0.90036925318E+03  0.50400001928E-02 0. -1.
    10030    2    1    2    0    0  0.00000000000E+00  0.00000000000E+00 -0.18777748519E+03  0.16129610212E+04  0.16019934057E+04 0.  0.
        2    1    3    3  502    0 -0.79978231801E+03  0.19174482957E+02 -0.53914272187E+02  0.80182676791E+03  0.25500000920E-02 0.  1.
       -2    1    3    3    0  502  0.79978231801E+03 -0.19174482957E+02 -0.13386321300E+03  0.81113425325E+03  0.25500000920E-02 0. -1.
</event>
<event>
 5   0  0.3837251E-04  0.1633081E+04  0.7818609E-02  0.8800479E-01
       -1   -1    0    0    0  501  0.00000000000E+00  0.00000000000E+00  0.48865060191E+03  0.48865060194E+03  0.50400001928E-02 0. -1.
        1   -1    0    0  501    0  0.00000000000E+00  0.00000000000E+00 -0.13644482011E+04  0.13644482011E+04  0.50400001928E-02 0.  1.
    10030    2    1    2    0    0  0.00000000000E+00  0.00000000000E+00 -0.87579759920E+03  0.18530988031E+04  0.16330810571E+04 0.  0.
        4    1    3    3  502    0  0.42010292384E+03 -0.12987523479E+03  0.34282435815E+03  0.55756990294E+03  0.12699999809E+01 0. -1.
       -4    1    3    3    0  502 -0.42010292384E+03  0.12987523479E+03 -0.12186219573E+04  0.12955289001E+04  0.12699999809E+01 0.  1.
</event>
<event>
 5   0  0.4110803E-04  0.1615073E+04  0.7818609E-02  0.8811341E-01
        1   -1    0    0  501    0  0.00000000000E+00  0.00000000000E+00  0.85868208924E+03  0.85868208926E+03  0.50400001928E-02 0. -1.
       -1   -1    0    0    0  501  0.00000000000E+00  0.00000000000E+00 -0.75943764029E+03  0.75943764031E+03  0.50400001928E-02 0.  1.
    10030    2    1    2    0    0  0.00000000000E+00  0.00000000000E+00  0.99244448953E+02  0.16181197296E+04  0.16150733725E+04 0.  0.
        5    1    3    3  502    0 -0.40092715850E+03 -0.69243685365E+03  0.15883254015E+03  0.81575808210E+03  0.46999998093E+01 0. -1.
       -5    1    3    3    0  502  0.40092715850E+03  0.69243685365E+03 -0.59588091202E+02  0.80236164746E+03  0.46999998093E+01 0.  1.
</event>
<event>
 5   0  0.7488884E-04  0.1608597E+04  0.7818609E-02  0.8815284E-01
       -2   -1    0    0    0  501  0.00000000000E+00  0.00000000000E+00  0.32584162211E+04  0.32584162211E+04  0.25500000920E-02 0.  1.
        2   -1    0    0  501    0  0.00000000000E+00  0.00000000000E+00 -0.19853075063E+03  0.19853075064E+03  0.25500000920E-02 0. -1.
    10030    2    1    2    0    0  0.00000000000E+00  0.00000000000E+00  0.30598854704E+04  0.34569469717E+04  0.16085966782E+04 0.  0.
        3    1    3    3  502    0  0.25419920036E+03  0.57881707504E+02 -0.10520852547E+03  0.28113407755E+03  0.10100000352E+00 0. -1.
       -3    1    3    3    0  502 -0.25419920036E+03 -0.57881707504E+02  0.31650939959E+04  0.31758128942E+04  0.10100000352E+00 0.  1.
</event>
<event>
 5   0  0.2781000E-04  0.1593636E+04  0.7818609E-02  0.8824467E-01
        3   -1    0    0  501    0  0.00000000000E+00  0.00000000000E+00  0.13268067267E+04  0.13268067305E+04  0.10100000352E+00 0.  1.
       -3   -1    0    0    0  501  0.00000000000E+00  0.00000000000E+00 -0.47853184303E+03  0.47853185369E+03  0.10100000352E+00 0. -1.
    10030    2    1    2    0    0  0.00000000000E+00  0.00000000000E+00  0.84827488366E+03  0.18053385842E+04  0.15936364471E+04 0.  0.
        5    1    3    3  502    0 -0.67898530770E+03  0.16344488862E+03 -0.10439941720E+02  0.69847431024E+03  0.46999998093E+01 0. -1.
       -5    1    3    3    0  502  0.67898530770E+03 -0.16344488862E+03  0.85871482538E+03  0.11068642740E+04  0.46999998093E+01 0.  1.
</event>
<event>
 5   0  0.7488884E-04  0.1614235E+04  0.7818609E-02  0.8811850E-01
       -2   -1    0    0    0  501  0.00000000000E+00  0.00000000000E+00  0.66015487936E+03  0.66015487937E+03  0.25500000920E-02 0. -1.
        2   -1    0    0  501    0  0.00000000000E+00  0.00000000000E+00 -0.98679678774E+03  0.98679678774E+03  0.25500000920E-02 0.  1.
    10030    2    1    2    0    0  0.00000000000E+00  0.00000000000E+00 -0.32664190838E+03  0.16469516671E+04  0.16142350688E+04 0.  0.
        3    1    3    3  502    0 -0.18593598750E+03 -0.73756659351E+03  0.11207954183E+03  0.76885532138E+03  0.10100000352E+00 0.  1.
       -3    1    3    3    0  502  0.18593598750E+03  0.73756659351E+03 -0.43872145020E+03  0.87809634573E+03  0.10100000352E+00 0. -1.
</event>
<event>
 5   0  0.3973227E-04  0.1161877E+04  0.7818609E-02  0.9146896E-01
       -1   -1    0    0    0  501  0.00000000000E+00  0.00000000000E+00  0.17194068736E+03  0.17194068743E+03  0.50400001928E-02 0.  1.
        1   -1    0    0  501    0  0.00000000000E+00  0.00000000000E+00 -0.19628259144E+04  0.19628259144E+04  0.50400001928E-02 0. -1.
    10030    2    1    2    0    0  0.00000000000E+00  0.00000000000E+00 -0.17908852270E+04  0.21347666018E+04  0.11618771656E+04 0.  0.
        3    1    3    3  502    0 -0.52874830947E+03 -0.15856121442E+03 -0.12280635353E+04  0.13464235925E+04  0.10100000352E+00 0.  1.
       -3    1    3    3    0  502  0.52874830947E+03  0.15856121442E+03 -0.56282169174E+03  0.78834300934E+03  0.10100000352E+00 0. -1.
</event>
<event>
 5   0  0.3837251E-04  0.1615887E+04  0.7818609E-02  0.8810847E-01
       -1   -1    0    0    0  501  0.00000000000E+00  0.00000000000E+00  0.51853004364E+03  0.51853004366E+03  0.50400001928E-02 0. -1.
        1   -1    0    0  501    0  0.00000000000E+00  0.00000000000E+00 -0.12588902802E+04  0.12588902802E+04  0.50400001928E-02 0.  1.
    10030    2    1    2    0    0  0.00000000000E+00  0.00000000000E+00 -0.74036023656E+03  0.17774203239E+04  0.16158866692E+04 0.  0.
        4    1    3    3  502    0 -0.40091528460E+03 -0.40419204878E+03 -0.10007845100E+04  0.11513798357E+04  0.12699999809E+01 0.  1.
       -4    1    3    3    0  502  0.40091528460E+03  0.40419204878E+03  0.26042427344E+03  0.62604048816E+03  0.12699999809E+01 0. -1.
</event>
<event>
 5   0  0.4110803E-04  0.1630356E+04  0.7818609E-02  0.8802113E-01
        1   -1    0    0  501    0  0.00000000000E+00  0.00000000000E+00  0.37641864582E+03  0.37641864585E+03  0.50400001928E-02 0. -1.
       -1   -1    0    0    0  501  0.00000000000E+00  0.00000000000E+00 -0.17653613255E+04  0.17653613255E+04  0.50400001928E-02 0.  1.
    10030    2    1    2    0    0  0.00000000000E+00  0.00000000000E+00 -0.13889426797E+04  0.21417799713E+04  0.16303556907E+04 0.  0.
        5    1    3    3  502    0  0.70290137265E+02 -0.49356466849E+03 -0.15417201907E+04  0.16203302199E+04  0.46999998093E+01 0.  1.
       -5    1    3    3    0  502 -0.70290137265E+02  0.49356466849E+03  0.15277751099E+03  0.52144975141E+03  0.46999998093E+01 0. -1.
</event>
<event>
 5   0  0.7553070E-04  0.1639341E+04  0.7818609E-02  0.8796737E-01
       -2   -1    0    0    0  501  0.00000000000E+00  0.00000000000E+00  0.44142969403E+03  0.44142969403E+03  0.25500000920E-02 0.  1.
        2   -1    0    0  501    0  0.00000000000E+00  0.00000000000E+00 -0.15220079573E+04  0.15220079573E+04  0.25500000920E-02 0. -1.
    10030    2    1    2    0    0  0.00000000000E+00  0.00000000000E+00 -0.10805782633E+04  0.19634376513E+04  0.16393407296E+04 0.  0.
        4    1    3    3  502    0 -0.14352710276E+03  0.28880260636E+03  0.36224794588E+03  0.48500738331E+03  0.12699999809E+01 0.  1.
       -4    1    3    3    0  502  0.14352710276E+03 -0.28880260636E+03 -0.14428262092E+04  0.14784302680E+04  0.12699999809E+01 0. -1.
</event>
<event>
 5   0  0.7553070E-04  0.1956118E+04  0.7818609E-02  0.8627416E-01
        2   -1    0    0  501    0  0.00000000000E+00  0.00000000000E+00  0.24384255145E+04  0.24384255145E+04  0.25500000920E-02 0. -1.
       -2   -1    0    0    0  501  0.00000000000E+00  0.00000000000E+00 -0.39230198750E+03  0.39230198751E+03  0.25500000920E-02 0.  1.
    10030    2    1    2    0    0  0.00000000000E+00  0.00000000000E+00  0.20461235270E+04  0.28307275020E+04  0.19561177630E+04 0.  0.
        4    1    3    3  502    0  0.22433975728E+03  0.94182492728E+03  0.12237628124E+04  0.15604356937E+04  0.12699999809E+01 0.  1.
       -4    1    3    3    0  502 -0.22433975728E+03 -0.94182492728E+03  0.82236071454E+03  0.12702918082E+04  0.12699999809E+01 0. -1.
</event>
<event>
 5   0  0.7488884E-04  0.1608130E+04  0.7818609E-02  0.8815569E-01
        2   -1    0    0  501    0  0.00000000000E+00  0.00000000000E+00  0.10876123316E+04  0.10876123316E+04  0.25500000920E-02 0. -1.
       -2   -1    0    0    0  501  0.00000000000E+00  0.00000000000E+00 -0.59444032217E+03  0.59444032217E+03  0.25500000920E-02 0.  1.
    10030    2    1    2    0    0  0.00000000000E+00  0.00000000000E+00  0.49317200942E+03  0.16820526538E+04  0.16081301251E+04 0.  0.
        3    1    3    3  502    0  0.74141695702E+03 -0.89041576979E+02  0.55844081281E+03  0.93246107597E+03  0.10100000352E+00 0. -1.
       -3    1    3    3    0  502 -0.74141695702E+03  0.89041576979E+02 -0.65268803386E+02  0.74959157779E+03  0.10100000352E+00 0.  1.
</event>
<event>
 5   0  0.3889847E-04  0.1575629E+04  0.7818609E-02  0.8835661E-01
        1   -1    0    0  501    0  0.00000000000E+00  0.00000000000E+00  0.83670652854E+03  0.83670652856E+03  0.50400001928E-02 0. -1.
       -1   -1    0    0    0  501  0.00000000000E+00  0.00000000000E+00 -0.74177963329E+03  0.74177963331E+03  0.50400001928E-02 0.  1.
    10030    2    1    2    0    0  0.00000000000E+00  0.00000000000E+00  0.94926895251E+02  0.15784861619E+04  0.15756292228E+04 0.  0.
        1    1    3    3  502    0 -0.87785187405E+02 -0.10546369816E+03  0.82464262069E+03  0.83598103007E+03  0.50400001928E-02 0. -1.
       -1    1    3    3    0  502  0.87785187405E+02  0.10546369816E+03 -0.72971572544E+03  0.74250513179E+03  0.50400001928E-02 0.  1.
</event>
<event>
 5   0  0.7553070E-04  0.1595156E+04  0.7818609E-02  0.8823530E-01
       -2   -1    0    0    0  501  0.00000000000E+00  0.00000000000E+00  0.10576321900E+04  0.10576321900E+04  0.25500000920E-02 0. -1.
        2   -1    0    0  501    0  0.00000000000E+00  0.00000000000E+00 -0.60146660385E+03  0.60146660386E+03  0.25500000920E-02 0.  1.
    10030    2    1    2    0    0  0.00000000000E+00  0.00000000000E+00  0.45616558611E+03  0.16590987938E+04  0.15951557183E+04 0.  0.
        4    1    3    3  502    0  0.83894459992E+02  0.13148737543E+03 -0.58544889366E+03  0.60587063826E+03  0.12699999809E+01 0.  1.
       -4    1    3    3    0  502 -0.83894459992E+02 -0.13148737543E+03  0.10416144798E+04  0.10532281556E+04  0.12699999809E+01 0. -1.
</event>
<event>
 5   0  0.3837251E-04  0.1607968E+04  0.7818609E-02  0.8815668E-01
       -1   -1    0    0    0  501  0.00000000000E+00  0.00000000000E+00  0.43704921093E+03  0.43704921096E+03  0.50400001928E-02 0. -1.
        1   -1    0    0  501    0  0.00000000000E+00  0.00000000000E+00 -0.14789868748E+04  0.14789868748E+04  0.50400001928E-02 0.  1.
    10030    2    1    2    0    0  0.00000000000E+00  0.00000000000E+00 -0.10419376638E+04  0.19160360857E+04  0.16079677194E+04 0.  0.
        4    1    3    3  502    0 -0.13325493938E+03 -0.27529476115E+02 -0.14651655756E+04  0.14714708722E+04  0.12699999809E+01 0.  1.
       -4    1    3    3    0  502  0.13325493938E+03  0.27529476115E+02  0.42322791174E+03  0.44456521356E+03  0.12699999809E+01 0. -1.
</event>
<event>
 5   0  0.7395088E-04  0.1600656E+04  0.7818609E-02  0.8820145E-01
        2   -1    0    0  501    0  0.00000000000E+00  0.00000000000E+00  0.13112708934E+04  0.13112708934E+04  0.25500000920E-02 0.  1.
       -2   -1    0    0    0  501  0.00000000000E+00  0.00000000000E+00 -0.48847625428E+03  0.48847625429E+03  0.25500000920E-02 0. -1.
    10030    2    1    2    0    0  0.00000000000E+00  0.00000000000E+00  0.82279463911E+03  0.17997471477E+04  0.16006557336E+04 0.  0.
        1    1    3    3  502    0  0.20031355661E+03 -0.15062444663E+03  0.12660094377E+04  0.12905786072E+04  0.50400001928E-02 0.  1.
       -1    1    3    3    0  502 -0.20031355661E+03  0.15062444663E+03 -0.44321479862E+03  0.50916854049E+03  0.50400001928E-02 0. -1.
</event>
<event>
 5   0  0.7415102E-04  0.1600531E+04  0.7818609E-02  0.8820222E-01
        2   -1    0    0  501    0  0.00000000000E+00  0.00000000000E+00  0.81179150143E+03  0.81179150143E+03  0.25500000920E-02 0.  1.
       -2   -1    0    0    0  501  0.00000000000E+00  0.00000000000E+00 -0.78890314046E+03  0.78890314047E+03  0.25500000920E-02 0. -1.
    10030    2    1    2    0    0  0.00000000000E+00  0.00000000000E+00  0.22888360964E+02  0.16006946419E+04  0.16005309930E+04 0.  0.
        5    1    3    3  502    0  0.55669210181E+03 -0.29800443065E+03 -0.48022589639E+03  0.79331692183E+03  0.46999998093E+01 0.  1.
       -5    1    3    3    0  502 -0.55669210181E+03  0.29800443065E+03  0.50311425735E+03  0.80737772006E+03  0.46999998093E+01 0. -1.
</event>
<event>
 5   0  0.3837251E-04  0.1613656E+04  0.7818609E-02  0.8812202E-01
       -1   -1    0    0    0  501  0.00000000000E+00  0.00000000000E+00  0.63583330847E+03  0.63583330849E+03  0.50400001928E-02 0. -1.
        1   -1    0    0  501    0  0.00000000000E+00  0.00000000000E+00 -0.10238078666E+04  0.10238078667E+04  0.50400001928E-02 0.  1.
    10030    2    1    2    0    0  0.00000000000E+00  0.00000000000E+00 -0.38797455818E+03  0.16596411752E+04  0.16136556549E+04 0.  0.
        4    1    3    3  502    0 -0.11869320934E+03 -0.74294990633E+03 -0.49367903819E+03  0.89987957356E+03  0.12699999809E+01 0.  1.
       -4    1    3    3    0  502  0.11869320934E+03  0.74294990633E+03  0.10570448001E+03  0.75976160159E+03  0.12699999809E+01 0. -1.
</event>
<event>
 5   0  0.3889847E-04  0.1654679E+04  0.7818609E-02  0.8787643E-01
       -1   -1    0    0    0  501  0.00000000000E+00  0.00000000000E+00  0.73392699084E+03  0.73392699086E+03  0.50400001928E-02 0.  1.
        1   -1    0    0  501    0  0.00000000000E+00  0.00000000000E+00 -0.93264110894E+03  0.93264110896E+03  0.50400001928E-02 0. -1.
    10030    2    1    2    0    0  0.00000000000E+00  0.00000000000E+00 -0.19871411810E+03  0.16665680998E+04  0.16546787998E+04 0.  0.
        1    1    3    3  502    0  0.34167183536E+02 -0.81270314943E+03  0.52846853877E+02  0.81513593683E+03  0.50400001928E-02 0.  1.
       -1    1    3    3    0  502 -0.34167183536E+02  0.81270314943E+03 -0.25156097198E+03  0.85143216299E+03  0.50400001928E-02 0. -1.
</event>
<event>
 5   0  0.3837251E-04  0.1796483E+04  0.7818609E-02  0.8708172E-01
       -1   -1    0    0    0  501  0.00000000000E+00  0.00000000000E+00  0.44588511701E+03  0.44588511703E+03  0.50400001928E-02 0.  1.
        1   -1    0    0  501    0  0.00000000000E+00  0.00000000000E+00 -0.18095200274E+04  0.18095200274E+04  0.50400001928E-02 0. -1.
    10030    2    1    2    0    0  0.00000000000E+00  0.00000000000E+00 -0.13636349104E+04  0.22554051444E+04  0.17964832860E+04 0.  0.
        4    1    3    3  502    0  0.43219035791E+03 -0.16930995763E+03  0.28364516065E+03  0.54397661465E+03  0.12699999809E+01 0.  1.
       -4    1    3    3    0  502 -0.43219035791E+03  0.16930995763E+03 -0.16472800710E+04  0.17114285298E+04  0.12699999809E+01 0. -1.
</event>
<event>
 5   0  0.7553070E-04  0.1586651E+04  0.7818609E-02  0.8828791E-01
       -2   -1    0    0    0  501  0.00000000000E+00  0.00000000000E+00  0.31006260255E+03  0.31006260256E+03  0.25500000920E-02 0.  1.
        2   -1    0    0  501    0  0.00000000000E+00  0.00000000000E+00 -0.20298021107E+04  0.20298021108E+04  0.25500000920E-02 0. -1.
    10030    2    1    2    0    0  0.00000000000E+00  0.00000000000E+00 -0.17197395082E+04  0.23398647133E+04  0.15866514742E+04 0.  0.
        4    1    3    3  502    0 -0.78425188239E+03  0.36275388421E+02 -0.10279954128E+04  0.12935003287E+04  0.12699999809E+01 0. -1.
       -4    1    3    3    0  502  0.78425188239E+03 -0.36275388421E+02 -0.69174409542E+03  0.10463643846E+04  0.12699999809E+01 0.  1.
</event>
<event>
 5   0  0.3889847E-04  0.1609194E+04  0.7818609E-02  0.8814920E-01
        1   -1    0    0  501    0  0.00000000000E+00  0.00000000000E+00  0.70449170335E+03  0.70449170337E+03  0.50400001928E-02 0. -1.
       -1   -1    0    0    0  501  0.00000000000E+00  0.00000000000E+00 -0.91892637864E+03  0.91892637865E+03  0.50400001928E-02 0.  1.
    10030    2    1    2    0    0  0.00000000000E+00  0.00000000000E+00 -0.21443467529E+03  0.16234180820E+04  0.16091935990E+04 0.  0.
        1    1    3    3  502    0  0.64171283117E+03  0.13354790099E+03 -0.57797433780E+03  0.87389057366E+03  0.50400001928E-02 0.  1.
       -1    1    3    3    0  502 -0.64171283117E+03 -0.13354790099E+03  0.36353966251E+03  0.74952750836E+03  0.50400001928E-02 0. -1.
</event>
<event>
 5   0  0.7395088E-04  0.1603396E+04  0.7818609E-02  0.8818464E-01
        2   -1    0    0  501    0  0.00000000000E+00  0.00000000000E+00  0.67877958702E+03  0.67877958703E+03  0.25500000920E-02 0. -1.
       -2   -1    0    0    0  501  0.00000000000E+00  0.00000000000E+00 -0.94687526286E+03  0.94687526287E+03  0.25500000920E-02 0.  1.
    10030    2    1    2    0    0  0.00000000000E+00  0.00000000000E+00 -0.26809567584E+03  0.16256548499E+04  0.16033958961E+04 0.  0.
        1    1    3    3  502    0 -0.13482479305E+03 -0.12858354230E+03 -0.92462138015E+03  0.94320525276E+03  0.50400001928E-02 0.  1.
       -1    1    3    3    0  502  0.13482479305E+03  0.12858354230E+03  0.65652570432E+03  0.68244959713E+03  0.50400001928E-02 0. -1.
</event>
<event>
 5   0  0.2781000E-04  0.1588402E+04  0.7818609E-02  0.8827705E-01
       -3   -1    0    0    0  501  0.00000000000E+00  0.00000000000E+00  0.68042514575E+03  0.68042515325E+03  0.10100000352E+00 0.  1.
        3   -1    0    0  501    0  0.00000000000E+00  0.00000000000E+00 -0.92700184803E+03  0.92700185354E+03  0.10100000352E+00 0. -1.
    10030    2    1    2    0    0  0.00000000000E+00  0.00000000000E+00 -0.24657670228E+03  0.16074270068E+04  0.15884021884E+04 0.  0.
        1    1    3    3  502    0 -0.56892015636E+03  0.54545619364E+03 -0.22224904717E+03  0.81889391406E+03  0.50400001928E-02 0. -1.
       -1    1    3    3    0  502  0.56892015636E+03 -0.54545619364E+03 -0.24327655109E+02  0.78853309272E+03  0.50400001928E-02 0.  1.
</event>
<event>
 5   0  0.4110803E-04  0.1570288E+04  0.7818609E-02  0.8839012E-01
       -1   -1    0    0    0  501  0.00000000000E+00  0.00000000000E+00  0.54909567932E+03  0.54909567934E+03  0.50400001928E-02 0.  1.
        1   -1    0    0  501    0  0.00000000000E+00  0.00000000000E+00 -0.11226663268E+04  0.11226663268E+04  0.50400001928E-02 0. -1.
    10030    2    1    2    0    0  0.00000000000E+00  0.00000000000E+00 -0.57357064745E+03  0.16717620061E+04  0.15702881638E+04 0.  0.
        5    1    3    3  502    0 -0.52492071162E+02  0.55347462485E+03 -0.87699228471E+03  0.10383771643E+04  0.46999998093E+01 0. -1.
       -5    1    3    3    0  502  0.52492071162E+02 -0.55347462485E+03  0.30342163727E+03  0.63338484182E+03  0.46999998093E+01 0.  1.
</event>
<event>
 5   0  0.7488884E-04  0.2045885E+04  0.7818609E-02  0.8585463E-01
       -2   -1    0    0    0  501  0.00000000000E+00  0.00000000000E+00  0.57377967326E+03  0.57377967327E+03  0.25500000920E-02 0. -1.
        2   -1    0    0  501    0  0.00000000000E+00  0.00000000000E+00 -0.18237171996E+04  0.18237171996E+04  0.25500000920E-02 0.  1.
    10030    2    1    2    0    0  0.00000000000E+00  0.00000000000E+00 -0.12499375264E+04  0.23974968729E+04  0.20458854894E+04 0.  0.
        3    1    3    3  502    0 -0.45601573743E+03 -0.85647934548E+03 -0.10045231792E+04  0.13966295320E+04  0.10100000352E+00 0.  1.
       -3    1    3    3    0  502  0.45601573743E+03  0.85647934548E+03 -0.24541434719E+03  0.10008673409E+04  0.10100000352E+00 0. -1.
</event>
<event>
 5   0  0.3889847E-04  0.1597017E+04  0.7818609E-02  0.8822382E-01
        1   -1    0    0  501    0  0.00000000000E+00  0.00000000000E+00  0.10638605506E+04  0.10638605506E+04  0.50400001928E-02 0.  1.
       -1   -1    0    0    0  501  0.00000000000E+00  0.00000000000E+00 -0.59934180739E+03  0.59934180741E+03  0.50400001928E-02 0. -1.
    10030    2    1    2    0    0  0.00000000000E+00  0.00000000000E+00  0.46451874322E+03  0.16632023580E+04  0.15970173515E+04 0.  0.
        1    1    3    3  502    0 -0.85069831384E+02  0.40431011113E+03 -0.47936897147E+03  0.63284923402E+03  0.50400001928E-02 0. -1.
       -1    1    3    3    0  502  0.85069831384E+02 -0.40431011113E+03  0.94388771469E+03  0.10303531240E+04  0.50400001928E-02 0.  1.
</event>
<event>
 5   0  0.4110803E-04  0.1687948E+04  0.7818609E-02  0.8768268E-01
       -1   -1    0    0    0  501  0.00000000000E+00  0.00000000000E+00  0.70524165642E+03  0.70524165644E+03  0.50400001928E-02 0.  1.
        1   -1    0    0  501    0  0.00000000000E+00  0.00000000000E+00 -0.10099970958E+04  0.10099970958E+04  0.50400001928E-02 0. -1.
    10030    2    1    2    0    0  0.00000000000E+00  0.00000000000E+00 -0.30475543941E+03  0.17152387523E+04  0.16879478960E+04 0.  0.
        5    1    3    3  502    0 -0.15540502550E+03  0.80916087124E+03  0.33272313442E+02  0.82463396385E+03  0.46999998093E+01 0.  1.
       -5    1    3    3    0  502  0.15540502550E+03 -0.80916087124E+03 -0.33802775285E+03  0.89060478844E+03  0.46999998093E+01 0. -1.
</event>
<event>
 5   0  0.7415102E-04  0.1600539E+04  0.7818609E-02  0.8820217E-01
        2   -1    0    0  501    0  0.00000000000E+00  0.00000000000E+00  0.12437583610E+04  0.12437583610E+04  0.25500000920E-02 0. -1.
       -2   -1    0    0    0  501  0.00000000000E+00  0.00000000000E+00 -0.51491602094E+03  0.51491602094E+03  0.25500000920E-02 0.  1.
    10030    2    1    2    0    0  0.00000000000E+00  0.00000000000E+00  0.72884234002E+03  0.17586743819E+04  0.16005387921E+04 0.  0.
        5    1    3    3  502    0 -0.16392390188E+03  0.36396343250E+03  0.11265400735E+04  0.11951799250E+04  0.46999998093E+01 0. -1.
       -5    1    3    3    0  502  0.16392390188E+03 -0.36396343250E+03 -0.39769773348E+03  0.56349445695E+03  0.46999998093E+01 0.  1.
</event>
<event>
 5   0  0.3889847E-04  0.1542999E+04  0.7818609E-02  0.8856352E-01
        1   -1    0    0  501    0  0.00000000000E+00  0.00000000000E+00  0.16386671519E+04  0.16386671519E+04  0.50400001928E-02 0.  1.
       -1   -1    0    0    0  501  0.00000000000E+00  0.00000000000E+00 -0.36322901385E+03  0.36322901389E+03  0.50400001928E-02 0. -1.
    10030    2    1    2    0    0  0.00000000000E+00  0.00000000000E+00  0.12754381381E+04  0.20018961658E+04  0.15429989678E+04 0.  0.
        1    1    3    3  502    0 -0.73693332113E+03 -0.73094391859E+02  0.35705339700E+03  0.82213176453E+03  0.50400001928E-02 0.  1.
       -1    1    3    3    0  502  0.73693332113E+03  0.73094391859E+02  0.91838474108E+03  0.11797644013E+04  0.50400001928E-02 0. -1.
</event>
<event>
 5   0  0.4110803E-04  0.1550659E+04  0.7818609E-02  0.8851447E-01
        1   -1    0    0  501    0  0.00000000000E+00  0.00000000000E+00  0.86135923821E+03  0.86135923823E+03  0.50400001928E-02 0. -1.
       -1   -1    0    0    0  501  0.00000000000E+00  0.00000000000E+00 -0.69789182880E+03  0.69789182881E+03  0.50400001928E-02 0.  1.
    10030    2    1    2    0    0  0.00000000000E+00  0.00000000000E+00  0.16346740942E+03  0.15592510670E+04  0.15506586653E+04 0.  0.
        5    1    3    3  502    0  0.32531305299E+03  0.20938532164E+03  0.75735161106E+03  0.85045537693E+03  0.46999998093E+01 0. -1.
       -5    1    3    3    0  502 -0.32531305299E+03 -0.20938532164E+03 -0.59388420164E+03  0.70879569012E+03  0.46999998093E+01 0.  1.
</event>
<event>
 5   0  0.3973227E-04  0.1604309E+04  0.7818609E-02  0.8817905E-01
        1   -1    0    0  501    0  0.00000000000E+00  0.00000000000E+00  0.62171231864E+03  0.62171231866E+03  0.50400001928E-02 0. -1.
       -1   -1    0    0    0  501  0.00000000000E+00  0.00000000000E+00 -0.10349666046E+04  0.10349666046E+04  0.50400001928E-02 0.  1.
    10030    2    1    2    0    0  0.00000000000E+00  0.00000000000E+00 -0.41325428599E+03  0.16566789233E+04  0.16043085582E+04 0.  0.
        3    1    3    3  502    0  0.19498487209E+03 -0.64902436171E+03 -0.64982226404E+03  0.93889334190E+03  0.10100000352E+00 0.  1.
       -3    1    3    3    0  502 -0.19498487209E+03  0.64902436171E+03  0.23656797805E+03  0.71778558140E+03  0.10100000352E+00 0. -1.
</event>
<event>
 5   0  0.7553070E-04  0.1580759E+04  0.7818609E-02  0.8832456E-01
       -2   -1    0    0    0  501  0.00000000000E+00  0.00000000000E+00  0.44303783600E+03  0.44303783600E+03  0.25500000920E-02 0. -1.
        2   -1    0    0  501    0  0.00000000000E+00  0.00000000000E+00 -0.14100375828E+04  0.14100375828E+04  0.25500000920E-02 0.  1.
    10030    2    1    2    0    0  0.00000000000E+00  0.00000000000E+00 -0.96699974685E+03  0.18530754189E+04  0.15807593104E+04 0.  0.
        4    1    3    3  502    0 -0.40666520832E+03  0.56207280284E+03 -0.39588979260E+02  0.69488943547E+03  0.12699999809E+01 0. -1.
       -4    1    3    3    0  502  0.40666520832E+03 -0.56207280284E+03 -0.92741076759E+03  0.11581859834E+04  0.12699999809E+01 0.  1.
</event>
<event>
 5   0  0.3950195E-04  0.1581654E+04  0.7818609E-02  0.8831898E-01
        1   -1    0    0  501    0  0.00000000000E+00  0.00000000000E+00  0.68483485959E+03  0.68483485961E+03  0.50400001928E-02 0. -1.
       -1   -1    0    0    0  501  0.00000000000E+00  0.00000000000E+00 -0.91322399201E+03  0.91322399202E+03  0.50400001928E-02 0.  1.
    10030    2    1    2    0    0  0.00000000000E+00  0.00000000000E+00 -0.22838913241E+03  0.15980588516E+04  0.15816543546E+04 0.  0.
        2    1    3    3  502    0  0.51052109768E+02  0.75604837470E+03 -0.34279809052E+03  0.83170066351E+03  0.25500000920E-02 0. -1.
       -2    1    3    3    0  502 -0.51052109768E+02 -0.75604837470E+03  0.11440895811E+03  0.76635818813E+03  0.25500000920E-02 0.  1.
</event>
<event>
 5   0  0.2781000E-04  0.1596564E+04  0.7818609E-02  0.8822662E-01
       -3   -1    0    0    0  501  0.00000000000E+00  0.00000000000E+00  0.30485428157E+03  0.30485429830E+03  0.10100000352E+00 0. -1.
        3   -1    0    0  501    0  0.00000000000E+00  0.00000000000E+00 -0.20903557096E+04  0.20903557120E+04  0.10100000352E+00 0.  1.
    10030    2    1    2    0    0  0.00000000000E+00  0.00000000000E+00 -0.17855014280E+04  0.23952100103E+04  0.15965636987E+04 0.  0.
        4    1    3    3  502    0  0.70118265145E+03  0.34249300730E+02 -0.32262020080E+03  0.77260308837E+03  0.12699999809E+01 0. -1.
       -4    1    3    3    0  502 -0.70118265145E+03 -0.34249300730E+02 -0.14628812272E+04  0.16226069219E+04  0.12699999809E+01 0.  1.
</event>
<event>
 5   0  0.7395088E-04  0.1572322E+04  0.7818609E-02  0.8837734E-01
       -2   -1    0    0    0  501  0.00000000000E+00  0.00000000000E+00  0.78929268395E+03  0.78929268395E+03  0.25500000920E-02 0. -1.
        2   -1    0    0  501    0  0.00000000000E+00  0.00000000000E+00 -0.78304209344E+03  0.78304209344E+03  0.25500000920E-02 0.  1.
    10030    2    1    2    0    0  0.00000000000E+00  0.00000000000E+00  0.62505905124E+01  0.15723347774E+04  0.15723223532E+04 0.  0.
        1    1    3    3  502    0 -0.61572885100E+03 -0.18820829111E+03  0.45424416306E+03  0.78796074680E+03  0.50400001928E-02 0. -1.
       -1    1    3    3    0  502  0.61572885100E+03  0.18820829111E+03 -0.44799357254E+03  0.78437403059E+03  0.50400001928E-02 0.  1.
</event>
<event>
 5   0  0.7553070E-04  0.1608257E+04  0.7818609E-02  0.8815491E-01
        2   -1    0    0  501    0  0.00000000000E+00  0.00000000000E+00  0.13598846073E+04  0.13598846073E+04  0.25500000920E-02 0.  1.
       -2   -1    0    0    0  501  0.00000000000E+00  0.00000000000E+00 -0.47549819151E+03  0.47549819151E+03  0.25500000920E-02 0. -1.
    10030    2    1    2    0    0  0.00000000000E+00  0.00000000000E+00  0.88438641576E+03  0.18353827988E+04  0.16082570335E+04 0.  0.
        4    1    3    3  502    0 -0.12784724597E+03 -0.78527641253E+03  0.30902104610E+03  0.85352186979E+03  0.12699999809E+01 0. -1.
       -4    1    3    3    0  502  0.12784724597E+03  0.78527641253E+03  0.57536536966E+03  0.98186092899E+03  0.12699999809E+01 0.  1.
</event>
<event>
 5   0  0.7553070E-04  0.1637402E+04  0.7818609E-02  0.8797894E-01
        2   -1    0    0  501    0  0.00000000000E+00  0.00000000000E+00  0.42567827120E+03  0.42567827121E+03  0.25500000920E-02 0.  1.
       -2   -1    0    0    0  501  0.00000000000E+00  0.00000000000E+00 -0.15745968649E+04  0.15745968649E+04  0.25500000920E-02 0. -1.
    10030    2    1    2    0    0  0.00000000000E+00  0.00000000000E+00 -0.11489185937E+04  0.20002751361E+04  0.16374024200E+04 0.  0.
        4    1    3    3  502    0  0.58130181650E+03 -0.35970865391E+03 -0.24097814760E+02  0.68402078561E+03  0.12699999809E+01 0.  1.
       -4    1    3    3    0  502 -0.58130181650E+03  0.35970865391E+03 -0.11248207789E+04  0.13162543505E+04  0.12699999809E+01 0. -1.
</event>
<event>
 5   0  0.7553070E-04  0.1594928E+04  0.7818609E-02  0.8823670E-01
       -2   -1    0    0    0  501  0.00000000000E+00  0.00000000000E+00  0.31953173425E+03  0.31953173426E+03  0.25500000920E-02 0. -1.
        2   -1    0    0  501    0  0.00000000000E+00  0.00000000000E+00 -0.19902531807E+04  0.19902531807E+04  0.25500000920E-02 0.  1.
    10030    2    1    2    0    0  0.00000000000E+00  0.00000000000E+00 -0.16707214464E+04  0.23097849149E+04  0.15949282748E+04 0.  0.
        4    1    3    3  502    0 -0.74204042918E+03 -0.55264123254E+02 -0.41997714245E+03  0.85443579919E+03  0.12699999809E+01 0. -1.
       -4    1    3    3    0  502  0.74204042918E+03  0.55264123254E+02 -0.12507443040E+04  0.14553491157E+04  0.12699999809E+01 0.  1.
</event>
<event>
 5   0  0.7488884E-04  0.1598965E+04  0.7818609E-02  0.8821184E-01
        2   -1    0    0  501    0  0.00000000000E+00  0.00000000000E+00  0.16833216331E+04  0.16833216331E+04  0.25500000920E-02 0.  1.
       -2   -1    0    0    0  501  0.00000000000E+00  0.00000000000E+00 -0.37970872449E+03  0.37970872450E+03  0.25500000920E-02 0. -1.
    10030    2    1    2    0    0  0.00000000000E+00  0.00000000000E+00  0.13036129086E+04  0.20630303576E+04  0.15989645527E+04 0.  0.
        3    1    3    3  502    0 -0.20652346159E+03  0.46209620742E+03  0.14502768709E+04  0.15360624523E+04  0.10100000352E+00 0.  1.
       -3    1    3    3    0  502  0.20652346159E+03 -0.46209620742E+03 -0.14666396230E+03  0.52696790523E+03  0.10100000352E+00 0. -1.
</event>
<event>
 5   0  0.3973227E-04  0.1597278E+04  0.7818609E-02  0.8822222E-01
       -1   -1    0    0    0  501  0.00000000000E+00  0.00000000000E+00  0.42771964145E+03  0.42771964148E+03  0.50400001928E-02 0. -1.
        1   -1    0    0  501    0  0.00000000000E+00  0.00000000000E+00 -0.14912212766E+04  0.14912212766E+04  0.50400001928E-02 0.  1.
    10030    2    1    2    0    0  0.00000000000E+00  0.00000000000E+00 -0.10635016351E+04  0.19189409180E+04  0.15972784726E+04 0.  0.
        3    1    3    3  502    0 -0.92145494611E+02  0.44797170190E+03 -0.13183165174E+04  0.13953952445E+04  0.10100000352E+00 0.  1.
       -3    1    3    3    0  502  0.92145494611E+02 -0.44797170190E+03  0.25481488234E+03  0.52354567360E+03  0.10100000352E+00 0. -1.
</event>
<event>
 5   0  0.3837251E-04  0.1560813E+04  0.7818609E-02  0.8844990E-01
        1   -1    0    0  501    0  0.00000000000E+00  0.00000000000E+00  0.44704472045E+03  0.44704472048E+03  0.50400001928E-02 0.  1.
       -1   -1    0    0    0  501  0.00000000000E+00  0.00000000000E+00 -0.13623572793E+04  0.13623572793E+04  0.50400001928E-02 0. -1.
    10030    2    1    2    0    0  0.00000000000E+00  0.00000000000E+00 -0.91531255885E+03  0.18094019998E+04  0.15608134150E+04 0.  0.
        4    1    3    3  502    0  0.54601953854E+03 -0.98858439379E+02  0.17848827910E+03  0.58289793804E+03  0.12699999809E+01 0.  1.
       -4    1    3    3    0  502 -0.54601953854E+03  0.98858439379E+02 -0.10938008380E+04  0.12265040618E+04  0.12699999809E+01 0. -1.
</event>
<event>
 5   0  0.7488884E-04  0.1505250E+04  0.7818609E-02  0.8880969E-01
        2   -1    0    0  501    0  0.00000000000E+00  0.00000000000E+00  0.17298618152E+04  0.17298618152E+04  0.25500000920E-02 0. -1.
       -2   -1    0    0    0  501  0.00000000000E+00  0.00000000000E+00 -0.32745075022E+03  0.32745075023E+03  0.25500000920E-02 0.  1.
    10030    2    1    2    0    0  0.00000000000E+00  0.00000000000E+00  0.14024110650E+04  0.20573125654E+04  0.15052502107E+04 0.  0.
        3    1    3    3  502    0  0.52985467071E+03  0.50717920741E+03  0.93181050934E+03  0.11858530921E+04  0.10100000352E+00 0. -1.
       -3    1    3    3    0  502 -0.52985467071E+03 -0.50717920741E+03  0.47060055562E+03  0.87145947333E+03  0.10100000352E+00 0.  1.
</event>
<event>
 5   0  0.7770905E-04  0.1601972E+04  0.7818609E-02  0.8819337E-01
       -2   -1    0    0    0  501  0.00000000000E+00  0.00000000000E+00  0.53831932359E+03  0.53831932360E+03  0.25500000920E-02 0. -1.
        2   -1    0    0  501    0  0.00000000000E+00  0.00000000000E+00 -0.11918178679E+04  0.11918178679E+04  0.25500000920E-02 0.  1.
    10030    2    1    2    0    0  0.00000000000E+00  0.00000000000E+00 -0.65349854429E+03  0.17301371915E+04  0.16019720203E+04 0.  0.
        2    1    3    3  502    0 -0.54415890846E+03  0.35062592636E+03  0.18272352784E+03  0.67263314335E+03  0.25500000920E-02 0.  1.
       -2    1    3    3    0  502  0.54415890846E+03 -0.35062592636E+03 -0.83622207213E+03  0.10575040481E+04  0.25500000920E-02 0. -1.
</event>
<event>
 5   0  0.3889847E-04  0.1574349E+04  0.7818609E-02  0.8836463E-01
        1   -1    0    0  501    0  0.00000000000E+00  0.00000000000E+00  0.25928146539E+04  0.25928146539E+04  0.50400001928E-02 0.  1.
       -1   -1    0    0    0  501  0.00000000000E+00  0.00000000000E+00 -0.23898495493E+03  0.23898495499E+03  0.50400001928E-02 0. -1.
    10030    2    1    2    0    0  0.00000000000E+00  0.00000000000E+00  0.23538296989E+04  0.28317996089E+04  0.15743489998E+04 0.  0.
        1    1    3    3  502    0 -0.24513451062E+03  0.74616483950E+03  0.10818925253E+04  0.13369159780E+04  0.50400001928E-02 0. -1.
       -1    1    3    3    0  502  0.24513451062E+03 -0.74616483950E+03  0.12719371736E+04  0.14948836308E+04  0.50400001928E-02 0.  1.
</event>
<event>
 5   0  0.7395088E-04  0.1552747E+04  0.7818609E-02  0.8850115E-01
       -2   -1    0    0    0  501  0.00000000000E+00  0.00000000000E+00  0.55349803966E+03  0.55349803966E+03  0.25500000920E-02 0.  1.
        2   -1    0    0  501    0  0.00000000000E+00  0.00000000000E+00 -0.10889929269E+04  0.10889929269E+04  0.25500000920E-02 0. -1.
    10030    2    1    2    0    0  0.00000000000E+00  0.00000000000E+00 -0.53549488722E+03  0.16424909665E+04  0.15527465347E+04 0.  0.
        1    1    3    3  502    0 -0.31866840168E+03 -0.53424482787E+03  0.22363137529E+03  0.66104317436E+03  0.50400001928E-02 0.  1.
       -1    1    3    3    0  502  0.31866840168E+03  0.53424482787E+03 -0.75912626250E+03  0.98144779218E+03  0.50400001928E-02 0. -1.
</event>
<event>
 5   0  0.3950195E-04  0.1606311E+04  0.7818609E-02  0.8816681E-01
       -1   -1    0    0    0  501  0.00000000000E+00  0.00000000000E+00  0.41074266053E+03  0.41074266056E+03  0.50400001928E-02 0. -1.
        1   -1    0    0  501    0  0.00000000000E+00  0.00000000000E+00 -0.15704685419E+04  0.15704685420E+04  0.50400001928E-02 0.  1.
    10030    2    1    2    0    0  0.00000000000E+00  0.00000000000E+00 -0.11597258814E+04  0.19812112025E+04  0.16063105892E+04 0.  0.
        2    1    3    3  502    0  0.32610005867E+03  0.44289968225E+03  0.14202154426E+03  0.56804180818E+03  0.25500000920E-02 0. -1.
       -2    1    3    3    0  502 -0.32610005867E+03 -0.44289968225E+03 -0.13017474257E+04  0.14131693943E+04  0.25500000920E-02 0.  1.
</event>
<event>
 5   0  0.7415102E-04  0.1532074E+04  0.7818609E-02  0.8863400E-01
       -2   -1    0    0    0  501  0.00000000000E+00  0.00000000000E+00  0.68857519571E+03  0.68857519572E+03  0.25500000920E-02 0.  1.
        2   -1    0    0  501    0  0.00000000000E+00  0.00000000000E+00 -0.85221316981E+03  0.85221316982E+03  0.25500000920E-02 0. -1.
    10030    2    1    2    0    0  0.00000000000E+00  0.00000000000E+00 -0.16363797410E+03  0.15407883655E+04  0.15320742152E+04 0.  0.
        5    1    3    3  502    0 -0.42186724502E+02  0.48955784229E+03  0.50918341333E+03  0.70762733065E+03  0.46999998093E+01 0.  1.
       -5    1    3    3    0  502  0.42186724502E+02 -0.48955784229E+03 -0.67282138743E+03  0.83316103489E+03  0.46999998093E+01 0. -1.
</event>
<event>
 5   0  0.3950195E-04  0.1607540E+04  0.7818609E-02  0.8815929E-01
        1   -1    0    0  501    0  0.00000000000E+00  0.00000000000E+00  0.92022527675E+03  0.92022527676E+03  0.50400001928E-02 0.  1.
       -1   -1    0    0    0  501  0.00000000000E+00  0.00000000000E+00 -0.70205234038E+03  0.70205234040E+03  0.50400001928E-02 0. -1.
    10030    2    1    2    0    0  0.00000000000E+00  0.00000000000E+00  0.21817293637E+03  0.16222776172E+04  0.16075401199E+04 0.  0.
        2    1    3    3  502    0  0.16527283590E+03 -0.43349592735E+03 -0.55329396286E+03  0.72205819617E+03  0.25500000920E-02 0. -1.
       -2    1    3    3    0  502 -0.16527283590E+03  0.43349592735E+03  0.77146689923E+03  0.90021942099E+03  0.25500000920E-02 0.  1.
</event>
<event>
 5   0  0.3973227E-04  0.1590579E+04  0.7818609E-02  0.8826357E-01
       -1   -1    0    0    0  501  0.00000000000E+00  0.00000000000E+00  0.36370125101E+03  0.36370125105E+03  0.50400001928E-02 0.  1.
        1   -1    0    0  501    0  0.00000000000E+00  0.00000000000E+00 -0.17390246718E+04  0.17390246718E+04  0.50400001928E-02 0. -1.
    10030    2    1    2    0    0  0.00000000000E+00  0.00000000000E+00 -0.13753234208E+04  0.21027259228E+04  0.15905790753E+04 0.  0.
        3    1    3    3  502    0  0.28358132315E+03  0.40402290618E+03  0.13668273886E+03  0.51218654498E+03  0.10100000352E+00 0.  1.
       -3    1    3    3    0  502 -0.28358132315E+03 -0.40402290618E+03 -0.15120061596E+04  0.15905393778E+04  0.10100000352E+00 0. -1.
</event>
<event>
 5   0  0.4110803E-04  0.1627227E+04  0.7818609E-02  0.8803994E-01
        1   -1    0    0  501    0  0.00000000000E+00  0.00000000000E+00  0.12393082058E+04  0.12393082058E+04  0.50400001928E-02 0.  1.
       -1   -1    0    0    0  501  0.00000000000E+00  0.00000000000E+00 -0.53414209208E+03  0.53414209210E+03  0.50400001928E-02 0. -1.
    10030    2    1    2    0    0  0.00000000000E+00  0.00000000000E+00  0.70516611368E+03  0.17734502979E+04  0.16272266932E+04 0.  0.
        5    1    3    3  502    0  0.55282641273E+03  0.21820663966E+03 -0.25296512918E+03  0.64594475521E+03  0.46999998093E+01 0. -1.
       -5    1    3    3    0  502 -0.55282641273E+03 -0.21820663966E+03  0.95813124286E+03  0.11275055427E+04  0.46999998093E+01 0.  1.
</event>
<event>
 5   0  0.7395088E-04  0.1596292E+04  0.7818609E-02  0.8822829E-01
       -2   -1    0    0    0  501  0.00000000000E+00  0.00000000000E+00  0.37683597243E+03  0.37683597243E+03  0.25500000920E-02 0. -1.
        2   -1    0    0  501    0  0.00000000000E+00  0.00000000000E+00 -0.16904880073E+04  0.16904880073E+04  0.25500000920E-02 0.  1.
    10030    2    1    2    0    0  0.00000000000E+00  0.00000000000E+00 -0.13136520348E+04  0.20673239797E+04  0.15962915675E+04 0.  0.
        1    1    3    3  502    0 -0.46049544909E+03 -0.46851838090E+03 -0.69780522772E+02  0.66063216184E+03  0.50400001928E-02 0. -1.
       -1    1    3    3    0  502  0.46049544909E+03  0.46851838090E+03 -0.12438715121E+04  0.14066918178E+04  0.50400001928E-02 0.  1.
</event>
<event>
 5   0  0.3973227E-04  0.1612661E+04  0.7818609E-02  0.8812807E-01
       -1   -1    0    0    0  501  0.00000000000E+00  0.00000000000E+00  0.10053783152E+04  0.10053783152E+04  0.50400001928E-02 0. -1.
        1   -1    0    0  501    0  0.00000000000E+00  0.00000000000E+00 -0.64669083059E+03  0.64669083061E+03  0.50400001928E-02 0.  1.
    10030    2    1    2    0    0  0.00000000000E+00  0.00000000000E+00  0.35868748461E+03  0.16520691458E+04  0.16126610775E+04 0.  0.
        3    1    3    3  502    0  0.16776250662E+02 -0.21826062829E+03  0.97435529995E+03  0.99864278158E+03  0.10100000352E+00 0. -1.
       -3    1    3    3    0  502 -0.16776250662E+02  0.21826062829E+03 -0.61566781534E+03  0.65342636425E+03  0.10100000352E+00 0.  1.
</event>
<event>
 5   0  0.7770905E-04  0.1586692E+04  0.7818609E-02  0.8828766E-01
       -2   -1    0    0    0  501  0.00000000000E+00  0.00000000000E+00  0.27565029380E+03  0.27565029382E+03  0.25500000920E-02 0.  1.
        2   -1    0    0  501    0  0.00000000000E+00  0.00000000000E+00 -0.22833198183E+04  0.22833198183E+04  0.25500000920E-02 0. -1.
    10030    2    1    2    0    0  0.00000000000E+00  0.00000000000E+00 -0.20076695245E+04  0.25589701121E+04  0.15866918778E+04 0.  0.
        2    1    3    3  502    0 -0.32563244646E+03  0.37173921836E+03 -0.29143595988E+01  0.49420140646E+03  0.25500000920E-02 0.  1.
       -2    1    3    3    0  502  0.32563244646E+03 -0.37173921836E+03 -0.20047551649E+04  0.20647687056E+04  0.25500000920E-02 0. -1.
</event>
<event>
 5   0  0.3837251E-04  0.1739742E+04  0.7818609E-02  0.8739017E-01
        1   -1    0    0  501    0  0.00000000000E+00  0.00000000000E+00  0.54032209184E+03  0.54032209186E+03  0.50400001928E-02 0. -1.
       -1   -1    0    0    0  501  0.00000000000E+00  0.00000000000E+00 -0.14004152320E+04  0.14004152320E+04  0.50400001928E-02 0.  1.
    10030    2    1    2    0    0  0.00000000000E+00  0.00000000000E+00 -0.86009314016E+03  0.19407373239E+04  0.17397416907E+04 0.  0.
        4    1    3    3  502    0  0.43846215652E+03 -0.23301219410E+03 -0.12267971523E+04  0.13234714243E+04  0.12699999809E+01 0.  1.
       -4    1    3    3    0  502 -0.43846215652E+03  0.23301219410E+03  0.36670401213E+03  0.61726589952E+03  0.12699999809E+01 0. -1.
</event>
<event>
 5   0  0.4110803E-04  0.1603980E+04  0.7818609E-02  0.8818107E-01
        1   -1    0    0  501    0  0.00000000000E+00  0.00000000000E+00  0.10814448762E+04  0.10814448762E+04  0.50400001928E-02 0. -1.
       -1   -1    0    0    0  501  0.00000000000E+00  0.00000000000E+00 -0.59474850312E+03  0.59474850314E+03  0.50400001928E-02 0.  1.
    10030    2    1    2    0    0  0.00000000000E+00  0.00000000000E+00  0.48669637308E+03  0.16761933794E+04  0.16039797023E+04 0.  0.
        5    1    3    3  502    0  0.30676343591E+03  0.13880958350E+02 -0.53086339080E+03  0.61329806481E+03  0.46999998093E+01 0.  1.
       -5    1    3    3    0  502 -0.30676343591E+03 -0.13880958350E+02  0.10175597639E+04  0.10628953145E+04  0.46999998093E+01 0. -1.
</event>
<event>
 5   0  0.7415102E-04  0.1569325E+04  0.7818609E-02  0.8839618E-01
        2   -1    0    0  501    0  0.00000000000E+00  0.00000000000E+00  0.12144976520E+04  0.12144976520E+04  0.25500000920E-02 0. -1.
       -2   -1    0    0    0  501  0.00000000000E+00  0.00000000000E+00 -0.50695446611E+03  0.50695446612E+03  0.25500000920E-02 0.  1.
    10030    2    1    2    0    0  0.00000000000E+00  0.00000000000E+00  0.70754318593E+03  0.17214521182E+04  0.15693247067E+04 0.  0.
        5    1    3    3  502    0  0.30744885419E+03  0.67856179529E+03  0.62403277642E+03  0.97180754474E+03  0.46999998093E+01 0. -1.
       -5    1    3    3    0  502 -0.30744885419E+03 -0.67856179529E+03  0.83510409513E+02  0.74964457342E+03  0.46999998093E+01 0.  1.
</event>
<event>
 5   0  0.4110803E-04  0.1587493E+04  0.7818609E-02  0.8828269E-01
        1   -1    0    0  501    0  0.00000000000E+00  0.00000000000E+00  0.11885910145E+04  0.11885910145E+04  0.50400001928E-02 0. -1.
       -1   -1    0    0    0  501  0.00000000000E+00  0.00000000000E+00 -0.53006746405E+03  0.53006746407E+03  0.50400001928E-02 0.  1.
    10030    2    1    2    0    0  0.00000000000E+00  0.00000000000E+00  0.65852355041E+03  0.17186584785E+04  0.15874928974E+04 0.  0.
        5    1    3    3  502    0 -0.43047167206E+01 -0.31689633635E+03  0.11171040536E+04  0.11611999721E+04  0.46999998093E+01 0. -1.
       -5    1    3    3    0  502  0.43047167206E+01  0.31689633635E+03 -0.45858050316E+03  0.55745850649E+03  0.46999998093E+01 0.  1.
</event>
<event>
 5   0  0.3950195E-04  0.1600955E+04  0.7818609E-02  0.8819961E-01
        1   -1    0    0  501    0  0.00000000000E+00  0.00000000000E+00  0.47456968025E+03  0.47456968028E+03  0.50400001928E-02 0.  1.
       -1   -1    0    0    0  501  0.00000000000E+00  0.00000000000E+00 -0.13502009066E+04  0.13502009067E+04  0.50400001928E-02 0. -1.
    10030    2    1    2    0    0  0.00000000000E+00  0.00000000000E+00 -0.87563122639E+03  0.18247705869E+04  0.16009552306E+04 0.  0.
        2    1    3    3  502    0  0.22802863226E+02  0.28915332011E+03 -0.12881980100E+04  0.13204483050E+04  0.25500000920E-02 0. -1.
       -2    1    3    3    0  502 -0.22802863226E+02 -0.28915332011E+03  0.41256678363E+03  0.50432228194E+03  0.25500000920E-02 0.  1.
</event>
<event>
 5   0  0.7395088E-04  0.1612289E+04  0.7818609E-02  0.8813034E-01
        2   -1    0    0  501    0  0.00000000000E+00  0.00000000000E+00  0.66016840108E+03  0.66016840108E+03  0.25500000920E-02 0.  1.
       -2   -1    0    0    0  501  0.00000000000E+00  0.00000000000E+00 -0.98439860422E+03  0.98439860423E+03  0.25500000920E-02 0. -1.
    10030    2    1    2    0    0  0.00000000000E+00  0.00000000000E+00 -0.32423020315E+03  0.16445670053E+04  0.16122888731E+04 0.  0.
        1    1    3    3  502    0 -0.21050920203E+03 -0.69665290955E+03 -0.51579807243E+03  0.89201292147E+03  0.50400001928E-02 0. -1.
       -1    1    3    3    0  502  0.21050920203E+03  0.69665290955E+03  0.19156786928E+03  0.75255408384E+03  0.50400001928E-02 0.  1.
</event>
<event>
 5   0  0.3837251E-04  0.1779444E+04  0.7818609E-02  0.8717308E-01
        1   -1    0    0  501    0  0.00000000000E+00  0.00000000000E+00  0.74779429825E+03  0.74779429827E+03  0.50400001928E-02 0.  1.
       -1   -1    0    0    0  501  0.00000000000E+00  0.00000000000E+00 -0.10585863768E+04  0.10585863768E+04  0.50400001928E-02 0. -1.
    10030    2    1    2    0    0  0.00000000000E+00  0.00000000000E+00 -0.31079207853E+03  0.18063806751E+04  0.17794435723E+04 0.  0.
        4    1    3    3  502    0 -0.23100700746E+03  0.50184672094E+03 -0.86336933096E+03  0.10249988211E+04  0.12699999809E+01 0. -1.
       -4    1    3    3    0  502  0.23100700746E+03 -0.50184672094E+03  0.55257725243E+03  0.78138185391E+03  0.12699999809E+01 0.  1.
</event>
<event>
 5   0  0.7395088E-04  0.1617021E+04  0.7818609E-02  0.8810159E-01
        2   -1    0    0  501    0  0.00000000000E+00  0.00000000000E+00  0.94949882380E+03  0.94949882381E+03  0.25500000920E-02 0. -1.
       -2   -1    0    0    0  501  0.00000000000E+00  0.00000000000E+00 -0.68845738775E+03  0.68845738775E+03  0.25500000920E-02 0.  1.
    10030    2    1    2    0    0  0.00000000000E+00  0.00000000000E+00  0.26104143605E+03  0.16379562116E+04  0.16170213108E+04 0.  0.
        1    1    3    3  502    0  0.28517462984E+03  0.37709845154E+03 -0.53383763173E+03  0.71309917175E+03  0.50400001928E-02 0.  1.
       -1    1    3    3    0  502 -0.28517462984E+03 -0.37709845154E+03  0.79487906779E+03  0.92485703982E+03  0.50400001928E-02 0. -1.
</event>
<event>
 5   0  0.7395088E-04  0.1657134E+04  0.7818609E-02  0.8786197E-01
        2   -1    0    0  501    0  0.00000000000E+00  0.00000000000E+00  0.17293081534E+04  0.17293081534E+04  0.25500000920E-02 0.  1.
       -2   -1    0    0    0  501  0.00000000000E+00  0.00000000000E+00 -0.39699283425E+03  0.39699283425E+03  0.25500000920E-02 0. -1.
    10030    2    1    2    0    0  0.00000000000E+00  0.00000000000E+00  0.13323153192E+04  0.21263009877E+04  0.16571336037E+04 0.  0.
        1    1    3    3  502    0  0.16729833425E+03  0.26897393246E+02 -0.37452351302E+03  0.41107184802E+03  0.50400001928E-02 0. -1.
       -1    1    3    3    0  502 -0.16729833425E+03 -0.26897393246E+02  0.17068388322E+04  0.17152291396E+04  0.50400001928E-02 0.  1.
</event>
<event>
 5   0  0.3837251E-04  0.1608558E+04  0.7818609E-02  0.8815308E-01
        1   -1    0    0  501    0  0.00000000000E+00  0.00000000000E+00  0.43139978182E+03  0.43139978185E+03  0.50400001928E-02 0. -1.
       -1   -1    0    0    0  501  0.00000000000E+00  0.00000000000E+00 -0.14994547075E+04  0.14994547075E+04  0.50400001928E-02 0.  1.
    10030    2    1    2    0    0  0.00000000000E+00  0.00000000000E+00 -0.10680549257E+04  0.19308544893E+04  0.16085576566E+04 0.  0.
        4    1    3    3  502    0  0.15635756646E+03 -0.78349696858E+03 -0.42304973395E+03  0.90403975502E+03  0.12699999809E+01 0. -1.
       -4    1    3    3    0  502 -0.15635756646E+03  0.78349696858E+03 -0.64500519171E+03  0.10268147343E+04  0.12699999809E+01 0.  1.
</event>
<event>
 5   0  0.3973227E-04  0.1533085E+04  0.7818609E-02  0.8862745E-01
       -1   -1    0    0    0  501  0.00000000000E+00  0.00000000000E+00  0.29158382329E+03  0.29158382333E+03  0.50400001928E-02 0. -1.
        1   -1    0    0  501    0  0.00000000000E+00  0.00000000000E+00 -0.20151586173E+04  0.20151586173E+04  0.50400001928E-02 0.  1.
    10030    2    1    2    0    0  0.00000000000E+00  0.00000000000E+00 -0.17235747940E+04  0.23067424406E+04  0.15330853260E+04 0.  0.
        3    1    3    3  502    0 -0.31707136158E+03 -0.67447314726E+03 -0.11315311865E+04  0.13549210718E+04  0.10100000352E+00 0.  1.
       -3    1    3    3    0  502  0.31707136158E+03  0.67447314726E+03 -0.59204360757E+03  0.95182136884E+03  0.10100000352E+00 0. -1.
</event>
<event>
 5   0  0.7553070E-04  0.1618187E+04  0.7818609E-02  0.8809453E-01
        2   -1    0    0  501    0  0.00000000000E+00  0.00000000000E+00  0.13822233250E+04  0.13822233250E+04  0.25500000920E-02 0. -1.
       -2   -1    0    0    0  501  0.00000000000E+00  0.00000000000E+00 -0.47360797417E+03  0.47360797418E+03  0.25500000920E-02 0.  1.
    10030    2    1    2    0    0  0.00000000000E+00  0.00000000000E+00  0.90861535086E+03  0.18558312992E+04  0.16181866256E+04 0.  0.
        4    1    3    3  502    0 -0.98980744031E+02 -0.33076375151E+03  0.12934983351E+04  0.13387835534E+04  0.12699999809E+01 0. -1.
       -4    1    3    3    0  502  0.98980744031E+02  0.33076375151E+03 -0.38488298425E+03  0.51704774583E+03  0.12699999809E+01 0.  1.
</event>
<event>
 5   0  0.3837251E-04  0.1623608E+04  0.7818609E-02  0.8806174E-01
        1   -1    0    0  501    0  0.00000000000E+00  0.00000000000E+00  0.95863856571E+03  0.95863856572E+03  0.50400001928E-02 0. -1.
       -1   -1    0    0    0  501  0.00000000000E+00  0.00000000000E+00 -0.68746033501E+03  0.68746033503E+03  0.50400001928E-02 0.  1.
    10030    2    1    2    0    0  0.00000000000E+00  0.00000000000E+00  0.27117823070E+03  0.16460989008E+04  0.16236083143E+04 0.  0.
        4    1    3    3  502    0  0.36051715267E+02  0.80930971219E+03  0.18868284633E+03  0.83179610832E+03  0.12699999809E+01 0. -1.
       -4    1    3    3    0  502 -0.36051715267E+02 -0.80930971219E+03  0.82495384367E+02  0.81430279243E+03  0.12699999809E+01 0.  1.
</event>
<event>
 5   0  0.3889847E-04  0.1509504E+04  0.7818609E-02  0.8878157E-01
        1   -1    0    0  501    0  0.00000000000E+00  0.00000000000E+00  0.12290456353E+04  0.12290456353E+04  0.50400001928E-02 0.  1.
       -1   -1    0    0    0  501  0.00000000000E+00  0.00000000000E+00 -0.46349036714E+03  0.46349036717E+03  0.50400001928E-02 0. -1.
    10030    2    1    2    0    0  0.00000000000E+00  0.00000000000E+00  0.76555526815E+03  0.16925360025E+04  0.15095043064E+04 0.  0.
        1    1    3    3  502    0  0.40534395243E+03  0.27344951914E+03 -0.26189151842E+03  0.55467605566E+03  0.50400001928E-02 0. -1.
       -1    1    3    3    0  502 -0.40534395243E+03 -0.27344951914E+03  0.10274467866E+04  0.11378599468E+04  0.50400001928E-02 0.  1.
</event>
<event>
 5   0  0.4110803E-04  0.1652957E+04  0.7818609E-02  0.8788659E-01
        1   -1    0    0  501    0  0.00000000000E+00  0.00000000000E+00  0.54753304687E+03  0.54753304689E+03  0.50400001928E-02 0.  1.
       -1   -1    0    0    0  501  0.00000000000E+00  0.00000000000E+00 -0.12475348587E+04  0.12475348587E+04  0.50400001928E-02 0. -1.
    10030    2    1    2    0    0  0.00000000000E+00  0.00000000000E+00 -0.70000181178E+03  0.17950679056E+04  0.16529568201E+04 0.  0.
        5    1    3    3  502    0  0.19402654304E+03 -0.12051139504E+02  0.52233624882E+03  0.55735874999E+03  0.46999998093E+01 0.  1.
       -5    1    3    3    0  502 -0.19402654304E+03  0.12051139504E+02 -0.12223380606E+04  0.12377091556E+04  0.46999998093E+01 0. -1.
</event>
<event>
 5   0  0.7553070E-04  0.1600003E+04  0.7818609E-02  0.8820546E-01
       -2   -1    0    0    0  501  0.00000000000E+00  0.00000000000E+00  0.76102034465E+03  0.76102034465E+03  0.25500000920E-02 0.  1.
        2   -1    0    0  501    0  0.00000000000E+00  0.00000000000E+00 -0.84097967634E+03  0.84097967634E+03  0.25500000920E-02 0. -1.
    10030    2    1    2    0    0  0.00000000000E+00  0.00000000000E+00 -0.79959331685E+02  0.16020000210E+04  0.16000033039E+04 0.  0.
        4    1    3    3  502    0 -0.51149775019E+03  0.40965378562E+03 -0.49941487089E+03  0.82393142839E+03  0.12699999809E+01 0. -1.
       -4    1    3    3    0  502  0.51149775019E+03 -0.40965378562E+03  0.41945553921E+03  0.77806859260E+03  0.12699999809E+01 0.  1.
</event>
<event>
 5   0  0.7770905E-04  0.1421710E+04  0.7818609E-02  0.8938252E-01
       -2   -1    0    0    0  501  0.00000000000E+00  0.00000000000E+00  0.26939941682E+03  0.26939941683E+03  0.25500000920E-02 0.  1.
        2   -1    0    0  501    0  0.00000000000E+00  0.00000000000E+00 -0.18757099940E+04  0.18757099940E+04  0.25500000920E-02 0. -1.
    10030    2    1    2    0    0  0.00000000000E+00  0.00000000000E+00 -0.16063105771E+04  0.21451094108E+04  0.14217104888E+04 0.  0.
        2    1    3    3  502    0  0.32651906650E+03 -0.28439982209E+02  0.14858990155E+03  0.35986454706E+03  0.25500000920E-02 0.  1.
       -2    1    3    3    0  502 -0.32651906650E+03  0.28439982209E+02 -0.17549004787E+04  0.17852448637E+04  0.25500000920E-02 0. -1.
</event>
<event>
 5   0  0.4110803E-04  0.1606190E+04  0.7818609E-02  0.8816755E-01
       -1   -1    0    0    0  501  0.00000000000E+00  0.00000000000E+00  0.72388406103E+03  0.72388406105E+03  0.50400001928E-02 0. -1.
        1   -1    0    0  501    0  0.00000000000E+00  0.00000000000E+00 -0.89097312756E+03  0.89097312758E+03  0.50400001928E-02 0.  1.
    10030    2    1    2    0    0  0.00000000000E+00  0.00000000000E+00 -0.16708906653E+03  0.16148571886E+04  0.16061895852E+04 0.  0.
        5    1    3    3  502    0 -0.48899077513E+03  0.61573534836E+03  0.80729846253E+02  0.79043114530E+03  0.46999998093E+01 0. -1.
       -5    1    3    3    0  502  0.48899077513E+03 -0.61573534836E+03 -0.24781891279E+03  0.82442604333E+03  0.46999998093E+01 0.  1.
</event>
<event>
 5   0  0.3889847E-04  0.1334685E+04  0.7818609E-02  0.9002503E-01
       -1   -1    0    0    0  501  0.00000000000E+00  0.00000000000E+00  0.58611020464E+03  0.58611020466E+03  0.50400001928E-02 0. -1.
        1   -1    0    0  501    0  0.00000000000E+00  0.00000000000E+00 -0.75983279285E+03  0.75983279286E+03  0.50400001928E-02 0.  1.
    10030    2    1    2    0    0  0.00000000000E+00  0.00000000000E+00 -0.17372258821E+03  0.13459429975E+04  0.13346846125E+04 0.  0.
        1    1    3    3  502    0 -0.37114304412E+03 -0.46865489161E+03 -0.38594555188E+03  0.71157468734E+03  0.50400001928E-02 0.  1.
       -1    1    3    3    0  502  0.37114304412E+03  0.46865489161E+03  0.21222296367E+03  0.63436831018E+03  0.50400001928E-02 0. -1.
</event>
<event>
 5   0  0.7488884E-04  0.1596574E+04  0.7818609E-02  0.8822655E-01
        2   -1    0    0  501    0  0.00000000000E+00  0.00000000000E+00  0.74546189163E+03  0.74546189163E+03  0.25500000920E-02 0.  1.
       -2   -1    0    0    0  501  0.00000000000E+00  0.00000000000E+00 -0.85485591536E+03  0.85485591536E+03  0.25500000920E-02 0. -1.
    10030    2    1    2    0    0  0.00000000000E+00  0.00000000000E+00 -0.10939402373E+03  0.16003178070E+04  0.15965744677E+04 0.  0.
        3    1    3    3  502    0  0.22732715468E+03  0.26555201046E+03  0.66466734820E+03  0.75098481974E+03  0.10100000352E+00 0.  1.
       -3    1    3    3    0  502 -0.22732715468E+03 -0.26555201046E+03 -0.77406137194E+03  0.84933298725E+03  0.10100000352E+00 0. -1.
</event>
<event>
 5   0  0.7553070E-04  0.1281450E+04  0.7818609E-02  0.9044406E-01
        2   -1    0    0  501    0  0.00000000000E+00  0.00000000000E+00  0.89082605173E+03  0.89082605174E+03  0.25500000920E-02 0.  1.
       -2   -1    0    0    0  501  0.00000000000E+00  0.00000000000E+00 -0.46084020682E+03  0.46084020683E+03  0.25500000920E-02 0. -1.
    10030    2    1    2    0    0  0.00000000000E+00  0.00000000000E+00  0.42998584491E+03  0.13516662586E+04  0.12814499006E+04 0.  0.
        4    1    3    3  502    0 -0.80828063143E+02  0.36001453933E+02  0.88434920602E+03  0.88876566741E+03  0.12699999809E+01 0.  1.
       -4    1    3    3    0  502  0.80828063143E+02 -0.36001453933E+02 -0.45436336111E+03  0.46290059116E+03  0.12699999809E+01 0. -1.
</event>
<event>
 5   0  0.7553070E-04  0.1785892E+04  0.7818609E-02  0.8713838E-01
       -2   -1    0    0    0  501  0.00000000000E+00  0.00000000000E+00  0.31449964588E+03  0.31449964589E+03  0.25500000920E-02 0.  1.
        2   -1    0    0  501    0  0.00000000000E+00  0.00000000000E+00 -0.25353061937E+04  0.25353061937E+04  0.25500000920E-02 0. -1.
    10030    2    1    2    0    0  0.00000000000E+00  0.00000000000E+00 -0.22208065478E+04  0.28498058396E+04  0.17858923821E+04 0.  0.
        4    1    3    3  502    0  0.14415440770E+03 -0.75599429679E+03 -0.18329782261E+04  0.19879936268E+04  0.12699999809E+01 0. -1.
       -4    1    3    3    0  502 -0.14415440770E+03  0.75599429679E+03 -0.38782832173E+03  0.86181221277E+03  0.12699999809E+01 0.  1.
</event>
<event>
 5   0  0.3973227E-04  0.1481828E+04  0.7818609E-02  0.8896627E-01
       -1   -1    0    0    0  501  0.00000000000E+00  0.00000000000E+00  0.34061320884E+03  0.34061320888E+03  0.50400001928E-02 0.  1.
        1   -1    0    0  501    0  0.00000000000E+00  0.00000000000E+00 -0.16116636434E+04  0.16116636434E+04  0.50400001928E-02 0. -1.
    10030    2    1    2    0    0  0.00000000000E+00  0.00000000000E+00 -0.12710504345E+04  0.19522768523E+04  0.14818284991E+04 0.  0.
        3    1    3    3  502    0 -0.27946439511E+02 -0.35292096250E+03  0.22196966950E+03  0.41785733645E+03  0.10100000352E+00 0.  1.
       -3    1    3    3    0  502  0.27946439511E+02  0.35292096250E+03 -0.14930201040E+04  0.15344195158E+04  0.10100000352E+00 0. -1.
</event>
<event>
 5   0  0.3973227E-04  0.1563982E+04  0.7818609E-02  0.8842986E-01
       -1   -1    0    0    0  501  0.00000000000E+00  0.00000000000E+00  0.96816769903E+03  0.96816769904E+03  0.50400001928E-02 0.  1.
        1   -1    0    0  501    0  0.00000000000E+00  0.00000000000E+00 -0.63161566474E+03  0.63161566476E+03  0.50400001928E-02 0. -1.
    10030    2    1    2    0    0  0.00000000000E+00  0.00000000000E+00  0.33655203429E+03  0.15997833638E+04  0.15639819498E+04 0.  0.
        3    1    3    3  502    0  0.68154201864E+02 -0.75503002495E+03 -0.27933980929E+02  0.75861429679E+03  0.10100000352E+00 0. -1.
       -3    1    3    3    0  502 -0.68154201864E+02  0.75503002495E+03  0.36448601522E+03  0.84116906701E+03  0.10100000352E+00 0.  1.
</event>
<event>
 5   0  0.3889847E-04  0.1579871E+04  0.7818609E-02  0.8833010E-01
       -1   -1    0    0    0  501  0.00000000000E+00  0.00000000000E+00  0.70024284426E+03  0.70024284428E+03  0.50400001928E-02 0. -1.
        1   -1    0    0  501    0  0.00000000000E+00  0.00000000000E+00 -0.89111709040E+03  0.89111709042E+03  0.50400001928E-02 0.  1.
    10030    2    1    2    0    0  0.00000000000E+00  0.00000000000E+00 -0.19087424614E+03  0.15913599347E+04  0.15798713441E+04 0.  0.
        1    1    3    3  502    0  0.26218760834E+03 -0.37291606473E+03 -0.74525600515E+03  0.87362191281E+03  0.50400001928E-02 0.  1.
       -1    1    3    3    0  502 -0.26218760834E+03  0.37291606473E+03  0.55438175902E+03  0.71773802188E+03  0.50400001928E-02 0. -1.
</event>
<event>
 5   0  0.3950195E-04  0.1614944E+04  0.7818609E-02  0.8811419E-01
        1   -1    0    0  501    0  0.00000000000E+00  0.00000000000E+00  0.62549972950E+03  0.62549972952E+03  0.50400001928E-02 0.  1.
       -1   -1    0    0    0  501  0.00000000000E+00  0.00000000000E+00 -0.10423845978E+04  0.10423845978E+04  0.50400001928E-02 0. -1.
    10030    2    1    2    0    0  0.00000000000E+00  0.00000000000E+00 -0.41688486827E+03  0.16678843273E+04  0.16149443135E+04 0.  0.
        2    1    3    3  502    0 -0.22935132612E+02 -0.38201795891E+03 -0.94276923333E+03  0.10174859058E+04  0.25500000920E-02 0. -1.
       -2    1    3    3    0  502  0.22935132612E+02  0.38201795891E+03  0.52588436505E+03  0.65039842147E+03  0.25500000920E-02 0.  1.
</event>
<event>
 5   0  0.7488884E-04  0.1679925E+04  0.7818609E-02  0.8772898E-01
       -2   -1    0    0    0  501  0.00000000000E+00  0.00000000000E+00  0.47901947918E+03  0.47901947919E+03  0.25500000920E-02 0.  1.
        2   -1    0    0  501    0  0.00000000000E+00  0.00000000000E+00 -0.14728767108E+04  0.14728767108E+04  0.25500000920E-02 0. -1.
    10030    2    1    2    0    0  0.00000000000E+00  0.00000000000E+00 -0.99385723164E+03  0.19518961900E+04  0.16799245637E+04 0.  0.
        3    1    3    3  502    0 -0.15398597026E+03 -0.73548352463E+03 -0.60809249402E+02  0.75388690733E+03  0.10100000352E+00 0.  1.
       -3    1    3    3    0  502  0.15398597026E+03  0.73548352463E+03 -0.93304798224E+03  0.11980092827E+04  0.10100000352E+00 0. -1.
</event>
<event>
 5   0  0.7488884E-04  0.1616556E+04  0.7818609E-02  0.8810441E-01
       -2   -1    0    0    0  501  0.00000000000E+00  0.00000000000E+00  0.65853342159E+03  0.65853342159E+03  0.25500000920E-02 0.  1.
        2   -1    0    0  501    0  0.00000000000E+00  0.00000000000E+00 -0.99207360505E+03  0.99207360506E+03  0.25500000920E-02 0. -1.
    10030    2    1    2    0    0  0.00000000000E+00  0.00000000000E+00 -0.33354018347E+03  0.16506070266E+04  0.16165563716E+04 0.  0.
        3    1    3    3  502    0  0.25724144473E+03  0.26080926198E+03 -0.90244558859E+03  0.97396236200E+03  0.10100000352E+00 0. -1.
       -3    1    3    3    0  502 -0.25724144473E+03 -0.26080926198E+03  0.56890540513E+03  0.67664466465E+03  0.10100000352E+00 0.  1.
</event>
<event>
 5   0  0.3973227E-04  0.1597624E+04  0.7818609E-02  0.8822009E-01
       -1   -1    0    0    0  501  0.00000000000E+00  0.00000000000E+00  0.43655055046E+03  0.43655055049E+03  0.50400001928E-02 0.  1.
        1   -1    0    0  501    0  0.00000000000E+00  0.00000000000E+00 -0.14616878258E+04  0.14616878258E+04  0.50400001928E-02 0. -1.
    10030    2    1    2    0    0  0.00000000000E+00  0.00000000000E+00 -0.10251372753E+04  0.18982383763E+04  0.15976240171E+04 0.  0.
        3    1    3    3  502    0  0.48126483312E+03 -0.33578415829E+03  0.13138279143E+03  0.60135537634E+03  0.10100000352E+00 0.  1.
       -3    1    3    3    0  502 -0.48126483312E+03  0.33578415829E+03 -0.11565200668E+04  0.12968830000E+04  0.10100000352E+00 0. -1.
</event>
<event>
 5   0  0.7553070E-04  0.1595160E+04  0.7818609E-02  0.8823527E-01
       -2   -1    0    0    0  501  0.00000000000E+00  0.00000000000E+00  0.10368998896E+04  0.10368998896E+04  0.25500000920E-02 0. -1.
        2   -1    0    0  501    0  0.00000000000E+00  0.00000000000E+00 -0.61349610128E+03  0.61349610129E+03  0.25500000920E-02 0.  1.
    10030    2    1    2    0    0  0.00000000000E+00  0.00000000000E+00  0.42340378830E+03  0.16503959909E+04  0.15951602298E+04 0.  0.
        4    1    3    3  502    0 -0.49497937853E+03 -0.20508853776E+03 -0.39957496199E+03  0.66837688219E+03  0.12699999809E+01 0. -1.
       -4    1    3    3    0  502  0.49497937853E+03  0.20508853776E+03  0.82297875030E+03  0.98201910869E+03  0.12699999809E+01 0.  1.
</event>
<event>
 5   0  0.7395088E-04  0.1578520E+04  0.7818609E-02  0.8833854E-01
        2   -1    0    0  501    0  0.00000000000E+00  0.00000000000E+00  0.62270586028E+03  0.62270586029E+03  0.25500000920E-02 0.  1.
       -2   -1    0    0    0  501  0.00000000000E+00  0.00000000000E+00 -0.10003615732E+04  0.10003615732E+04  0.25500000920E-02 0. -1.
    10030    2    1    2    0    0  0.00000000000E+00  0.00000000000E+00 -0.37765571294E+03  0.16230674335E+04  0.15785195774E+04 0.  0.
        1    1    3    3  502    0  0.20954231650E+03 -0.30860372149E+03  0.52634922264E+03  0.64512614544E+03  0.50400001928E-02 0.  1.
       -1    1    3    3    0  502 -0.20954231650E+03  0.30860372149E+03 -0.90400493558E+03  0.97794128807E+03  0.50400001928E-02 0. -1.
</event>
<event>
 5   0  0.7553070E-04  0.1520857E+04  0.7818609E-02  0.8870700E-01
        2   -1    0    0  501    0  0.00000000000E+00  0.00000000000E+00  0.11475976897E+04  0.11475976897E+04  0.25500000920E-02 0.  1.
       -2   -1    0    0    0  501  0.00000000000E+00  0.00000000000E+00 -0.50388020100E+03  0.50388020101E+03  0.25500000920E-02 0. -1.
    10030    2    1    2    0    0  0.00000000000E+00  0.00000000000E+00  0.64371748868E+03  0.16514778907E+04  0.15208573300E+04 0.  0.
        4    1    3    3  502    0 -0.21607906648E+03  0.69213780409E+03  0.73038559853E+02  0.72875314542E+03  0.12699999809E+01 0.  1.
       -4    1    3    3    0  502  0.21607906648E+03 -0.69213780409E+03  0.57067892882E+03  0.92272474527E+03  0.12699999809E+01 0. -1.
</event>
<event>
 5   0  0.4110803E-04  0.1601097E+04  0.7818609E-02  0.8819874E-01
       -1   -1    0    0    0  501  0.00000000000E+00  0.00000000000E+00  0.13113849710E+04  0.13113849710E+04  0.50400001928E-02 0. -1.
        1   -1    0    0  501    0  0.00000000000E+00  0.00000000000E+00 -0.48870303322E+03  0.48870303325E+03  0.50400001928E-02 0.  1.
    10030    2    1    2    0    0  0.00000000000E+00  0.00000000000E+00  0.82268193779E+03  0.18000880043E+04  0.16010968904E+04 0.  0.
        5    1    3    3  502    0  0.76645747585E+03  0.86212857167E+02  0.17029798254E+03  0.78988177083E+03  0.46999998093E+01 0.  1.
       -5    1    3    3    0  502 -0.76645747585E+03 -0.86212857167E+02  0.65238395524E+03  0.10102062334E+04  0.46999998093E+01 0. -1.
</event>
<event>
 5   0  0.7395088E-04  0.1615464E+04  0.7818609E-02  0.8811104E-01
       -2   -1    0    0    0  501  0.00000000000E+00  0.00000000000E+00  0.69171763809E+03  0.69171763809E+03  0.25500000920E-02 0.  1.
        2   -1    0    0  501    0  0.00000000000E+00  0.00000000000E+00 -0.94320371716E+03  0.94320371717E+03  0.25500000920E-02 0. -1.
    10030    2    1    2    0    0  0.00000000000E+00  0.00000000000E+00 -0.25148607908E+03  0.16349213553E+04  0.16154635836E+04 0.  0.
        1    1    3    3  502    0  0.17479725638E+03 -0.37911864159E+03 -0.82555246268E+03  0.92510642301E+03  0.50400001928E-02 0. -1.
       -1    1    3    3    0  502 -0.17479725638E+03  0.37911864159E+03  0.57406638361E+03  0.70981493225E+03  0.50400001928E-02 0.  1.
</event>
<event>
 5   0  0.7488884E-04  0.1584500E+04  0.7818609E-02  0.8830127E-01
        2   -1    0    0  501    0  0.00000000000E+00  0.00000000000E+00  0.17599505942E+04  0.17599505942E+04  0.25500000920E-02 0. -1.
       -2   -1    0    0    0  501  0.00000000000E+00  0.00000000000E+00 -0.35663498054E+03  0.35663498055E+03  0.25500000920E-02 0.  1.
    10030    2    1    2    0    0  0.00000000000E+00  0.00000000000E+00  0.14033156136E+04  0.21165855747E+04  0.15844998529E+04 0.  0.
        3    1    3    3  502    0 -0.28678356972E+03  0.42550860767E+03  0.15079779552E+04  0.15928904277E+04  0.10100000352E+00 0. -1.
       -3    1    3    3    0  502  0.28678356972E+03 -0.42550860767E+03 -0.10466234159E+03  0.52369514702E+03  0.10100000352E+00 0.  1.
</event>
<event>
 5   0  0.3837251E-04  0.1641442E+04  0.7818609E-02  0.8795485E-01
        1   -1    0    0  501    0  0.00000000000E+00  0.00000000000E+00  0.24391702973E+04  0.24391702973E+04  0.50400001928E-02 0. -1.
       -1   -1    0    0    0  501  0.00000000000E+00  0.00000000000E+00 -0.27615262329E+03  0.27615262334E+03  0.50400001928E-02 0.  1.
    10030    2    1    2    0    0  0.00000000000E+00  0.00000000000E+00  0.21630176740E+04  0.27153229207E+04  0.16414423856E+04 0.  0.
        4    1    3    3  502    0  0.32973353196E+03 -0.21227068388E+03  0.22741599073E+04  0.23077235411E+04  0.12699999809E+01 0. -1.
       -4    1    3    3    0  502 -0.32973353196E+03  0.21227068388E+03 -0.11114223323E+03  0.40759937959E+03  0.12699999809E+01 0.  1.
</event>
<event>
 5   0  0.7415102E-04  0.1399394E+04  0.7818609E-02  0.8954257E-01
       -2   -1    0    0    0  501  0.00000000000E+00  0.00000000000E+00  0.49146766782E+03  0.49146766783E+03  0.25500000920E-02 0.  1.
        2   -1    0    0  501    0  0.00000000000E+00  0.00000000000E+00 -0.99615122516E+03  0.99615122516E+03  0.25500000920E-02 0. -1.
    10030    2    1    2    0    0  0.00000000000E+00  0.00000000000E+00 -0.50468355734E+03  0.14876188930E+04  0.13993943253E+04 0.  0.
        5    1    3    3  502    0  0.93679396277E+02 -0.58369122107E+03 -0.65021427578E+03  0.87879005756E+03  0.46999998093E+01 0. -1.
       -5    1    3    3    0  502 -0.93679396277E+02  0.58369122107E+03  0.14553071844E+03  0.60882883543E+03  0.46999998093E+01 0.  1.
</event>
<event>
 5   0  0.7770905E-04  0.1597860E+04  0.7818609E-02  0.8821864E-01
        2   -1    0    0  501    0  0.00000000000E+00  0.00000000000E+00  0.12461201651E+04  0.12461201651E+04  0.25500000920E-02 0. -1.
       -2   -1    0    0    0  501  0.00000000000E+00  0.00000000000E+00 -0.51222105646E+03  0.51222105646E+03  0.25500000920E-02 0.  1.
    10030    2    1    2    0    0  0.00000000000E+00  0.00000000000E+00  0.73389910864E+03  0.17583412216E+04  0.15978598029E+04 0.  0.
        2    1    3    3  502    0 -0.73754649279E+03  0.29127035404E+01  0.29014379212E+02  0.73812271817E+03  0.25500000920E-02 0.  1.
       -2    1    3    3    0  502  0.73754649279E+03 -0.29127035404E+01  0.70488472943E+03  0.10202185034E+04  0.25500000920E-02 0. -1.
</event>
<event>
 5   0  0.7770905E-04  0.1637828E+04  0.7818609E-02  0.8797640E-01
        2   -1    0    0  501    0  0.00000000000E+00  0.00000000000E+00  0.10804228704E+04  0.10804228704E+04  0.25500000920E-02 0.  1.
       -2   -1    0    0    0  501  0.00000000000E+00  0.00000000000E+00 -0.62070183318E+03  0.62070183318E+03  0.25500000920E-02 0. -1.
    10030    2    1    2    0    0  0.00000000000E+00  0.00000000000E+00  0.45972103721E+03  0.17011247036E+04  0.16378283869E+04 0.  0.
        2    1    3    3  502    0 -0.55677792901E+03 -0.30882542714E+03  0.76478428293E+03  0.99512301054E+03  0.25500000920E-02 0.  1.
       -2    1    3    3    0  502  0.55677792901E+03  0.30882542714E+03 -0.30506324572E+03  0.70600169304E+03  0.25500000920E-02 0. -1.
</event>
<event>
 5   0  0.3973227E-04  0.1611395E+04  0.7818609E-02  0.8813578E-01
       -1   -1    0    0    0  501  0.00000000000E+00  0.00000000000E+00  0.50596437584E+03  0.50596437586E+03  0.50400001928E-02 0. -1.
        1   -1    0    0  501    0  0.00000000000E+00  0.00000000000E+00 -0.12829926858E+04  0.12829926858E+04  0.50400001928E-02 0.  1.
    10030    2    1    2    0    0  0.00000000000E+00  0.00000000000E+00 -0.77702830994E+03  0.17889570617E+04  0.16113951638E+04 0.  0.
        3    1    3    3  502    0  0.24863183001E+03  0.38668098128E+03  0.34606738877E+03  0.57541516833E+03  0.10100000352E+00 0. -1.
       -3    1    3    3    0  502 -0.24863183001E+03 -0.38668098128E+03 -0.11230956987E+04  0.12135418933E+04  0.10100000352E+00 0.  1.
</event>
<event>
 5   0  0.3950195E-04  0.1611799E+04  0.7818609E-02  0.8813332E-01
       -1   -1    0    0    0  501  0.00000000000E+00  0.00000000000E+00  0.46332963377E+03  0.46332963380E+03  0.50400001928E-02 0. -1.
        1   -1    0    0  501    0  0.00000000000E+00  0.00000000000E+00 -0.14017539839E+04  0.14017539839E+04  0.50400001928E-02 0.  1.
    10030    2    1    2    0    0  0.00000000000E+00  0.00000000000E+00 -0.93842435015E+03  0.18650836177E+04  0.16117991935E+04 0.  0.
        2    1    3    3  502    0  0.16885461694E+03 -0.11546088039E+03  0.43278952734E+03  0.47869601162E+03  0.25500000920E-02 0. -1.
       -2    1    3    3    0  502 -0.16885461694E+03  0.11546088039E+03 -0.13712138775E+04  0.13863876061E+04  0.25500000920E-02 0.  1.
</event>
<event>
 5   0  0.7395088E-04  0.1601584E+04  0.7818609E-02  0.8819575E-01
       -2   -1    0    0    0  501  0.00000000000E+00  0.00000000000E+00  0.30030219263E+03  0.30030219264E+03  0.25500000920E-02 0. -1.
        2   -1    0    0  501    0  0.00000000000E+00  0.00000000000E+00 -0.21354094127E+04  0.21354094127E+04  0.25500000920E-02 0.  1.
    10030    2    1    2    0    0  0.00000000000E+00  0.00000000000E+00 -0.18351072201E+04  0.24357116054E+04  0.16015843766E+04 0.  0.
        1    1    3    3  502    0  0.64123378185E+03  0.41482571213E+03 -0.12838361552E+04  0.14938194027E+04  0.50400001928E-02 0.  1.
       -1    1    3    3    0  502 -0.64123378185E+03 -0.41482571213E+03 -0.55127106484E+03  0.94189220264E+03  0.50400001928E-02 0. -1.
</event>
<event>
 5   0  0.3950195E-04  0.1620695E+04  0.7818609E-02  0.8807934E-01
        1   -1    0    0  501    0  0.00000000000E+00  0.00000000000E+00  0.61274434507E+03  0.61274434509E+03  0.50400001928E-02 0. -1.
       -1   -1    0    0    0  501  0.00000000000E+00  0.00000000000E+00 -0.10716750749E+04  0.10716750749E+04  0.50400001928E-02 0.  1.
    10030    2    1    2    0    0  0.00000000000E+00  0.00000000000E+00 -0.45893072984E+03  0.16844194200E+04  0.16206947176E+04 0.  0.
        2    1    3    3  502    0  0.10555738913E+03 -0.75120226342E+03  0.66723587685E+02  0.76151115561E+03  0.25500000920E-02 0. -1.
       -2    1    3    3    0  502 -0.10555738913E+03  0.75120226342E+03 -0.52565431753E+03  0.92290826440E+03  0.25500000920E-02 0.  1.
</event>
<event>
 5   0  0.4110803E-04  0.1291554E+04  0.7818609E-02  0.9036290E-01
        1   -1    0    0  501    0  0.00000000000E+00  0.00000000000E+00  0.49628533803E+03  0.49628533806E+03  0.50400001928E-02 0.  1.
       -1   -1    0    0    0  501  0.00000000000E+00  0.00000000000E+00 -0.84029876185E+03  0.84029876186E+03  0.50400001928E-02 0. -1.
    10030    2    1    2    0    0  0.00000000000E+00  0.00000000000E+00 -0.34401342382E+03  0.13365840999E+04  0.12915540331E+04 0.  0.
        5    1    3    3  502    0  0.29243277259E+03  0.34497908488E+03 -0.64903163825E+03  0.79106994187E+03  0.46999998093E+01 0. -1.
       -5    1    3    3    0  502 -0.29243277259E+03 -0.34497908488E+03  0.30501821443E+03  0.54551415804E+03  0.46999998093E+01 0.  1.
</event>
<event>
 5   0  0.7415102E-04  0.1599162E+04  0.7818609E-02  0.8821063E-01
       -2   -1    0    0    0  501  0.00000000000E+00  0.00000000000E+00  0.32341508290E+03  0.32341508291E+03  0.25500000920E-02 0.  1.
        2   -1    0    0  501    0  0.00000000000E+00  0.00000000000E+00 -0.19768093321E+04  0.19768093321E+04  0.25500000920E-02 0. -1.
    10030    2    1    2    0    0  0.00000000000E+00  0.00000000000E+00 -0.16533942492E+04  0.23002244150E+04  0.15991622232E+04 0.  0.
        5    1    3    3  502    0 -0.40024665580E+03  0.68380602085E+03 -0.67231385323E+03  0.10391419859E+04  0.46999998093E+01 0.  1.
       -5    1    3    3    0  502  0.40024665580E+03 -0.68380602085E+03 -0.98108039593E+03  0.12610824291E+04  0.46999998093E+01 0. -1.
</event>
<event>
 5   0  0.3950195E-04  0.1584875E+04  0.7818609E-02  0.8829894E-01
       -1   -1    0    0    0  501  0.00000000000E+00  0.00000000000E+00  0.71079021351E+03  0.71079021353E+03  0.50400001928E-02 0.  1.
        1   -1    0    0  501    0  0.00000000000E+00  0.00000000000E+00 -0.88346343054E+03  0.88346343055E+03  0.50400001928E-02 0. -1.
    10030    2    1    2    0    0  0.00000000000E+00  0.00000000000E+00 -0.17267321703E+03  0.15942536441E+04  0.15848749609E+04 0.  0.
        2    1    3    3  502    0 -0.52228289149E+03 -0.20992256596E+03  0.47473666235E+03  0.73635711514E+03  0.25500000920E-02 0.  1.
       -2    1    3    3    0  502  0.52228289149E+03  0.20992256596E+03 -0.64740987938E+03  0.85789652894E+03  0.25500000920E-02 0. -1.
</event>
<event>
 5   0  0.3973227E-04  0.1619420E+04  0.7818609E-02  0.8808706E-01
       -1   -1    0    0    0  501  0.00000000000E+00  0.00000000000E+00  0.35058422868E+03  0.35058422872E+03  0.50400001928E-02 0. -1.
        1   -1    0    0  501    0  0.00000000000E+00  0.00000000000E+00 -0.18701068769E+04  0.18701068769E+04  0.50400001928E-02 0.  1.
    10030    2    1    2    0    0  0.00000000000E+00  0.00000000000E+00 -0.15195226482E+04  0.22206911056E+04  0.16194196208E+04 0.  0.
        3    1    3    3  502    0  0.52843240120E+03  0.15899030066E+03  0.52790608932E+02  0.55435149223E+03  0.10100000352E+00 0. -1.
       -3    1    3    3    0  502 -0.52843240120E+03 -0.15899030066E+03 -0.15723132571E+04  0.16663396134E+04  0.10100000352E+00 0.  1.
</event>
<event>
 5   0  0.4110803E-04  0.1599137E+04  0.7818609E-02  0.8821078E-01
       -1   -1    0    0    0  501  0.00000000000E+00  0.00000000000E+00  0.10720416123E+04  0.10720416123E+04  0.50400001928E-02 0.  1.
        1   -1    0    0  501    0  0.00000000000E+00  0.00000000000E+00 -0.59634803814E+03  0.59634803816E+03  0.50400001928E-02 0. -1.
    10030    2    1    2    0    0  0.00000000000E+00  0.00000000000E+00  0.47569357416E+03  0.16683896505E+04  0.15991371577E+04 0.  0.
        5    1    3    3  502    0 -0.19444256258E+03  0.16140007335E+03  0.10292685626E+04  0.10598461010E+04  0.46999998093E+01 0.  1.
       -5    1    3    3    0  502  0.19444256258E+03 -0.16140007335E+03 -0.55357498843E+03  0.60854354949E+03  0.46999998093E+01 0. -1.
</event>
<event>
 5   0  0.7770905E-04  0.1592148E+04  0.7818609E-02  0.8825387E-01
       -2   -1    0    0    0  501  0.00000000000E+00  0.00000000000E+00  0.89446570202E+03  0.89446570202E+03  0.25500000920E-02 0. -1.
        2   -1    0    0  501    0  0.00000000000E+00  0.00000000000E+00 -0.70850502288E+03  0.70850502289E+03  0.25500000920E-02 0.  1.
    10030    2    1    2    0    0  0.00000000000E+00  0.00000000000E+00  0.18596067913E+03  0.16029707249E+04  0.15921475342E+04 0.  0.
        2    1    3    3  502    0  0.30368629815E+03 -0.63285316772E+03  0.47103922631E+03  0.84534398460E+03  0.25500000920E-02 0. -1.
       -2    1    3    3    0  502 -0.30368629815E+03  0.63285316772E+03 -0.28507854717E+03  0.75762674031E+03  0.25500000920E-02 0.  1.
</event>
<event>
 5   0  0.7488884E-04  0.1602661E+04  0.7818609E-02  0.8818915E-01
        2   -1    0    0  501    0  0.00000000000E+00  0.00000000000E+00  0.13448187693E+04  0.13448187693E+04  0.25500000920E-02 0. -1.
       -2   -1    0    0    0  501  0.00000000000E+00  0.00000000000E+00 -0.47748507664E+03  0.47748507665E+03  0.25500000920E-02 0.  1.
    10030    2    1    2    0    0  0.00000000000E+00  0.00000000000E+00  0.86733369269E+03  0.18223038460E+04  0.16026614030E+04 0.  0.
        3    1    3    3  502    0  0.21443508525E+03 -0.65481653008E+03  0.89883477430E+03  0.11325506856E+04  0.10100000352E+00 0.  1.
       -3    1    3    3    0  502 -0.21443508525E+03  0.65481653008E+03 -0.31501081612E+02  0.68975316034E+03  0.10100000352E+00 0. -1.
</event>
<event>
 5   0  0.3973227E-04  0.1618506E+04  0.7818609E-02  0.8809259E-01
       -1   -1    0    0    0  501  0.00000000000E+00  0.00000000000E+00  0.91647885959E+03  0.91647885960E+03  0.50400001928E-02 0. -1.
        1   -1    0    0  501    0  0.00000000000E+00  0.00000000000E+00 -0.71457191139E+03  0.71457191140E+03  0.50400001928E-02 0.  1.
    10030    2    1    2    0    0  0.00000000000E+00  0.00000000000E+00  0.20190694820E+03  0.16310507710E+04  0.16185055458E+04 0.  0.
        3    1    3    3  502    0 -0.48938507466E+03  0.55475260535E+03 -0.22967772793E+03  0.77459671659E+03  0.10100000352E+00 0.  1.
       -3    1    3    3    0  502  0.48938507466E+03 -0.55475260535E+03  0.43158467613E+03  0.85645405442E+03  0.10100000352E+00 0. -1.
</event>
<event>
 5   0  0.7395088E-04  0.1581846E+04  0.7818609E-02  0.8831779E-01
        2   -1    0    0  501    0  0.00000000000E+00  0.00000000000E+00  0.85302724535E+03  0.85302724536E+03  0.25500000920E-02 0.  1.
       -2   -1    0    0    0  501  0.00000000000E+00  0.00000000000E+00 -0.73334031255E+03  0.73334031256E+03  0.25500000920E-02 0. -1.
    10030    2    1    2    0    0  0.00000000000E+00  0.00000000000E+00  0.11968693280E+03  0.15863675579E+04  0.15818460946E+04 0.  0.
        1    1    3    3  502    0  0.66650331813E+03 -0.81461620532E+02 -0.35931844971E+03  0.76155920126E+03  0.50400001928E-02 0. -1.
       -1    1    3    3    0  502 -0.66650331813E+03  0.81461620532E+02  0.47900538252E+03  0.82480835665E+03  0.50400001928E-02 0.  1.
</event>
<event>
 5   0  0.7395088E-04  0.1597385E+04  0.7818609E-02  0.8822156E-01
       -2   -1    0    0    0  501  0.00000000000E+00  0.00000000000E+00  0.44590622312E+03  0.44590622313E+03  0.25500000920E-02 0. -1.
        2   -1    0    0  501    0  0.00000000000E+00  0.00000000000E+00 -0.14305919600E+04  0.14305919600E+04  0.25500000920E-02 0.  1.
    10030    2    1    2    0    0  0.00000000000E+00  0.00000000000E+00 -0.98468573690E+03  0.18764981832E+04  0.15973851855E+04 0.  0.
        1    1    3    3  502    0 -0.68234151050E+03  0.41500769629E+03 -0.48128960486E+03  0.93244893088E+03  0.50400001928E-02 0.  1.
       -1    1    3    3    0  502  0.68234151050E+03 -0.41500769629E+03 -0.50339613204E+03  0.94404925227E+03  0.50400001928E-02 0. -1.
</event>
<event>
 5   0  0.7415102E-04  0.1545317E+04  0.7818609E-02  0.8854865E-01
       -2   -1    0    0    0  501  0.00000000000E+00  0.00000000000E+00  0.44006002616E+03  0.44006002617E+03  0.25500000920E-02 0.  1.
        2   -1    0    0  501    0  0.00000000000E+00  0.00000000000E+00 -0.13566348886E+04  0.13566348886E+04  0.25500000920E-02 0. -1.
    10030    2    1    2    0    0  0.00000000000E+00  0.00000000000E+00 -0.91657486240E+03  0.17966949147E+04  0.15453165172E+04 0.  0.
        5    1    3    3  502    0  0.87193942160E+02 -0.21586732695E+03  0.39829210224E+03  0.46136772221E+03  0.46999998093E+01 0.  1.
       -5    1    3    3    0  502 -0.87193942160E+02  0.21586732695E+03 -0.13148669646E+04  0.13353271925E+04  0.46999998093E+01 0. -1.
</event>
<event>
 5   0  0.7488884E-04  0.1562292E+04  0.7818609E-02  0.8844054E-01
       -2   -1    0    0    0  501  0.00000000000E+00  0.00000000000E+00  0.56100584299E+03  0.56100584300E+03  0.25500000920E-02 0. -1.
        2   -1    0    0  501    0  0.00000000000E+00  0.00000000000E+00 -0.10876701359E+04  0.10876701359E+04  0.25500000920E-02 0.  1.
    10030    2    1    2    0    0  0.00000000000E+00  0.00000000000E+00 -0.52666429296E+03  0.16486759789E+04  0.15622922921E+04 0.  0.
        3    1    3    3  502    0  0.42761620553E+03 -0.10118856701E+02  0.42643823480E+03  0.60399303704E+03  0.10100000352E+00 0. -1.
       -3    1    3    3    0  502 -0.42761620553E+03  0.10118856701E+02 -0.95310252776E+03  0.10446829419E+04  0.10100000352E+00 0.  1.
</event>
<event>
 5   0  0.3889847E-04  0.1608303E+04  0.7818609E-02  0.8815463E-01
       -1   -1    0    0    0  501  0.00000000000E+00  0.00000000000E+00  0.55240572746E+03  0.55240572748E+03  0.50400001928E-02 0.  1.
        1   -1    0    0  501    0  0.00000000000E+00  0.00000000000E+00 -0.11706244123E+04  0.11706244123E+04  0.50400001928E-02 0. -1.
    10030    2    1    2    0    0  0.00000000000E+00  0.00000000000E+00 -0.61821868486E+03  0.17230301398E+04  0.16083029940E+04 0.  0.
        1    1    3    3  502    0 -0.42451524661E+03  0.34545540705E+03  0.32207568490E+03  0.63504754129E+03  0.50400001928E-02 0.  1.
       -1    1    3    3    0  502  0.42451524661E+03 -0.34545540705E+03 -0.94029436976E+03  0.10879825985E+04  0.50400001928E-02 0. -1.
</event>
<event>
 5   0  0.3889847E-04  0.1581967E+04  0.7818609E-02  0.8831703E-01
        1   -1    0    0  501    0  0.00000000000E+00  0.00000000000E+00  0.53088594437E+03  0.53088594439E+03  0.50400001928E-02 0.  1.
       -1   -1    0    0    0  501  0.00000000000E+00  0.00000000000E+00 -0.11785115958E+04  0.11785115958E+04  0.50400001928E-02 0. -1.
    10030    2    1    2    0    0  0.00000000000E+00  0.00000000000E+00 -0.64762565143E+03  0.17093975402E+04  0.15819674352E+04 0.  0.
        1    1    3    3  502    0  0.29938249636E+02  0.15100101611E+03  0.51454321759E+03  0.53707758141E+03  0.50400001928E-02 0.  1.
       -1    1    3    3    0  502 -0.29938249636E+02 -0.15100101611E+03 -0.11621688690E+04  0.11723199588E+04  0.50400001928E-02 0. -1.
</event>
<event>
 5   0  0.3889847E-04  0.1599507E+04  0.7818609E-02  0.8820851E-01
       -1   -1    0    0    0  501  0.00000000000E+00  0.00000000000E+00  0.14633240796E+04  0.14633240796E+04  0.50400001928E-02 0.  1.
        1   -1    0    0  501    0  0.00000000000E+00  0.00000000000E+00 -0.43709091559E+03  0.43709091562E+03  0.50400001928E-02 0. -1.
    10030    2    1    2    0    0  0.00000000000E+00  0.00000000000E+00  0.10262331640E+04  0.19004149953E+04  0.15995070013E+04 0.  0.
        1    1    3    3  502    0  0.28155454364E+03  0.59576380075E+03 -0.25352304206E+02  0.65943173012E+03  0.50400001928E-02 0. -1.
       -1    1    3    3    0  502 -0.28155454364E+03 -0.59576380075E+03  0.10515854682E+04  0.12409832651E+04  0.50400001928E-02 0.  1.
</event>
<event>
 5   0  0.7415102E-04  0.1622756E+04  0.7818609E-02  0.8806689E-01
       -2   -1    0    0    0  501  0.00000000000E+00  0.00000000000E+00  0.57750592351E+03  0.57750592352E+03  0.25500000920E-02 0. -1.
        2   -1    0    0  501    0  0.00000000000E+00  0.00000000000E+00 -0.11399612851E+04  0.11399612851E+04  0.25500000920E-02 0.  1.
    10030    2    1    2    0    0  0.00000000000E+00  0.00000000000E+00 -0.56245536159E+03  0.17174672086E+04  0.16227561674E+04 0.  0.
        5    1    3    3  502    0  0.24875786522E+03  0.39214324802E+03 -0.98538244007E+03  0.10893380768E+04  0.46999998093E+01 0.  1.
       -5    1    3    3    0  502 -0.24875786522E+03 -0.39214324802E+03  0.42292707848E+03  0.62812913178E+03  0.46999998093E+01 0. -1.
</event>
<event>
 5   0  0.7395088E-04  0.1604103E+04  0.7818609E-02  0.8818031E-01
       -2   -1    0    0    0  501  0.00000000000E+00  0.00000000000E+00  0.63917023216E+03  0.63917023216E+03  0.25500000920E-02 0. -1.
        2   -1    0    0  501    0  0.00000000000E+00  0.00000000000E+00 -0.10064403860E+04  0.10064403860E+04  0.25500000920E-02 0.  1.
    10030    2    1    2    0    0  0.00000000000E+00  0.00000000000E+00 -0.36727015383E+03  0.16456106182E+04  0.16041031577E+04 0.  0.
        1    1    3    3  502    0  0.60632532539E+03 -0.30451738252E+02  0.35407362006E+03  0.70279857500E+03  0.50400001928E-02 0. -1.
       -1    1    3    3    0  502 -0.60632532539E+03  0.30451738252E+02 -0.72134377389E+03  0.94281204316E+03  0.50400001928E-02 0.  1.
</event>
<event>
 5   0  0.4110803E-04  0.1478789E+04  0.7818609E-02  0.8898682E-01
       -1   -1    0    0    0  501  0.00000000000E+00  0.00000000000E+00  0.60616231566E+03  0.60616231568E+03  0.50400001928E-02 0.  1.
        1   -1    0    0  501    0  0.00000000000E+00  0.00000000000E+00 -0.90191066181E+03  0.90191066182E+03  0.50400001928E-02 0. -1.
    10030    2    1    2    0    0  0.00000000000E+00  0.00000000000E+00 -0.29574834615E+03  0.15080729775E+04  0.14787890388E+04 0.  0.
        5    1    3    3  502    0 -0.41607958623E+03  0.40171764456E+03 -0.61762905526E+03  0.84616016683E+03  0.46999998093E+01 0. -1.
       -5    1    3    3    0  502  0.41607958623E+03 -0.40171764456E+03  0.32188070912E+03  0.66191281067E+03  0.46999998093E+01 0.  1.
</event>
<event>
 5   0  0.3973227E-04  0.1582438E+04  0.7818609E-02  0.8831410E-01
        1   -1    0    0  501    0  0.00000000000E+00  0.00000000000E+00  0.15879596280E+04  0.15879596280E+04  0.50400001928E-02 0.  1.
       -1   -1    0    0    0  501  0.00000000000E+00  0.00000000000E+00 -0.39423377279E+03  0.39423377282E+03  0.50400001928E-02 0. -1.
    10030    2    1    2    0    0  0.00000000000E+00  0.00000000000E+00  0.11937258552E+04  0.19821934008E+04  0.15824377589E+04 0.  0.
        3    1    3    3  502    0 -0.72775656608E+03 -0.29588204246E+03  0.71471246634E+03  0.10620686053E+04  0.10100000352E+00 0.  1.
       -3    1    3    3    0  502  0.72775656608E+03  0.29588204246E+03  0.47901338886E+03  0.92012479557E+03  0.10100000352E+00 0. -1.
</event>
<event>
 5   0  0.7395088E-04  0.1593738E+04  0.7818609E-02  0.8824404E-01
        2   -1    0    0  501    0  0.00000000000E+00  0.00000000000E+00  0.18311105702E+04  0.18311105702E+04  0.25500000920E-02 0.  1.
       -2   -1    0    0    0  501  0.00000000000E+00  0.00000000000E+00 -0.34678436537E+03  0.34678436538E+03  0.25500000920E-02 0. -1.
    10030    2    1    2    0    0  0.00000000000E+00  0.00000000000E+00  0.14843262049E+04  0.21778949356E+04  0.15937383939E+04 0.  0.
        1    1    3    3  502    0 -0.45492060472E+03 -0.22946741813E+03 -0.95101373635E+02  0.51831681805E+03  0.50400001928E-02 0. -1.
       -1    1    3    3    0  502  0.45492060472E+03  0.22946741813E+03  0.15794275785E+04  0.16595781176E+04  0.50400001928E-02 0.  1.
</event>
<event>
 5   0  0.3889847E-04  0.1639201E+04  0.7818609E-02  0.8796821E-01
       -1   -1    0    0    0  501  0.00000000000E+00  0.00000000000E+00  0.50448824094E+03  0.50448824096E+03  0.50400001928E-02 0. -1.
        1   -1    0    0  501    0  0.00000000000E+00  0.00000000000E+00 -0.13315372305E+04  0.13315372305E+04  0.50400001928E-02 0.  1.
    10030    2    1    2    0    0  0.00000000000E+00  0.00000000000E+00 -0.82704898954E+03  0.18360254715E+04  0.16392008726E+04 0.  0.
        1    1    3    3  502    0  0.28843333754E+03  0.29014664557E+03  0.38193749184E+03  0.55969198121E+03  0.50400001928E-02 0. -1.
       -1    1    3    3    0  502 -0.28843333754E+03 -0.29014664557E+03 -0.12089864814E+04  0.12763334902E+04  0.50400001928E-02 0.  1.
</event>
<event>
 5   0  0.3950195E-04  0.1595801E+04  0.7818609E-02  0.8823132E-01
       -1   -1    0    0    0  501  0.00000000000E+00  0.00000000000E+00  0.93606256700E+03  0.93606256702E+03  0.50400001928E-02 0.  1.
        1   -1    0    0  501    0  0.00000000000E+00  0.00000000000E+00 -0.68013113454E+03  0.68013113456E+03  0.50400001928E-02 0. -1.
    10030    2    1    2    0    0  0.00000000000E+00  0.00000000000E+00  0.25593143247E+03  0.16161937016E+04  0.15958011101E+04 0.  0.
        2    1    3    3  502    0  0.15752256667E+03  0.69905216570E+03  0.48338907946E+03  0.86437971490E+03  0.25500000920E-02 0.  1.
       -2    1    3    3    0  502 -0.15752256667E+03 -0.69905216570E+03 -0.22745764699E+03  0.75181398668E+03  0.25500000920E-02 0. -1.
</event>
<event>
 5   0  0.3837251E-04  0.1631628E+04  0.7818609E-02  0.8801350E-01
       -1   -1    0    0    0  501  0.00000000000E+00  0.00000000000E+00  0.31542253666E+03  0.31542253670E+03  0.50400001928E-02 0.  1.
        1   -1    0    0  501    0  0.00000000000E+00  0.00000000000E+00 -0.21100337402E+04  0.21100337402E+04  0.50400001928E-02 0. -1.
    10030    2    1    2    0    0  0.00000000000E+00  0.00000000000E+00 -0.17946112036E+04  0.24254562769E+04  0.16316276473E+04 0.  0.
        4    1    3    3  502    0 -0.44431195808E+03  0.68324072950E+03 -0.95130499011E+03  0.12526826444E+04  0.12699999809E+01 0.  1.
       -4    1    3    3    0  502  0.44431195808E+03 -0.68324072950E+03 -0.84330621344E+03  0.11727736325E+04  0.12699999809E+01 0. -1.
</event>
<event>
 5   0  0.3837251E-04  0.1576637E+04  0.7818609E-02  0.8835030E-01
        1   -1    0    0  501    0  0.00000000000E+00  0.00000000000E+00  0.10324930638E+04  0.10324930638E+04  0.50400001928E-02 0. -1.
       -1   -1    0    0    0  501  0.00000000000E+00  0.00000000000E+00 -0.60188916636E+03  0.60188916638E+03  0.50400001928E-02 0.  1.
    10030    2    1    2    0    0  0.00000000000E+00  0.00000000000E+00  0.43060389744E+03  0.16343822302E+04  0.15766374212E+04 0.  0.
        4    1    3    3  502    0  0.13387691198E+03 -0.13473461675E+03  0.10084174048E+04  0.10261499500E+04  0.12699999809E+01 0. -1.
       -4    1    3    3    0  502 -0.13387691198E+03  0.13473461675E+03 -0.57781350739E+03  0.60823228025E+03  0.12699999809E+01 0.  1.
</event>
<event>
 5   0  0.3889847E-04  0.1660580E+04  0.7818609E-02  0.8784172E-01
        1   -1    0    0  501    0  0.00000000000E+00  0.00000000000E+00  0.19157442827E+04  0.19157442827E+04  0.50400001928E-02 0. -1.
       -1   -1    0    0    0  501  0.00000000000E+00  0.00000000000E+00 -0.35985028158E+03  0.35985028162E+03  0.50400001928E-02 0.  1.
    10030    2    1    2    0    0  0.00000000000E+00  0.00000000000E+00  0.15558940011E+04  0.22755945643E+04  0.16605795610E+04 0.  0.
        1    1    3    3  502    0  0.63586440019E+03  0.97902324424E+02  0.58705899214E+02  0.64603001725E+03  0.50400001928E-02 0.  1.
       -1    1    3    3    0  502 -0.63586440019E+03 -0.97902324424E+02  0.14971881019E+04  0.16295645471E+04  0.50400001928E-02 0. -1.
</event>
<event>
 5   0  0.3973227E-04  0.1574945E+04  0.7818609E-02  0.8836090E-01
        1   -1    0    0  501    0  0.00000000000E+00  0.00000000000E+00  0.10454395768E+04  0.10454395768E+04  0.50400001928E-02 0. -1.
       -1   -1    0    0    0  501  0.00000000000E+00  0.00000000000E+00 -0.59315999368E+03  0.59315999370E+03  0.50400001928E-02 0.  1.
    10030    2    1    2    0    0  0.00000000000E+00  0.00000000000E+00  0.45227958310E+03  0.16385995705E+04  0.15749449931E+04 0.  0.
        3    1    3    3  502    0  0.77365681951E+03  0.17511792925E+02  0.37784595511E+03  0.86117310295E+03  0.10100000352E+00 0.  1.
       -3    1    3    3    0  502 -0.77365681951E+03 -0.17511792925E+02  0.74433627991E+02  0.77742646754E+03  0.10100000352E+00 0. -1.
</event>
<event>
 5   0  0.3837251E-04  0.1610435E+04  0.7818609E-02  0.8814163E-01
       -1   -1    0    0    0  501  0.00000000000E+00  0.00000000000E+00  0.65433089185E+03  0.65433089187E+03  0.50400001928E-02 0.  1.
        1   -1    0    0  501    0  0.00000000000E+00  0.00000000000E+00 -0.99089775564E+03  0.99089775565E+03  0.50400001928E-02 0. -1.
    10030    2    1    2    0    0  0.00000000000E+00  0.00000000000E+00 -0.33656686379E+03  0.16452286475E+04  0.16104347391E+04 0.  0.
        4    1    3    3  502    0 -0.53779498011E+02 -0.23654244604E+03  0.61611308998E+03  0.66214916427E+03  0.12699999809E+01 0.  1.
       -4    1    3    3    0  502  0.53779498011E+02  0.23654244604E+03 -0.95267995377E+03  0.98307948326E+03  0.12699999809E+01 0. -1.
</event>
<event>
 5   0  0.7415102E-04  0.1590089E+04  0.7818609E-02  0.8826660E-01
        2   -1    0    0  501    0  0.00000000000E+00  0.00000000000E+00  0.80740785796E+03  0.80740785796E+03  0.25500000920E-02 0.  1.
       -2   -1    0    0    0  501  0.00000000000E+00  0.00000000000E+00 -0.78287003646E+03  0.78287003647E+03  0.25500000920E-02 0. -1.
    10030    2    1    2    0    0  0.00000000000E+00  0.00000000000E+00  0.24537821498E+02  0.15902778944E+04  0.15900885752E+04 0.  0.
        5    1    3    3  502    0  0.42625297065E+03 -0.54503907277E+03  0.40386902995E+03  0.80118129608E+03  0.46999998093E+01 0.  1.
       -5    1    3    3    0  502 -0.42625297065E+03  0.54503907277E+03 -0.37933120845E+03  0.78909659835E+03  0.46999998093E+01 0. -1.
</event>
<event>
 5   0  0.3950195E-04  0.1591078E+04  0.7818609E-02  0.8826048E-01
       -1   -1    0    0    0  501  0.00000000000E+00  0.00000000000E+00  0.32552539883E+03  0.32552539887E+03  0.50400001928E-02 0. -1.
        1   -1    0    0  501    0  0.00000000000E+00  0.00000000000E+00 -0.19441883409E+04  0.19441883409E+04  0.50400001928E-02 0.  1.
    10030    2    1    2    0    0  0.00000000000E+00  0.00000000000E+00 -0.16186629421E+04  0.22697137398E+04  0.15910784835E+04 0.  0.
        2    1    3    3  502    0  0.17625854883E+03  0.27999170455E+03  0.22272805335E+03  0.39883607712E+03  0.25500000920E-02 0. -1.
       -2    1    3    3    0  502 -0.17625854883E+03 -0.27999170455E+03 -0.18413909955E+04  0.18708776627E+04  0.25500000920E-02 0.  1.
</event>
<event>
 5   0  0.3973227E-04  0.1460075E+04  0.7818609E-02  0.8911446E-01
        1   -1    0    0  501    0  0.00000000000E+00  0.00000000000E+00  0.74172727185E+03  0.74172727187E+03  0.50400001928E-02 0. -1.
       -1   -1    0    0    0  501  0.00000000000E+00  0.00000000000E+00 -0.71853155830E+03  0.71853155832E+03  0.50400001928E-02 0.  1.
    10030    2    1    2    0    0  0.00000000000E+00  0.00000000000E+00  0.23195713549E+02  0.14602588302E+04  0.14600745906E+04 0.  0.
        3    1    3    3  502    0 -0.24049323529E+03 -0.30511698203E+03  0.62975438239E+03  0.73994862071E+03  0.10100000352E+00 0. -1.
       -3    1    3    3    0  502  0.24049323529E+03  0.30511698203E+03 -0.60655866884E+03  0.72031020949E+03  0.10100000352E+00 0.  1.
</event>
<event>
 5   0  0.3950195E-04  0.1657191E+04  0.7818609E-02  0.8786164E-01
        1   -1    0    0  501    0  0.00000000000E+00  0.00000000000E+00  0.68042771212E+03  0.68042771214E+03  0.50400001928E-02 0.  1.
       -1   -1    0    0    0  501  0.00000000000E+00  0.00000000000E+00 -0.10090275825E+04  0.10090275825E+04  0.50400001928E-02 0. -1.
    10030    2    1    2    0    0  0.00000000000E+00  0.00000000000E+00 -0.32859987040E+03  0.16894552947E+04  0.16571907910E+04 0.  0.
        2    1    3    3  502    0  0.37833727538E+03  0.50738461967E+03 -0.70949409957E+03  0.95076817550E+03  0.25500000920E-02 0. -1.
       -2    1    3    3    0  502 -0.37833727538E+03 -0.50738461967E+03  0.38089422916E+03  0.73868711917E+03  0.25500000920E-02 0.  1.
</event>
<event>
 5   0  0.7395088E-04  0.1439685E+04  0.7818609E-02  0.8925583E-01
       -2   -1    0    0    0  501  0.00000000000E+00  0.00000000000E+00  0.66548435140E+03  0.66548435140E+03  0.25500000920E-02 0.  1.
        2   -1    0    0  501    0  0.00000000000E+00  0.00000000000E+00 -0.77864095487E+03  0.77864095488E+03  0.25500000920E-02 0. -1.
    10030    2    1    2    0    0  0.00000000000E+00  0.00000000000E+00 -0.11315660348E+03  0.14441253063E+04  0.14396852029E+04 0.  0.
        1    1    3    3  502    0 -0.23902263247E+03  0.61392191126E+03 -0.34754434257E+03  0.74486173350E+03  0.50400001928E-02 0.  1.
       -1    1    3    3    0  502  0.23902263247E+03 -0.61392191126E+03  0.23438773909E+03  0.69926357278E+03  0.50400001928E-02 0. -1.
</event>
<event>
 5   0  0.3889847E-04  0.1572096E+04  0.7818609E-02  0.8837876E-01
       -1   -1    0    0    0  501  0.00000000000E+00  0.00000000000E+00  0.44612527516E+03  0.44612527518E+03  0.50400001928E-02 0.  1.
        1   -1    0    0  501    0  0.00000000000E+00  0.00000000000E+00 -0.13849727275E+04  0.13849727275E+04  0.50400001928E-02 0. -1.
    10030    2    1    2    0    0  0.00000000000E+00  0.00000000000E+00 -0.93884745232E+03  0.18310980027E+04  0.15720958484E+04 0.  0.
        1    1    3    3  502    0  0.43464816297E+03 -0.60086328248E+03 -0.16588267569E+03  0.75991629271E+03  0.50400001928E-02 0.  1.
       -1    1    3    3    0  502 -0.43464816297E+03  0.60086328248E+03 -0.77296477663E+03  0.10711817100E+04  0.50400001928E-02 0. -1.
</event>
<event>
 5   0  0.7770905E-04  0.1562422E+04  0.7818609E-02  0.8843972E-01
        2   -1    0    0  501    0  0.00000000000E+00  0.00000000000E+00  0.19652610475E+04  0.19652610475E+04  0.25500000920E-02 0. -1.
       -2   -1    0    0    0  501  0.00000000000E+00  0.00000000000E+00 -0.31053939793E+03  0.31053939794E+03  0.25500000920E-02 0.  1.
    10030    2    1    2    0    0  0.00000000000E+00  0.00000000000E+00  0.16547216495E+04  0.22758004454E+04  0.15624224556E+04 0.  0.
        2    1    3    3  502    0  0.53786611847E+03 -0.45247954514E+03  0.13239969624E+04  0.14990015533E+04  0.25500000920E-02 0. -1.
       -2    1    3    3    0  502 -0.53786611847E+03  0.45247954514E+03  0.33072468712E+03  0.77679889215E+03  0.25500000920E-02 0.  1.
</event>
<event>
 5   0  0.4110803E-04  0.1602527E+04  0.7818609E-02  0.8818997E-01
       -1   -1    0    0    0  501  0.00000000000E+00  0.00000000000E+00  0.89906369596E+03  0.89906369597E+03  0.50400001928E-02 0.  1.
        1   -1    0    0  501    0  0.00000000000E+00  0.00000000000E+00 -0.71410228803E+03  0.71410228805E+03  0.50400001928E-02 0. -1.
    10030    2    1    2    0    0  0.00000000000E+00  0.00000000000E+00  0.18496140793E+03  0.16131659840E+04  0.16025273070E+04 0.  0.
        5    1    3    3  502    0 -0.73761542534E+03 -0.22722975802E+03 -0.12410217426E+03  0.78175016359E+03  0.46999998093E+01 0. -1.
       -5    1    3    3    0  502  0.73761542534E+03  0.22722975802E+03  0.30906358218E+03  0.83141582043E+03  0.46999998093E+01 0.  1.
</event>
<event>
 5   0  0.3837251E-04  0.1627314E+04  0.7818609E-02  0.8803942E-01
        1   -1    0    0  501    0  0.00000000000E+00  0.00000000000E+00  0.59698724629E+03  0.59698724631E+03  0.50400001928E-02 0. -1.
       -1   -1    0    0    0  501  0.00000000000E+00  0.00000000000E+00 -0.11089643385E+04  0.11089643385E+04  0.50400001928E-02 0.  1.
    10030    2    1    2    0    0  0.00000000000E+00  0.00000000000E+00 -0.51197709221E+03  0.17059515848E+04  0.16273138194E+04 0.  0.
        4    1    3    3  502    0 -0.76904208521E+03 -0.26038450947E+03 -0.20041619568E+03  0.83629784526E+03  0.12699999809E+01 0. -1.
       -4    1    3    3    0  502  0.76904208521E+03  0.26038450947E+03 -0.31156089653E+03  0.86965373956E+03  0.12699999809E+01 0.  1.
</event>
<event>
 5   0  0.3973227E-04  0.1611693E+04  0.7818609E-02  0.8813397E-01
        1   -1    0    0  501    0  0.00000000000E+00  0.00000000000E+00  0.11143325287E+04  0.11143325287E+04  0.50400001928E-02 0.  1.
       -1   -1    0    0    0  501  0.00000000000E+00  0.00000000000E+00 -0.58275994745E+03  0.58275994747E+03  0.50400001928E-02 0. -1.
    10030    2    1    2    0    0  0.00000000000E+00  0.00000000000E+00  0.53157258125E+03  0.16970924762E+04  0.16116927324E+04 0.  0.
        3    1    3    3  502    0  0.74024773100E+02  0.79800716224E+03  0.17710211590E+03  0.82076809616E+03  0.10100000352E+00 0.  1.
       -3    1    3    3    0  502 -0.74024773100E+02 -0.79800716224E+03  0.35447046536E+03  0.87632438003E+03  0.10100000352E+00 0. -1.
</event>
<event>
 5   0  0.7488884E-04  0.1575748E+04  0.7818609E-02  0.8835587E-01
        2   -1    0    0  501    0  0.00000000000E+00  0.00000000000E+00  0.74566318355E+03  0.74566318356E+03  0.25500000920E-02 0. -1.
       -2   -1    0    0    0  501  0.00000000000E+00  0.00000000000E+00 -0.83247431447E+03  0.83247431447E+03  0.25500000920E-02 0.  1.
    10030    2    1    2    0    0  0.00000000000E+00  0.00000000000E+00 -0.86811130914E+02  0.15781374980E+04  0.15757480098E+04 0.  0.
        3    1    3    3  502    0 -0.23356219859E+03  0.66603350790E+03 -0.39407006369E+03  0.80835831136E+03  0.10100000352E+00 0.  1.
       -3    1    3    3    0  502  0.23356219859E+03 -0.66603350790E+03  0.30725893277E+03  0.76977918667E+03  0.10100000352E+00 0. -1.
</event>
<event>
 5   0  0.7553070E-04  0.1570027E+04  0.7818609E-02  0.8839176E-01
       -2   -1    0    0    0  501  0.00000000000E+00  0.00000000000E+00  0.10552315952E+04  0.10552315952E+04  0.25500000920E-02 0.  1.
        2   -1    0    0  501    0  0.00000000000E+00  0.00000000000E+00 -0.58399156827E+03  0.58399156828E+03  0.25500000920E-02 0. -1.
    10030    2    1    2    0    0  0.00000000000E+00  0.00000000000E+00  0.47124002692E+03  0.16392231635E+04  0.15700272025E+04 0.  0.
        4    1    3    3  502    0 -0.16890174304E+03  0.62486964140E+03 -0.22808818721E+03  0.68630583677E+03  0.12699999809E+01 0. -1.
       -4    1    3    3    0  502  0.16890174304E+03 -0.62486964140E+03  0.69932821413E+03  0.95291732670E+03  0.12699999809E+01 0.  1.
</event>
<event>
 5   0  0.3889847E-04  0.1653322E+04  0.7818609E-02  0.8788444E-01
        1   -1    0    0  501    0  0.00000000000E+00  0.00000000000E+00  0.12051150497E+04  0.12051150497E+04  0.50400001928E-02 0.  1.
       -1   -1    0    0    0  501  0.00000000000E+00  0.00000000000E+00 -0.56705656901E+03  0.56705656903E+03  0.50400001928E-02 0. -1.
    10030    2    1    2    0    0  0.00000000000E+00  0.00000000000E+00  0.63805848072E+03  0.17721716188E+04  0.16533219957E+04 0.  0.
        1    1    3    3  502    0 -0.77803764410E+02 -0.46090949651E+03  0.10498612446E+04  0.11492169606E+04  0.50400001928E-02 0.  1.
       -1    1    3    3    0  502  0.77803764410E+02  0.46090949651E+03 -0.41180276386E+03  0.62295465812E+03  0.50400001928E-02 0. -1.
</event>
<event>
 5   0  0.4110803E-04  0.1585959E+04  0.7818609E-02  0.8829221E-01
        1   -1    0    0  501    0  0.00000000000E+00  0.00000000000E+00  0.11026287210E+04  0.11026287210E+04  0.50400001928E-02 0. -1.
       -1   -1    0    0    0  501  0.00000000000E+00  0.00000000000E+00 -0.57028830848E+03  0.57028830850E+03  0.50400001928E-02 0.  1.
    10030    2    1    2    0    0  0.00000000000E+00  0.00000000000E+00  0.53234041247E+03  0.16729170295E+04  0.15859587235E+04 0.  0.
        5    1    3    3  502    0 -0.16459861478E+03  0.11849861542E+03  0.10747919624E+04  0.10937707613E+04  0.46999998093E+01 0. -1.
       -5    1    3    3    0  502  0.16459861478E+03 -0.11849861542E+03 -0.54245154996E+03  0.57914626814E+03  0.46999998093E+01 0.  1.
</event>
<event>
 5   0  0.7488884E-04  0.1600175E+04  0.7818609E-02  0.8820440E-01
        2   -1    0    0  501    0  0.00000000000E+00  0.00000000000E+00  0.17414211325E+04  0.17414211325E+04  0.25500000920E-02 0. -1.
       -2   -1    0    0    0  501  0.00000000000E+00  0.00000000000E+00 -0.36759653903E+03  0.36759653904E+03  0.25500000920E-02 0.  1.
    10030    2    1    2    0    0  0.00000000000E+00  0.00000000000E+00  0.13738245934E+04  0.21090176715E+04  0.16001754670E+04 0.  0.
        3    1    3    3  502    0 -0.15991750848E+01 -0.54596280612E+03 -0.83929576366E+02  0.55237860840E+03  0.10100000352E+00 0.  1.
       -3    1    3    3    0  502  0.15991750848E+01  0.54596280612E+03  0.14577541698E+04  0.15566390631E+04  0.10100000352E+00 0. -1.
</event>
<event>
 5   0  0.3837251E-04  0.1623766E+04  0.7818609E-02  0.8806079E-01
       -1   -1    0    0    0  501  0.00000000000E+00  0.00000000000E+00  0.27877125247E+03  0.27877125252E+03  0.50400001928E-02 0. -1.
        1   -1    0    0  501    0  0.00000000000E+00  0.00000000000E+00 -0.23644967774E+04  0.23644967774E+04  0.50400001928E-02 0.  1.
    10030    2    1    2    0    0  0.00000000000E+00  0.00000000000E+00 -0.20857255249E+04  0.26432680299E+04  0.16237656582E+04 0.  0.
        4    1    3    3  502    0 -0.26093010763E+03 -0.67568820044E+03 -0.16398981332E+04  0.17927371713E+04  0.12699999809E+01 0.  1.
       -4    1    3    3    0  502  0.26093010763E+03  0.67568820044E+03 -0.44582739167E+03  0.85053085855E+03  0.12699999809E+01 0. -1.
</event>
<event>
 5   0  0.7488884E-04  0.1580673E+04  0.7818609E-02  0.8832510E-01
        2   -1    0    0  501    0  0.00000000000E+00  0.00000000000E+00  0.49876070843E+03  0.49876070844E+03  0.25500000920E-02 0.  1.
       -2   -1    0    0    0  501  0.00000000000E+00  0.00000000000E+00 -0.12523679533E+04  0.12523679533E+04  0.25500000920E-02 0. -1.
    10030    2    1    2    0    0  0.00000000000E+00  0.00000000000E+00 -0.75360724487E+03  0.17511286617E+04  0.15806731827E+04 0.  0.
        3    1    3    3  502    0 -0.21575633303E+03  0.17559112228E+03  0.44273308746E+03  0.52287248389E+03  0.10100000352E+00 0.  1.
       -3    1    3    3    0  502  0.21575633303E+03 -0.17559112228E+03 -0.11963403323E+04  0.12282561779E+04  0.10100000352E+00 0. -1.
</event>
<event>
 5   0  0.4110803E-04  0.1599765E+04  0.7818609E-02  0.8820692E-01
        1   -1    0    0  501    0  0.00000000000E+00  0.00000000000E+00  0.97462929567E+03  0.97462929569E+03  0.50400001928E-02 0.  1.
       -1   -1    0    0    0  501  0.00000000000E+00  0.00000000000E+00 -0.65646744004E+03  0.65646744006E+03  0.50400001928E-02 0. -1.
    10030    2    1    2    0    0  0.00000000000E+00  0.00000000000E+00  0.31816185563E+03  0.16310967357E+04  0.15997654812E+04 0.  0.
        5    1    3    3  502    0 -0.23740486538E+03 -0.52803871435E+03 -0.40363790601E+03  0.70578438856E+03  0.46999998093E+01 0. -1.
       -5    1    3    3    0  502  0.23740486538E+03  0.52803871435E+03  0.72179976164E+03  0.92531234719E+03  0.46999998093E+01 0.  1.
</event>
<event>
 5   0  0.3950195E-04  0.1692767E+04  0.7818609E-02  0.8765500E-01
       -1   -1    0    0    0  501  0.00000000000E+00  0.00000000000E+00  0.95841766305E+03  0.95841766307E+03  0.50400001928E-02 0.  1.
        1   -1    0    0  501    0  0.00000000000E+00  0.00000000000E+00 -0.74744583360E+03  0.74744583362E+03  0.50400001928E-02 0. -1.
    10030    2    1    2    0    0  0.00000000000E+00  0.00000000000E+00  0.21097182946E+03  0.17058634967E+04  0.16927673072E+04 0.  0.
        2    1    3    3  502    0 -0.37551319651E+03 -0.65716866267E+03  0.48720992075E+03  0.90014127715E+03  0.25500000920E-02 0.  1.
       -2    1    3    3    0  502  0.37551319651E+03  0.65716866267E+03 -0.27623809129E+03  0.80572221953E+03  0.25500000920E-02 0. -1.
</event>
<event>
 5   0  0.7415102E-04  0.1595820E+04  0.7818609E-02  0.8823120E-01
        2   -1    0    0  501    0  0.00000000000E+00  0.00000000000E+00  0.79650726596E+03  0.79650726596E+03  0.25500000920E-02 0. -1.
       -2   -1    0    0    0  501  0.00000000000E+00  0.00000000000E+00 -0.79931548739E+03  0.79931548739E+03  0.25500000920E-02 0.  1.
    10030    2    1    2    0    0  0.00000000000E+00  0.00000000000E+00 -0.28082214299E+01  0.15958227534E+04  0.15958202825E+04 0.  0.
        5    1    3    3  502    0  0.60682017552E+03  0.18610521594E+03 -0.48490524888E+03  0.79876220943E+03  0.46999998093E+01 0.  1.
       -5    1    3    3    0  502 -0.60682017552E+03 -0.18610521594E+03  0.48209702745E+03  0.79706054393E+03  0.46999998093E+01 0. -1.
</event>
<event>
 5   0  0.3889847E-04  0.1609472E+04  0.7818609E-02  0.8814750E-01
        1   -1    0    0  501    0  0.00000000000E+00  0.00000000000E+00  0.12847579695E+04  0.12847579695E+04  0.50400001928E-02 0.  1.
       -1   -1    0    0    0  501  0.00000000000E+00  0.00000000000E+00 -0.50406383804E+03  0.50406383806E+03  0.50400001928E-02 0. -1.
    10030    2    1    2    0    0  0.00000000000E+00  0.00000000000E+00  0.78069413143E+03  0.17888218075E+04  0.16094720042E+04 0.  0.
        1    1    3    3  502    0 -0.33014323398E+03  0.72045300968E+03  0.23493323115E+03  0.82658376298E+03  0.50400001928E-02 0.  1.
       -1    1    3    3    0  502  0.33014323398E+03 -0.72045300968E+03  0.54576090028E+03  0.96223804456E+03  0.50400001928E-02 0. -1.
</event>
<event>
 5   0  0.3889847E-04  0.1603613E+04  0.7818609E-02  0.8818332E-01
        1   -1    0    0  501    0  0.00000000000E+00  0.00000000000E+00  0.57627179068E+03  0.57627179071E+03  0.50400001928E-02 0. -1.
       -1   -1    0    0    0  501  0.00000000000E+00  0.00000000000E+00 -0.11156081663E+04  0.11156081663E+04  0.50400001928E-02 0.  1.
    10030    2    1    2    0    0  0.00000000000E+00  0.00000000000E+00 -0.53933637561E+03  0.16918799570E+04  0.16036128158E+04 0.  0.
        1    1    3    3  502    0 -0.38970490480E+03 -0.24196285123E+03  0.42415981992E+03  0.62476194431E+03  0.50400001928E-02 0. -1.
       -1    1    3    3    0  502  0.38970490480E+03  0.24196285123E+03 -0.96349619552E+03  0.10671180127E+04  0.50400001928E-02 0.  1.
</event>
<event>
 5   0  0.7488884E-04  0.1574021E+04  0.7818609E-02  0.8836669E-01
       -2   -1    0    0    0  501  0.00000000000E+00  0.00000000000E+00  0.12145229511E+04  0.12145229511E+04  0.25500000920E-02 0.  1.
        2   -1    0    0  501    0  0.00000000000E+00  0.00000000000E+00 -0.50998226712E+03  0.50998226713E+03  0.25500000920E-02 0. -1.
    10030    2    1    2    0    0  0.00000000000E+00  0.00000000000E+00  0.70454068402E+03  0.17245052183E+04  0.15740205438E+04 0.  0.
        3    1    3    3  502    0 -0.17695023237E+03  0.83838759522E+02 -0.48286899258E+03  0.52105930232E+03  0.10100000352E+00 0. -1.
       -3    1    3    3    0  502  0.17695023237E+03 -0.83838759522E+02  0.11874096766E+04  0.12034459160E+04  0.10100000352E+00 0.  1.
</event>
<event>
 5   0  0.3837251E-04  0.1608763E+04  0.7818609E-02  0.8815182E-01
        1   -1    0    0  501    0  0.00000000000E+00  0.00000000000E+00  0.69905585360E+03  0.69905585362E+03  0.50400001928E-02 0. -1.
       -1   -1    0    0    0  501  0.00000000000E+00  0.00000000000E+00 -0.92557661793E+03  0.92557661794E+03  0.50400001928E-02 0.  1.
    10030    2    1    2    0    0  0.00000000000E+00  0.00000000000E+00 -0.22652076432E+03  0.16246324716E+04  0.16087631930E+04 0.  0.
        4    1    3    3  502    0  0.11466901172E+03  0.76121279468E+03  0.12235252880E+03  0.77946498012E+03  0.12699999809E+01 0. -1.
       -4    1    3    3    0  502 -0.11466901172E+03 -0.76121279468E+03 -0.34887329312E+03  0.84516749144E+03  0.12699999809E+01 0.  1.
</event>
<event>
 5   0  0.3889847E-04  0.1587543E+04  0.7818609E-02  0.8828238E-01
       -1   -1    0    0    0  501  0.00000000000E+00  0.00000000000E+00  0.27777162100E+03  0.27777162104E+03  0.50400001928E-02 0.  1.
        1   -1    0    0  501    0  0.00000000000E+00  0.00000000000E+00 -0.22683137003E+04  0.22683137003E+04  0.50400001928E-02 0. -1.
    10030    2    1    2    0    0  0.00000000000E+00  0.00000000000E+00 -0.19905420793E+04  0.25460853214E+04  0.15875429739E+04 0.  0.
        1    1    3    3  502    0  0.19717484539E+02  0.44032975726E+03  0.63466069623E+02  0.44531675956E+03  0.50400001928E-02 0.  1.
       -1    1    3    3    0  502 -0.19717484539E+02 -0.44032975726E+03 -0.20540081489E+04  0.21007685618E+04  0.50400001928E-02 0. -1.
</event>
<event>
 5   0  0.7415102E-04  0.1601815E+04  0.7818609E-02  0.8819434E-01
       -2   -1    0    0    0  501  0.00000000000E+00  0.00000000000E+00  0.40691007737E+03  0.40691007738E+03  0.25500000920E-02 0. -1.
        2   -1    0    0  501    0  0.00000000000E+00  0.00000000000E+00 -0.15763994209E+04  0.15763994209E+04  0.25500000920E-02 0.  1.
    10030    2    1    2    0    0  0.00000000000E+00  0.00000000000E+00 -0.11694893435E+04  0.19833094983E+04  0.16018149835E+04 0.  0.
        5    1    3    3  502    0 -0.46204704114E+02  0.15151097198E+03 -0.15567942418E+04  0.15648389216E+04  0.46999998093E+01 0.  1.
       -5    1    3    3    0  502  0.46204704114E+02 -0.15151097198E+03  0.38730489827E+03  0.41847057666E+03  0.46999998093E+01 0. -1.
</event>
<event>
 5   0  0.4110803E-04  0.1611664E+04  0.7818609E-02  0.8813414E-01
       -1   -1    0    0    0  501  0.00000000000E+00  0.00000000000E+00  0.63253948696E+03  0.63253948698E+03  0.50400001928E-02 0.  1.
        1   -1    0    0  501    0  0.00000000000E+00  0.00000000000E+00 -0.10265997543E+04  0.10265997543E+04  0.50400001928E-02 0. -1.
    10030    2    1    2    0    0  0.00000000000E+00  0.00000000000E+00 -0.39406026737E+03  0.16591392413E+04  0.16116635901E+04 0.  0.
        5    1    3    3  502    0 -0.70189690396E+03 -0.25997574356E+03  0.11025240862E+03  0.75658729479E+03  0.46999998093E+01 0.  1.
       -5    1    3    3    0  502  0.70189690396E+03  0.25997574356E+03 -0.50431267599E+03  0.90255194654E+03  0.46999998093E+01 0. -1.
</event>
<event>
 5   0  0.7488884E-04  0.1686873E+04  0.7818609E-02  0.8768887E-01
        2   -1    0    0  501    0  0.00000000000E+00  0.00000000000E+00  0.17178166014E+04  0.17178166014E+04  0.25500000920E-02 0.  1.
       -2   -1    0    0    0  501  0.00000000000E+00  0.00000000000E+00 -0.41412150231E+03  0.41412150232E+03  0.25500000920E-02 0. -1.
    10030    2    1    2    0    0  0.00000000000E+00  0.00000000000E+00  0.13036950991E+04  0.21319381037E+04  0.16868725994E+04 0.  0.
        3    1    3    3  502    0 -0.57286351838E+03  0.46497872096E+03  0.13536031382E+03  0.75013348572E+03  0.10100000352E+00 0. -1.
       -3    1    3    3    0  502  0.57286351838E+03 -0.46497872096E+03  0.11683347852E+04  0.13818046180E+04  0.10100000352E+00 0.  1.
</event>
<event>
 5   0  0.3950195E-04  0.1569573E+04  0.7818609E-02  0.8839462E-01
        1   -1    0    0  501    0  0.00000000000E+00  0.00000000000E+00  0.13700049853E+04  0.13700049853E+04  0.50400001928E-02 0.  1.
       -1   -1    0    0    0  501  0.00000000000E+00  0.00000000000E+00 -0.44955298627E+03  0.44955298630E+03  0.50400001928E-02 0. -1.
    10030    2    1    2    0    0  0.00000000000E+00  0.00000000000E+00  0.92045199900E+03  0.18195579716E+04  0.15695729768E+04 0.  0.
        2    1    3    3  502    0 -0.30315968278E+03  0.14831665852E+03 -0.36112781140E+03  0.49428425084E+03  0.25500000920E-02 0. -1.
       -2    1    3    3    0  502  0.30315968278E+03 -0.14831665852E+03  0.12815798104E+04  0.13252737207E+04  0.25500000920E-02 0.  1.
</event>
<event>
 5   0  0.3837251E-04  0.1629064E+04  0.7818609E-02  0.8802889E-01
       -1   -1    0    0    0  501  0.00000000000E+00  0.00000000000E+00  0.48928037305E+03  0.48928037308E+03  0.50400001928E-02 0. -1.
        1   -1    0    0  501    0  0.00000000000E+00  0.00000000000E+00 -0.13559969624E+04  0.13559969624E+04  0.50400001928E-02 0.  1.
    10030    2    1    2    0    0  0.00000000000E+00  0.00000000000E+00 -0.86671658932E+03  0.18452773355E+04  0.16290643936E+04 0.  0.
        4    1    3    3  502    0 -0.60517111091E+03 -0.94984214160E+02  0.17474263565E+03  0.63701701393E+03  0.12699999809E+01 0. -1.
       -4    1    3    3    0  502  0.60517111091E+03  0.94984214160E+02 -0.10414592250E+04  0.12082603215E+04  0.12699999809E+01 0.  1.
</event>
<event>
 5   0  0.3889847E-04  0.1596186E+04  0.7818609E-02  0.8822894E-01
       -1   -1    0    0    0  501  0.00000000000E+00  0.00000000000E+00  0.84808927064E+03  0.84808927065E+03  0.50400001928E-02 0. -1.
        1   -1    0    0  501    0  0.00000000000E+00  0.00000000000E+00 -0.75104426515E+03  0.75104426517E+03  0.50400001928E-02 0.  1.
    10030    2    1    2    0    0  0.00000000000E+00  0.00000000000E+00  0.97045005489E+02  0.15991335358E+04  0.15961861835E+04 0.  0.
        1    1    3    3  502    0 -0.68136275629E+03  0.11438334766E+03  0.44877720185E+03  0.82385662151E+03  0.50400001928E-02 0. -1.
       -1    1    3    3    0  502  0.68136275629E+03 -0.11438334766E+03 -0.35173219636E+03  0.77527691431E+03  0.50400001928E-02 0.  1.
</event>
<event>
 5   0  0.3837251E-04  0.1595756E+04  0.7818609E-02  0.8823159E-01
        1   -1    0    0  501    0  0.00000000000E+00  0.00000000000E+00  0.11127119015E+04  0.11127119015E+04  0.50400001928E-02 0.  1.
       -1   -1    0    0    0  501  0.00000000000E+00  0.00000000000E+00 -0.57212421928E+03  0.57212421930E+03  0.50400001928E-02 0. -1.
    10030    2    1    2    0    0  0.00000000000E+00  0.00000000000E+00  0.54058768224E+03  0.16848361208E+04  0.15957561568E+04 0.  0.
        4    1    3    3  502    0  0.53353659670E+03  0.27973778086E+03  0.82265509941E+03  0.10196457971E+04  0.12699999809E+01 0.  1.
       -4    1    3    3    0  502 -0.53353659670E+03 -0.27973778086E+03 -0.28206741717E+03  0.66519032373E+03  0.12699999809E+01 0. -1.
</event>
<event>
 5   0  0.7770905E-04  0.1580553E+04  0.7818609E-02  0.8832585E-01
       -2   -1    0    0    0  501  0.00000000000E+00  0.00000000000E+00  0.94351188194E+03  0.94351188194E+03  0.25500000920E-02 0. -1.
        2   -1    0    0  501    0  0.00000000000E+00  0.00000000000E+00 -0.66192822705E+03  0.66192822705E+03  0.25500000920E-02 0.  1.
    10030    2    1    2    0    0  0.00000000000E+00  0.00000000000E+00  0.28158365489E+03  0.16054401090E+04  0.15805532540E+04 0.  0.
        2    1    3    3  502    0  0.57627840903E+03  0.23586053694E+03  0.63508559173E+03  0.88941593556E+03  0.25500000920E-02 0. -1.
       -2    1    3    3    0  502 -0.57627840903E+03 -0.23586053694E+03 -0.35350193683E+03  0.71602417344E+03  0.25500000920E-02 0.  1.
</event>
<event>
 5   0  0.7395088E-04  0.1152066E+04  0.7818609E-02  0.9155879E-01
        2   -1    0    0  501    0  0.00000000000E+00  0.00000000000E+00  0.13051040597E+04  0.13051040597E+04  0.25500000920E-02 0.  1.
       -2   -1    0    0    0  501  0.00000000000E+00  0.00000000000E+00 -0.25424355689E+03  0.25424355690E+03  0.25500000920E-02 0. -1.
    10030    2    1    2    0    0  0.00000000000E+00  0.00000000000E+00  0.10508605028E+04  0.15593476166E+04  0.11520664881E+04 0.  0.
        1    1    3    3  502    0 -0.22441129986E+03  0.94285337575E+02  0.12320727565E+04  0.12558875083E+04  0.50400001928E-02 0.  1.
       -1    1    3    3    0  502  0.22441129986E+03 -0.94285337575E+02 -0.18121225367E+03  0.30346010823E+03  0.50400001928E-02 0. -1.
</event>
<event>
 5   0  0.7488884E-04  0.1602110E+04  0.7818609E-02  0.8819253E-01
        2   -1    0    0  501    0  0.00000000000E+00  0.00000000000E+00  0.10374005803E+04  0.10374005803E+04  0.25500000920E-02 0. -1.
       -2   -1    0    0    0  501  0.00000000000E+00  0.00000000000E+00 -0.61855471122E+03  0.61855471122E+03  0.25500000920E-02 0.  1.
    10030    2    1    2    0    0  0.00000000000E+00  0.00000000000E+00  0.41884586906E+03  0.16559552915E+04  0.16021098793E+04 0.  0.
        3    1    3    3  502    0 -0.11826594562E+03  0.33054253281E+03  0.95365290280E+03  0.10162180224E+04  0.10100000352E+00 0. -1.
       -3    1    3    3    0  502  0.11826594562E+03 -0.33054253281E+03 -0.53480703375E+03  0.63973726907E+03  0.10100000352E+00 0.  1.
</event>
<event>
 5   0  0.7395088E-04  0.1578316E+04  0.7818609E-02  0.8833981E-01
       -2   -1    0    0    0  501  0.00000000000E+00  0.00000000000E+00  0.29230871287E+03  0.29230871288E+03  0.25500000920E-02 0.  1.
        2   -1    0    0  501    0  0.00000000000E+00  0.00000000000E+00 -0.21305237399E+04  0.21305237399E+04  0.25500000920E-02 0. -1.
    10030    2    1    2    0    0  0.00000000000E+00  0.00000000000E+00 -0.18382150270E+04  0.24228324527E+04  0.15783163842E+04 0.  0.
        1    1    3    3  502    0 -0.12395507943E+03  0.66996158853E+03 -0.30785257085E+03  0.74765406253E+03  0.50400001928E-02 0.  1.
       -1    1    3    3    0  502  0.12395507943E+03 -0.66996158853E+03 -0.15303624561E+04  0.16751783902E+04  0.50400001928E-02 0. -1.
</event>
<event>
 5   0  0.7553070E-04  0.1565029E+04  0.7818609E-02  0.8842325E-01
        2   -1    0    0  501    0  0.00000000000E+00  0.00000000000E+00  0.43423541368E+03  0.43423541369E+03  0.25500000920E-02 0.  1.
       -2   -1    0    0    0  501  0.00000000000E+00  0.00000000000E+00 -0.14101315151E+04  0.14101315151E+04  0.25500000920E-02 0. -1.
    10030    2    1    2    0    0  0.00000000000E+00  0.00000000000E+00 -0.97589610139E+03  0.18443669288E+04  0.15650291266E+04 0.  0.
        4    1    3    3  502    0 -0.51816797479E+03 -0.15506778198E+02  0.20283945845E+03  0.55667222768E+03  0.12699999809E+01 0.  1.
       -4    1    3    3    0  502  0.51816797479E+03  0.15506778198E+02 -0.11787355598E+04  0.12876947011E+04  0.12699999809E+01 0. -1.
</event>
<event>
 5   0  0.3973227E-04  0.1604726E+04  0.7818609E-02  0.8817650E-01
        1   -1    0    0  501    0  0.00000000000E+00  0.00000000000E+00  0.10621471428E+04  0.10621471429E+04  0.50400001928E-02 0.  1.
       -1   -1    0    0    0  501  0.00000000000E+00  0.00000000000E+00 -0.60611759394E+03  0.60611759397E+03  0.50400001928E-02 0. -1.
    10030    2    1    2    0    0  0.00000000000E+00  0.00000000000E+00  0.45602954891E+03  0.16682647368E+04  0.16047256098E+04 0.  0.
        3    1    3    3  502    0  0.64638731092E+02  0.32436311312E+03  0.98798394546E+03  0.10418742157E+04  0.10100000352E+00 0.  1.
       -3    1    3    3    0  502 -0.64638731092E+02 -0.32436311312E+03 -0.53195439655E+03  0.62639052110E+03  0.10100000352E+00 0. -1.
</event>
<event>
 5   0  0.3889847E-04  0.1596386E+04  0.7818609E-02  0.8822771E-01
        1   -1    0    0  501    0  0.00000000000E+00  0.00000000000E+00  0.84665926230E+03  0.84665926232E+03  0.50400001928E-02 0. -1.
       -1   -1    0    0    0  501  0.00000000000E+00  0.00000000000E+00 -0.75250146108E+03  0.75250146110E+03  0.50400001928E-02 0.  1.
    10030    2    1    2    0    0  0.00000000000E+00  0.00000000000E+00  0.94157801222E+02  0.15991607234E+04  0.15963863341E+04 0.  0.
        1    1    3    3  502    0  0.70105226866E+03 -0.13267879412E+03  0.40551968997E+03  0.82068518007E+03  0.50400001928E-02 0. -1.
       -1    1    3    3    0  502 -0.70105226866E+03  0.13267879412E+03 -0.31136188875E+03  0.77847554335E+03  0.50400001928E-02 0.  1.
</event>
<event>
 5   0  0.2781000E-04  0.1620173E+04  0.7818609E-02  0.8808250E-01
       -3   -1    0    0    0  501  0.00000000000E+00  0.00000000000E+00  0.15623879161E+04  0.15623879194E+04  0.10100000352E+00 0.  1.
        3   -1    0    0  501    0  0.00000000000E+00  0.00000000000E+00 -0.42002394662E+03  0.42002395876E+03  0.10100000352E+00 0. -1.
    10030    2    1    2    0    0  0.00000000000E+00  0.00000000000E+00  0.11423639695E+04  0.19824118782E+04  0.16201732672E+04 0.  0.
        2    1    3    3  502    0  0.76662505974E+03  0.16757983242E+03  0.81725053218E+03  0.11330028309E+04  0.25500000920E-02 0. -1.
       -2    1    3    3    0  502 -0.76662505974E+03 -0.16757983242E+03  0.32511343734E+03  0.84940904728E+03  0.25500000920E-02 0.  1.
</event>
<event>
 5   0  0.3889847E-04  0.1611356E+04  0.7818609E-02  0.8813602E-01
        1   -1    0    0  501    0  0.00000000000E+00  0.00000000000E+00  0.11043784538E+04  0.11043784538E+04  0.50400001928E-02 0.  1.
       -1   -1    0    0    0  501  0.00000000000E+00  0.00000000000E+00 -0.58776695212E+03  0.58776695214E+03  0.50400001928E-02 0. -1.
    10030    2    1    2    0    0  0.00000000000E+00  0.00000000000E+00  0.51661150171E+03  0.16921454060E+04  0.16113561466E+04 0.  0.
        1    1    3    3  502    0  0.35589021827E+03  0.62052063737E+03 -0.13097305487E+03  0.72722599650E+03  0.50400001928E-02 0. -1.
       -1    1    3    3    0  502 -0.35589021827E+03 -0.62052063737E+03  0.64758455658E+03  0.96491940949E+03  0.50400001928E-02 0.  1.
</event>
<event>
 5   0  0.3837251E-04  0.1583931E+04  0.7818609E-02  0.8830481E-01
       -1   -1    0    0    0  501  0.00000000000E+00  0.00000000000E+00  0.90871703837E+03  0.90871703839E+03  0.50400001928E-02 0. -1.
        1   -1    0    0  501    0  0.00000000000E+00  0.00000000000E+00 -0.69021392981E+03  0.69021392983E+03  0.50400001928E-02 0.  1.
    10030    2    1    2    0    0  0.00000000000E+00  0.00000000000E+00  0.21850310856E+03  0.15989309682E+04  0.15839307537E+04 0.  0.
        4    1    3    3  502    0 -0.61302735671E+03 -0.49924020704E+03  0.15621330874E+03  0.80588307782E+03  0.12699999809E+01 0. -1.
       -4    1    3    3    0  502  0.61302735671E+03  0.49924020704E+03  0.62289799823E+02  0.79304789039E+03  0.12699999809E+01 0.  1.
</event>
<event>
 5   0  0.3973227E-04  0.1598614E+04  0.7818609E-02  0.8821400E-01
       -1   -1    0    0    0  501  0.00000000000E+00  0.00000000000E+00  0.96386773248E+03  0.96386773249E+03  0.50400001928E-02 0. -1.
        1   -1    0    0  501    0  0.00000000000E+00  0.00000000000E+00 -0.66284155690E+03  0.66284155691E+03  0.50400001928E-02 0.  1.
    10030    2    1    2    0    0  0.00000000000E+00  0.00000000000E+00  0.30102617558E+03  0.16267092894E+04  0.15986138852E+04 0.  0.
        3    1    3    3  502    0 -0.28428229867E+02  0.79778962838E+03  0.10961818815E+03  0.80578695248E+03  0.10100000352E+00 0. -1.
       -3    1    3    3    0  502  0.28428229867E+02 -0.79778962838E+03  0.19140798743E+03  0.82092233693E+03  0.10100000352E+00 0.  1.
</event>
<event>
 5   0  0.7553070E-04  0.1582533E+04  0.7818609E-02  0.8831351E-01
        2   -1    0    0  501    0  0.00000000000E+00  0.00000000000E+00  0.21886937465E+04  0.21886937465E+04  0.25500000920E-02 0.  1.
       -2   -1    0    0    0  501  0.00000000000E+00  0.00000000000E+00 -0.28606232476E+03  0.28606232477E+03  0.25500000920E-02 0. -1.
    10030    2    1    2    0    0  0.00000000000E+00  0.00000000000E+00  0.19026314218E+04  0.24747560713E+04  0.15825331862E+04 0.  0.
        4    1    3    3  502    0 -0.61837851998E+03 -0.48945225893E+02  0.17195089012E+04  0.18279770522E+04  0.12699999809E+01 0.  1.
       -4    1    3    3    0  502  0.61837851998E+03  0.48945225893E+02  0.18312252054E+03  0.64677901909E+03  0.12699999809E+01 0. -1.
</event>
<event>
 5   0  0.3950195E-04  0.1586023E+04  0.7818609E-02  0.8829181E-01
        1   -1    0    0  501    0  0.00000000000E+00  0.00000000000E+00  0.64727583662E+03  0.64727583664E+03  0.50400001928E-02 0.  1.
       -1   -1    0    0    0  501  0.00000000000E+00  0.00000000000E+00 -0.97155932843E+03  0.97155932844E+03  0.50400001928E-02 0. -1.
    10030    2    1    2    0    0  0.00000000000E+00  0.00000000000E+00 -0.32428349181E+03  0.16188351651E+04  0.15860225435E+04 0.  0.
        2    1    3    3  502    0  0.71545677213E+03  0.21772242078E+03  0.10710622382E+03  0.75548209011E+03  0.25500000920E-02 0. -1.
       -2    1    3    3    0  502 -0.71545677213E+03 -0.21772242078E+03 -0.43138971562E+03  0.86335307496E+03  0.25500000920E-02 0.  1.
</event>
<event>
 5   0  0.3973227E-04  0.1609522E+04  0.7818609E-02  0.8814720E-01
       -1   -1    0    0    0  501  0.00000000000E+00  0.00000000000E+00  0.43162138982E+03  0.43162138985E+03  0.50400001928E-02 0. -1.
        1   -1    0    0  501    0  0.00000000000E+00  0.00000000000E+00 -0.15004817784E+04  0.15004817784E+04  0.50400001928E-02 0.  1.
    10030    2    1    2    0    0  0.00000000000E+00  0.00000000000E+00 -0.10688603886E+04  0.19321031683E+04  0.16095217062E+04 0.  0.
        3    1    3    3  502    0 -0.60112488543E+03 -0.53192267603E+03 -0.60388010072E+03  0.10044720242E+04  0.10100000352E+00 0.  1.
       -3    1    3    3    0  502  0.60112488543E+03  0.53192267603E+03 -0.46498028790E+03  0.92763114409E+03  0.10100000352E+00 0. -1.
</event>
<event>
 5   0  0.7415102E-04  0.1617973E+04  0.7818609E-02  0.8809582E-01
       -2   -1    0    0    0  501  0.00000000000E+00  0.00000000000E+00  0.75244936377E+03  0.75244936378E+03  0.25500000920E-02 0. -1.
        2   -1    0    0  501    0  0.00000000000E+00  0.00000000000E+00 -0.86977129073E+03  0.86977129073E+03  0.25500000920E-02 0.  1.
    10030    2    1    2    0    0  0.00000000000E+00  0.00000000000E+00 -0.11732192696E+03  0.16222206545E+04  0.16179726257E+04 0.  0.
        5    1    3    3  502    0  0.67992450867E+03  0.55375405723E+02  0.37730592365E+03  0.77958041476E+03  0.46999998093E+01 0. -1.
       -5    1    3    3    0  502 -0.67992450867E+03 -0.55375405723E+02 -0.49462785061E+03  0.84264023975E+03  0.46999998093E+01 0.  1.
</event>
<event>
 5   0  0.3950195E-04  0.1570479E+04  0.7818609E-02  0.8838892E-01
        1   -1    0    0  501    0  0.00000000000E+00  0.00000000000E+00  0.10530944083E+04  0.10530944083E+04  0.50400001928E-02 0.  1.
       -1   -1    0    0    0  501  0.00000000000E+00  0.00000000000E+00 -0.58551348077E+03  0.58551348079E+03  0.50400001928E-02 0. -1.
    10030    2    1    2    0    0  0.00000000000E+00  0.00000000000E+00  0.46758092750E+03  0.16386078891E+04  0.15704788730E+04 0.  0.
        2    1    3    3  502    0  0.22218313923E+03 -0.17178362901E+03  0.99889973585E+03  0.10376298207E+04  0.25500000920E-02 0.  1.
       -2    1    3    3    0  502 -0.22218313923E+03  0.17178362901E+03 -0.53131880834E+03  0.60097806837E+03  0.25500000920E-02 0. -1.
</event>
<event>
 5   0  0.4110803E-04  0.1624339E+04  0.7818609E-02  0.8805734E-01
        1   -1    0    0  501    0  0.00000000000E+00  0.00000000000E+00  0.11104006035E+04  0.11104006035E+04  0.50400001928E-02 0.  1.
       -1   -1    0    0    0  501  0.00000000000E+00  0.00000000000E+00 -0.59403721378E+03  0.59403721380E+03  0.50400001928E-02 0. -1.
    10030    2    1    2    0    0  0.00000000000E+00  0.00000000000E+00  0.51636338970E+03  0.17044378173E+04  0.16243389802E+04 0.  0.
        5    1    3    3  502    0  0.20223054156E+03 -0.78630571682E+03  0.27977097140E+03  0.85875943004E+03  0.46999998093E+01 0. -1.
       -5    1    3    3    0  502 -0.20223054156E+03  0.78630571682E+03  0.23659241830E+03  0.84567838724E+03  0.46999998093E+01 0.  1.
</event>
<event>
 5   0  0.4110803E-04  0.1613806E+04  0.7818609E-02  0.8812111E-01
       -1   -1    0    0    0  501  0.00000000000E+00  0.00000000000E+00  0.58680307631E+03  0.58680307633E+03  0.50400001928E-02 0.  1.
        1   -1    0    0  501    0  0.00000000000E+00  0.00000000000E+00 -0.11095592819E+04  0.11095592819E+04  0.50400001928E-02 0. -1.
    10030    2    1    2    0    0  0.00000000000E+00  0.00000000000E+00 -0.52275620560E+03  0.16963623583E+04  0.16138064320E+04 0.  0.
        5    1    3    3  502    0 -0.36216063806E+03  0.64278050992E+03 -0.60480800353E+03  0.95401358629E+03  0.46999998093E+01 0. -1.
       -5    1    3    3    0  502  0.36216063806E+03 -0.64278050992E+03  0.82051797923E+02  0.74234877197E+03  0.46999998093E+01 0.  1.
</event>
<event>
 5   0  0.7770905E-04  0.1635953E+04  0.7818609E-02  0.8798760E-01
        2   -1    0    0  501    0  0.00000000000E+00  0.00000000000E+00  0.27607780048E+04  0.27607780048E+04  0.25500000920E-02 0.  1.
       -2   -1    0    0    0  501  0.00000000000E+00  0.00000000000E+00 -0.24235394342E+03  0.24235394343E+03  0.25500000920E-02 0. -1.
    10030    2    1    2    0    0  0.00000000000E+00  0.00000000000E+00  0.25184240614E+04  0.30031319482E+04  0.16359528556E+04 0.  0.
        2    1    3    3  502    0  0.26058972438E+03 -0.77086427392E+03  0.11062114780E+04  0.13732598324E+04  0.25500000920E-02 0. -1.
       -2    1    3    3    0  502 -0.26058972438E+03  0.77086427392E+03  0.14122125834E+04  0.16298721159E+04  0.25500000920E-02 0.  1.
</event>
<event>
 5   0  0.7770905E-04  0.1584509E+04  0.7818609E-02  0.8830122E-01
       -2   -1    0    0    0  501  0.00000000000E+00  0.00000000000E+00  0.47618452168E+03  0.47618452168E+03  0.25500000920E-02 0.  1.
        2   -1    0    0  501    0  0.00000000000E+00  0.00000000000E+00 -0.13181174023E+04  0.13181174023E+04  0.25500000920E-02 0. -1.
    10030    2    1    2    0    0  0.00000000000E+00  0.00000000000E+00 -0.84193288066E+03  0.17943019240E+04  0.15845088889E+04 0.  0.
        2    1    3    3  502    0  0.44566022146E+02  0.58462231493E+03  0.18240089899E+03  0.61403539752E+03  0.25500000920E-02 0.  1.
       -2    1    3    3    0  502 -0.44566022146E+02 -0.58462231493E+03 -0.10243337797E+04  0.11802665265E+04  0.25500000920E-02 0. -1.
</event>
<event>
 5   0  0.7415102E-04  0.1596450E+04  0.7818609E-02  0.8822732E-01
       -2   -1    0    0    0  501  0.00000000000E+00  0.00000000000E+00  0.55521296682E+03  0.55521296682E+03  0.25500000920E-02 0. -1.
        2   -1    0    0  501    0  0.00000000000E+00  0.00000000000E+00 -0.11476012883E+04  0.11476012883E+04  0.25500000920E-02 0.  1.
    10030    2    1    2    0    0  0.00000000000E+00  0.00000000000E+00 -0.59238832151E+03  0.17028142552E+04  0.15964499567E+04 0.  0.
        5    1    3    3  502    0 -0.21058644406E+02 -0.39315149489E+03 -0.10368113768E+04  0.11090588287E+04  0.46999998093E+01 0.  1.
       -5    1    3    3    0  502  0.21058644406E+02  0.39315149489E+03  0.44442305526E+03  0.59375542649E+03  0.46999998093E+01 0. -1.
</event>
<event>
 5   0  0.7553070E-04  0.1553498E+04  0.7818609E-02  0.8849637E-01
       -2   -1    0    0    0  501  0.00000000000E+00  0.00000000000E+00  0.63149398437E+03  0.63149398437E+03  0.25500000920E-02 0.  1.
        2   -1    0    0  501    0  0.00000000000E+00  0.00000000000E+00 -0.95541505708E+03  0.95541505708E+03  0.25500000920E-02 0. -1.
    10030    2    1    2    0    0  0.00000000000E+00  0.00000000000E+00 -0.32392107271E+03  0.15869090415E+04  0.15534978096E+04 0.  0.
        4    1    3    3  502    0  0.21609546889E+03  0.44667912654E+03  0.44848526409E+03  0.66884986265E+03  0.12699999809E+01 0.  1.
       -4    1    3    3    0  502 -0.21609546889E+03 -0.44667912654E+03 -0.77240633680E+03  0.91805917881E+03  0.12699999809E+01 0. -1.
</event>
<event>
 5   0  0.3889847E-04  0.1592624E+04  0.7818609E-02  0.8825092E-01
        1   -1    0    0  501    0  0.00000000000E+00  0.00000000000E+00  0.13439078682E+04  0.13439078682E+04  0.50400001928E-02 0.  1.
       -1   -1    0    0    0  501  0.00000000000E+00  0.00000000000E+00 -0.47184255993E+03  0.47184255995E+03  0.50400001928E-02 0. -1.
    10030    2    1    2    0    0  0.00000000000E+00  0.00000000000E+00  0.87206530826E+03  0.18157504281E+04  0.15926241601E+04 0.  0.
        1    1    3    3  502    0 -0.40725558935E+03  0.45413643949E+03  0.10196211008E+04  0.11881600102E+04  0.50400001928E-02 0.  1.
       -1    1    3    3    0  502  0.40725558935E+03 -0.45413643949E+03 -0.14755579251E+03  0.62759041792E+03  0.50400001928E-02 0. -1.
</event>
<event>
 5   0  0.7553070E-04  0.1597219E+04  0.7818609E-02  0.8822259E-01
       -2   -1    0    0    0  501  0.00000000000E+00  0.00000000000E+00  0.48648503472E+03  0.48648503473E+03  0.25500000920E-02 0. -1.
        2   -1    0    0  501    0  0.00000000000E+00  0.00000000000E+00 -0.13109896557E+04  0.13109896557E+04  0.25500000920E-02 0.  1.
    10030    2    1    2    0    0  0.00000000000E+00  0.00000000000E+00 -0.82450462095E+03  0.17974746904E+04  0.15972186427E+04 0.  0.
        4    1    3    3  502    0  0.21637232594E+03 -0.55658487011E+03  0.18448623121E+03  0.62501238665E+03  0.12699999809E+01 0. -1.
       -4    1    3    3    0  502 -0.21637232594E+03  0.55658487011E+03 -0.10089908522E+04  0.11724623037E+04  0.12699999809E+01 0.  1.
</event>
<event>
 5   0  0.3837251E-04  0.1617230E+04  0.7818609E-02  0.8810032E-01
        1   -1    0    0  501    0  0.00000000000E+00  0.00000000000E+00  0.16063749202E+04  0.16063749202E+04  0.50400001928E-02 0. -1.
       -1   -1    0    0    0  501  0.00000000000E+00  0.00000000000E+00 -0.40703948574E+03  0.40703948577E+03  0.50400001928E-02 0.  1.
    10030    2    1    2    0    0  0.00000000000E+00  0.00000000000E+00  0.11993354345E+04  0.20134144060E+04  0.16172297567E+04 0.  0.
        4    1    3    3  502    0 -0.75383255054E+03  0.28131053217E+03  0.49962483001E+03  0.94711441411E+03  0.12699999809E+01 0. -1.
       -4    1    3    3    0  502  0.75383255054E+03 -0.28131053217E+03  0.69971060444E+03  0.10662999919E+04  0.12699999809E+01 0.  1.
</event>
<event>
 5   0  0.7395088E-04  0.1625702E+04  0.7818609E-02  0.8804912E-01
        2   -1    0    0  501    0  0.00000000000E+00  0.00000000000E+00  0.83177934315E+03  0.83177934316E+03  0.25500000920E-02 0. -1.
       -2   -1    0    0    0  501  0.00000000000E+00  0.00000000000E+00 -0.79435368198E+03  0.79435368199E+03  0.25500000920E-02 0.  1.
    10030    2    1    2    0    0  0.00000000000E+00  0.00000000000E+00  0.37425661170E+02  0.16261330251E+04  0.16257022899E+04 0.  0.
        1    1    3    3  502    0 -0.77046235786E+03  0.23990896469E+03  0.11650594556E+03  0.81531723372E+03  0.50400001928E-02 0.  1.
       -1    1    3    3    0  502  0.77046235786E+03 -0.23990896469E+03 -0.79080284387E+02  0.81081579143E+03  0.50400001928E-02 0. -1.
</event>
<event>
 5   0  0.3973227E-04  0.1547066E+04  0.7818609E-02  0.8853744E-01
       -1   -1    0    0    0  501  0.00000000000E+00  0.00000000000E+00  0.76098716382E+03  0.76098716383E+03  0.50400001928E-02 0. -1.
        1   -1    0    0  501    0  0.00000000000E+00  0.00000000000E+00 -0.78628525240E+03  0.78628525241E+03  0.50400001928E-02 0.  1.
    10030    2    1    2    0    0  0.00000000000E+00  0.00000000000E+00 -0.25298088580E+02  0.15472724162E+04  0.15470655890E+04 0.  0.
        3    1    3    3  502    0 -0.27684397271E+03 -0.61452603888E+03 -0.39226287415E+03  0.77984293952E+03  0.10100000352E+00 0.  1.
       -3    1    3    3    0  502  0.27684397271E+03  0.61452603888E+03  0.36696478557E+03  0.76742947672E+03  0.10100000352E+00 0. -1.
</event>
<event>
 5   0  0.7488884E-04  0.1603843E+04  0.7818609E-02  0.8818191E-01
        2   -1    0    0  501    0  0.00000000000E+00  0.00000000000E+00  0.74269670177E+03  0.74269670178E+03  0.25500000920E-02 0. -1.
       -2   -1    0    0    0  501  0.00000000000E+00  0.00000000000E+00 -0.86586890916E+03  0.86586890916E+03  0.25500000920E-02 0.  1.
    10030    2    1    2    0    0  0.00000000000E+00  0.00000000000E+00 -0.12317220739E+03  0.16085656109E+04  0.16038428639E+04 0.  0.
        3    1    3    3  502    0  0.41361110438E+03  0.50924700641E+03 -0.52410706590E+03  0.83969928304E+03  0.10100000352E+00 0.  1.
       -3    1    3    3    0  502 -0.41361110438E+03 -0.50924700641E+03  0.40093485852E+03  0.76886632790E+03  0.10100000352E+00 0. -1.
</event>
<event>
 5   0  0.4110803E-04  0.1606674E+04  0.7818609E-02  0.8816458E-01
       -1   -1    0    0    0  501  0.00000000000E+00  0.00000000000E+00  0.43143581804E+03  0.43143581807E+03  0.50400001928E-02 0.  1.
        1   -1    0    0  501    0  0.00000000000E+00  0.00000000000E+00 -0.14958206863E+04  0.14958206863E+04  0.50400001928E-02 0. -1.
    10030    2    1    2    0    0  0.00000000000E+00  0.00000000000E+00 -0.10643848683E+04  0.19272565044E+04  0.16066743559E+04 0.  0.
        5    1    3    3  502    0  0.11045203248E+03  0.69813776216E+03 -0.74272095966E+02  0.71072809194E+03  0.46999998093E+01 0.  1.
       -5    1    3    3    0  502 -0.11045203248E+03 -0.69813776216E+03 -0.99011277230E+03  0.12165284125E+04  0.46999998093E+01 0. -1.
</event>
<event>
 5   0  0.7395088E-04  0.1586547E+04  0.7818609E-02  0.8828855E-01
        2   -1    0    0  501    0  0.00000000000E+00  0.00000000000E+00  0.62796890055E+03  0.62796890055E+03  0.25500000920E-02 0. -1.
       -2   -1    0    0    0  501  0.00000000000E+00  0.00000000000E+00 -0.10020929818E+04  0.10020929818E+04  0.25500000920E-02 0.  1.
    10030    2    1    2    0    0  0.00000000000E+00  0.00000000000E+00 -0.37412408127E+03  0.16300618824E+04  0.15865474819E+04 0.  0.
        1    1    3    3  502    0 -0.48953656596E+03 -0.57948236885E+03 -0.42545471560E+03  0.86974569862E+03  0.50400001928E-02 0. -1.
       -1    1    3    3    0  502  0.48953656596E+03  0.57948236885E+03  0.51330634336E+02  0.76031618375E+03  0.50400001928E-02 0.  1.
</event>
<event>
 5   0  0.7488884E-04  0.1614271E+04  0.7818609E-02  0.8811829E-01
       -2   -1    0    0    0  501  0.00000000000E+00  0.00000000000E+00  0.75193909351E+03  0.75193909352E+03  0.25500000920E-02 0. -1.
        2   -1    0    0  501    0  0.00000000000E+00  0.00000000000E+00 -0.86638324931E+03  0.86638324931E+03  0.25500000920E-02 0.  1.
    10030    2    1    2    0    0  0.00000000000E+00  0.00000000000E+00 -0.11444415579E+03  0.16183223428E+04  0.16142706528E+04 0.  0.
        3    1    3    3  502    0  0.53987384465E+03  0.35925862937E+02  0.54320771040E+03  0.76670011257E+03  0.10100000352E+00 0. -1.
       -3    1    3    3    0  502 -0.53987384465E+03 -0.35925862937E+02 -0.65765186619E+03  0.85162223026E+03  0.10100000352E+00 0.  1.
</event>
<event>
 5   0  0.2781000E-04  0.1592976E+04  0.7818609E-02  0.8824875E-01
       -3   -1    0    0    0  501  0.00000000000E+00  0.00000000000E+00  0.42305935435E+03  0.42305936640E+03  0.10100000352E+00 0. -1.
        3   -1    0    0  501    0  0.00000000000E+00  0.00000000000E+00 -0.14995369277E+04  0.14995369311E+04  0.10100000352E+00 0.  1.
    10030    2    1    2    0    0  0.00000000000E+00  0.00000000000E+00 -0.10764775733E+04  0.19225962975E+04  0.15929760065E+04 0.  0.
        2    1    3    3  502    0 -0.62631440855E+03  0.48801191607E+03 -0.46221453557E+03  0.91873154157E+03  0.25500000920E-02 0.  1.
       -2    1    3    3    0  502  0.62631440855E+03 -0.48801191607E+03 -0.61426303774E+03  0.10038647559E+04  0.25500000920E-02 0. -1.
</event>
<event>
 5   0  0.3837251E-04  0.1757911E+04  0.7818609E-02  0.8729008E-01
        1   -1    0    0  501    0  0.00000000000E+00  0.00000000000E+00  0.44626592220E+03  0.44626592223E+03  0.50400001928E-02 0. -1.
       -1   -1    0    0    0  501  0.00000000000E+00  0.00000000000E+00 -0.17311709255E+04  0.17311709255E+04  0.50400001928E-02 0.  1.
    10030    2    1    2    0    0  0.00000000000E+00  0.00000000000E+00 -0.12849050033E+04  0.21774368477E+04  0.17579107936E+04 0.  0.
        4    1    3    3  502    0  0.19464458843E+03 -0.37477757046E+03  0.31236636408E+03  0.52528002193E+03  0.12699999809E+01 0. -1.
       -4    1    3    3    0  502 -0.19464458843E+03  0.37477757046E+03 -0.15972713674E+04  0.16521568258E+04  0.12699999809E+01 0.  1.
</event>
<event>
 5   0  0.3950195E-04  0.1572305E+04  0.7818609E-02  0.8837745E-01
        1   -1    0    0  501    0  0.00000000000E+00  0.00000000000E+00  0.10950178833E+04  0.10950178833E+04  0.50400001928E-02 0.  1.
       -1   -1    0    0    0  501  0.00000000000E+00  0.00000000000E+00 -0.56440679332E+03  0.56440679334E+03  0.50400001928E-02 0. -1.
    10030    2    1    2    0    0  0.00000000000E+00  0.00000000000E+00  0.53061108995E+03  0.16594246766E+04  0.15723047188E+04 0.  0.
        2    1    3    3  502    0 -0.41028628168E+03 -0.35976332218E+03  0.86258787782E+03  0.10206969814E+04  0.25500000920E-02 0.  1.
       -2    1    3    3    0  502  0.41028628168E+03  0.35976332218E+03 -0.33197678787E+03  0.63872769520E+03  0.25500000920E-02 0. -1.
</event>
<event>
 5   0  0.7553070E-04  0.1701670E+04  0.7818609E-02  0.8760413E-01
        2   -1    0    0  501    0  0.00000000000E+00  0.00000000000E+00  0.13439037565E+04  0.13439037565E+04  0.25500000920E-02 0. -1.
       -2   -1    0    0    0  501  0.00000000000E+00  0.00000000000E+00 -0.53866943332E+03  0.53866943333E+03  0.25500000920E-02 0.  1.
    10030    2    1    2    0    0  0.00000000000E+00  0.00000000000E+00  0.80523432317E+03  0.18825731898E+04  0.17016696212E+04 0.  0.
        4    1    3    3  502    0 -0.25013366307E+03  0.80034789785E+03  0.24308344454E+03  0.87304912857E+03  0.12699999809E+01 0.  1.
       -4    1    3    3    0  502  0.25013366307E+03 -0.80034789785E+03  0.56215087863E+03  0.10095240612E+04  0.12699999809E+01 0. -1.
</event>
<event>
 5   0  0.7395088E-04  0.1580133E+04  0.7818609E-02  0.8832847E-01
       -2   -1    0    0    0  501  0.00000000000E+00  0.00000000000E+00  0.23768330629E+03  0.23768330630E+03  0.25500000920E-02 0. -1.
        2   -1    0    0  501    0  0.00000000000E+00  0.00000000000E+00 -0.26262037527E+04  0.26262037527E+04  0.25500000920E-02 0.  1.
    10030    2    1    2    0    0  0.00000000000E+00  0.00000000000E+00 -0.23885204464E+04  0.28638870590E+04  0.15801326412E+04 0.  0.
        1    1    3    3  502    0 -0.26985667692E+03 -0.14011632400E+03 -0.25159085806E+04  0.25342160911E+04  0.50400001928E-02 0.  1.
       -1    1    3    3    0  502  0.26985667692E+03  0.14011632400E+03  0.12738813419E+03  0.32967096792E+03  0.50400001928E-02 0. -1.
</event>
<event>
 5   0  0.3889847E-04  0.1597303E+04  0.7818609E-02  0.8822207E-01
       -1   -1    0    0    0  501  0.00000000000E+00  0.00000000000E+00  0.97947923045E+03  0.97947923046E+03  0.50400001928E-02 0.  1.
        1   -1    0    0  501    0  0.00000000000E+00  0.00000000000E+00 -0.65120754764E+03  0.65120754766E+03  0.50400001928E-02 0. -1.
    10030    2    1    2    0    0  0.00000000000E+00  0.00000000000E+00  0.32827168281E+03  0.16306867781E+04  0.15973030616E+04 0.  0.
        1    1    3    3  502    0  0.29278771575E+03  0.32418941357E+03 -0.51843402823E+03  0.67793603239E+03  0.50400001928E-02 0. -1.
       -1    1    3    3    0  502 -0.29278771575E+03 -0.32418941357E+03  0.84670571103E+03  0.95275074573E+03  0.50400001928E-02 0.  1.
</event>
<event>
 5   0  0.7415102E-04  0.1482710E+04  0.7818609E-02  0.8896033E-01
       -2   -1    0    0    0  501  0.00000000000E+00  0.00000000000E+00  0.30266538770E+03  0.30266538771E+03  0.25500000920E-02 0.  1.
        2   -1    0    0  501    0  0.00000000000E+00  0.00000000000E+00 -0.18158893934E+04  0.18158893934E+04  0.25500000920E-02 0. -1.
    10030    2    1    2    0    0  0.00000000000E+00  0.00000000000E+00 -0.15132240057E+04  0.21185547811E+04  0.14827095026E+04 0.  0.
        5    1    3    3  502    0 -0.62198927441E+03  0.31533067204E+03 -0.11160460561E+04  0.13160110104E+04  0.46999998093E+01 0. -1.
       -5    1    3    3    0  502  0.62198927441E+03 -0.31533067204E+03 -0.39717794954E+03  0.80254377065E+03  0.46999998093E+01 0.  1.
</event>
<event>
 5   0  0.3837251E-04  0.1580616E+04  0.7818609E-02  0.8832546E-01
        1   -1    0    0  501    0  0.00000000000E+00  0.00000000000E+00  0.79953543437E+03  0.79953543439E+03  0.50400001928E-02 0.  1.
       -1   -1    0    0    0  501  0.00000000000E+00  0.00000000000E+00 -0.78118676719E+03  0.78118676721E+03  0.50400001928E-02 0. -1.
    10030    2    1    2    0    0  0.00000000000E+00  0.00000000000E+00  0.18348667179E+02  0.15807222016E+04  0.15806157044E+04 0.  0.
        4    1    3    3  502    0  0.61590156581E+02  0.17557224886E+03  0.77731847981E+03  0.79927754499E+03  0.12699999809E+01 0.  1.
       -4    1    3    3    0  502 -0.61590156581E+02 -0.17557224886E+03 -0.75896981263E+03  0.78144465661E+03  0.12699999809E+01 0. -1.
</event>
<event>
 5   0  0.3973227E-04  0.1630892E+04  0.7818609E-02  0.8801791E-01
       -1   -1    0    0    0  501  0.00000000000E+00  0.00000000000E+00  0.13601246128E+04  0.13601246128E+04  0.50400001928E-02 0.  1.
        1   -1    0    0  501    0  0.00000000000E+00  0.00000000000E+00 -0.48889069177E+03  0.48889069179E+03  0.50400001928E-02 0. -1.
    10030    2    1    2    0    0  0.00000000000E+00  0.00000000000E+00  0.87123392104E+03  0.18490153046E+04  0.16308921030E+04 0.  0.
        3    1    3    3  502    0  0.26655526052E+03  0.46640483221E+03  0.11311553252E+04  0.12522370200E+04  0.10100000352E+00 0.  1.
       -3    1    3    3    0  502 -0.26655526052E+03 -0.46640483221E+03 -0.25992140414E+03  0.59677828458E+03  0.10100000352E+00 0. -1.
</event>
<event>
 5   0  0.3950195E-04  0.1608845E+04  0.7818609E-02  0.8815132E-01
       -1   -1    0    0    0  501  0.00000000000E+00  0.00000000000E+00  0.79860262476E+03  0.79860262477E+03  0.50400001928E-02 0.  1.
        1   -1    0    0  501    0  0.00000000000E+00  0.00000000000E+00 -0.81028505039E+03  0.81028505041E+03  0.50400001928E-02 0. -1.
    10030    2    1    2    0    0  0.00000000000E+00  0.00000000000E+00 -0.11682425636E+02  0.16088876752E+04  0.16088452605E+04 0.  0.
        2    1    3    3  502    0 -0.23234000112E+03  0.74281237219E+03  0.19749558074E+03  0.80296737220E+03  0.25500000920E-02 0.  1.
       -2    1    3    3    0  502  0.23234000112E+03 -0.74281237219E+03 -0.20917800638E+03  0.80592030298E+03  0.25500000920E-02 0. -1.
</event>
<event>
 5   0  0.7553070E-04  0.1584666E+04  0.7818609E-02  0.8830024E-01
       -2   -1    0    0    0  501  0.00000000000E+00  0.00000000000E+00  0.58447323012E+03  0.58447323013E+03  0.25500000920E-02 0. -1.
        2   -1    0    0  501    0  0.00000000000E+00  0.00000000000E+00 -0.10741149740E+04  0.10741149740E+04  0.25500000920E-02 0.  1.
    10030    2    1    2    0    0  0.00000000000E+00  0.00000000000E+00 -0.48964174385E+03  0.16585882041E+04  0.15846658302E+04 0.  0.
        4    1    3    3  502    0  0.25522341137E+03 -0.49353720893E+03 -0.83603545391E+03  0.10038300949E+04  0.12699999809E+01 0.  1.
       -4    1    3    3    0  502 -0.25522341137E+03  0.49353720893E+03  0.34639371006E+03  0.65475810921E+03  0.12699999809E+01 0. -1.
</event>
<event>
 5   0  0.3889847E-04  0.1585609E+04  0.7818609E-02  0.8829438E-01
       -1   -1    0    0    0  501  0.00000000000E+00  0.00000000000E+00  0.71165055720E+03  0.71165055722E+03  0.50400001928E-02 0.  1.
        1   -1    0    0  501    0  0.00000000000E+00  0.00000000000E+00 -0.88321255502E+03  0.88321255503E+03  0.50400001928E-02 0. -1.
    10030    2    1    2    0    0  0.00000000000E+00  0.00000000000E+00 -0.17156199782E+03  0.15948631123E+04  0.15856086616E+04 0.  0.
        1    1    3    3  502    0  0.37225507247E+03 -0.69992612093E+03 -0.94093200055E+02  0.79832571301E+03  0.50400001928E-02 0. -1.
       -1    1    3    3    0  502 -0.37225507247E+03  0.69992612093E+03 -0.77468797760E+02  0.79653739924E+03  0.50400001928E-02 0.  1.
</event>
<event>
 5   0  0.3973227E-04  0.1587097E+04  0.7818609E-02  0.8828514E-01
        1   -1    0    0  501    0  0.00000000000E+00  0.00000000000E+00  0.93924363629E+03  0.93924363630E+03  0.50400001928E-02 0. -1.
       -1   -1    0    0    0  501  0.00000000000E+00  0.00000000000E+00 -0.67045354383E+03  0.67045354385E+03  0.50400001928E-02 0.  1.
    10030    2    1    2    0    0  0.00000000000E+00  0.00000000000E+00  0.26879009245E+03  0.16096971801E+04  0.15870970033E+04 0.  0.
        3    1    3    3  502    0  0.43535270568E+03  0.19724494461E+03 -0.50809347294E+03  0.69756471669E+03  0.10100000352E+00 0.  1.
       -3    1    3    3    0  502 -0.43535270568E+03 -0.19724494461E+03  0.77688356540E+03  0.91213246346E+03  0.10100000352E+00 0. -1.
</event>
<event>
 5   0  0.7770905E-04  0.1587305E+04  0.7818609E-02  0.8828385E-01
        2   -1    0    0  501    0  0.00000000000E+00  0.00000000000E+00  0.15919036797E+04  0.15919036797E+04  0.25500000920E-02 0. -1.
       -2   -1    0    0    0  501  0.00000000000E+00  0.00000000000E+00 -0.39567985930E+03  0.39567985931E+03  0.25500000920E-02 0.  1.
    10030    2    1    2    0    0  0.00000000000E+00  0.00000000000E+00  0.11962238204E+04  0.19875835390E+04  0.15873049159E+04 0.  0.
        2    1    3    3  502    0  0.44686083258E+03  0.56953237436E+03  0.19075550718E+03  0.74862500136E+03  0.25500000920E-02 0.  1.
       -2    1    3    3    0  502 -0.44686083258E+03 -0.56953237436E+03  0.10054683132E+04  0.12389585377E+04  0.25500000920E-02 0. -1.
</event>
<event>
 5   0  0.7553070E-04  0.1490841E+04  0.7818609E-02  0.8890566E-01
        2   -1    0    0  501    0  0.00000000000E+00  0.00000000000E+00  0.23457211542E+04  0.23457211542E+04  0.25500000920E-02 0.  1.
       -2   -1    0    0    0  501  0.00000000000E+00  0.00000000000E+00 -0.23687890898E+03  0.23687890900E+03  0.25500000920E-02 0. -1.
    10030    2    1    2    0    0  0.00000000000E+00  0.00000000000E+00  0.21088422452E+04  0.25826000632E+04  0.14908411958E+04 0.  0.
        4    1    3    3  502    0 -0.38742978974E+03  0.50278575935E+03  0.17314751686E+04  0.18441537989E+04  0.12699999809E+01 0.  1.
       -4    1    3    3    0  502  0.38742978974E+03 -0.50278575935E+03  0.37736707663E+03  0.73844626427E+03  0.12699999809E+01 0. -1.
</event>
<event>
 5   0  0.4110803E-04  0.1597259E+04  0.7818609E-02  0.8822233E-01
        1   -1    0    0  501    0  0.00000000000E+00  0.00000000000E+00  0.49794825196E+03  0.49794825199E+03  0.50400001928E-02 0.  1.
       -1   -1    0    0    0  501  0.00000000000E+00  0.00000000000E+00 -0.12808749069E+04  0.12808749070E+04  0.50400001928E-02 0. -1.
    10030    2    1    2    0    0  0.00000000000E+00  0.00000000000E+00 -0.78292665498E+03  0.17788231589E+04  0.15972594291E+04 0.  0.
        5    1    3    3  502    0 -0.10764627713E+03  0.43313912887E+03  0.34607862574E+03  0.56479175909E+03  0.46999998093E+01 0.  1.
       -5    1    3    3    0  502  0.10764627713E+03 -0.43313912887E+03 -0.11290052807E+04  0.12140313999E+04  0.46999998093E+01 0. -1.
</event>
<event>
 5   0  0.7553070E-04  0.1602432E+04  0.7818609E-02  0.8819055E-01
        2   -1    0    0  501    0  0.00000000000E+00  0.00000000000E+00  0.89419334591E+03  0.89419334591E+03  0.25500000920E-02 0. -1.
       -2   -1    0    0    0  501  0.00000000000E+00  0.00000000000E+00 -0.71790641055E+03  0.71790641055E+03  0.25500000920E-02 0.  1.
    10030    2    1    2    0    0  0.00000000000E+00  0.00000000000E+00  0.17628693536E+03  0.16120997565E+04  0.16024320707E+04 0.  0.
        4    1    3    3  502    0  0.38614544224E+03 -0.46505476371E+03 -0.44092024785E+03  0.74819550499E+03  0.12699999809E+01 0.  1.
       -4    1    3    3    0  502 -0.38614544224E+03  0.46505476371E+03  0.61720718321E+03  0.86390425148E+03  0.12699999809E+01 0. -1.
</event>
<event>
 5   0  0.3950195E-04  0.1598027E+04  0.7818609E-02  0.8821761E-01
       -1   -1    0    0    0  501  0.00000000000E+00  0.00000000000E+00  0.13458889628E+04  0.13458889628E+04  0.50400001928E-02 0. -1.
        1   -1    0    0  501    0  0.00000000000E+00  0.00000000000E+00 -0.47435031301E+03  0.47435031303E+03  0.50400001928E-02 0.  1.
    10030    2    1    2    0    0  0.00000000000E+00  0.00000000000E+00  0.87153864982E+03  0.18202392759E+04  0.15980273475E+04 0.  0.
        2    1    3    3  502    0  0.31192252072E+03  0.25457672647E+03  0.12218963328E+04  0.12865207409E+04  0.25500000920E-02 0. -1.
       -2    1    3    3    0  502 -0.31192252072E+03 -0.25457672647E+03 -0.35035768297E+03  0.53371853501E+03  0.25500000920E-02 0.  1.
</event>
<event>
 5   0  0.7415102E-04  0.1625511E+04  0.7818609E-02  0.8805027E-01
       -2   -1    0    0    0  501  0.00000000000E+00  0.00000000000E+00  0.63534231809E+03  0.63534231810E+03  0.25500000920E-02 0. -1.
        2   -1    0    0  501    0  0.00000000000E+00  0.00000000000E+00 -0.10397098922E+04  0.10397098922E+04  0.25500000920E-02 0.  1.
    10030    2    1    2    0    0  0.00000000000E+00  0.00000000000E+00 -0.40436757414E+03  0.16750522103E+04  0.16255112341E+04 0.  0.
        5    1    3    3  502    0  0.98843027054E+02  0.36297322075E+03  0.54021054112E+03  0.65830769532E+03  0.46999998093E+01 0. -1.
       -5    1    3    3    0  502 -0.98843027054E+02 -0.36297322075E+03 -0.94457811526E+03  0.10167445150E+04  0.46999998093E+01 0.  1.
</event>
<event>
 5   0  0.3837251E-04  0.1597121E+04  0.7818609E-02  0.8822318E-01
        1   -1    0    0  501    0  0.00000000000E+00  0.00000000000E+00  0.94155414368E+03  0.94155414369E+03  0.50400001928E-02 0. -1.
       -1   -1    0    0    0  501  0.00000000000E+00  0.00000000000E+00 -0.67728364415E+03  0.67728364417E+03  0.50400001928E-02 0.  1.
    10030    2    1    2    0    0  0.00000000000E+00  0.00000000000E+00  0.26427049952E+03  0.16188377879E+04  0.15971214376E+04 0.  0.
        4    1    3    3  502    0  0.39865845069E+03  0.66139527207E+03 -0.73915227645E+02  0.77578176055E+03  0.12699999809E+01 0.  1.
       -4    1    3    3    0  502 -0.39865845069E+03 -0.66139527207E+03  0.33818572717E+03  0.84305602731E+03  0.12699999809E+01 0. -1.
</event>
<event>
 5   0  0.7488884E-04  0.1617074E+04  0.7818609E-02  0.8810127E-01
        2   -1    0    0  501    0  0.00000000000E+00  0.00000000000E+00  0.68730176885E+03  0.68730176885E+03  0.25500000920E-02 0. -1.
       -2   -1    0    0    0  501  0.00000000000E+00  0.00000000000E+00 -0.95115760586E+03  0.95115760586E+03  0.25500000920E-02 0.  1.
    10030    2    1    2    0    0  0.00000000000E+00  0.00000000000E+00 -0.26385583701E+03  0.16384593747E+04  0.16170742778E+04 0.  0.
        3    1    3    3  502    0  0.75578229448E+03  0.21013385706E+03 -0.33039887782E+03  0.85119124948E+03  0.10100000352E+00 0.  1.
       -3    1    3    3    0  502 -0.75578229448E+03 -0.21013385706E+03  0.66543040807E+02  0.78726812523E+03  0.10100000352E+00 0. -1.
</event>
<event>
 5   0  0.2781000E-04  0.1596614E+04  0.7818609E-02  0.8822631E-01
       -4   -1    0    0    0  501  0.00000000000E+00  0.00000000000E+00  0.61950291519E+03  0.61950421696E+03  0.12699999809E+01 0.  1.
        4   -1    0    0  501    0  0.00000000000E+00  0.00000000000E+00 -0.10287162058E+04  0.10287169898E+04  0.12699999809E+01 0. -1.
    10030    2    1    2    0    0  0.00000000000E+00  0.00000000000E+00 -0.40921329062E+03  0.16482212067E+04  0.15966144272E+04 0.  0.
        3    1    3    3  502    0 -0.28889780597E+03 -0.66830424411E+03 -0.54260662458E+03  0.90802778825E+03  0.10100000352E+00 0. -1.
       -3    1    3    3    0  502  0.28889780597E+03  0.66830424411E+03  0.13339333396E+03  0.74019341846E+03  0.10100000352E+00 0.  1.
</event>
<event>
 5   0  0.7770905E-04  0.1539928E+04  0.7818609E-02  0.8858327E-01
       -2   -1    0    0    0  501  0.00000000000E+00  0.00000000000E+00  0.29148531377E+03  0.29148531378E+03  0.25500000920E-02 0. -1.
        2   -1    0    0  501    0  0.00000000000E+00  0.00000000000E+00 -0.20338744791E+04  0.20338744791E+04  0.25500000920E-02 0.  1.
    10030    2    1    2    0    0  0.00000000000E+00  0.00000000000E+00 -0.17423891654E+04  0.23253597929E+04  0.15399279733E+04 0.  0.
        2    1    3    3  502    0 -0.23443711556E+03 -0.13972320159E+03 -0.19583859538E+04  0.19773110221E+04  0.25500000920E-02 0.  1.
       -2    1    3    3    0  502  0.23443711556E+03  0.13972320159E+03  0.21599678844E+03  0.34804877077E+03  0.25500000920E-02 0. -1.
</event>
<event>
 5   0  0.2781000E-04  0.1601149E+04  0.7818609E-02  0.8819842E-01
        3   -1    0    0  501    0  0.00000000000E+00  0.00000000000E+00  0.12133780747E+04  0.12133780789E+04  0.10100000352E+00 0. -1.
       -3   -1    0    0    0  501  0.00000000000E+00  0.00000000000E+00 -0.52821117439E+03  0.52821118405E+03  0.10100000352E+00 0.  1.
    10030    2    1    2    0    0  0.00000000000E+00  0.00000000000E+00  0.68516690028E+03  0.17415892629E+04  0.16011494245E+04 0.  0.
        4    1    3    3  502    0 -0.56386856562E+03  0.15636842529E+02 -0.27533454599E+03  0.62769657898E+03  0.12699999809E+01 0.  1.
       -4    1    3    3    0  502  0.56386856562E+03 -0.15636842529E+02  0.96050144627E+03  0.11138926839E+04  0.12699999809E+01 0. -1.
</event>
<event>
 5   0  0.7553070E-04  0.1613754E+04  0.7818609E-02  0.8812143E-01
       -2   -1    0    0    0  501  0.00000000000E+00  0.00000000000E+00  0.44570965850E+03  0.44570965851E+03  0.25500000920E-02 0. -1.
        2   -1    0    0  501    0  0.00000000000E+00  0.00000000000E+00 -0.14607051534E+04  0.14607051534E+04  0.25500000920E-02 0.  1.
    10030    2    1    2    0    0  0.00000000000E+00  0.00000000000E+00 -0.10149954949E+04  0.19064148119E+04  0.16137538785E+04 0.  0.
        4    1    3    3  502    0 -0.28134448154E+03  0.55630174810E+03  0.97676697964E+02  0.63100610335E+03  0.12699999809E+01 0. -1.
       -4    1    3    3    0  502  0.28134448154E+03 -0.55630174810E+03 -0.11126721929E+04  0.12754087086E+04  0.12699999809E+01 0.  1.
</event>
<event>
 5   0  0.7415102E-04  0.1580366E+04  0.7818609E-02  0.8832702E-01
       -2   -1    0    0    0  501  0.00000000000E+00  0.00000000000E+00  0.63097872383E+03  0.63097872383E+03  0.25500000920E-02 0. -1.
        2   -1    0    0  501    0  0.00000000000E+00  0.00000000000E+00 -0.98955649062E+03  0.98955649062E+03  0.25500000920E-02 0.  1.
    10030    2    1    2    0    0  0.00000000000E+00  0.00000000000E+00 -0.35857776679E+03  0.16205352144E+04  0.15803658964E+04 0.  0.
        5    1    3    3  502    0  0.53268493076E+03 -0.57104511704E+03 -0.30285593437E+03  0.83760943651E+03  0.46999998093E+01 0.  1.
       -5    1    3    3    0  502 -0.53268493076E+03  0.57104511704E+03 -0.55721832422E+02  0.78292577794E+03  0.46999998093E+01 0. -1.
</event>
<event>
 5   0  0.3837251E-04  0.1567348E+04  0.7818609E-02  0.8840862E-01
       -1   -1    0    0    0  501  0.00000000000E+00  0.00000000000E+00  0.42813150221E+03  0.42813150224E+03  0.50400001928E-02 0.  1.
        1   -1    0    0  501    0  0.00000000000E+00  0.00000000000E+00 -0.14344775150E+04  0.14344775150E+04  0.50400001928E-02 0. -1.
    10030    2    1    2    0    0  0.00000000000E+00  0.00000000000E+00 -0.10063460128E+04  0.18626090173E+04  0.15673480959E+04 0.  0.
        4    1    3    3  502    0 -0.60593875603E+03  0.41182462456E+03 -0.83375295279E+03  0.11099130131E+04  0.12699999809E+01 0. -1.
       -4    1    3    3    0  502  0.60593875603E+03 -0.41182462456E+03 -0.17259306003E+03  0.75269600419E+03  0.12699999809E+01 0.  1.
</event>
<event>
 5   0  0.3950195E-04  0.1589845E+04  0.7818609E-02  0.8826811E-01
       -1   -1    0    0    0  501  0.00000000000E+00  0.00000000000E+00  0.67894066038E+03  0.67894066040E+03  0.50400001928E-02 0. -1.
        1   -1    0    0  501    0  0.00000000000E+00  0.00000000000E+00 -0.93071680743E+03  0.93071680745E+03  0.50400001928E-02 0.  1.
    10030    2    1    2    0    0  0.00000000000E+00  0.00000000000E+00 -0.25177614706E+03  0.16096574678E+04  0.15898446262E+04 0.  0.
        2    1    3    3  502    0 -0.69521286950E+03 -0.13349446863E+03  0.24022553401E+03  0.74756271594E+03  0.25500000920E-02 0. -1.
       -2    1    3    3    0  502  0.69521286950E+03  0.13349446863E+03 -0.49200168107E+03  0.86209475190E+03  0.25500000920E-02 0.  1.
</event>
<event>
 5   0  0.7415102E-04  0.1597336E+04  0.7818609E-02  0.8822186E-01
        2   -1    0    0  501    0  0.00000000000E+00  0.00000000000E+00  0.17327371860E+04  0.17327371860E+04  0.25500000920E-02 0. -1.
       -2   -1    0    0    0  501  0.00000000000E+00  0.00000000000E+00 -0.36812889599E+03  0.36812889599E+03  0.25500000920E-02 0.  1.
    10030    2    1    2    0    0  0.00000000000E+00  0.00000000000E+00  0.13646082900E+04  0.21008660820E+04  0.15973360665E+04 0.  0.
        5    1    3    3  502    0 -0.13581697476E+03 -0.61100864951E+03  0.29876974510E+02  0.62665185231E+03  0.46999998093E+01 0.  1.
       -5    1    3    3    0  502  0.13581697476E+03  0.61100864951E+03  0.13347313155E+04  0.14742142297E+04  0.46999998093E+01 0. -1.
</event>
<event>
 5   0  0.3973227E-04  0.1596214E+04  0.7818609E-02  0.8822877E-01
        1   -1    0    0  501    0  0.00000000000E+00  0.00000000000E+00  0.12189813512E+04  0.12189813513E+04  0.50400001928E-02 0.  1.
       -1   -1    0    0    0  501  0.00000000000E+00  0.00000000000E+00 -0.52254653792E+03  0.52254653794E+03  0.50400001928E-02 0. -1.
    10030    2    1    2    0    0  0.00000000000E+00  0.00000000000E+00  0.69643481332E+03  0.17415278892E+04  0.15962136259E+04 0.  0.
        3    1    3    3  502    0 -0.68742836041E+03 -0.13158248557E+03  0.76667345592E+03  0.10381039926E+04  0.10100000352E+00 0.  1.
       -3    1    3    3    0  502  0.68742836041E+03  0.13158248557E+03 -0.70238642602E+02  0.70342389661E+03  0.10100000352E+00 0. -1.
</event>
<event>
 5   0  0.7395088E-04  0.1592523E+04  0.7818609E-02  0.8825155E-01
        2   -1    0    0  501    0  0.00000000000E+00  0.00000000000E+00  0.15948008434E+04  0.15948008434E+04  0.25500000920E-02 0. -1.
       -2   -1    0    0    0  501  0.00000000000E+00  0.00000000000E+00 -0.39756210162E+03  0.39756210162E+03  0.25500000920E-02 0.  1.
    10030    2    1    2    0    0  0.00000000000E+00  0.00000000000E+00  0.11972387418E+04  0.19923629451E+04  0.15925229982E+04 0.  0.
        1    1    3    3  502    0  0.29787086285E+03  0.53975969736E+03  0.12290967375E+04  0.13750441346E+04  0.50400001928E-02 0. -1.
       -1    1    3    3    0  502 -0.29787086285E+03 -0.53975969736E+03 -0.31857995736E+02  0.61731881045E+03  0.50400001928E-02 0.  1.
</event>
<event>
 5   0  0.3889847E-04  0.1584552E+04  0.7818609E-02  0.8830095E-01
       -1   -1    0    0    0  501  0.00000000000E+00  0.00000000000E+00  0.52934009169E+03  0.52934009171E+03  0.50400001928E-02 0. -1.
        1   -1    0    0  501    0  0.00000000000E+00  0.00000000000E+00 -0.11858188954E+04  0.11858188955E+04  0.50400001928E-02 0.  1.
    10030    2    1    2    0    0  0.00000000000E+00  0.00000000000E+00 -0.65647880376E+03  0.17151589872E+04  0.15845522811E+04 0.  0.
        1    1    3    3  502    0 -0.55920576416E+03  0.54367569964E+03 -0.47903145887E+03  0.91529530298E+03  0.50400001928E-02 0.  1.
       -1    1    3    3    0  502  0.55920576416E+03 -0.54367569964E+03 -0.17744734489E+03  0.79986368419E+03  0.50400001928E-02 0. -1.
</event>
<event>
 5   0  0.7395088E-04  0.1602759E+04  0.7818609E-02  0.8818855E-01
       -2   -1    0    0    0  501  0.00000000000E+00  0.00000000000E+00  0.30209792286E+03  0.30209792287E+03  0.25500000920E-02 0.  1.
        2   -1    0    0  501    0  0.00000000000E+00  0.00000000000E+00 -0.21258316492E+04  0.21258316492E+04  0.25500000920E-02 0. -1.
    10030    2    1    2    0    0  0.00000000000E+00  0.00000000000E+00 -0.18237337264E+04  0.24279295721E+04  0.16027592777E+04 0.  0.
        1    1    3    3  502    0  0.70733023382E+03 -0.14298024286E+03 -0.14397847717E+04  0.16105091115E+04  0.50400001928E-02 0. -1.
       -1    1    3    3    0  502 -0.70733023382E+03  0.14298024286E+03 -0.38394895468E+03  0.81742046057E+03  0.50400001928E-02 0.  1.
</event>
<event>
 5   0  0.7395088E-04  0.1511814E+04  0.7818609E-02  0.8876634E-01
       -2   -1    0    0    0  501  0.00000000000E+00  0.00000000000E+00  0.85299725968E+03  0.85299725968E+03  0.25500000920E-02 0. -1.
        2   -1    0    0  501    0  0.00000000000E+00  0.00000000000E+00 -0.66986802258E+03  0.66986802259E+03  0.25500000920E-02 0.  1.
    10030    2    1    2    0    0  0.00000000000E+00  0.00000000000E+00  0.18312923709E+03  0.15228652823E+04  0.15118142579E+04 0.  0.
        1    1    3    3  502    0 -0.38210591077E+03  0.59181145137E+03  0.36770324225E+03  0.79463916050E+03  0.50400001928E-02 0. -1.
       -1    1    3    3    0  502  0.38210591077E+03 -0.59181145137E+03 -0.18457400516E+03  0.72822612177E+03  0.50400001928E-02 0.  1.
</event>
<event>
 5   0  0.7415102E-04  0.1606982E+04  0.7818609E-02  0.8816270E-01
        2   -1    0    0  501    0  0.00000000000E+00  0.00000000000E+00  0.12710492467E+04  0.12710492467E+04  0.25500000920E-02 0. -1.
       -2   -1    0    0    0  501  0.00000000000E+00  0.00000000000E+00 -0.50792478503E+03  0.50792478504E+03  0.25500000920E-02 0.  1.
    10030    2    1    2    0    0  0.00000000000E+00  0.00000000000E+00  0.76312446166E+03  0.17789740317E+04  0.16069815374E+04 0.  0.
        5    1    3    3  502    0  0.33289478700E+03 -0.63781224252E+03  0.77755033639E+03  0.10593535819E+04  0.46999998093E+01 0. -1.
       -5    1    3    3    0  502 -0.33289478700E+03  0.63781224252E+03 -0.14425874729E+02  0.71962044981E+03  0.46999998093E+01 0.  1.
</event>
<event>
 5   0  0.7488884E-04  0.1545207E+04  0.7818609E-02  0.8854935E-01
        2   -1    0    0  501    0  0.00000000000E+00  0.00000000000E+00  0.11677178498E+04  0.11677178498E+04  0.25500000920E-02 0.  1.
       -2   -1    0    0    0  501  0.00000000000E+00  0.00000000000E+00 -0.51118186990E+03  0.51118186991E+03  0.25500000920E-02 0. -1.
    10030    2    1    2    0    0  0.00000000000E+00  0.00000000000E+00  0.65653597989E+03  0.16788997197E+04  0.15452070334E+04 0.  0.
        3    1    3    3  502    0  0.13895703794E+03 -0.47229922481E+03  0.97521848298E+03  0.10924407151E+04  0.10100000352E+00 0.  1.
       -3    1    3    3    0  502 -0.13895703794E+03  0.47229922481E+03 -0.31868250310E+03  0.58645900465E+03  0.10100000352E+00 0. -1.
</event>
<event>
 5   0  0.3950195E-04  0.1583010E+04  0.7818609E-02  0.8831054E-01
       -1   -1    0    0    0  501  0.00000000000E+00  0.00000000000E+00  0.51817588148E+03  0.51817588151E+03  0.50400001928E-02 0.  1.
        1   -1    0    0  501    0  0.00000000000E+00  0.00000000000E+00 -0.12090109561E+04  0.12090109561E+04  0.50400001928E-02 0. -1.
    10030    2    1    2    0    0  0.00000000000E+00  0.00000000000E+00 -0.69083507465E+03  0.17271868377E+04  0.15830101932E+04 0.  0.
        2    1    3    3  502    0  0.16500488563E+03 -0.10607876209E+03 -0.11820691286E+04  0.11982348438E+04  0.25500000920E-02 0. -1.
       -2    1    3    3    0  502 -0.16500488563E+03  0.10607876209E+03  0.49123405395E+03  0.52895199387E+03  0.25500000920E-02 0.  1.
</event>
<event>
 5   0  0.3973227E-04  0.1603620E+04  0.7818609E-02  0.8818327E-01
       -1   -1    0    0    0  501  0.00000000000E+00  0.00000000000E+00  0.59605723167E+03  0.59605723169E+03  0.50400001928E-02 0.  1.
        1   -1    0    0  501    0  0.00000000000E+00  0.00000000000E+00 -0.10785863217E+04  0.10785863218E+04  0.50400001928E-02 0. -1.
    10030    2    1    2    0    0  0.00000000000E+00  0.00000000000E+00 -0.48252909007E+03  0.16746435534E+04  0.16036198765E+04 0.  0.
        3    1    3    3  502    0  0.48470074814E+03 -0.21170268356E+03  0.38804131863E+03  0.65599460107E+03  0.10100000352E+00 0.  1.
       -3    1    3    3    0  502 -0.48470074814E+03  0.21170268356E+03 -0.87057040870E+03  0.10186489524E+04  0.10100000352E+00 0. -1.
</event>
<event>
 5   0  0.2781000E-04  0.1604467E+04  0.7818609E-02  0.8817808E-01
       -3   -1    0    0    0  501  0.00000000000E+00  0.00000000000E+00  0.12416899450E+04  0.12416899491E+04  0.10100000352E+00 0. -1.
        3   -1    0    0  501    0  0.00000000000E+00  0.00000000000E+00 -0.51830867316E+03  0.51830868300E+03  0.10100000352E+00 0.  1.
    10030    2    1    2    0    0  0.00000000000E+00  0.00000000000E+00  0.72338127187E+03  0.17599986321E+04  0.16044671142E+04 0.  0.
        3    1    3    3  502    0 -0.78086826496E+03  0.17030782627E+03  0.28554500846E+03  0.84870251854E+03  0.10100000352E+00 0.  1.
       -3    1    3    3    0  502  0.78086826496E+03 -0.17030782627E+03  0.43783626341E+03  0.91129611360E+03  0.10100000352E+00 0. -1.
</event>
<event>
 5   0  0.3950195E-04  0.1596756E+04  0.7818609E-02  0.8822543E-01
        1   -1    0    0  501    0  0.00000000000E+00  0.00000000000E+00  0.10320674933E+04  0.10320674933E+04  0.50400001928E-02 0.  1.
       -1   -1    0    0    0  501  0.00000000000E+00  0.00000000000E+00 -0.61760273059E+03  0.61760273061E+03  0.50400001928E-02 0. -1.
    10030    2    1    2    0    0  0.00000000000E+00  0.00000000000E+00  0.41446476272E+03  0.16496702239E+04  0.15967563397E+04 0.  0.
        2    1    3    3  502    0  0.47165227059E+03 -0.64305214083E+03  0.24637976302E+03  0.83467053848E+03  0.25500000920E-02 0.  1.
       -2    1    3    3    0  502 -0.47165227059E+03  0.64305214083E+03  0.16808499971E+03  0.81499968546E+03  0.25500000920E-02 0. -1.
</event>
<event>
 5   0  0.3889847E-04  0.1612401E+04  0.7818609E-02  0.8812966E-01
        1   -1    0    0  501    0  0.00000000000E+00  0.00000000000E+00  0.11984716869E+04  0.11984716869E+04  0.50400001928E-02 0. -1.
       -1   -1    0    0    0  501  0.00000000000E+00  0.00000000000E+00 -0.54232313940E+03  0.54232313942E+03  0.50400001928E-02 0.  1.
    10030    2    1    2    0    0  0.00000000000E+00  0.00000000000E+00  0.65614854748E+03  0.17407948263E+04  0.16124006050E+04 0.  0.
        1    1    3    3  502    0  0.29348332788E+03  0.16974943689E+03 -0.46161498543E+03  0.57274403520E+03  0.50400001928E-02 0.  1.
       -1    1    3    3    0  502 -0.29348332788E+03 -0.16974943689E+03  0.11177635329E+04  0.11680507911E+04  0.50400001928E-02 0. -1.
</event>
<event>
 5   0  0.7395088E-04  0.1669958E+04  0.7818609E-02  0.8778687E-01
        2   -1    0    0  501    0  0.00000000000E+00  0.00000000000E+00  0.16246090759E+04  0.16246090759E+04  0.25500000920E-02 0. -1.
       -2   -1    0    0    0  501  0.00000000000E+00  0.00000000000E+00 -0.42914293929E+03  0.42914293930E+03  0.25500000920E-02 0.  1.
    10030    2    1    2    0    0  0.00000000000E+00  0.00000000000E+00  0.11954661366E+04  0.20537520152E+04  0.16699575013E+04 0.  0.
        1    1    3    3  502    0 -0.15097467391E+03 -0.34190508313E+03 -0.32052315546E+03  0.49236930372E+03  0.50400001928E-02 0.  1.
       -1    1    3    3    0  502  0.15097467391E+03  0.34190508313E+03  0.15159892920E+04  0.15613827115E+04  0.50400001928E-02 0. -1.
</event>
<event>
 5   0  0.3973227E-04  0.1590572E+04  0.7818609E-02  0.8826361E-01
       -1   -1    0    0    0  501  0.00000000000E+00  0.00000000000E+00  0.58326075301E+03  0.58326075303E+03  0.50400001928E-02 0. -1.
        1   -1    0    0  501    0  0.00000000000E+00  0.00000000000E+00 -0.10843867228E+04  0.10843867228E+04  0.50400001928E-02 0.  1.
    10030    2    1    2    0    0  0.00000000000E+00  0.00000000000E+00 -0.50112596975E+03  0.16676474758E+04  0.15905724963E+04 0.  0.
        3    1    3    3  502    0  0.42137678771E+03 -0.26325776395E+03 -0.90163489297E+03  0.10294700277E+04  0.10100000352E+00 0.  1.
       -3    1    3    3    0  502 -0.42137678771E+03  0.26325776395E+03  0.40050892321E+03  0.63817744811E+03  0.10100000352E+00 0. -1.
</event>
<event>
 5   0  0.7770905E-04  0.1583490E+04  0.7818609E-02  0.8830755E-01
        2   -1    0    0  501    0  0.00000000000E+00  0.00000000000E+00  0.20660229441E+04  0.20660229441E+04  0.25500000920E-02 0. -1.
       -2   -1    0    0    0  501  0.00000000000E+00  0.00000000000E+00 -0.30341397213E+03  0.30341397214E+03  0.25500000920E-02 0.  1.
    10030    2    1    2    0    0  0.00000000000E+00  0.00000000000E+00  0.17626089719E+04  0.23694369162E+04  0.15834901048E+04 0.  0.
        2    1    3    3  502    0  0.69148085770E+03  0.37320299962E+03  0.73596718208E+03  0.10766029670E+04  0.25500000920E-02 0.  1.
       -2    1    3    3    0  502 -0.69148085770E+03 -0.37320299962E+03  0.10266417898E+04  0.12928339492E+04  0.25500000920E-02 0. -1.
</event>
<event>
 5   0  0.4110803E-04  0.1575593E+04  0.7818609E-02  0.8835684E-01
        1   -1    0    0  501    0  0.00000000000E+00  0.00000000000E+00  0.10803763237E+04  0.10803763237E+04  0.50400001928E-02 0. -1.
       -1   -1    0    0    0  501  0.00000000000E+00  0.00000000000E+00 -0.57445082759E+03  0.57445082761E+03  0.50400001928E-02 0.  1.
    10030    2    1    2    0    0  0.00000000000E+00  0.00000000000E+00  0.50592549614E+03  0.16548271514E+04  0.15755926800E+04 0.  0.
        5    1    3    3  502    0  0.53009793483E+03  0.55620466975E+03  0.70340746346E+02  0.77158108178E+03  0.46999998093E+01 0.  1.
       -5    1    3    3    0  502 -0.53009793483E+03 -0.55620466975E+03  0.43558474979E+03  0.88324606957E+03  0.46999998093E+01 0. -1.
</event>
<event>
 5   0  0.7553070E-04  0.1601330E+04  0.7818609E-02  0.8819731E-01
       -2   -1    0    0    0  501  0.00000000000E+00  0.00000000000E+00  0.62892772856E+03  0.62892772856E+03  0.25500000920E-02 0. -1.
        2   -1    0    0  501    0  0.00000000000E+00  0.00000000000E+00 -0.10192975516E+04  0.10192975516E+04  0.25500000920E-02 0.  1.
    10030    2    1    2    0    0  0.00000000000E+00  0.00000000000E+00 -0.39036982306E+03  0.16482252802E+04  0.16013300645E+04 0.  0.
        4    1    3    3  502    0  0.75178407165E+03  0.27545632536E+03 -0.19798551141E+03  0.82477594121E+03  0.12699999809E+01 0. -1.
       -4    1    3    3    0  502 -0.75178407165E+03 -0.27545632536E+03 -0.19238431166E+03  0.82344933897E+03  0.12699999809E+01 0.  1.
</event>
<event>
 5   0  0.7395088E-04  0.1608675E+04  0.7818609E-02  0.8815236E-01
        2   -1    0    0  501    0  0.00000000000E+00  0.00000000000E+00  0.11871051439E+04  0.11871051439E+04  0.25500000920E-02 0.  1.
       -2   -1    0    0    0  501  0.00000000000E+00  0.00000000000E+00 -0.54498849911E+03  0.54498849911E+03  0.25500000920E-02 0. -1.
    10030    2    1    2    0    0  0.00000000000E+00  0.00000000000E+00  0.64211664482E+03  0.17320936430E+04  0.16086747971E+04 0.  0.
        1    1    3    3  502    0 -0.78044376221E+03  0.19019570539E+03  0.27677146742E+03  0.84962892931E+03  0.50400001928E-02 0. -1.
       -1    1    3    3    0  502  0.78044376221E+03 -0.19019570539E+03  0.36534517740E+03  0.88246471374E+03  0.50400001928E-02 0.  1.
</event>
<event>
 5   0  0.7395088E-04  0.1588530E+04  0.7818609E-02  0.8827626E-01
       -2   -1    0    0    0  501  0.00000000000E+00  0.00000000000E+00  0.73730140686E+03  0.73730140686E+03  0.25500000920E-02 0.  1.
        2   -1    0    0  501    0  0.00000000000E+00  0.00000000000E+00 -0.85562921418E+03  0.85562921418E+03  0.25500000920E-02 0. -1.
    10030    2    1    2    0    0  0.00000000000E+00  0.00000000000E+00 -0.11832780732E+03  0.15929306210E+04  0.15885296640E+04 0.  0.
        1    1    3    3  502    0 -0.23094477488E+03 -0.73744765217E+03  0.12489868997E+03  0.78279257247E+03  0.50400001928E-02 0.  1.
       -1    1    3    3    0  502  0.23094477488E+03  0.73744765217E+03 -0.24322649729E+03  0.81013804857E+03  0.50400001928E-02 0. -1.
</event>
<event>
 5   0  0.3837251E-04  0.1598533E+04  0.7818609E-02  0.8821450E-01
        1   -1    0    0  501    0  0.00000000000E+00  0.00000000000E+00  0.52618802081E+03  0.52618802083E+03  0.50400001928E-02 0. -1.
       -1   -1    0    0    0  501  0.00000000000E+00  0.00000000000E+00 -0.12140653432E+04  0.12140653432E+04  0.50400001928E-02 0.  1.
    10030    2    1    2    0    0  0.00000000000E+00  0.00000000000E+00 -0.68787732239E+03  0.17402533640E+04  0.15985326273E+04 0.  0.
        4    1    3    3  502    0 -0.62160476214E+03 -0.18304225964E+03 -0.85331845025E+03  0.10714713900E+04  0.12699999809E+01 0.  1.
       -4    1    3    3    0  502  0.62160476214E+03  0.18304225964E+03  0.16544112787E+03  0.66878197405E+03  0.12699999809E+01 0. -1.
</event>
<event>
 5   0  0.7553070E-04  0.1591855E+04  0.7818609E-02  0.8825567E-01
        2   -1    0    0  501    0  0.00000000000E+00  0.00000000000E+00  0.24972403111E+04  0.24972403111E+04  0.25500000920E-02 0.  1.
       -2   -1    0    0    0  501  0.00000000000E+00  0.00000000000E+00 -0.25368035316E+03  0.25368035317E+03  0.25500000920E-02 0. -1.
    10030    2    1    2    0    0  0.00000000000E+00  0.00000000000E+00  0.22435599579E+04  0.27509206643E+04  0.15918552749E+04 0.  0.
        4    1    3    3  502    0 -0.18974932110E+03 -0.35016343604E+03 -0.69095638826E+02  0.40422154445E+03  0.12699999809E+01 0. -1.
       -4    1    3    3    0  502  0.18974932110E+03  0.35016343604E+03  0.23126555968E+04  0.23466991198E+04  0.12699999809E+01 0.  1.
</event>
<event>
 5   0  0.7553070E-04  0.1588157E+04  0.7818609E-02  0.8827857E-01
       -2   -1    0    0    0  501  0.00000000000E+00  0.00000000000E+00  0.93860180528E+03  0.93860180529E+03  0.25500000920E-02 0. -1.
        2   -1    0    0  501    0  0.00000000000E+00  0.00000000000E+00 -0.67180878686E+03  0.67180878687E+03  0.25500000920E-02 0.  1.
    10030    2    1    2    0    0  0.00000000000E+00  0.00000000000E+00  0.26679301842E+03  0.16104105922E+04  0.15881573476E+04 0.  0.
        4    1    3    3  502    0 -0.30285971553E+03  0.38121866549E+03  0.76948813709E+03  0.91058513288E+03  0.12699999809E+01 0. -1.
       -4    1    3    3    0  502  0.30285971553E+03 -0.38121866549E+03 -0.50269511867E+03  0.69982545927E+03  0.12699999809E+01 0.  1.
</event>
<event>
 5   0  0.3950195E-04  0.1592662E+04  0.7818609E-02  0.8825069E-01
       -1   -1    0    0    0  501  0.00000000000E+00  0.00000000000E+00  0.44887743466E+03  0.44887743469E+03  0.50400001928E-02 0. -1.
        1   -1    0    0  501    0  0.00000000000E+00  0.00000000000E+00 -0.14127311778E+04  0.14127311778E+04  0.50400001928E-02 0.  1.
    10030    2    1    2    0    0  0.00000000000E+00  0.00000000000E+00 -0.96385374310E+03  0.18616086125E+04  0.15926621073E+04 0.  0.
        2    1    3    3  502    0 -0.52094734898E+03 -0.44863930195E+03 -0.12223355667E+02  0.68761382628E+03  0.25500000920E-02 0. -1.
       -2    1    3    3    0  502  0.52094734898E+03  0.44863930195E+03 -0.95163038743E+03  0.11739947862E+04  0.25500000920E-02 0.  1.
</event>
<event>
 5   0  0.7395088E-04  0.1608979E+04  0.7818609E-02  0.8815051E-01
       -2   -1    0    0    0  501  0.00000000000E+00  0.00000000000E+00  0.89756980612E+03  0.89756980613E+03  0.25500000920E-02 0.  1.
        2   -1    0    0  501    0  0.00000000000E+00  0.00000000000E+00 -0.72106173429E+03  0.72106173430E+03  0.25500000920E-02 0. -1.
    10030    2    1    2    0    0  0.00000000000E+00  0.00000000000E+00  0.17650807183E+03  0.16186315404E+04  0.16089788576E+04 0.  0.
        1    1    3    3  502    0  0.64337646515E+03  0.18105792103E+03  0.53869911518E+03  0.85843577709E+03  0.50400001928E-02 0.  1.
       -1    1    3    3    0  502 -0.64337646515E+03 -0.18105792103E+03 -0.36219104335E+03  0.76019576333E+03  0.50400001928E-02 0. -1.
</event>
<event>
 5   0  0.4110803E-04  0.1610199E+04  0.7818609E-02  0.8814307E-01
        1   -1    0    0  501    0  0.00000000000E+00  0.00000000000E+00  0.11111152513E+04  0.11111152513E+04  0.50400001928E-02 0. -1.
       -1   -1    0    0    0  501  0.00000000000E+00  0.00000000000E+00 -0.58336480343E+03  0.58336480345E+03  0.50400001928E-02 0.  1.
    10030    2    1    2    0    0  0.00000000000E+00  0.00000000000E+00  0.52775044787E+03  0.16944800548E+04  0.16101994040E+04 0.  0.
        5    1    3    3  502    0 -0.30594505137E+03 -0.74164747149E+03  0.19312455973E+03  0.82520453949E+03  0.46999998093E+01 0. -1.
       -5    1    3    3    0  502  0.30594505137E+03  0.74164747149E+03  0.33462588813E+03  0.86927551526E+03  0.46999998093E+01 0.  1.
</event>
<event>
 5   0  0.4110803E-04  0.1565139E+04  0.7818609E-02  0.8842256E-01
        1   -1    0    0  501    0  0.00000000000E+00  0.00000000000E+00  0.90830752696E+03  0.90830752698E+03  0.50400001928E-02 0.  1.
       -1   -1    0    0    0  501  0.00000000000E+00  0.00000000000E+00 -0.67423731409E+03  0.67423731411E+03  0.50400001928E-02 0. -1.
    10030    2    1    2    0    0  0.00000000000E+00  0.00000000000E+00  0.23407021288E+03  0.15825448411E+04  0.15651387509E+04 0.  0.
        5    1    3    3  502    0  0.19977990326E+03  0.25766008374E+03 -0.60227791180E+03  0.68488064766E+03  0.46999998093E+01 0. -1.
       -5    1    3    3    0  502 -0.19977990326E+03 -0.25766008374E+03  0.83634812468E+03  0.89766419342E+03  0.46999998093E+01 0.  1.
</event>
<event>
 5   0  0.4110803E-04  0.1635339E+04  0.7818609E-02  0.8799127E-01
        1   -1    0    0  501    0  0.00000000000E+00  0.00000000000E+00  0.13975865694E+04  0.13975865694E+04  0.50400001928E-02 0. -1.
       -1   -1    0    0    0  501  0.00000000000E+00  0.00000000000E+00 -0.47838409588E+03  0.47838409591E+03  0.50400001928E-02 0.  1.
    10030    2    1    2    0    0  0.00000000000E+00  0.00000000000E+00  0.91920247349E+03  0.18759706653E+04  0.16353387263E+04 0.  0.
        5    1    3    3  502    0  0.33730439764E+03  0.40272965678E+03  0.11783731052E+04  0.12901746774E+04  0.46999998093E+01 0. -1.
       -5    1    3    3    0  502 -0.33730439764E+03 -0.40272965678E+03 -0.25917063171E+03  0.58579598791E+03  0.46999998093E+01 0.  1.
</event>
<event>
 5   0  0.3950195E-04  0.1601523E+04  0.7818609E-02  0.8819613E-01
       -1   -1    0    0    0  501  0.00000000000E+00  0.00000000000E+00  0.90846505942E+03  0.90846505944E+03  0.50400001928E-02 0.  1.
        1   -1    0    0  501    0  0.00000000000E+00  0.00000000000E+00 -0.70582636659E+03  0.70582636661E+03  0.50400001928E-02 0. -1.
    10030    2    1    2    0    0  0.00000000000E+00  0.00000000000E+00  0.20263869283E+03  0.16142914260E+04  0.16015225157E+04 0.  0.
        2    1    3    3  502    0  0.35736619933E+03  0.26379031254E+03 -0.57026806935E+03  0.72284272172E+03  0.25500000920E-02 0. -1.
       -2    1    3    3    0  502 -0.35736619933E+03 -0.26379031254E+03  0.77290676219E+03  0.89144870433E+03  0.25500000920E-02 0.  1.
</event>
<event>
 5   0  0.7488884E-04  0.1636639E+04  0.7818609E-02  0.8798350E-01
        2   -1    0    0  501    0  0.00000000000E+00  0.00000000000E+00  0.13495429547E+04  0.13495429547E+04  0.25500000920E-02 0.  1.
       -2   -1    0    0    0  501  0.00000000000E+00  0.00000000000E+00 -0.49620281799E+03  0.49620281799E+03  0.25500000920E-02 0. -1.
    10030    2    1    2    0    0  0.00000000000E+00  0.00000000000E+00  0.85334013672E+03  0.18457457727E+04  0.16366392603E+04 0.  0.
        3    1    3    3  502    0  0.40489729329E+03 -0.67246442549E+03  0.68751521469E+03  0.10434689273E+04  0.10100000352E+00 0.  1.
       -3    1    3    3    0  502 -0.40489729329E+03  0.67246442549E+03  0.16582492204E+03  0.80227684538E+03  0.10100000352E+00 0. -1.
</event>
<event>
 5   0  0.7415102E-04  0.1610424E+04  0.7818609E-02  0.8814170E-01
        2   -1    0    0  501    0  0.00000000000E+00  0.00000000000E+00  0.14118499346E+04  0.14118499346E+04  0.25500000920E-02 0. -1.
       -2   -1    0    0    0  501  0.00000000000E+00  0.00000000000E+00 -0.45923165996E+03  0.45923165997E+03  0.25500000920E-02 0.  1.
    10030    2    1    2    0    0  0.00000000000E+00  0.00000000000E+00  0.95261827464E+03  0.18710815946E+04  0.16104237816E+04 0.  0.
        5    1    3    3  502    0  0.24505932848E+03 -0.51991844685E+03  0.11314714776E+04  0.12691016746E+04  0.46999998093E+01 0. -1.
       -5    1    3    3    0  502 -0.24505932848E+03  0.51991844685E+03 -0.17885320295E+03  0.60197991998E+03  0.46999998093E+01 0.  1.
</event>
<event>
 5   0  0.7770905E-04  0.1566939E+04  0.7818609E-02  0.8841120E-01
        2   -1    0    0  501    0  0.00000000000E+00  0.00000000000E+00  0.13182930306E+04  0.13182930306E+04  0.25500000920E-02 0. -1.
       -2   -1    0    0    0  501  0.00000000000E+00  0.00000000000E+00 -0.46562063901E+03  0.46562063901E+03  0.25500000920E-02 0.  1.
    10030    2    1    2    0    0  0.00000000000E+00  0.00000000000E+00  0.85267239157E+03  0.17839136696E+04  0.15669389820E+04 0.  0.
        2    1    3    3  502    0  0.29854180812E+03  0.61185196889E+03 -0.15082713274E+02  0.68096808389E+03  0.25500000920E-02 0. -1.
       -2    1    3    3    0  502 -0.29854180812E+03 -0.61185196889E+03  0.86775510484E+03  0.11029455857E+04  0.25500000920E-02 0.  1.
</event>
<event>
 5   0  0.3950195E-04  0.1599150E+04  0.7818609E-02  0.8821070E-01
        1   -1    0    0  501    0  0.00000000000E+00  0.00000000000E+00  0.17902804030E+04  0.17902804030E+04  0.50400001928E-02 0.  1.
       -1   -1    0    0    0  501  0.00000000000E+00  0.00000000000E+00 -0.35710619641E+03  0.35710619644E+03  0.50400001928E-02 0. -1.
    10030    2    1    2    0    0  0.00000000000E+00  0.00000000000E+00  0.14331742066E+04  0.21473865994E+04  0.15991500558E+04 0.  0.
        2    1    3    3  502    0 -0.45768174230E+03 -0.21381844415E+03 -0.11567429220E+03  0.51823879262E+03  0.25500000920E-02 0. -1.
       -2    1    3    3    0  502  0.45768174230E+03  0.21381844415E+03  0.15488484988E+04  0.16291478068E+04  0.25500000920E-02 0.  1.
</event>
<event>
 5   0  0.7395088E-04  0.1616137E+04  0.7818609E-02  0.8810696E-01
       -2   -1    0    0    0  501  0.00000000000E+00  0.00000000000E+00  0.40149057504E+03  0.40149057505E+03  0.25500000920E-02 0. -1.
        2   -1    0    0  501    0  0.00000000000E+00  0.00000000000E+00 -0.16263754342E+04  0.16263754342E+04  0.25500000920E-02 0.  1.
    10030    2    1    2    0    0  0.00000000000E+00  0.00000000000E+00 -0.12248848592E+04  0.20278660093E+04  0.16161366382E+04 0.  0.
        1    1    3    3  502    0  0.29968384327E+03 -0.60402756920E+03 -0.53665288574E+02  0.67641678978E+03  0.50400001928E-02 0. -1.
       -1    1    3    3    0  502 -0.29968384327E+03  0.60402756920E+03 -0.11712195706E+04  0.13514492195E+04  0.50400001928E-02 0.  1.
</event>
<event>
 5   0  0.2781000E-04  0.1489851E+04  0.7818609E-02  0.8891230E-01
        3   -1    0    0  501    0  0.00000000000E+00  0.00000000000E+00  0.65622898352E+03  0.65622899129E+03  0.10100000352E+00 0. -1.
       -3   -1    0    0    0  501  0.00000000000E+00  0.00000000000E+00 -0.84561052444E+03  0.84561053047E+03  0.10100000352E+00 0.  1.
    10030    2    1    2    0    0  0.00000000000E+00  0.00000000000E+00 -0.18938154092E+03  0.15018395218E+04  0.14898511943E+04 0.  0.
        3    1    3    3  502    0 -0.27886218709E+03  0.67723592964E+03 -0.23180553996E+03  0.76820989471E+03  0.10100000352E+00 0.  1.
       -3    1    3    3    0  502  0.27886218709E+03 -0.67723592964E+03  0.42423999042E+02  0.73362962704E+03  0.10100000352E+00 0. -1.
</event>
<event>
 5   0  0.2781000E-04  0.1641750E+04  0.7818609E-02  0.8795302E-01
       -4   -1    0    0    0  501  0.00000000000E+00  0.00000000000E+00  0.17039273683E+04  0.17039278416E+04  0.12699999809E+01 0. -1.
        4   -1    0    0  501    0  0.00000000000E+00  0.00000000000E+00 -0.39545882737E+03  0.39546086664E+03  0.12699999809E+01 0.  1.
    10030    2    1    2    0    0  0.00000000000E+00  0.00000000000E+00  0.13084685410E+04  0.20993887083E+04  0.16417499888E+04 0.  0.
        5    1    3    3  502    0  0.50223852918E+03 -0.24571539868E+03 -0.11428743917E+03  0.57070421945E+03  0.46999998093E+01 0.  1.
       -5    1    3    3    0  502 -0.50223852918E+03  0.24571539868E+03  0.14227559801E+04  0.15286844888E+04  0.46999998093E+01 0. -1.
</event>
<event>
 5   0  0.3889847E-04  0.1727765E+04  0.7818609E-02  0.8745685E-01
        1   -1    0    0  501    0  0.00000000000E+00  0.00000000000E+00  0.98846251883E+03  0.98846251884E+03  0.50400001928E-02 0. -1.
       -1   -1    0    0    0  501  0.00000000000E+00  0.00000000000E+00 -0.75500405583E+03  0.75500405585E+03  0.50400001928E-02 0.  1.
    10030    2    1    2    0    0  0.00000000000E+00  0.00000000000E+00  0.23345846300E+03  0.17434665747E+04  0.17277652743E+04 0.  0.
        1    1    3    3  502    0  0.13106950731E+03 -0.80436183670E+02 -0.74108073887E+03  0.75686845418E+03  0.50400001928E-02 0.  1.
       -1    1    3    3    0  502 -0.13106950731E+03  0.80436183670E+02  0.97453920187E+03  0.98659812051E+03  0.50400001928E-02 0. -1.
</event>
<event>
 5   0  0.3973227E-04  0.1613663E+04  0.7818609E-02  0.8812198E-01
        1   -1    0    0  501    0  0.00000000000E+00  0.00000000000E+00  0.91794418435E+03  0.91794418437E+03  0.50400001928E-02 0. -1.
       -1   -1    0    0    0  501  0.00000000000E+00  0.00000000000E+00 -0.70916840702E+03  0.70916840704E+03  0.50400001928E-02 0.  1.
    10030    2    1    2    0    0  0.00000000000E+00  0.00000000000E+00  0.20877577734E+03  0.16271125914E+04  0.16136629326E+04 0.  0.
        3    1    3    3  502    0  0.24342105861E+03  0.11600054239E+03  0.87116477438E+03  0.91194189065E+03  0.10100000352E+00 0. -1.
       -3    1    3    3    0  502 -0.24342105861E+03 -0.11600054239E+03 -0.66238899704E+03  0.71517070075E+03  0.10100000352E+00 0.  1.
</event>
<event>
 5   0  0.3950195E-04  0.1694058E+04  0.7818609E-02  0.8764760E-01
        1   -1    0    0  501    0  0.00000000000E+00  0.00000000000E+00  0.93903707160E+03  0.93903707162E+03  0.50400001928E-02 0.  1.
       -1   -1    0    0    0  501  0.00000000000E+00  0.00000000000E+00 -0.76403625767E+03  0.76403625769E+03  0.50400001928E-02 0. -1.
    10030    2    1    2    0    0  0.00000000000E+00  0.00000000000E+00  0.17500081393E+03  0.17030733293E+04  0.16940582871E+04 0.  0.
        2    1    3    3  502    0  0.31452747903E+03 -0.76879927609E+03  0.25414897004E+03  0.86866078590E+03  0.25500000920E-02 0.  1.
       -2    1    3    3    0  502 -0.31452747903E+03  0.76879927609E+03 -0.79148156109E+02  0.83441254341E+03  0.25500000920E-02 0. -1.
</event>
<event>
 5   0  0.3973227E-04  0.1575263E+04  0.7818609E-02  0.8835891E-01
        1   -1    0    0  501    0  0.00000000000E+00  0.00000000000E+00  0.72317792782E+03  0.72317792784E+03  0.50400001928E-02 0. -1.
       -1   -1    0    0    0  501  0.00000000000E+00  0.00000000000E+00 -0.85782977414E+03  0.85782977416E+03  0.50400001928E-02 0.  1.
    10030    2    1    2    0    0  0.00000000000E+00  0.00000000000E+00 -0.13465184632E+03  0.15810077020E+04  0.15752632269E+04 0.  0.
        3    1    3    3  502    0 -0.93762982555E+02  0.78129997875E+03 -0.10124850704E+03  0.79339298212E+03  0.10100000352E+00 0.  1.
       -3    1    3    3    0  502  0.93762982555E+02 -0.78129997875E+03 -0.33403339278E+02  0.78761471988E+03  0.10100000352E+00 0. -1.
</event>
<event>
 5   0  0.3837251E-04  0.1578842E+04  0.7818609E-02  0.8833653E-01
        1   -1    0    0  501    0  0.00000000000E+00  0.00000000000E+00  0.24028745313E+04  0.24028745313E+04  0.50400001928E-02 0.  1.
       -1   -1    0    0    0  501  0.00000000000E+00  0.00000000000E+00 -0.25934997730E+03  0.25934997735E+03  0.50400001928E-02 0. -1.
    10030    2    1    2    0    0  0.00000000000E+00  0.00000000000E+00  0.21435245540E+04  0.26622245087E+04  0.15788419240E+04 0.  0.
        4    1    3    3  502    0  0.32176179561E+03 -0.97315515823E+01  0.22871735179E+04  0.23097163614E+04  0.12699999809E+01 0.  1.
       -4    1    3    3    0  502 -0.32176179561E+03  0.97315515823E+01 -0.14364896384E+03  0.35250814731E+03  0.12699999809E+01 0. -1.
</event>
<event>
 5   0  0.3950195E-04  0.1639946E+04  0.7818609E-02  0.8796377E-01
        1   -1    0    0  501    0  0.00000000000E+00  0.00000000000E+00  0.69692250058E+03  0.69692250060E+03  0.50400001928E-02 0.  1.
       -1   -1    0    0    0  501  0.00000000000E+00  0.00000000000E+00 -0.96474961438E+03  0.96474961440E+03  0.50400001928E-02 0. -1.
    10030    2    1    2    0    0  0.00000000000E+00  0.00000000000E+00 -0.26782711380E+03  0.16616721150E+04  0.16399459914E+04 0.  0.
        2    1    3    3  502    0  0.25417026837E+03  0.42137044907E+03 -0.79849935518E+03  0.93795351745E+03  0.25500000920E-02 0. -1.
       -2    1    3    3    0  502 -0.25417026837E+03 -0.42137044907E+03  0.53067224137E+03  0.72371859755E+03  0.25500000920E-02 0.  1.
</event>
<event>
 5   0  0.7770905E-04  0.1537836E+04  0.7818609E-02  0.8859675E-01
       -2   -1    0    0    0  501  0.00000000000E+00  0.00000000000E+00  0.35644419791E+03  0.35644419791E+03  0.25500000920E-02 0. -1.
        2   -1    0    0  501    0  0.00000000000E+00  0.00000000000E+00 -0.16587021014E+04  0.16587021014E+04  0.25500000920E-02 0.  1.
    10030    2    1    2    0    0  0.00000000000E+00  0.00000000000E+00 -0.13022579035E+04  0.20151462993E+04  0.15378358041E+04 0.  0.
        2    1    3    3  502    0  0.49360206368E+03  0.52191583672E+03 -0.10104584197E+04  0.12397843989E+04  0.25500000920E-02 0. -1.
       -2    1    3    3    0  502 -0.49360206368E+03 -0.52191583672E+03 -0.29179948387E+03  0.77536190045E+03  0.25500000920E-02 0.  1.
</event>
<event>
 5   0  0.3950195E-04  0.1582710E+04  0.7818609E-02  0.8831241E-01
       -1   -1    0    0    0  501  0.00000000000E+00  0.00000000000E+00  0.75483256461E+03  0.75483256462E+03  0.50400001928E-02 0. -1.
        1   -1    0    0  501    0  0.00000000000E+00  0.00000000000E+00 -0.82964444600E+03  0.82964444601E+03  0.50400001928E-02 0.  1.
    10030    2    1    2    0    0  0.00000000000E+00  0.00000000000E+00 -0.74811881391E+02  0.15844770106E+04  0.15827098849E+04 0.  0.
        2    1    3    3  502    0 -0.28939549692E+03 -0.30184436525E+03 -0.71000640777E+03  0.82399567568E+03  0.25500000920E-02 0.  1.
       -2    1    3    3    0  502  0.28939549692E+03  0.30184436525E+03  0.63519452637E+03  0.76048133495E+03  0.25500000920E-02 0. -1.
</event>
<event>
 5   0  0.4110803E-04  0.1530081E+04  0.7818609E-02  0.8864692E-01
        1   -1    0    0  501    0  0.00000000000E+00  0.00000000000E+00  0.17567033556E+04  0.17567033556E+04  0.50400001928E-02 0. -1.
       -1   -1    0    0    0  501  0.00000000000E+00  0.00000000000E+00 -0.33317338479E+03  0.33317338482E+03  0.50400001928E-02 0.  1.
    10030    2    1    2    0    0  0.00000000000E+00  0.00000000000E+00  0.14235299708E+04  0.20898767404E+04  0.15300807862E+04 0.  0.
        5    1    3    3  502    0  0.67123392614E+03  0.31279841876E+03  0.97402041965E+03  0.12235749680E+04  0.46999998093E+01 0.  1.
       -5    1    3    3    0  502 -0.67123392614E+03 -0.31279841876E+03  0.44950955118E+03  0.86630177247E+03  0.46999998093E+01 0. -1.
</event>
<event>
 5   0  0.2781000E-04  0.1569360E+04  0.7818609E-02  0.8839596E-01
        3   -1    0    0  501    0  0.00000000000E+00  0.00000000000E+00  0.10015484863E+04  0.10015484914E+04  0.10100000352E+00 0. -1.
       -3   -1    0    0    0  501  0.00000000000E+00  0.00000000000E+00 -0.61477077986E+03  0.61477078816E+03  0.10100000352E+00 0.  1.
    10030    2    1    2    0    0  0.00000000000E+00  0.00000000000E+00  0.38677770643E+03  0.16163192795E+04  0.15693600668E+04 0.  0.
        1    1    3    3  502    0  0.42824182737E+03  0.64353017892E+03  0.54442414887E+02  0.77491040157E+03  0.50400001928E-02 0.  1.
       -1    1    3    3    0  502 -0.42824182737E+03 -0.64353017892E+03  0.33233529154E+03  0.84140887797E+03  0.50400001928E-02 0. -1.
</event>
<event>
 5   0  0.7488884E-04  0.1591820E+04  0.7818609E-02  0.8825589E-01
        2   -1    0    0  501    0  0.00000000000E+00  0.00000000000E+00  0.11211187671E+04  0.11211187671E+04  0.25500000920E-02 0.  1.
       -2   -1    0    0    0  501  0.00000000000E+00  0.00000000000E+00 -0.56503652208E+03  0.56503652209E+03  0.25500000920E-02 0. -1.
    10030    2    1    2    0    0  0.00000000000E+00  0.00000000000E+00  0.55608224502E+03  0.16861552892E+04  0.15918204032E+04 0.  0.
        3    1    3    3  502    0 -0.29694837446E+03  0.17988541528E+03  0.10366799508E+04  0.10932714349E+04  0.10100000352E+00 0.  1.
       -3    1    3    3    0  502  0.29694837446E+03 -0.17988541528E+03 -0.48059770577E+03  0.59288385433E+03  0.10100000352E+00 0. -1.
</event>
<event>
 5   0  0.7488884E-04  0.1624298E+04  0.7818609E-02  0.8805758E-01
        2   -1    0    0  501    0  0.00000000000E+00  0.00000000000E+00  0.13558811207E+04  0.13558811207E+04  0.25500000920E-02 0.  1.
       -2   -1    0    0    0  501  0.00000000000E+00  0.00000000000E+00 -0.48646304290E+03  0.48646304291E+03  0.25500000920E-02 0. -1.
    10030    2    1    2    0    0  0.00000000000E+00  0.00000000000E+00  0.86941807776E+03  0.18423441636E+04  0.16242980709E+04 0.  0.
        3    1    3    3  502    0 -0.79794668109E+03  0.14948872964E+03  0.40883793183E+03  0.90896328356E+03  0.10100000352E+00 0. -1.
       -3    1    3    3    0  502  0.79794668109E+03 -0.14948872964E+03  0.46058014592E+03  0.93338088001E+03  0.10100000352E+00 0.  1.
</event>
<event>
 5   0  0.7553070E-04  0.1644644E+04  0.7818609E-02  0.8793582E-01
        2   -1    0    0  501    0  0.00000000000E+00  0.00000000000E+00  0.11189361489E+04  0.11189361489E+04  0.25500000920E-02 0. -1.
       -2   -1    0    0    0  501  0.00000000000E+00  0.00000000000E+00 -0.60433578442E+03  0.60433578442E+03  0.25500000920E-02 0.  1.
    10030    2    1    2    0    0  0.00000000000E+00  0.00000000000E+00  0.51460036447E+03  0.17232719333E+04  0.16446436152E+04 0.  0.
        4    1    3    3  502    0 -0.37607154838E+03 -0.69239208805E+03  0.50386925597E+03  0.93526597987E+03  0.12699999809E+01 0. -1.
       -4    1    3    3    0  502  0.37607154838E+03  0.69239208805E+03  0.10731108507E+02  0.78800595345E+03  0.12699999809E+01 0.  1.
</event>
<event>
 5   0  0.7488884E-04  0.1960723E+04  0.7818609E-02  0.8625207E-01
        2   -1    0    0  501    0  0.00000000000E+00  0.00000000000E+00  0.96534182471E+03  0.96534182471E+03  0.25500000920E-02 0. -1.
       -2   -1    0    0    0  501  0.00000000000E+00  0.00000000000E+00 -0.99561528092E+03  0.99561528092E+03  0.25500000920E-02 0.  1.
    10030    2    1    2    0    0  0.00000000000E+00  0.00000000000E+00 -0.30273456211E+02  0.19609571056E+04  0.19607234094E+04 0.  0.
        3    1    3    3  502    0 -0.69703452596E+03 -0.67452082710E+03  0.12726558323E+03  0.97828013138E+03  0.10100000352E+00 0.  1.
       -3    1    3    3    0  502  0.69703452596E+03  0.67452082710E+03 -0.15753903944E+03  0.98267697425E+03  0.10100000352E+00 0. -1.
</event>
<event>
 5   0  0.7395088E-04  0.1604737E+04  0.7818609E-02  0.8817643E-01
        2   -1    0    0  501    0  0.00000000000E+00  0.00000000000E+00  0.18735226881E+04  0.18735226881E+04  0.25500000920E-02 0.  1.
       -2   -1    0    0    0  501  0.00000000000E+00  0.00000000000E+00 -0.34362812387E+03  0.34362812388E+03  0.25500000920E-02 0. -1.
    10030    2    1    2    0    0  0.00000000000E+00  0.00000000000E+00  0.15298945642E+04  0.22171508120E+04  0.16047368462E+04 0.  0.
        1    1    3    3  502    0 -0.80165542156E+03  0.60764034568E+00  0.71823060692E+03  0.10763396253E+04  0.50400001928E-02 0.  1.
       -1    1    3    3    0  502  0.80165542156E+03 -0.60764034568E+00  0.81166395732E+03  0.11408111867E+04  0.50400001928E-02 0. -1.
</event>
<event>
 5   0  0.7415102E-04  0.1620546E+04  0.7818609E-02  0.8808024E-01
       -2   -1    0    0    0  501  0.00000000000E+00  0.00000000000E+00  0.10259049419E+04  0.10259049419E+04  0.25500000920E-02 0.  1.
        2   -1    0    0  501    0  0.00000000000E+00  0.00000000000E+00 -0.63996406167E+03  0.63996406168E+03  0.25500000920E-02 0. -1.
    10030    2    1    2    0    0  0.00000000000E+00  0.00000000000E+00  0.38594088018E+03  0.16658690035E+04  0.16205459493E+04 0.  0.
        5    1    3    3  502    0  0.80308824933E+03  0.62857406227E+02  0.10324578954E+03  0.81214750679E+03  0.46999998093E+01 0. -1.
       -5    1    3    3    0  502 -0.80308824933E+03 -0.62857406227E+02  0.28269509065E+03  0.85372149675E+03  0.46999998093E+01 0.  1.
</event>
<event>
 5   0  0.7415102E-04  0.1480127E+04  0.7818609E-02  0.8897777E-01
        2   -1    0    0  501    0  0.00000000000E+00  0.00000000000E+00  0.91534038960E+03  0.91534038961E+03  0.25500000920E-02 0. -1.
       -2   -1    0    0    0  501  0.00000000000E+00  0.00000000000E+00 -0.59834999114E+03  0.59834999115E+03  0.25500000920E-02 0.  1.
    10030    2    1    2    0    0  0.00000000000E+00  0.00000000000E+00  0.31699039846E+03  0.15136903808E+04  0.14801269054E+04 0.  0.
        5    1    3    3  502    0 -0.57891400134E+03 -0.27397826278E+03 -0.22067678622E+03  0.67744065674E+03  0.46999998093E+01 0.  1.
       -5    1    3    3    0  502  0.57891400134E+03  0.27397826278E+03  0.53766718468E+03  0.83624972401E+03  0.46999998093E+01 0. -1.
</event>
<event>
 5   0  0.3973227E-04  0.1644102E+04  0.7818609E-02  0.8793903E-01
       -1   -1    0    0    0  501  0.00000000000E+00  0.00000000000E+00  0.10803086447E+04  0.10803086447E+04  0.50400001928E-02 0.  1.
        1   -1    0    0  501    0  0.00000000000E+00  0.00000000000E+00 -0.62553250155E+03  0.62553250157E+03  0.50400001928E-02 0. -1.
    10030    2    1    2    0    0  0.00000000000E+00  0.00000000000E+00  0.45477614317E+03  0.17058411463E+04  0.16441023922E+04 0.  0.
        3    1    3    3  502    0  0.56229079984E+03  0.59127483799E+03  0.33109799537E+03  0.88056957157E+03  0.10100000352E+00 0.  1.
       -3    1    3    3    0  502 -0.56229079984E+03 -0.59127483799E+03  0.12367814780E+03  0.82527157474E+03  0.10100000352E+00 0. -1.
</event>
<event>
 5   0  0.3889847E-04  0.1677071E+04  0.7818609E-02  0.8774551E-01
       -1   -1    0    0    0  501  0.00000000000E+00  0.00000000000E+00  0.11901829334E+04  0.11901829334E+04  0.50400001928E-02 0. -1.
        1   -1    0    0  501    0  0.00000000000E+00  0.00000000000E+00 -0.59078430813E+03  0.59078430815E+03  0.50400001928E-02 0.  1.
    10030    2    1    2    0    0  0.00000000000E+00  0.00000000000E+00  0.59939862523E+03  0.17809672415E+04  0.16770705422E+04 0.  0.
        1    1    3    3  502    0  0.22877636924E+03  0.77477298720E+03  0.60985528948E+02  0.81014260694E+03  0.50400001928E-02 0. -1.
       -1    1    3    3    0  502 -0.22877636924E+03 -0.77477298720E+03  0.53841309628E+03  0.97082463457E+03  0.50400001928E-02 0.  1.
</event>
<event>
 5   0  0.3973227E-04  0.1557635E+04  0.7818609E-02  0.8847006E-01
        1   -1    0    0  501    0  0.00000000000E+00  0.00000000000E+00  0.17212566877E+04  0.17212566877E+04  0.50400001928E-02 0.  1.
       -1   -1    0    0    0  501  0.00000000000E+00  0.00000000000E+00 -0.35239165551E+03  0.35239165555E+03  0.50400001928E-02 0. -1.
    10030    2    1    2    0    0  0.00000000000E+00  0.00000000000E+00  0.13688650322E+04  0.20736483433E+04  0.15576347374E+04 0.  0.
        3    1    3    3  502    0  0.36641773783E+03 -0.59435057827E+03  0.11437568327E+04  0.13400351753E+04  0.10100000352E+00 0.  1.
       -3    1    3    3    0  502 -0.36641773783E+03  0.59435057827E+03  0.22510819946E+03  0.73361316793E+03  0.10100000352E+00 0. -1.
</event>
<event>
 5   0  0.3889847E-04  0.1580638E+04  0.7818609E-02  0.8832532E-01
        1   -1    0    0  501    0  0.00000000000E+00  0.00000000000E+00  0.57341868130E+03  0.57341868132E+03  0.50400001928E-02 0. -1.
       -1   -1    0    0    0  501  0.00000000000E+00  0.00000000000E+00 -0.10892629656E+04  0.10892629656E+04  0.50400001928E-02 0.  1.
    10030    2    1    2    0    0  0.00000000000E+00  0.00000000000E+00 -0.51584428432E+03  0.16626816470E+04  0.15806375086E+04 0.  0.
        1    1    3    3  502    0  0.56373734587E+02  0.49034429188E+03 -0.90720298338E+03  0.10327791514E+04  0.50400001928E-02 0.  1.
       -1    1    3    3    0  502 -0.56373734587E+02 -0.49034429188E+03  0.39135869906E+03  0.62990249553E+03  0.50400001928E-02 0. -1.
</event>
<event>
 5   0  0.3837251E-04  0.1619273E+04  0.7818609E-02  0.8808795E-01
       -1   -1    0    0    0  501  0.00000000000E+00  0.00000000000E+00  0.94410701722E+03  0.94410701723E+03  0.50400001928E-02 0.  1.
        1   -1    0    0  501    0  0.00000000000E+00  0.00000000000E+00 -0.69431867339E+03  0.69431867340E+03  0.50400001928E-02 0. -1.
    10030    2    1    2    0    0  0.00000000000E+00  0.00000000000E+00  0.24978834383E+03  0.16384256906E+04  0.16192728390E+04 0.  0.
        4    1    3    3  502    0 -0.43898256180E+03  0.55070951427E+02  0.81097852439E+03  0.92381073774E+03  0.12699999809E+01 0.  1.
       -4    1    3    3    0  502  0.43898256180E+03 -0.55070951427E+02 -0.56119018055E+03  0.71461495290E+03  0.12699999809E+01 0. -1.
</event>
<event>
 5   0  0.7553070E-04  0.1612425E+04  0.7818609E-02  0.8812951E-01
       -2   -1    0    0    0  501  0.00000000000E+00  0.00000000000E+00  0.81167005895E+03  0.81167005896E+03  0.25500000920E-02 0. -1.
        2   -1    0    0  501    0  0.00000000000E+00  0.00000000000E+00 -0.80079126040E+03  0.80079126040E+03  0.25500000920E-02 0.  1.
    10030    2    1    2    0    0  0.00000000000E+00  0.00000000000E+00  0.10878798556E+02  0.16124613194E+04  0.16124246209E+04 0.  0.
        4    1    3    3  502    0  0.46644803359E+03  0.23115946453E+03 -0.61017855142E+03  0.80207726785E+03  0.12699999809E+01 0.  1.
       -4    1    3    3    0  502 -0.46644803359E+03 -0.23115946453E+03  0.62105734998E+03  0.81038405151E+03  0.12699999809E+01 0. -1.
</event>
<event>
 5   0  0.7415102E-04  0.1581502E+04  0.7818609E-02  0.8831993E-01
       -2   -1    0    0    0  501  0.00000000000E+00  0.00000000000E+00  0.41552195175E+03  0.41552195176E+03  0.25500000920E-02 0. -1.
        2   -1    0    0  501    0  0.00000000000E+00  0.00000000000E+00 -0.15048236631E+04  0.15048236631E+04  0.25500000920E-02 0.  1.
    10030    2    1    2    0    0  0.00000000000E+00  0.00000000000E+00 -0.10893017113E+04  0.19203456148E+04  0.15815021537E+04 0.  0.
        5    1    3    3  502    0 -0.73323712174E+03 -0.61865170045E+02 -0.89615846263E+03  0.11595628729E+04  0.46999998093E+01 0. -1.
       -5    1    3    3    0  502  0.73323712174E+03  0.61865170045E+02 -0.19314324869E+03  0.76078274197E+03  0.46999998093E+01 0.  1.
</event>
<event>
 5   0  0.3889847E-04  0.1576058E+04  0.7818609E-02  0.8835393E-01
       -1   -1    0    0    0  501  0.00000000000E+00  0.00000000000E+00  0.15137798668E+04  0.15137798668E+04  0.50400001928E-02 0. -1.
        1   -1    0    0  501    0  0.00000000000E+00  0.00000000000E+00 -0.41022474464E+03  0.41022474467E+03  0.50400001928E-02 0.  1.
    10030    2    1    2    0    0  0.00000000000E+00  0.00000000000E+00  0.11035551222E+04  0.19240046115E+04  0.15760583229E+04 0.  0.
        1    1    3    3  502    0 -0.18625141903E+03  0.26039860322E+03  0.14308106953E+04  0.14661910754E+04  0.50400001928E-02 0. -1.
       -1    1    3    3    0  502  0.18625141903E+03 -0.26039860322E+03 -0.32725557316E+03  0.45781353610E+03  0.50400001928E-02 0.  1.
</event>
<event>
 5   0  0.7488884E-04  0.1581342E+04  0.7818609E-02  0.8832093E-01
       -2   -1    0    0    0  501  0.00000000000E+00  0.00000000000E+00  0.52046370463E+03  0.52046370463E+03  0.25500000920E-02 0. -1.
        2   -1    0    0  501    0  0.00000000000E+00  0.00000000000E+00 -0.12011602209E+04  0.12011602209E+04  0.25500000920E-02 0.  1.
    10030    2    1    2    0    0  0.00000000000E+00  0.00000000000E+00 -0.68069651628E+03  0.17216239255E+04  0.15813415803E+04 0.  0.
        3    1    3    3  502    0  0.23696961801E+03 -0.74022967915E+03 -0.49836410915E+03  0.92328834783E+03  0.10100000352E+00 0. -1.
       -3    1    3    3    0  502 -0.23696961801E+03  0.74022967915E+03 -0.18233240713E+03  0.79833557771E+03  0.10100000352E+00 0.  1.
</event>
<event>
 5   0  0.7395088E-04  0.1629652E+04  0.7818609E-02  0.8802536E-01
       -2   -1    0    0    0  501  0.00000000000E+00  0.00000000000E+00  0.11545779978E+04  0.11545779978E+04  0.25500000920E-02 0.  1.
        2   -1    0    0  501    0  0.00000000000E+00  0.00000000000E+00 -0.57505147691E+03  0.57505147691E+03  0.25500000920E-02 0. -1.
    10030    2    1    2    0    0  0.00000000000E+00  0.00000000000E+00  0.57952652087E+03  0.17296294747E+04  0.16296524572E+04 0.  0.
        1    1    3    3  502    0 -0.44116505538E+03  0.17342175239E+03  0.99317410399E+03  0.11004983013E+04  0.50400001928E-02 0.  1.
       -1    1    3    3    0  502  0.44116505538E+03 -0.17342175239E+03 -0.41364758312E+03  0.62913117339E+03  0.50400001928E-02 0. -1.
</event>
<event>
 5   0  0.7770905E-04  0.1616670E+04  0.7818609E-02  0.8810372E-01
        2   -1    0    0  501    0  0.00000000000E+00  0.00000000000E+00  0.56794268727E+03  0.56794268728E+03  0.25500000920E-02 0. -1.
       -2   -1    0    0    0  501  0.00000000000E+00  0.00000000000E+00 -0.11504781830E+04  0.11504781830E+04  0.25500000920E-02 0.  1.
    10030    2    1    2    0    0  0.00000000000E+00  0.00000000000E+00 -0.58253549577E+03  0.17184208703E+04  0.16166702458E+04 0.  0.
        2    1    3    3  502    0 -0.55117833557E+02  0.60741954473E+03  0.27259997185E+03  0.66806229018E+03  0.25500000920E-02 0. -1.
       -2    1    3    3    0  502  0.55117833557E+02 -0.60741954473E+03 -0.85513546762E+03  0.10503585801E+04  0.25500000920E-02 0.  1.
</event>
<event>
 5   0  0.3950195E-04  0.1613254E+04  0.7818609E-02  0.8812446E-01
        1   -1    0    0  501    0  0.00000000000E+00  0.00000000000E+00  0.15222296708E+04  0.15222296708E+04  0.50400001928E-02 0.  1.
       -1   -1    0    0    0  501  0.00000000000E+00  0.00000000000E+00 -0.42743050038E+03  0.42743050041E+03  0.50400001928E-02 0. -1.
    10030    2    1    2    0    0  0.00000000000E+00  0.00000000000E+00  0.10947991704E+04  0.19496601712E+04  0.16132543382E+04 0.  0.
        2    1    3    3  502    0 -0.10957227501E+02  0.59378397486E+03  0.12070688611E+04  0.13452563715E+04  0.25500000920E-02 0.  1.
       -2    1    3    3    0  502  0.10957227501E+02 -0.59378397486E+03 -0.11226969070E+03  0.60440379970E+03  0.25500000920E-02 0. -1.
</event>
<event>
 5   0  0.3837251E-04  0.1569783E+04  0.7818609E-02  0.8839330E-01
        1   -1    0    0  501    0  0.00000000000E+00  0.00000000000E+00  0.79806371762E+03  0.79806371764E+03  0.50400001928E-02 0. -1.
       -1   -1    0    0    0  501  0.00000000000E+00  0.00000000000E+00 -0.77193661361E+03  0.77193661363E+03  0.50400001928E-02 0.  1.
    10030    2    1    2    0    0  0.00000000000E+00  0.00000000000E+00  0.26127104009E+02  0.15700003313E+04  0.15697829196E+04 0.  0.
        4    1    3    3  502    0 -0.67723467261E+03  0.39671196346E+03  0.18144315407E+02  0.78508471698E+03  0.12699999809E+01 0.  1.
       -4    1    3    3    0  502  0.67723467261E+03 -0.39671196346E+03  0.79827886017E+01  0.78491561429E+03  0.12699999809E+01 0. -1.
</event>
<event>
 5   0  0.7415102E-04  0.1465031E+04  0.7818609E-02  0.8908046E-01
        2   -1    0    0  501    0  0.00000000000E+00  0.00000000000E+00  0.74818294253E+03  0.74818294254E+03  0.25500000920E-02 0.  1.
       -2   -1    0    0    0  501  0.00000000000E+00  0.00000000000E+00 -0.71717591487E+03  0.71717591488E+03  0.25500000920E-02 0. -1.
    10030    2    1    2    0    0  0.00000000000E+00  0.00000000000E+00  0.31007027658E+02  0.14653588574E+04  0.14650307660E+04 0.  0.
        5    1    3    3  502    0 -0.40938347385E+03 -0.32816591177E+03  0.52676277947E+03  0.74349768671E+03  0.46999998093E+01 0.  1.
       -5    1    3    3    0  502  0.40938347385E+03  0.32816591177E+03 -0.49575575182E+03  0.72186117070E+03  0.46999998093E+01 0. -1.
</event>
<event>
 5   0  0.2781000E-04  0.1607817E+04  0.7818609E-02  0.8815760E-01
       -4   -1    0    0    0  501  0.00000000000E+00  0.00000000000E+00  0.15951045950E+04  0.15951051006E+04  0.12699999809E+01 0.  1.
        4   -1    0    0  501    0  0.00000000000E+00  0.00000000000E+00 -0.40515599853E+03  0.40515798899E+03  0.12699999809E+01 0. -1.
    10030    2    1    2    0    0  0.00000000000E+00  0.00000000000E+00  0.11899485965E+04  0.20002630896E+04  0.16078167698E+04 0.  0.
        3    1    3    3  502    0  0.80282925170E+03  0.41628319137E+02  0.59619119364E+03  0.10008554710E+04  0.10100000352E+00 0. -1.
       -3    1    3    3    0  502 -0.80282925170E+03 -0.41628319137E+02  0.59375740281E+03  0.99940761851E+03  0.10100000352E+00 0.  1.
</event>
<event>
 5   0  0.4110803E-04  0.1595098E+04  0.7818609E-02  0.8823565E-01
        1   -1    0    0  501    0  0.00000000000E+00  0.00000000000E+00  0.21611580256E+04  0.21611580256E+04  0.50400001928E-02 0. -1.
       -1   -1    0    0    0  501  0.00000000000E+00  0.00000000000E+00 -0.29432559729E+03  0.29432559734E+03  0.50400001928E-02 0.  1.
    10030    2    1    2    0    0  0.00000000000E+00  0.00000000000E+00  0.18668324283E+04  0.24554836230E+04  0.15950976482E+04 0.  0.
        5    1    3    3  502    0  0.18588241605E+03 -0.39603994053E+03 -0.93097696584E+02  0.44731328865E+03  0.46999998093E+01 0.  1.
       -5    1    3    3    0  502 -0.18588241605E+03  0.39603994053E+03  0.19599301249E+04  0.20081703343E+04  0.46999998093E+01 0. -1.
</event>
<event>
 5   0  0.3837251E-04  0.1610823E+04  0.7818609E-02  0.8813927E-01
       -1   -1    0    0    0  501  0.00000000000E+00  0.00000000000E+00  0.96109700518E+03  0.96109700520E+03  0.50400001928E-02 0. -1.
        1   -1    0    0  501    0  0.00000000000E+00  0.00000000000E+00 -0.67494501549E+03  0.67494501551E+03  0.50400001928E-02 0.  1.
    10030    2    1    2    0    0  0.00000000000E+00  0.00000000000E+00  0.28615198969E+03  0.16360420207E+04  0.16108229364E+04 0.  0.
        4    1    3    3  502    0 -0.60319774960E+03 -0.39787345494E+03 -0.21821101145E+03  0.75483009326E+03  0.12699999809E+01 0.  1.
       -4    1    3    3    0  502  0.60319774960E+03  0.39787345494E+03  0.50436300114E+03  0.88121192745E+03  0.12699999809E+01 0. -1.
</event>
<event>
 5   0  0.3973227E-04  0.1597993E+04  0.7818609E-02  0.8821782E-01
       -1   -1    0    0    0  501  0.00000000000E+00  0.00000000000E+00  0.67667462477E+03  0.67667462479E+03  0.50400001928E-02 0. -1.
        1   -1    0    0  501    0  0.00000000000E+00  0.00000000000E+00 -0.94342995771E+03  0.94342995772E+03  0.50400001928E-02 0.  1.
    10030    2    1    2    0    0  0.00000000000E+00  0.00000000000E+00 -0.26675533294E+03  0.16201045825E+04  0.15979926316E+04 0.  0.
        3    1    3    3  502    0 -0.24025234600E+03  0.76176665329E+03 -0.15328295281E+03  0.81332975948E+03  0.10100000352E+00 0.  1.
       -3    1    3    3    0  502  0.24025234600E+03 -0.76176665329E+03 -0.11347238013E+03  0.80677482303E+03  0.10100000352E+00 0. -1.
</event>
<event>
 5   0  0.4110803E-04  0.1669954E+04  0.7818609E-02  0.8778688E-01
        1   -1    0    0  501    0  0.00000000000E+00  0.00000000000E+00  0.70764027408E+03  0.70764027410E+03  0.50400001928E-02 0. -1.
       -1   -1    0    0    0  501  0.00000000000E+00  0.00000000000E+00 -0.98522795988E+03  0.98522795989E+03  0.50400001928E-02 0.  1.
    10030    2    1    2    0    0  0.00000000000E+00  0.00000000000E+00 -0.27758768580E+03  0.16928682340E+04  0.16699544707E+04 0.  0.
        5    1    3    3  502    0  0.53118640170E+03  0.38439897852E+03  0.38525523194E+03  0.76050328847E+03  0.46999998093E+01 0. -1.
       -5    1    3    3    0  502 -0.53118640170E+03 -0.38439897852E+03 -0.66284291774E+03  0.93236494552E+03  0.46999998093E+01 0.  1.
</event>
<event>
 5   0  0.3889847E-04  0.1579313E+04  0.7818609E-02  0.8833359E-01
       -1   -1    0    0    0  501  0.00000000000E+00  0.00000000000E+00  0.55113857000E+03  0.55113857002E+03  0.50400001928E-02 0. -1.
        1   -1    0    0  501    0  0.00000000000E+00  0.00000000000E+00 -0.11313985644E+04  0.11313985644E+04  0.50400001928E-02 0.  1.
    10030    2    1    2    0    0  0.00000000000E+00  0.00000000000E+00 -0.58025999440E+03  0.16825371344E+04  0.15793129986E+04 0.  0.
        1    1    3    3  502    0 -0.54188119246E+03 -0.50828267106E+03 -0.57514298200E+03  0.93956157340E+03  0.50400001928E-02 0. -1.
       -1    1    3    3    0  502  0.54188119246E+03  0.50828267106E+03 -0.51170124027E+01  0.74297556103E+03  0.50400001928E-02 0.  1.
</event>
<event>
 5   0  0.2781000E-04  0.1579363E+04  0.7818609E-02  0.8833327E-01
        3   -1    0    0  501    0  0.00000000000E+00  0.00000000000E+00  0.73383779070E+03  0.73383779765E+03  0.10100000352E+00 0.  1.
       -3   -1    0    0    0  501  0.00000000000E+00  0.00000000000E+00 -0.84977523957E+03  0.84977524557E+03  0.10100000352E+00 0. -1.
    10030    2    1    2    0    0  0.00000000000E+00  0.00000000000E+00 -0.11593744887E+03  0.15836130432E+04  0.15793634093E+04 0.  0.
        1    1    3    3  502    0  0.70787186306E+03  0.29987819954E+03  0.12303760293E+03  0.77855491831E+03  0.50400001928E-02 0.  1.
       -1    1    3    3    0  502 -0.70787186306E+03 -0.29987819954E+03 -0.23897505180E+03  0.80505812490E+03  0.50400001928E-02 0. -1.
</event>
<event>
 5   0  0.7395088E-04  0.1588190E+04  0.7818609E-02  0.8827836E-01
       -2   -1    0    0    0  501  0.00000000000E+00  0.00000000000E+00  0.54388618380E+03  0.54388618380E+03  0.25500000920E-02 0.  1.
        2   -1    0    0  501    0  0.00000000000E+00  0.00000000000E+00 -0.11594099208E+04  0.11594099208E+04  0.25500000920E-02 0. -1.
    10030    2    1    2    0    0  0.00000000000E+00  0.00000000000E+00 -0.61552373701E+03  0.17032961046E+04  0.15881902119E+04 0.  0.
        1    1    3    3  502    0  0.12497685398E+03  0.18293129153E+03 -0.11255936406E+04  0.11471896597E+04  0.50400001928E-02 0. -1.
       -1    1    3    3    0  502 -0.12497685398E+03 -0.18293129153E+03  0.51006990363E+03  0.55610644491E+03  0.50400001928E-02 0.  1.
</event>
<event>
 5   0  0.3889847E-04  0.1602582E+04  0.7818609E-02  0.8818963E-01
        1   -1    0    0  501    0  0.00000000000E+00  0.00000000000E+00  0.16415547240E+04  0.16415547240E+04  0.50400001928E-02 0.  1.
       -1   -1    0    0    0  501  0.00000000000E+00  0.00000000000E+00 -0.39113387861E+03  0.39113387864E+03  0.50400001928E-02 0. -1.
    10030    2    1    2    0    0  0.00000000000E+00  0.00000000000E+00  0.12504208454E+04  0.20326886027E+04  0.16025824986E+04 0.  0.
        1    1    3    3  502    0  0.64752522209E+03 -0.94329838031E+02  0.38618351475E+02  0.65549859548E+03  0.50400001928E-02 0. -1.
       -1    1    3    3    0  502 -0.64752522209E+03  0.94329838031E+02  0.12118024939E+04  0.13771900072E+04  0.50400001928E-02 0.  1.
</event>
<event>
 5   0  0.7553070E-04  0.1595171E+04  0.7818609E-02  0.8823520E-01
       -2   -1    0    0    0  501  0.00000000000E+00  0.00000000000E+00  0.10362150579E+04  0.10362150579E+04  0.25500000920E-02 0.  1.
        2   -1    0    0  501    0  0.00000000000E+00  0.00000000000E+00 -0.61391019439E+03  0.61391019440E+03  0.25500000920E-02 0. -1.
    10030    2    1    2    0    0  0.00000000000E+00  0.00000000000E+00  0.42230486346E+03  0.16501252523E+04  0.15951714486E+04 0.  0.
        4    1    3    3  502    0 -0.54061870659E+03 -0.85549010344E+02  0.81127094047E+03  0.97864670379E+03  0.12699999809E+01 0.  1.
       -4    1    3    3    0  502  0.54061870659E+03  0.85549010344E+02 -0.38896607701E+03  0.67147854847E+03  0.12699999809E+01 0. -1.
</event>
<event>
 5   0  0.7415102E-04  0.1606661E+04  0.7818609E-02  0.8816466E-01
        2   -1    0    0  501    0  0.00000000000E+00  0.00000000000E+00  0.10469067015E+04  0.10469067015E+04  0.25500000920E-02 0. -1.
       -2   -1    0    0    0  501  0.00000000000E+00  0.00000000000E+00 -0.61642564898E+03  0.61642564898E+03  0.25500000920E-02 0.  1.
    10030    2    1    2    0    0  0.00000000000E+00  0.00000000000E+00  0.43048105255E+03  0.16633323505E+04  0.16066613121E+04 0.  0.
        5    1    3    3  502    0  0.17150791683E+02 -0.33692466329E+03  0.97000013548E+03  0.10270027903E+04  0.46999998093E+01 0. -1.
       -5    1    3    3    0  502 -0.17150791683E+02  0.33692466329E+03 -0.53951908294E+03  0.63632956024E+03  0.46999998093E+01 0.  1.
</event>
<event>
 5   0  0.3950195E-04  0.1581902E+04  0.7818609E-02  0.8831744E-01
        1   -1    0    0  501    0  0.00000000000E+00  0.00000000000E+00  0.10025331102E+04  0.10025331102E+04  0.50400001928E-02 0.  1.
       -1   -1    0    0    0  501  0.00000000000E+00  0.00000000000E+00 -0.62402248533E+03  0.62402248535E+03  0.50400001928E-02 0. -1.
    10030    2    1    2    0    0  0.00000000000E+00  0.00000000000E+00  0.37851062485E+03  0.16265555955E+04  0.15819016443E+04 0.  0.
        2    1    3    3  502    0 -0.17141922379E+03 -0.97668542215E+02  0.97682663557E+03  0.99655103752E+03  0.25500000920E-02 0.  1.
       -2    1    3    3    0  502  0.17141922379E+03  0.97668542215E+02 -0.59831601073E+03  0.63000455801E+03  0.25500000920E-02 0. -1.
</event>
<event>
 5   0  0.3889847E-04  0.1652685E+04  0.7818609E-02  0.8788820E-01
       -1   -1    0    0    0  501  0.00000000000E+00  0.00000000000E+00  0.11345625937E+04  0.11345625937E+04  0.50400001928E-02 0. -1.
        1   -1    0    0  501    0  0.00000000000E+00  0.00000000000E+00 -0.60185474278E+03  0.60185474280E+03  0.50400001928E-02 0.  1.
    10030    2    1    2    0    0  0.00000000000E+00  0.00000000000E+00  0.53270785095E+03  0.17364173365E+04  0.16526849404E+04 0.  0.
        1    1    3    3  502    0 -0.48308199019E+03  0.34056178987E+03 -0.34039123544E+03  0.68206798426E+03  0.50400001928E-02 0. -1.
       -1    1    3    3    0  502  0.48308199019E+03 -0.34056178987E+03  0.87309908639E+03  0.10543493523E+04  0.50400001928E-02 0.  1.
</event>
<event>
 5   0  0.7770905E-04  0.1611125E+04  0.7818609E-02  0.8813742E-01
        2   -1    0    0  501    0  0.00000000000E+00  0.00000000000E+00  0.10567034376E+04  0.10567034376E+04  0.25500000920E-02 0.  1.
       -2   -1    0    0    0  501  0.00000000000E+00  0.00000000000E+00 -0.61410923126E+03  0.61410923127E+03  0.25500000920E-02 0. -1.
    10030    2    1    2    0    0  0.00000000000E+00  0.00000000000E+00  0.44259420630E+03  0.16708126688E+04  0.16111254895E+04 0.  0.
        2    1    3    3  502    0  0.67801901581E+01  0.76309959607E+03 -0.46261739033E+02  0.76453064883E+03  0.25500000920E-02 0. -1.
       -2    1    3    3    0  502 -0.67801901581E+01 -0.76309959607E+03  0.48885594533E+03  0.90628202000E+03  0.25500000920E-02 0.  1.
</event>
<event>
 5   0  0.3973227E-04  0.1663483E+04  0.7818609E-02  0.8782470E-01
       -1   -1    0    0    0  501  0.00000000000E+00  0.00000000000E+00  0.84381515993E+03  0.84381515994E+03  0.50400001928E-02 0.  1.
        1   -1    0    0  501    0  0.00000000000E+00  0.00000000000E+00 -0.81984035413E+03  0.81984035415E+03  0.50400001928E-02 0. -1.
    10030    2    1    2    0    0  0.00000000000E+00  0.00000000000E+00  0.23974805796E+02  0.16636555141E+04  0.16634827556E+04 0.  0.
        3    1    3    3  502    0 -0.40757146403E+03  0.37623280745E+03 -0.60785763894E+03  0.82289522001E+03  0.10100000352E+00 0. -1.
       -3    1    3    3    0  502  0.40757146403E+03 -0.37623280745E+03  0.63183244473E+03  0.84076029409E+03  0.10100000352E+00 0.  1.
</event>
<event>
 5   0  0.3973227E-04  0.1568068E+04  0.7818609E-02  0.8840409E-01
       -1   -1    0    0    0  501  0.00000000000E+00  0.00000000000E+00  0.32445376529E+03  0.32445376533E+03  0.50400001928E-02 0. -1.
        1   -1    0    0  501    0  0.00000000000E+00  0.00000000000E+00 -0.18945968217E+04  0.18945968217E+04  0.50400001928E-02 0.  1.
    10030    2    1    2    0    0  0.00000000000E+00  0.00000000000E+00 -0.15701430564E+04  0.22190505870E+04  0.15680676931E+04 0.  0.
        3    1    3    3  502    0  0.22585179608E+03  0.44457417927E+03 -0.16412708350E+04  0.17153498765E+04  0.10100000352E+00 0.  1.
       -3    1    3    3    0  502 -0.22585179608E+03 -0.44457417927E+03  0.71127778656E+02  0.50370071050E+03  0.10100000352E+00 0. -1.
</event>
<event>
 5   0  0.7770905E-04  0.1603791E+04  0.7818609E-02  0.8818223E-01
        2   -1    0    0  501    0  0.00000000000E+00  0.00000000000E+00  0.12563112569E+04  0.12563112569E+04  0.25500000920E-02 0.  1.
       -2   -1    0    0    0  501  0.00000000000E+00  0.00000000000E+00 -0.51184472595E+03  0.51184472596E+03  0.25500000920E-02 0. -1.
    10030    2    1    2    0    0  0.00000000000E+00  0.00000000000E+00  0.74446653097E+03  0.17681559829E+04  0.16037908729E+04 0.  0.
        2    1    3    3  502    0 -0.16892658140E+03  0.37176140152E+03 -0.38863626466E+03  0.56372056534E+03  0.25500000920E-02 0. -1.
       -2    1    3    3    0  502  0.16892658140E+03 -0.37176140152E+03  0.11331027956E+04  0.12044354175E+04  0.25500000920E-02 0.  1.
</event>
<event>
 5   0  0.4110803E-04  0.1643407E+04  0.7818609E-02  0.8794316E-01
        1   -1    0    0  501    0  0.00000000000E+00  0.00000000000E+00  0.86696388276E+03  0.86696388277E+03  0.50400001928E-02 0.  1.
       -1   -1    0    0    0  501  0.00000000000E+00  0.00000000000E+00 -0.77880637742E+03  0.77880637744E+03  0.50400001928E-02 0. -1.
    10030    2    1    2    0    0  0.00000000000E+00  0.00000000000E+00  0.88157505337E+02  0.16457702602E+04  0.16434074369E+04 0.  0.
        5    1    3    3  502    0  0.62893155579E+03  0.41102476810E+01  0.57361411174E+03  0.85125027764E+03  0.46999998093E+01 0.  1.
       -5    1    3    3    0  502 -0.62893155579E+03 -0.41102476810E+01 -0.48545660640E+03  0.79451998257E+03  0.46999998093E+01 0. -1.
</event>
<event>
 5   0  0.7488884E-04  0.1606522E+04  0.7818609E-02  0.8816551E-01
       -2   -1    0    0    0  501  0.00000000000E+00  0.00000000000E+00  0.68844109305E+03  0.68844109306E+03  0.25500000920E-02 0.  1.
        2   -1    0    0  501    0  0.00000000000E+00  0.00000000000E+00 -0.93723072247E+03  0.93723072247E+03  0.25500000920E-02 0. -1.
    10030    2    1    2    0    0  0.00000000000E+00  0.00000000000E+00 -0.24878962942E+03  0.16256718155E+04  0.16065218866E+04 0.  0.
        3    1    3    3  502    0  0.62124409384E+03 -0.43177230851E+03 -0.39753187264E+03  0.85463626794E+03  0.10100000352E+00 0. -1.
       -3    1    3    3    0  502 -0.62124409384E+03  0.43177230851E+03  0.14874224322E+03  0.77103554759E+03  0.10100000352E+00 0.  1.
</event>
<event>
 5   0  0.7488884E-04  0.1274242E+04  0.7818609E-02  0.9050245E-01
        2   -1    0    0  501    0  0.00000000000E+00  0.00000000000E+00  0.61144807767E+03  0.61144807768E+03  0.25500000920E-02 0.  1.
       -2   -1    0    0    0  501  0.00000000000E+00  0.00000000000E+00 -0.66387150299E+03  0.66387150300E+03  0.25500000920E-02 0. -1.
    10030    2    1    2    0    0  0.00000000000E+00  0.00000000000E+00 -0.52423425322E+02  0.12753195807E+04  0.12742416636E+04 0.  0.
        3    1    3    3  502    0  0.24815440600E+03  0.58237475565E+03 -0.98258570834E+02  0.64062135632E+03  0.10100000352E+00 0. -1.
       -3    1    3    3    0  502 -0.24815440600E+03 -0.58237475565E+03  0.45835145512E+02  0.63469822435E+03  0.10100000352E+00 0.  1.
</event>
<event>
 5   0  0.7770905E-04  0.1587891E+04  0.7818609E-02  0.8828022E-01
       -2   -1    0    0    0  501  0.00000000000E+00  0.00000000000E+00  0.73957221315E+03  0.73957221315E+03  0.25500000920E-02 0. -1.
        2   -1    0    0  501    0  0.00000000000E+00  0.00000000000E+00 -0.85231608071E+03  0.85231608071E+03  0.25500000920E-02 0.  1.
    10030    2    1    2    0    0  0.00000000000E+00  0.00000000000E+00 -0.11274386756E+03  0.15918882939E+04  0.15878907898E+04 0.  0.
        2    1    3    3  502    0 -0.15589554776E+03  0.49806229208E+03  0.54344846744E+03  0.75346247775E+03  0.25500000920E-02 0. -1.
       -2    1    3    3    0  502  0.15589554776E+03 -0.49806229208E+03 -0.65619233500E+03  0.83842581611E+03  0.25500000920E-02 0.  1.
</event>
<event>
 5   0  0.3837251E-04  0.1611846E+04  0.7818609E-02  0.8813303E-01
       -1   -1    0    0    0  501  0.00000000000E+00  0.00000000000E+00  0.50999058014E+03  0.50999058017E+03  0.50400001928E-02 0.  1.
        1   -1    0    0  501    0  0.00000000000E+00  0.00000000000E+00 -0.12735768170E+04  0.12735768170E+04  0.50400001928E-02 0. -1.
    10030    2    1    2    0    0  0.00000000000E+00  0.00000000000E+00 -0.76358623683E+03  0.17835673971E+04  0.16118463696E+04 0.  0.
        4    1    3    3  502    0  0.33718492511E+02 -0.80490718060E+03 -0.35709823172E+03  0.88121124943E+03  0.12699999809E+01 0.  1.
       -4    1    3    3    0  502 -0.33718492511E+02  0.80490718060E+03 -0.40648800511E+03  0.90235614772E+03  0.12699999809E+01 0. -1.
</event>
<event>
 5   0  0.7395088E-04  0.1386759E+04  0.7818609E-02  0.8963459E-01
       -2   -1    0    0    0  501  0.00000000000E+00  0.00000000000E+00  0.39663843002E+03  0.39663843002E+03  0.25500000920E-02 0.  1.
        2   -1    0    0  501    0  0.00000000000E+00  0.00000000000E+00 -0.12121243279E+04  0.12121243279E+04  0.25500000920E-02 0. -1.
    10030    2    1    2    0    0  0.00000000000E+00  0.00000000000E+00 -0.81548589787E+03  0.16087627579E+04  0.13867589414E+04 0.  0.
        1    1    3    3  502    0  0.29184452432E+03 -0.43165852908E+03  0.12295498787E+03  0.53536925684E+03  0.50400001928E-02 0.  1.
       -1    1    3    3    0  502 -0.29184452432E+03  0.43165852908E+03 -0.93844088574E+03  0.10733935011E+04  0.50400001928E-02 0. -1.
</event>
<event>
 5   0  0.7770905E-04  0.1593810E+04  0.7818609E-02  0.8824360E-01
        2   -1    0    0  501    0  0.00000000000E+00  0.00000000000E+00  0.12847484232E+04  0.12847484232E+04  0.25500000920E-02 0. -1.
       -2   -1    0    0    0  501  0.00000000000E+00  0.00000000000E+00 -0.49430516318E+03  0.49430516318E+03  0.25500000920E-02 0.  1.
    10030    2    1    2    0    0  0.00000000000E+00  0.00000000000E+00  0.79044326003E+03  0.17790535864E+04  0.15938102509E+04 0.  0.
        2    1    3    3  502    0  0.51588301442E+03  0.60549112775E+03  0.44878875157E+03  0.91332695892E+03  0.25500000920E-02 0. -1.
       -2    1    3    3    0  502 -0.51588301442E+03 -0.60549112775E+03  0.34165450846E+03  0.86572662747E+03  0.25500000920E-02 0.  1.
</event>
<event>
 5   0  0.7395088E-04  0.1611567E+04  0.7818609E-02  0.8813473E-01
       -2   -1    0    0    0  501  0.00000000000E+00  0.00000000000E+00  0.17247754394E+04  0.17247754394E+04  0.25500000920E-02 0.  1.
        2   -1    0    0  501    0  0.00000000000E+00  0.00000000000E+00 -0.37644745391E+03  0.37644745392E+03  0.25500000920E-02 0. -1.
    10030    2    1    2    0    0  0.00000000000E+00  0.00000000000E+00  0.13483279855E+04  0.21012228933E+04  0.16115673399E+04 0.  0.
        1    1    3    3  502    0 -0.90839212130E+02  0.76031195087E+03  0.34700376517E+03  0.84067689284E+03  0.50400001928E-02 0. -1.
       -1    1    3    3    0  502  0.90839212130E+02 -0.76031195087E+03  0.10013242203E+04  0.12605460005E+04  0.50400001928E-02 0.  1.
</event>
<event>
 5   0  0.7488884E-04  0.1598792E+04  0.7818609E-02  0.8821290E-01
        2   -1    0    0  501    0  0.00000000000E+00  0.00000000000E+00  0.63683837845E+03  0.63683837845E+03  0.25500000920E-02 0. -1.
       -2   -1    0    0    0  501  0.00000000000E+00  0.00000000000E+00 -0.10034477331E+04  0.10034477331E+04  0.25500000920E-02 0.  1.
    10030    2    1    2    0    0  0.00000000000E+00  0.00000000000E+00 -0.36660935468E+03  0.16402861116E+04  0.15987920781E+04 0.  0.
        3    1    3    3  502    0  0.25219708802E+03  0.73277554006E+03  0.17925172482E+02  0.77516752081E+03  0.10100000352E+00 0. -1.
       -3    1    3    3    0  502 -0.25219708802E+03 -0.73277554006E+03 -0.38453452716E+03  0.86511859077E+03  0.10100000352E+00 0.  1.
</event>
<event>
 5   0  0.3950195E-04  0.1646006E+04  0.7818609E-02  0.8792773E-01
       -1   -1    0    0    0  501  0.00000000000E+00  0.00000000000E+00  0.30182109791E+04  0.30182109791E+04  0.50400001928E-02 0.  1.
        1   -1    0    0  501    0  0.00000000000E+00  0.00000000000E+00 -0.22441568777E+03  0.22441568783E+03  0.50400001928E-02 0. -1.
    10030    2    1    2    0    0  0.00000000000E+00  0.00000000000E+00  0.27937952914E+04  0.32426266670E+04  0.16460059451E+04 0.  0.
        2    1    3    3  502    0 -0.71558768451E+03 -0.38118082291E+03  0.16752836475E+04  0.18611662617E+04  0.25500000920E-02 0. -1.
       -2    1    3    3    0  502  0.71558768451E+03  0.38118082291E+03  0.11185116439E+04  0.13814604053E+04  0.25500000920E-02 0.  1.
</event>
<event>
 5   0  0.7395088E-04  0.1575971E+04  0.7818609E-02  0.8835448E-01
       -2   -1    0    0    0  501  0.00000000000E+00  0.00000000000E+00  0.95944539154E+03  0.95944539154E+03  0.25500000920E-02 0.  1.
        2   -1    0    0  501    0  0.00000000000E+00  0.00000000000E+00 -0.64716660008E+03  0.64716660008E+03  0.25500000920E-02 0. -1.
    10030    2    1    2    0    0  0.00000000000E+00  0.00000000000E+00  0.31227879146E+03  0.16066119916E+04  0.15759708272E+04 0.  0.
        1    1    3    3  502    0  0.15103398397E+03  0.51969100448E+03 -0.42773614047E+03  0.68981751959E+03  0.50400001928E-02 0. -1.
       -1    1    3    3    0  502 -0.15103398397E+03 -0.51969100448E+03  0.74001493193E+03  0.91679447203E+03  0.50400001928E-02 0.  1.
</event>
<event>
 5   0  0.7553070E-04  0.1623784E+04  0.7818609E-02  0.8806068E-01
       -2   -1    0    0    0  501  0.00000000000E+00  0.00000000000E+00  0.25175986769E+03  0.25175986771E+03  0.25500000920E-02 0.  1.
        2   -1    0    0  501    0  0.00000000000E+00  0.00000000000E+00 -0.26182447193E+04  0.26182447193E+04  0.25500000920E-02 0. -1.
    10030    2    1    2    0    0  0.00000000000E+00  0.00000000000E+00 -0.23664848516E+04  0.28700045870E+04  0.16237843997E+04 0.  0.
        4    1    3    3  502    0 -0.47925466581E+03  0.21173763573E+03 -0.22794348479E+04  0.23388763755E+04  0.12699999809E+01 0. -1.
       -4    1    3    3    0  502  0.47925466581E+03 -0.21173763573E+03 -0.87050003776E+02  0.53112821159E+03  0.12699999809E+01 0.  1.
</event>
<event>
 5   0  0.3889847E-04  0.1613583E+04  0.7818609E-02  0.8812247E-01
       -1   -1    0    0    0  501  0.00000000000E+00  0.00000000000E+00  0.60445650190E+03  0.60445650192E+03  0.50400001928E-02 0. -1.
        1   -1    0    0  501    0  0.00000000000E+00  0.00000000000E+00 -0.10768552315E+04  0.10768552315E+04  0.50400001928E-02 0.  1.
    10030    2    1    2    0    0  0.00000000000E+00  0.00000000000E+00 -0.47239872960E+03  0.16813117334E+04  0.16135825313E+04 0.  0.
        1    1    3    3  502    0  0.36783140140E+03  0.17113527095E+03 -0.96284107735E+03  0.10448206358E+04  0.50400001928E-02 0.  1.
       -1    1    3    3    0  502 -0.36783140140E+03 -0.17113527095E+03  0.49044234775E+03  0.63649109759E+03  0.50400001928E-02 0. -1.
</event>
<event>
 5   0  0.3950195E-04  0.1506495E+04  0.7818609E-02  0.8880145E-01
       -1   -1    0    0    0  501  0.00000000000E+00  0.00000000000E+00  0.34320517326E+03  0.34320517330E+03  0.50400001928E-02 0. -1.
        1   -1    0    0  501    0  0.00000000000E+00  0.00000000000E+00 -0.16531864767E+04  0.16531864767E+04  0.50400001928E-02 0.  1.
    10030    2    1    2    0    0  0.00000000000E+00  0.00000000000E+00 -0.13099813034E+04  0.19963916500E+04  0.15064954712E+04 0.  0.
        2    1    3    3  502    0 -0.28237594784E+03 -0.68676038649E+03 -0.48733379768E+03  0.88818367174E+03  0.25500000920E-02 0.  1.
       -2    1    3    3    0  502  0.28237594784E+03  0.68676038649E+03 -0.82264750576E+03  0.11082079783E+04  0.25500000920E-02 0. -1.
</event>
<event>
 5   0  0.4110803E-04  0.1616068E+04  0.7818609E-02  0.8810737E-01
        1   -1    0    0  501    0  0.00000000000E+00  0.00000000000E+00  0.87812404026E+03  0.87812404028E+03  0.50400001928E-02 0. -1.
       -1   -1    0    0    0  501  0.00000000000E+00  0.00000000000E+00 -0.74353843897E+03  0.74353843898E+03  0.50400001928E-02 0.  1.
    10030    2    1    2    0    0  0.00000000000E+00  0.00000000000E+00  0.13458560130E+03  0.16216624793E+04  0.16160680408E+04 0.  0.
        5    1    3    3  502    0  0.18875884141E+03 -0.77356023605E+03 -0.70556511331E+02  0.79939079948E+03  0.46999998093E+01 0.  1.
       -5    1    3    3    0  502 -0.18875884141E+03  0.77356023605E+03  0.20514211263E+03  0.82227167978E+03  0.46999998093E+01 0. -1.
</event>
<event>
 5   0  0.2781000E-04  0.1687194E+04  0.7818609E-02  0.8768702E-01
       -3   -1    0    0    0  501  0.00000000000E+00  0.00000000000E+00  0.10808643744E+04  0.10808643791E+04  0.10100000352E+00 0.  1.
        3   -1    0    0  501    0  0.00000000000E+00  0.00000000000E+00 -0.65841328832E+03  0.65841329606E+03  0.10100000352E+00 0. -1.
    10030    2    1    2    0    0  0.00000000000E+00  0.00000000000E+00  0.42245108604E+03  0.17392776751E+04  0.16871935014E+04 0.  0.
        1    1    3    3  502    0 -0.52292773525E+03 -0.96138935121E+02 -0.46394285466E+03  0.70564798841E+03  0.50400001928E-02 0. -1.
       -1    1    3    3    0  502  0.52292773525E+03  0.96138935121E+02  0.88639394070E+03  0.10336296867E+04  0.50400001928E-02 0.  1.
</event>
<event>
 5   0  0.3973227E-04  0.1596722E+04  0.7818609E-02  0.8822564E-01
       -1   -1    0    0    0  501  0.00000000000E+00  0.00000000000E+00  0.76368288531E+03  0.76368288532E+03  0.50400001928E-02 0. -1.
        1   -1    0    0  501    0  0.00000000000E+00  0.00000000000E+00 -0.83461380268E+03  0.83461380269E+03  0.50400001928E-02 0.  1.
    10030    2    1    2    0    0  0.00000000000E+00  0.00000000000E+00 -0.70930917373E+02  0.15982966880E+04  0.15967219883E+04 0.  0.
        3    1    3    3  502    0 -0.15028381073E+03 -0.70058246115E+03  0.31698867642E+03  0.78350675799E+03  0.10100000352E+00 0. -1.
       -3    1    3    3    0  502  0.15028381073E+03  0.70058246115E+03 -0.38791959379E+03  0.81478993003E+03  0.10100000352E+00 0.  1.
</event>
<event>
 5   0  0.7553070E-04  0.1591512E+04  0.7818609E-02  0.8825780E-01
       -2   -1    0    0    0  501  0.00000000000E+00  0.00000000000E+00  0.10748491036E+04  0.10748491036E+04  0.25500000920E-02 0.  1.
        2   -1    0    0  501    0  0.00000000000E+00  0.00000000000E+00 -0.58913138598E+03  0.58913138599E+03  0.25500000920E-02 0. -1.
    10030    2    1    2    0    0  0.00000000000E+00  0.00000000000E+00  0.48571771760E+03  0.16639804896E+04  0.15915116614E+04 0.  0.
        4    1    3    3  502    0  0.20561013039E+03  0.38644823352E+03  0.93765413044E+03  0.10348017415E+04  0.12699999809E+01 0.  1.
       -4    1    3    3    0  502 -0.20561013039E+03 -0.38644823352E+03 -0.45193641284E+03  0.62917874810E+03  0.12699999809E+01 0. -1.
</event>
<event>
 5   0  0.3889847E-04  0.1770317E+04  0.7818609E-02  0.8722246E-01
       -1   -1    0    0    0  501  0.00000000000E+00  0.00000000000E+00  0.11190913743E+04  0.11190913744E+04  0.50400001928E-02 0.  1.
        1   -1    0    0  501    0  0.00000000000E+00  0.00000000000E+00 -0.70012632024E+03  0.70012632025E+03  0.50400001928E-02 0. -1.
    10030    2    1    2    0    0  0.00000000000E+00  0.00000000000E+00  0.41896505411E+03  0.18192176946E+04  0.17703167242E+04 0.  0.
        1    1    3    3  502    0  0.13387246669E+03  0.20652312233E+03  0.10832227524E+04  0.11108308461E+04  0.50400001928E-02 0.  1.
       -1    1    3    3    0  502 -0.13387246669E+03 -0.20652312233E+03 -0.66425769826E+03  0.70838684850E+03  0.50400001928E-02 0. -1.
</event>
<event>
 5   0  0.7415102E-04  0.1611780E+04  0.7818609E-02  0.8813344E-01
       -2   -1    0    0    0  501  0.00000000000E+00  0.00000000000E+00  0.43274085007E+03  0.43274085008E+03  0.25500000920E-02 0.  1.
        2   -1    0    0  501    0  0.00000000000E+00  0.00000000000E+00 -0.15008024271E+04  0.15008024271E+04  0.25500000920E-02 0. -1.
    10030    2    1    2    0    0  0.00000000000E+00  0.00000000000E+00 -0.10680615770E+04  0.19335432772E+04  0.16117797841E+04 0.  0.
        5    1    3    3  502    0  0.48263924754E+03 -0.78708861416E+02 -0.13024519594E+04  0.13912364733E+04  0.46999998093E+01 0. -1.
       -5    1    3    3    0  502 -0.48263924754E+03  0.78708861416E+02  0.23439038240E+03  0.54230680384E+03  0.46999998093E+01 0.  1.
</event>
<event>
 5   0  0.7415102E-04  0.1629011E+04  0.7818609E-02  0.8802921E-01
        2   -1    0    0  501    0  0.00000000000E+00  0.00000000000E+00  0.17368992033E+04  0.17368992033E+04  0.25500000920E-02 0. -1.
       -2   -1    0    0    0  501  0.00000000000E+00  0.00000000000E+00 -0.38195619455E+03  0.38195619455E+03  0.25500000920E-02 0.  1.
    10030    2    1    2    0    0  0.00000000000E+00  0.00000000000E+00  0.13549430087E+04  0.21188553978E+04  0.16290112461E+04 0.  0.
        5    1    3    3  502    0  0.36348744435E+03 -0.43259397886E+02  0.16238619838E+04  0.16646153700E+04  0.46999998093E+01 0. -1.
       -5    1    3    3    0  502 -0.36348744435E+03  0.43259397886E+02 -0.26891897507E+03  0.45424002780E+03  0.46999998093E+01 0.  1.
</event>
<event>
 5   0  0.7415102E-04  0.1622565E+04  0.7818609E-02  0.8806804E-01
       -2   -1    0    0    0  501  0.00000000000E+00  0.00000000000E+00  0.23083157737E+03  0.23083157738E+03  0.25500000920E-02 0. -1.
        2   -1    0    0  501    0  0.00000000000E+00  0.00000000000E+00 -0.28513403866E+04  0.28513403866E+04  0.25500000920E-02 0.  1.
    10030    2    1    2    0    0  0.00000000000E+00  0.00000000000E+00 -0.26205088092E+04  0.30821719639E+04  0.16225651285E+04 0.  0.
        5    1    3    3  502    0 -0.31381322372E+03 -0.91659845976E+01 -0.27312458631E+04  0.27492342224E+04  0.46999998093E+01 0.  1.
       -5    1    3    3    0  502  0.31381322372E+03  0.91659845976E+01  0.11073705392E+03  0.33293774157E+03  0.46999998093E+01 0. -1.
</event>
<event>
 5   0  0.7770905E-04  0.1636957E+04  0.7818609E-02  0.8798160E-01
       -2   -1    0    0    0  501  0.00000000000E+00  0.00000000000E+00  0.66369706169E+03  0.66369706170E+03  0.25500000920E-02 0.  1.
        2   -1    0    0  501    0  0.00000000000E+00  0.00000000000E+00 -0.10093563805E+04  0.10093563805E+04  0.25500000920E-02 0. -1.
    10030    2    1    2    0    0  0.00000000000E+00  0.00000000000E+00 -0.34565931885E+03  0.16730534422E+04  0.16369567667E+04 0.  0.
        2    1    3    3  502    0  0.32204479780E+03  0.49651757933E+03  0.40502640668E+03  0.71713942054E+03  0.25500000920E-02 0.  1.
       -2    1    3    3    0  502 -0.32204479780E+03 -0.49651757933E+03 -0.75068572553E+03  0.95591402171E+03  0.25500000920E-02 0. -1.
</event>
<event>
 5   0  0.3837251E-04  0.1431390E+04  0.7818609E-02  0.8931405E-01
       -1   -1    0    0    0  501  0.00000000000E+00  0.00000000000E+00  0.24829706688E+03  0.24829706693E+03  0.50400001928E-02 0. -1.
        1   -1    0    0  501    0  0.00000000000E+00  0.00000000000E+00 -0.20629302677E+04  0.20629302677E+04  0.50400001928E-02 0.  1.
    10030    2    1    2    0    0  0.00000000000E+00  0.00000000000E+00 -0.18146332008E+04  0.23112273347E+04  0.14313902818E+04 0.  0.
        4    1    3    3  502    0 -0.58330390877E+03  0.26675024574E+03 -0.39462604638E+03  0.75308065503E+03  0.12699999809E+01 0. -1.
       -4    1    3    3    0  502  0.58330390877E+03 -0.26675024574E+03 -0.14200071545E+04  0.15581466796E+04  0.12699999809E+01 0.  1.
</event>
<event>
 5   0  0.7395088E-04  0.1552072E+04  0.7818609E-02  0.8850545E-01
        2   -1    0    0  501    0  0.00000000000E+00  0.00000000000E+00  0.14337540050E+04  0.14337540050E+04  0.25500000920E-02 0. -1.
       -2   -1    0    0    0  501  0.00000000000E+00  0.00000000000E+00 -0.42003840651E+03  0.42003840651E+03  0.25500000920E-02 0.  1.
    10030    2    1    2    0    0  0.00000000000E+00  0.00000000000E+00  0.10137155985E+04  0.18537924115E+04  0.15520718380E+04 0.  0.
        1    1    3    3  502    0  0.24589324590E+03  0.55946566880E+03  0.10781330683E+04  0.12392886008E+04  0.50400001928E-02 0. -1.
       -1    1    3    3    0  502 -0.24589324590E+03 -0.55946566880E+03 -0.64417469860E+02  0.61450381072E+03  0.50400001928E-02 0.  1.
</event>
<event>
 5   0  0.7415102E-04  0.1616127E+04  0.7818609E-02  0.8810701E-01
       -2   -1    0    0    0  501  0.00000000000E+00  0.00000000000E+00  0.86098052545E+03  0.86098052546E+03  0.25500000920E-02 0. -1.
        2   -1    0    0  501    0  0.00000000000E+00  0.00000000000E+00 -0.75839922622E+03  0.75839922622E+03  0.25500000920E-02 0.  1.
    10030    2    1    2    0    0  0.00000000000E+00  0.00000000000E+00  0.10258129924E+03  0.16193797517E+04  0.16161274260E+04 0.  0.
        5    1    3    3  502    0  0.78566116668E+03  0.93227873006E+02 -0.11332620472E+03  0.79926204952E+03  0.46999998093E+01 0.  1.
       -5    1    3    3    0  502 -0.78566116668E+03 -0.93227873006E+02  0.21590750396E+03  0.82011770216E+03  0.46999998093E+01 0. -1.
</event>
<event>
 5   0  0.7553070E-04  0.1507633E+04  0.7818609E-02  0.8879393E-01
        2   -1    0    0  501    0  0.00000000000E+00  0.00000000000E+00  0.10968029240E+04  0.10968029240E+04  0.25500000920E-02 0. -1.
       -2   -1    0    0    0  501  0.00000000000E+00  0.00000000000E+00 -0.51808715292E+03  0.51808715293E+03  0.25500000920E-02 0.  1.
    10030    2    1    2    0    0  0.00000000000E+00  0.00000000000E+00  0.57871577105E+03  0.16148900769E+04  0.15076332501E+04 0.  0.
        4    1    3    3  502    0 -0.23561762091E+03 -0.45874131855E+03  0.87827066949E+03  0.10184891960E+04  0.12699999809E+01 0. -1.
       -4    1    3    3    0  502  0.23561762091E+03  0.45874131855E+03 -0.29955489844E+03  0.59640088087E+03  0.12699999809E+01 0.  1.
</event>
<event>
 5   0  0.7488884E-04  0.1601706E+04  0.7818609E-02  0.8819501E-01
        2   -1    0    0  501    0  0.00000000000E+00  0.00000000000E+00  0.13718803801E+04  0.13718803801E+04  0.25500000920E-02 0. -1.
       -2   -1    0    0    0  501  0.00000000000E+00  0.00000000000E+00 -0.46750835703E+03  0.46750835704E+03  0.25500000920E-02 0.  1.
    10030    2    1    2    0    0  0.00000000000E+00  0.00000000000E+00  0.90437202308E+03  0.18393887371E+04  0.16017060187E+04 0.  0.
        3    1    3    3  502    0 -0.25039596440E+03 -0.13558898335E+03  0.13117821309E+04  0.13423318817E+04  0.10100000352E+00 0. -1.
       -3    1    3    3    0  502  0.25039596440E+03  0.13558898335E+03 -0.40741010784E+03  0.49705685546E+03  0.10100000352E+00 0.  1.
</event>
<event>
 5   0  0.7415102E-04  0.1564595E+04  0.7818609E-02  0.8842599E-01
        2   -1    0    0  501    0  0.00000000000E+00  0.00000000000E+00  0.10763901940E+04  0.10763901940E+04  0.25500000920E-02 0.  1.
       -2   -1    0    0    0  501  0.00000000000E+00  0.00000000000E+00 -0.56855724237E+03  0.56855724237E+03  0.25500000920E-02 0. -1.
    10030    2    1    2    0    0  0.00000000000E+00  0.00000000000E+00  0.50783295165E+03  0.16449474364E+04  0.15645950792E+04 0.  0.
        5    1    3    3  502    0  0.21713587331E+03  0.44826582996E+03 -0.38028526880E+03  0.62668111304E+03  0.46999998093E+01 0. -1.
       -5    1    3    3    0  502 -0.21713587331E+03 -0.44826582996E+03  0.88811822045E+03  0.10182663234E+04  0.46999998093E+01 0.  1.
</event>
<event>
 5   0  0.3837251E-04  0.1608795E+04  0.7818609E-02  0.8815163E-01
       -1   -1    0    0    0  501  0.00000000000E+00  0.00000000000E+00  0.10535844683E+04  0.10535844683E+04  0.50400001928E-02 0. -1.
        1   -1    0    0  501    0  0.00000000000E+00  0.00000000000E+00 -0.61414666399E+03  0.61414666401E+03  0.50400001928E-02 0.  1.
    10030    2    1    2    0    0  0.00000000000E+00  0.00000000000E+00  0.43943780430E+03  0.16677311323E+04  0.16087950602E+04 0.  0.
        4    1    3    3  502    0 -0.73749684733E+03 -0.18876681137E+02 -0.11264442020E+03  0.74628969390E+03  0.12699999809E+01 0.  1.
       -4    1    3    3    0  502  0.73749684733E+03  0.18876681137E+02  0.55208222450E+03  0.92144143841E+03  0.12699999809E+01 0. -1.
</event>
<event>
 5   0  0.3973227E-04  0.1520105E+04  0.7818609E-02  0.8871192E-01
       -1   -1    0    0    0  501  0.00000000000E+00  0.00000000000E+00  0.32795649710E+03  0.32795649714E+03  0.50400001928E-02 0.  1.
        1   -1    0    0  501    0  0.00000000000E+00  0.00000000000E+00 -0.17614526707E+04  0.17614526707E+04  0.50400001928E-02 0. -1.
    10030    2    1    2    0    0  0.00000000000E+00  0.00000000000E+00 -0.14334961736E+04  0.20894091679E+04  0.15201050592E+04 0.  0.
        3    1    3    3  502    0  0.57147193858E+03  0.23316240585E+03 -0.10708394106E+03  0.62642786074E+03  0.10100000352E+00 0.  1.
       -3    1    3    3    0  502 -0.57147193858E+03 -0.23316240585E+03 -0.13264122326E+04  0.14629813071E+04  0.10100000352E+00 0. -1.
</event>
<event>
 5   0  0.4110803E-04  0.1573728E+04  0.7818609E-02  0.8836852E-01
       -1   -1    0    0    0  501  0.00000000000E+00  0.00000000000E+00  0.11316117153E+04  0.11316117153E+04  0.50400001928E-02 0. -1.
        1   -1    0    0  501    0  0.00000000000E+00  0.00000000000E+00 -0.54714462072E+03  0.54714462074E+03  0.50400001928E-02 0.  1.
    10030    2    1    2    0    0  0.00000000000E+00  0.00000000000E+00  0.58446709458E+03  0.16787563361E+04  0.15737283918E+04 0.  0.
        5    1    3    3  502    0 -0.38726570043E+03  0.41719668147E+03 -0.28725712211E+03  0.63762570366E+03  0.46999998093E+01 0.  1.
       -5    1    3    3    0  502  0.38726570043E+03 -0.41719668147E+03  0.87172421668E+03  0.10411306324E+04  0.46999998093E+01 0. -1.
</event>
<event>
 5   0  0.7395088E-04  0.1589324E+04  0.7818609E-02  0.8827134E-01
       -2   -1    0    0    0  501  0.00000000000E+00  0.00000000000E+00  0.71620216719E+03  0.71620216720E+03  0.25500000920E-02 0. -1.
        2   -1    0    0  501    0  0.00000000000E+00  0.00000000000E+00 -0.88171712573E+03  0.88171712573E+03  0.25500000920E-02 0.  1.
    10030    2    1    2    0    0  0.00000000000E+00  0.00000000000E+00 -0.16551495854E+03  0.15979192929E+04  0.15893240278E+04 0.  0.
        1    1    3    3  502    0 -0.21475268760E+03  0.71217923551E+03 -0.36385804112E+03  0.82807647861E+03  0.50400001928E-02 0.  1.
       -1    1    3    3    0  502  0.21475268760E+03 -0.71217923551E+03  0.19834308258E+03  0.76984281432E+03  0.50400001928E-02 0. -1.
</event>
<event>
 5   0  0.7415102E-04  0.1612186E+04  0.7818609E-02  0.8813096E-01
        2   -1    0    0  501    0  0.00000000000E+00  0.00000000000E+00  0.14180778783E+04  0.14180778783E+04  0.25500000920E-02 0. -1.
       -2   -1    0    0    0  501  0.00000000000E+00  0.00000000000E+00 -0.45821616970E+03  0.45821616971E+03  0.25500000920E-02 0.  1.
    10030    2    1    2    0    0  0.00000000000E+00  0.00000000000E+00  0.95986170859E+03  0.18762940480E+04  0.16121863586E+04 0.  0.
        5    1    3    3  502    0 -0.41371703178E+03 -0.66740220263E+03  0.69191426104E+03  0.10465920490E+04  0.46999998093E+01 0. -1.
       -5    1    3    3    0  502  0.41371703178E+03  0.66740220263E+03  0.26794744755E+03  0.82970199897E+03  0.46999998093E+01 0.  1.
</event>
<event>
 5   0  0.4110803E-04  0.1601967E+04  0.7818609E-02  0.8819340E-01
        1   -1    0    0  501    0  0.00000000000E+00  0.00000000000E+00  0.95367739377E+03  0.95367739378E+03  0.50400001928E-02 0.  1.
       -1   -1    0    0    0  501  0.00000000000E+00  0.00000000000E+00 -0.67273787810E+03  0.67273787812E+03  0.50400001928E-02 0. -1.
    10030    2    1    2    0    0  0.00000000000E+00  0.00000000000E+00  0.28093951566E+03  0.16264152719E+04  0.16019674233E+04 0.  0.
        5    1    3    3  502    0 -0.78587704996E+03 -0.14606243135E+03  0.88543891680E+02  0.80423819995E+03  0.46999998093E+01 0.  1.
       -5    1    3    3    0  502  0.78587704996E+03  0.14606243135E+03  0.19239562398E+03  0.82217707195E+03  0.46999998093E+01 0. -1.
</event>
<event>
 5   0  0.3889847E-04  0.1599368E+04  0.7818609E-02  0.8820936E-01
        1   -1    0    0  501    0  0.00000000000E+00  0.00000000000E+00  0.11385728957E+04  0.11385728957E+04  0.50400001928E-02 0. -1.
       -1   -1    0    0    0  501  0.00000000000E+00  0.00000000000E+00 -0.56166321246E+03  0.56166321248E+03  0.50400001928E-02 0.  1.
    10030    2    1    2    0    0  0.00000000000E+00  0.00000000000E+00  0.57690968322E+03  0.17002361082E+04  0.15993680130E+04 0.  0.
        1    1    3    3  502    0  0.31556855494E+03 -0.68661334803E+03  0.56663160420E+03  0.94450663177E+03  0.50400001928E-02 0. -1.
       -1    1    3    3    0  502 -0.31556855494E+03  0.68661334803E+03  0.10278079023E+02  0.75572947640E+03  0.50400001928E-02 0.  1.
</event>
<event>
 5   0  0.7553070E-04  0.1599114E+04  0.7818609E-02  0.8821092E-01
       -2   -1    0    0    0  501  0.00000000000E+00  0.00000000000E+00  0.45781648864E+03  0.45781648865E+03  0.25500000920E-02 0. -1.
        2   -1    0    0  501    0  0.00000000000E+00  0.00000000000E+00 -0.13963924522E+04  0.13963924522E+04  0.25500000920E-02 0.  1.
    10030    2    1    2    0    0  0.00000000000E+00  0.00000000000E+00 -0.93857596360E+03  0.18542089409E+04  0.15991141163E+04 0.  0.
        4    1    3    3  502    0  0.21865440318E+03  0.63880093997E+03 -0.96587441240E+03  0.11784699327E+04  0.12699999809E+01 0.  1.
       -4    1    3    3    0  502 -0.21865440318E+03 -0.63880093997E+03  0.27298448805E+02  0.67573900816E+03  0.12699999809E+01 0. -1.
</event>
<event>
 5   0  0.3889847E-04  0.1595933E+04  0.7818609E-02  0.8823051E-01
       -1   -1    0    0    0  501  0.00000000000E+00  0.00000000000E+00  0.26986360121E+03  0.26986360125E+03  0.50400001928E-02 0.  1.
        1   -1    0    0  501    0  0.00000000000E+00  0.00000000000E+00 -0.23595259546E+04  0.23595259546E+04  0.50400001928E-02 0. -1.
    10030    2    1    2    0    0  0.00000000000E+00  0.00000000000E+00 -0.20896623534E+04  0.26293895558E+04  0.15959325441E+04 0.  0.
        1    1    3    3  502    0  0.53715272060E+03 -0.26125368405E+03 -0.17308265960E+03  0.62188756199E+03  0.50400001928E-02 0.  1.
       -1    1    3    3    0  502 -0.53715272060E+03  0.26125368405E+03 -0.19165796938E+04  0.20075019939E+04  0.50400001928E-02 0. -1.
</event>
<event>
 5   0  0.7553070E-04  0.1618684E+04  0.7818609E-02  0.8809151E-01
       -2   -1    0    0    0  501  0.00000000000E+00  0.00000000000E+00  0.32593780978E+03  0.32593780979E+03  0.25500000920E-02 0.  1.
        2   -1    0    0  501    0  0.00000000000E+00  0.00000000000E+00 -0.20096917329E+04  0.20096917329E+04  0.25500000920E-02 0. -1.
    10030    2    1    2    0    0  0.00000000000E+00  0.00000000000E+00 -0.16837539231E+04  0.23356295427E+04  0.16186840603E+04 0.  0.
        4    1    3    3  502    0  0.42311148910E+03 -0.68703229398E+03 -0.75066208432E+03  0.11020580216E+04  0.12699999809E+01 0.  1.
       -4    1    3    3    0  502 -0.42311148910E+03  0.68703229398E+03 -0.93309183877E+03  0.12335715211E+04  0.12699999809E+01 0. -1.
</event>
<event>
 5   0  0.7395088E-04  0.1578969E+04  0.7818609E-02  0.8833573E-01
        2   -1    0    0  501    0  0.00000000000E+00  0.00000000000E+00  0.64761844820E+03  0.64761844821E+03  0.25500000920E-02 0. -1.
       -2   -1    0    0    0  501  0.00000000000E+00  0.00000000000E+00 -0.96242740458E+03  0.96242740458E+03  0.25500000920E-02 0.  1.
    10030    2    1    2    0    0  0.00000000000E+00  0.00000000000E+00 -0.31480895638E+03  0.16100458528E+04  0.15789689576E+04 0.  0.
        1    1    3    3  502    0  0.61215218688E+03 -0.42665476593E+03 -0.42039768875E+03  0.85644544831E+03  0.50400001928E-02 0.  1.
       -1    1    3    3    0  502 -0.61215218688E+03  0.42665476593E+03  0.10558873238E+03  0.75360040448E+03  0.50400001928E-02 0. -1.
</event>
<event>
 5   0  0.2781000E-04  0.1556929E+04  0.7818609E-02  0.8847454E-01
        4   -1    0    0  501    0  0.00000000000E+00  0.00000000000E+00  0.45629009068E+03  0.45629185808E+03  0.12699999809E+01 0.  1.
       -4   -1    0    0    0  501  0.00000000000E+00  0.00000000000E+00 -0.13281125055E+04  0.13281131127E+04  0.12699999809E+01 0. -1.
    10030    2    1    2    0    0  0.00000000000E+00  0.00000000000E+00 -0.87182241478E+03  0.17844049708E+04  0.15569286357E+04 0.  0.
        4    1    3    3  502    0  0.68852839997E+03  0.32765313909E+03 -0.61558735456E+03  0.97998843928E+03  0.12699999809E+01 0. -1.
       -4    1    3    3    0  502 -0.68852839997E+03 -0.32765313909E+03 -0.25623506022E+03  0.80441653147E+03  0.12699999809E+01 0.  1.
</event>
<event>
 5   0  0.3889847E-04  0.1776568E+04  0.7818609E-02  0.8718860E-01
       -1   -1    0    0    0  501  0.00000000000E+00  0.00000000000E+00  0.40465527559E+03  0.40465527562E+03  0.50400001928E-02 0.  1.
        1   -1    0    0  501    0  0.00000000000E+00  0.00000000000E+00 -0.19499283089E+04  0.19499283089E+04  0.50400001928E-02 0. -1.
    10030    2    1    2    0    0  0.00000000000E+00  0.00000000000E+00 -0.15452730333E+04  0.23545835846E+04  0.17765683519E+04 0.  0.
        1    1    3    3  502    0  0.67950306134E+00 -0.19395410173E+03  0.37624830223E+03  0.42329828757E+03  0.50400001928E-02 0.  1.
       -1    1    3    3    0  502 -0.67950306134E+00  0.19395410173E+03 -0.19215213356E+04  0.19312852970E+04  0.50400001928E-02 0. -1.
</event>
<event>
 5   0  0.2781000E-04  0.1577278E+04  0.7818609E-02  0.8834630E-01
        3   -1    0    0  501    0  0.00000000000E+00  0.00000000000E+00  0.14099715454E+04  0.14099715490E+04  0.10100000352E+00 0.  1.
       -3   -1    0    0    0  501  0.00000000000E+00  0.00000000000E+00 -0.44110941787E+03  0.44110942943E+03  0.10100000352E+00 0. -1.
    10030    2    1    2    0    0  0.00000000000E+00  0.00000000000E+00  0.96886212750E+03  0.18510809784E+04  0.15772783415E+04 0.  0.
        2    1    3    3  502    0 -0.40047125805E+03  0.54900690744E+03  0.95411114917E+03  0.11713726554E+04  0.25500000920E-02 0.  1.
       -2    1    3    3    0  502  0.40047125805E+03 -0.54900690744E+03  0.14750978333E+02  0.67970832297E+03  0.25500000920E-02 0. -1.
</event>
<event>
 5   0  0.7553070E-04  0.1581982E+04  0.7818609E-02  0.8831694E-01
       -2   -1    0    0    0  501  0.00000000000E+00  0.00000000000E+00  0.11561594265E+04  0.11561594265E+04  0.25500000920E-02 0. -1.
        2   -1    0    0  501    0  0.00000000000E+00  0.00000000000E+00 -0.54115930622E+03  0.54115930622E+03  0.25500000920E-02 0.  1.
    10030    2    1    2    0    0  0.00000000000E+00  0.00000000000E+00  0.61500012026E+03  0.16973187327E+04  0.15819815841E+04 0.  0.
        4    1    3    3  502    0  0.76651133607E+03  0.66733593293E+02  0.11062292880E+03  0.77732364306E+03  0.12699999809E+01 0.  1.
       -4    1    3    3    0  502 -0.76651133607E+03 -0.66733593293E+02  0.50437719146E+03  0.91999508964E+03  0.12699999809E+01 0. -1.
</event>
<event>
 5   0  0.3837251E-04  0.1582460E+04  0.7818609E-02  0.8831397E-01
       -1   -1    0    0    0  501  0.00000000000E+00  0.00000000000E+00  0.96635697161E+03  0.96635697162E+03  0.50400001928E-02 0. -1.
        1   -1    0    0  501    0  0.00000000000E+00  0.00000000000E+00 -0.64784003464E+03  0.64784003466E+03  0.50400001928E-02 0.  1.
    10030    2    1    2    0    0  0.00000000000E+00  0.00000000000E+00  0.31851693697E+03  0.16141970063E+04  0.15824597739E+04 0.  0.
        4    1    3    3  502    0 -0.36625259877E+03 -0.28590778309E+03 -0.49402237817E+03  0.67819167613E+03  0.12699999809E+01 0.  1.
       -4    1    3    3    0  502  0.36625259877E+03  0.28590778309E+03  0.81253931513E+03  0.93600533015E+03  0.12699999809E+01 0. -1.
</event>
<event>
 5   0  0.7553070E-04  0.1576801E+04  0.7818609E-02  0.8834928E-01
        2   -1    0    0  501    0  0.00000000000E+00  0.00000000000E+00  0.67087060313E+03  0.67087060313E+03  0.25500000920E-02 0.  1.
       -2   -1    0    0    0  501  0.00000000000E+00  0.00000000000E+00 -0.92652009923E+03  0.92652009923E+03  0.25500000920E-02 0. -1.
    10030    2    1    2    0    0  0.00000000000E+00  0.00000000000E+00 -0.25564949610E+03  0.15973907024E+04  0.15768006821E+04 0.  0.
        4    1    3    3  502    0 -0.53365543461E+03  0.31287882452E+03  0.36732360744E+03  0.71945085114E+03  0.12699999809E+01 0.  1.
       -4    1    3    3    0  502  0.53365543461E+03 -0.31287882452E+03 -0.62297310354E+03  0.87793985122E+03  0.12699999809E+01 0. -1.
</event>
<event>
 5   0  0.3950195E-04  0.1619134E+04  0.7818609E-02  0.8808879E-01
        1   -1    0    0  501    0  0.00000000000E+00  0.00000000000E+00  0.14051435464E+04  0.14051435465E+04  0.50400001928E-02 0. -1.
       -1   -1    0    0    0  501  0.00000000000E+00  0.00000000000E+00 -0.46642844794E+03  0.46642844796E+03  0.50400001928E-02 0.  1.
    10030    2    1    2    0    0  0.00000000000E+00  0.00000000000E+00  0.93871509851E+03  0.18715719944E+04  0.16191342422E+04 0.  0.
        2    1    3    3  502    0  0.21401662489E+03 -0.24735292532E+03  0.13253644955E+04  0.13651291629E+04  0.25500000920E-02 0. -1.
       -2    1    3    3    0  502 -0.21401662489E+03  0.24735292532E+03 -0.38664939701E+03  0.50644283153E+03  0.25500000920E-02 0.  1.
</event>
<event>
 5   0  0.7395088E-04  0.1601060E+04  0.7818609E-02  0.8819897E-01
       -2   -1    0    0    0  501  0.00000000000E+00  0.00000000000E+00  0.47976242014E+03  0.47976242014E+03  0.25500000920E-02 0. -1.
        2   -1    0    0  501    0  0.00000000000E+00  0.00000000000E+00 -0.13357620762E+04  0.13357620762E+04  0.25500000920E-02 0.  1.
    10030    2    1    2    0    0  0.00000000000E+00  0.00000000000E+00 -0.85599965602E+03  0.18155244963E+04  0.16010602067E+04 0.  0.
        1    1    3    3  502    0  0.49672461684E+03  0.39613832286E+02 -0.11384580358E+04  0.12427354103E+04  0.50400001928E-02 0.  1.
       -1    1    3    3    0  502 -0.49672461684E+03 -0.39613832286E+02  0.28245837981E+03  0.57278908599E+03  0.50400001928E-02 0. -1.
</event>
<event>
 5   0  0.3889847E-04  0.1601190E+04  0.7818609E-02  0.8819817E-01
        1   -1    0    0  501    0  0.00000000000E+00  0.00000000000E+00  0.13203212377E+04  0.13203212377E+04  0.50400001928E-02 0. -1.
       -1   -1    0    0    0  501  0.00000000000E+00  0.00000000000E+00 -0.48545190185E+03  0.48545190188E+03  0.50400001928E-02 0.  1.
    10030    2    1    2    0    0  0.00000000000E+00  0.00000000000E+00  0.83486933585E+03  0.18057731396E+04  0.16011901273E+04 0.  0.
        1    1    3    3  502    0  0.61454982849E+03  0.39997665137E+03  0.77990268710E+03  0.10704676617E+04  0.50400001928E-02 0. -1.
       -1    1    3    3    0  502 -0.61454982849E+03 -0.39997665137E+03  0.54966648743E+02  0.73530547791E+03  0.50400001928E-02 0.  1.
</event>
<event>
 5   0  0.3889847E-04  0.1607621E+04  0.7818609E-02  0.8815880E-01
       -1   -1    0    0    0  501  0.00000000000E+00  0.00000000000E+00  0.51779394587E+03  0.51779394589E+03  0.50400001928E-02 0.  1.
        1   -1    0    0  501    0  0.00000000000E+00  0.00000000000E+00 -0.12478156249E+04  0.12478156249E+04  0.50400001928E-02 0. -1.
    10030    2    1    2    0    0  0.00000000000E+00  0.00000000000E+00 -0.73002167905E+03  0.17656095708E+04  0.16076210700E+04 0.  0.
        1    1    3    3  502    0 -0.40449971769E+03 -0.37970930469E+03  0.27379637669E+03  0.61867894226E+03  0.50400001928E-02 0.  1.
       -1    1    3    3    0  502  0.40449971769E+03  0.37970930469E+03 -0.10038180557E+04  0.11469306286E+04  0.50400001928E-02 0. -1.
</event>
<event>
 5   0  0.3973227E-04  0.1600994E+04  0.7818609E-02  0.8819938E-01
       -1   -1    0    0    0  501  0.00000000000E+00  0.00000000000E+00  0.58825864612E+03  0.58825864615E+03  0.50400001928E-02 0.  1.
        1   -1    0    0  501    0  0.00000000000E+00  0.00000000000E+00 -0.10893090914E+04  0.10893090914E+04  0.50400001928E-02 0. -1.
    10030    2    1    2    0    0  0.00000000000E+00  0.00000000000E+00 -0.50105044525E+03  0.16775677375E+04  0.16009940554E+04 0.  0.
        3    1    3    3  502    0  0.12825592996E+03 -0.40958787369E+03 -0.95855338737E+03  0.10502554054E+04  0.10100000352E+00 0. -1.
       -3    1    3    3    0  502 -0.12825592996E+03  0.40958787369E+03  0.45750294212E+03  0.62731233217E+03  0.10100000352E+00 0.  1.
</event>
<event>
 5   0  0.7488884E-04  0.1599463E+04  0.7818609E-02  0.8820878E-01
       -2   -1    0    0    0  501  0.00000000000E+00  0.00000000000E+00  0.10148817100E+04  0.10148817100E+04  0.25500000920E-02 0.  1.
        2   -1    0    0  501    0  0.00000000000E+00  0.00000000000E+00 -0.63019215045E+03  0.63019215046E+03  0.25500000920E-02 0. -1.
    10030    2    1    2    0    0  0.00000000000E+00  0.00000000000E+00  0.38468955950E+03  0.16450738604E+04  0.15994630190E+04 0.  0.
        3    1    3    3  502    0  0.73655354398E+02  0.50738578279E+02 -0.62503196159E+03  0.63139882624E+03  0.10100000352E+00 0. -1.
       -3    1    3    3    0  502 -0.73655354398E+02 -0.50738578279E+02  0.10097215211E+04  0.10136750342E+04  0.10100000352E+00 0.  1.
</event>
<event>
 5   0  0.7770905E-04  0.1584504E+04  0.7818609E-02  0.8830125E-01
        2   -1    0    0  501    0  0.00000000000E+00  0.00000000000E+00  0.93760557208E+03  0.93760557208E+03  0.25500000920E-02 0.  1.
       -2   -1    0    0    0  501  0.00000000000E+00  0.00000000000E+00 -0.66943180959E+03  0.66943180959E+03  0.25500000920E-02 0. -1.
    10030    2    1    2    0    0  0.00000000000E+00  0.00000000000E+00  0.26817376249E+03  0.16070373817E+04  0.15845037012E+04 0.  0.
        2    1    3    3  502    0 -0.65327489102E+03  0.37409707239E+03 -0.11629699878E+03  0.76173597443E+03  0.25500000920E-02 0. -1.
       -2    1    3    3    0  502  0.65327489102E+03 -0.37409707239E+03  0.38447076127E+03  0.84530140725E+03  0.25500000920E-02 0.  1.
</event>
<event>
 5   0  0.3837251E-04  0.1498067E+04  0.7818609E-02  0.8885740E-01
       -1   -1    0    0    0  501  0.00000000000E+00  0.00000000000E+00  0.11083673233E+04  0.11083673233E+04  0.50400001928E-02 0.  1.
        1   -1    0    0  501    0  0.00000000000E+00  0.00000000000E+00 -0.50619578834E+03  0.50619578836E+03  0.50400001928E-02 0. -1.
    10030    2    1    2    0    0  0.00000000000E+00  0.00000000000E+00  0.60217153500E+03  0.16145631117E+04  0.14980665820E+04 0.  0.
        4    1    3    3  502    0  0.44914903537E+03  0.88012816639E+02  0.94012668868E+03  0.10456198714E+04  0.12699999809E+01 0.  1.
       -4    1    3    3    0  502 -0.44914903537E+03 -0.88012816639E+02 -0.33795515368E+03  0.56894324028E+03  0.12699999809E+01 0. -1.
</event>
<event>
 5   0  0.7395088E-04  0.1603912E+04  0.7818609E-02  0.8818148E-01
        2   -1    0    0  501    0  0.00000000000E+00  0.00000000000E+00  0.11577238958E+04  0.11577238958E+04  0.25500000920E-02 0. -1.
       -2   -1    0    0    0  501  0.00000000000E+00  0.00000000000E+00 -0.55551545916E+03  0.55551545916E+03  0.25500000920E-02 0.  1.
    10030    2    1    2    0    0  0.00000000000E+00  0.00000000000E+00  0.60220843667E+03  0.17132393550E+04  0.16039121193E+04 0.  0.
        1    1    3    3  502    0  0.14371475693E+03  0.71894706923E+02 -0.53814199427E+03  0.56162228078E+03  0.50400001928E-02 0.  1.
       -1    1    3    3    0  502 -0.14371475693E+03 -0.71894706923E+02  0.11403504309E+04  0.11516170742E+04  0.50400001928E-02 0. -1.
</event>
<event>
 5   0  0.7415102E-04  0.1575971E+04  0.7818609E-02  0.8835447E-01
       -2   -1    0    0    0  501  0.00000000000E+00  0.00000000000E+00  0.94015262550E+03  0.94015262550E+03  0.25500000920E-02 0.  1.
        2   -1    0    0  501    0  0.00000000000E+00  0.00000000000E+00 -0.66044730673E+03  0.66044730674E+03  0.25500000920E-02 0. -1.
    10030    2    1    2    0    0  0.00000000000E+00  0.00000000000E+00  0.27970531877E+03  0.16005999322E+04  0.15759711538E+04 0.  0.
        5    1    3    3  502    0  0.51979942730E+03 -0.47425660406E+02  0.73938151045E+03  0.90506781286E+03  0.46999998093E+01 0.  1.
       -5    1    3    3    0  502 -0.51979942730E+03  0.47425660406E+02 -0.45967619168E+03  0.69553211938E+03  0.46999998093E+01 0. -1.
</event>
<event>
 5   0  0.3837251E-04  0.1613433E+04  0.7818609E-02  0.8812338E-01
       -1   -1    0    0    0  501  0.00000000000E+00  0.00000000000E+00  0.21313336307E+04  0.21313336308E+04  0.50400001928E-02 0.  1.
        1   -1    0    0  501    0  0.00000000000E+00  0.00000000000E+00 -0.30534481416E+03  0.30534481420E+03  0.50400001928E-02 0. -1.
    10030    2    1    2    0    0  0.00000000000E+00  0.00000000000E+00  0.18259888166E+04  0.24366784450E+04  0.16134331984E+04 0.  0.
        4    1    3    3  502    0  0.26337453081E+03 -0.75422129793E+03  0.10823449268E+04  0.13452464693E+04  0.12699999809E+01 0.  1.
       -4    1    3    3    0  502 -0.26337453081E+03  0.75422129793E+03  0.74364388978E+03  0.10914319756E+04  0.12699999809E+01 0. -1.
</event>
<event>
 5   0  0.7395088E-04  0.1628037E+04  0.7818609E-02  0.8803506E-01
       -2   -1    0    0    0  501  0.00000000000E+00  0.00000000000E+00  0.41103338550E+03  0.41103338551E+03  0.25500000920E-02 0.  1.
        2   -1    0    0  501    0  0.00000000000E+00  0.00000000000E+00 -0.16120983124E+04  0.16120983124E+04  0.25500000920E-02 0. -1.
    10030    2    1    2    0    0  0.00000000000E+00  0.00000000000E+00 -0.12010649269E+04  0.20231316979E+04  0.16280371336E+04 0.  0.
        1    1    3    3  502    0 -0.43809621058E+03 -0.38174877792E+03 -0.13089326749E+04  0.14321191174E+04  0.50400001928E-02 0. -1.
       -1    1    3    3    0  502  0.43809621058E+03  0.38174877792E+03  0.10786774799E+03  0.59101258045E+03  0.50400001928E-02 0.  1.
</event>
<event>
 5   0  0.3889847E-04  0.1617484E+04  0.7818609E-02  0.8809878E-01
        1   -1    0    0  501    0  0.00000000000E+00  0.00000000000E+00  0.65857756334E+03  0.65857756336E+03  0.50400001928E-02 0.  1.
       -1   -1    0    0    0  501  0.00000000000E+00  0.00000000000E+00 -0.99314620988E+03  0.99314620989E+03  0.50400001928E-02 0. -1.
    10030    2    1    2    0    0  0.00000000000E+00  0.00000000000E+00 -0.33456864654E+03  0.16517237733E+04  0.16174842330E+04 0.  0.
        1    1    3    3  502    0  0.24938604914E+02  0.17458330799E+03 -0.97327187047E+03  0.98912051810E+03  0.50400001928E-02 0. -1.
       -1    1    3    3    0  502 -0.24938604914E+02 -0.17458330799E+03  0.63870322394E+03  0.66260325515E+03  0.50400001928E-02 0.  1.
</event>
<event>
 5   0  0.7395088E-04  0.1595251E+04  0.7818609E-02  0.8823471E-01
       -2   -1    0    0    0  501  0.00000000000E+00  0.00000000000E+00  0.45741780742E+03  0.45741780743E+03  0.25500000920E-02 0.  1.
        2   -1    0    0  501    0  0.00000000000E+00  0.00000000000E+00 -0.13908658308E+04  0.13908658308E+04  0.25500000920E-02 0. -1.
    10030    2    1    2    0    0  0.00000000000E+00  0.00000000000E+00 -0.93344802338E+03  0.18482836382E+04  0.15952514520E+04 0.  0.
        1    1    3    3  502    0  0.24673474263E+03 -0.63843757761E+02 -0.13424205210E+04  0.13663992512E+04  0.50400001928E-02 0. -1.
       -1    1    3    3    0  502 -0.24673474263E+03  0.63843757761E+02  0.40897249759E+03  0.48188438700E+03  0.50400001928E-02 0.  1.
</event>
<event>
 5   0  0.3837251E-04  0.1568563E+04  0.7818609E-02  0.8840097E-01
       -1   -1    0    0    0  501  0.00000000000E+00  0.00000000000E+00  0.38153623172E+03  0.38153623175E+03  0.50400001928E-02 0. -1.
        1   -1    0    0  501    0  0.00000000000E+00  0.00000000000E+00 -0.16121601190E+04  0.16121601190E+04  0.50400001928E-02 0.  1.
    10030    2    1    2    0    0  0.00000000000E+00  0.00000000000E+00 -0.12306238872E+04  0.19936963507E+04  0.15685630325E+04 0.  0.
        4    1    3    3  502    0 -0.71976144567E+03  0.65622791130E+02 -0.22825560822E+03  0.75793477620E+03  0.12699999809E+01 0. -1.
       -4    1    3    3    0  502  0.71976144567E+03 -0.65622791130E+02 -0.10023682790E+04  0.12357615745E+04  0.12699999809E+01 0.  1.
</event>
<event>
 5   0  0.7770905E-04  0.1610508E+04  0.7818609E-02  0.8814118E-01
        2   -1    0    0  501    0  0.00000000000E+00  0.00000000000E+00  0.56138366463E+03  0.56138366464E+03  0.25500000920E-02 0.  1.
       -2   -1    0    0    0  501  0.00000000000E+00  0.00000000000E+00 -0.11550638000E+04  0.11550638000E+04  0.25500000920E-02 0. -1.
    10030    2    1    2    0    0  0.00000000000E+00  0.00000000000E+00 -0.59368013536E+03  0.17164474646E+04  0.16105079310E+04 0.  0.
        2    1    3    3  502    0  0.78272950469E+03  0.12458713941E+03 -0.44849020196E+03  0.91067606430E+03  0.25500000920E-02 0. -1.
       -2    1    3    3    0  502 -0.78272950469E+03 -0.12458713941E+03 -0.14518993339E+03  0.80577140033E+03  0.25500000920E-02 0.  1.
</event>
<event>
 5   0  0.7770905E-04  0.1582354E+04  0.7818609E-02  0.8831463E-01
        2   -1    0    0  501    0  0.00000000000E+00  0.00000000000E+00  0.14509690508E+04  0.14509690508E+04  0.25500000920E-02 0. -1.
       -2   -1    0    0    0  501  0.00000000000E+00  0.00000000000E+00 -0.43140895812E+03  0.43140895813E+03  0.25500000920E-02 0.  1.
    10030    2    1    2    0    0  0.00000000000E+00  0.00000000000E+00  0.10195600927E+04  0.18823780090E+04  0.15823540015E+04 0.  0.
        2    1    3    3  502    0 -0.88839042358E+02 -0.10534148406E+03 -0.41702302270E+03  0.43920087111E+03  0.25500000920E-02 0.  1.
       -2    1    3    3    0  502  0.88839042358E+02  0.10534148406E+03  0.14365831154E+04  0.14431771379E+04  0.25500000920E-02 0. -1.
</event>
<event>
 5   0  0.3837251E-04  0.1607895E+04  0.7818609E-02  0.8815712E-01
       -1   -1    0    0    0  501  0.00000000000E+00  0.00000000000E+00  0.43358497030E+03  0.43358497033E+03  0.50400001928E-02 0.  1.
        1   -1    0    0  501    0  0.00000000000E+00  0.00000000000E+00 -0.14906688384E+04  0.14906688384E+04  0.50400001928E-02 0. -1.
    10030    2    1    2    0    0  0.00000000000E+00  0.00000000000E+00 -0.10570838681E+04  0.19242538087E+04  0.16078950265E+04 0.  0.
        4    1    3    3  502    0  0.72790603559E+03  0.24750497075E+03 -0.24730722209E+03  0.80763134052E+03  0.12699999809E+01 0.  1.
       -4    1    3    3    0  502 -0.72790603559E+03 -0.24750497075E+03 -0.80977664603E+03  0.11166224682E+04  0.12699999809E+01 0. -1.
</event>
<event>
 5   0  0.4110803E-04  0.1545846E+04  0.7818609E-02  0.8854525E-01
        1   -1    0    0  501    0  0.00000000000E+00  0.00000000000E+00  0.10668004090E+04  0.10668004090E+04  0.50400001928E-02 0.  1.
       -1   -1    0    0    0  501  0.00000000000E+00  0.00000000000E+00 -0.56000186007E+03  0.56000186010E+03  0.50400001928E-02 0. -1.
    10030    2    1    2    0    0  0.00000000000E+00  0.00000000000E+00  0.50679854894E+03  0.16268022691E+04  0.15458463228E+04 0.  0.
        5    1    3    3  502    0 -0.41926546956E+03 -0.10368191332E+03  0.92794680353E+03  0.10235432738E+04  0.46999998093E+01 0.  1.
       -5    1    3    3    0  502  0.41926546956E+03  0.10368191332E+03 -0.42114825459E+03  0.60325899534E+03  0.46999998093E+01 0. -1.
</event>
<event>
 5   0  0.3950195E-04  0.1603294E+04  0.7818609E-02  0.8818527E-01
        1   -1    0    0  501    0  0.00000000000E+00  0.00000000000E+00  0.10211775365E+04  0.10211775365E+04  0.50400001928E-02 0. -1.
       -1   -1    0    0    0  501  0.00000000000E+00  0.00000000000E+00 -0.62931030585E+03  0.62931030587E+03  0.50400001928E-02 0.  1.
    10030    2    1    2    0    0  0.00000000000E+00  0.00000000000E+00  0.39186723065E+03  0.16504878424E+04  0.16032935450E+04 0.  0.
        2    1    3    3  502    0 -0.15202584594E+03  0.17341766653E+03 -0.59442375841E+03  0.63759324766E+03  0.25500000920E-02 0.  1.
       -2    1    3    3    0  502  0.15202584594E+03 -0.17341766653E+03  0.98629098907E+03  0.10128945947E+04  0.25500000920E-02 0. -1.
</event>
<event>
 5   0  0.7488884E-04  0.1662866E+04  0.7818609E-02  0.8782831E-01
       -2   -1    0    0    0  501  0.00000000000E+00  0.00000000000E+00  0.84242761751E+03  0.84242761751E+03  0.25500000920E-02 0.  1.
        2   -1    0    0  501    0  0.00000000000E+00  0.00000000000E+00 -0.82058204635E+03  0.82058204635E+03  0.25500000920E-02 0. -1.
    10030    2    1    2    0    0  0.00000000000E+00  0.00000000000E+00  0.21845571161E+02  0.16630096639E+04  0.16628661741E+04 0.  0.
        3    1    3    3  502    0  0.71516126609E+03 -0.26756905313E+03 -0.31809212746E+03  0.82718283738E+03  0.10100000352E+00 0. -1.
       -3    1    3    3    0  502 -0.71516126609E+03  0.26756905313E+03  0.33993769862E+03  0.83582682648E+03  0.10100000352E+00 0.  1.
</event>
<event>
 5   0  0.3950195E-04  0.1590483E+04  0.7818609E-02  0.8826416E-01
       -1   -1    0    0    0  501  0.00000000000E+00  0.00000000000E+00  0.67690287397E+03  0.67690287399E+03  0.50400001928E-02 0. -1.
        1   -1    0    0  501    0  0.00000000000E+00  0.00000000000E+00 -0.93426806269E+03  0.93426806270E+03  0.50400001928E-02 0.  1.
    10030    2    1    2    0    0  0.00000000000E+00  0.00000000000E+00 -0.25736518872E+03  0.16111709367E+04  0.15904826145E+04 0.  0.
        2    1    3    3  502    0  0.29347376770E+03 -0.13814800370E+03 -0.86421051581E+03  0.92307721177E+03  0.25500000920E-02 0.  1.
       -2    1    3    3    0  502 -0.29347376770E+03  0.13814800370E+03  0.60684532709E+03  0.68809372492E+03  0.25500000920E-02 0. -1.
</event>
<event>
 5   0  0.3889847E-04  0.1590583E+04  0.7818609E-02  0.8826354E-01
       -1   -1    0    0    0  501  0.00000000000E+00  0.00000000000E+00  0.29393284259E+03  0.29393284263E+03  0.50400001928E-02 0.  1.
        1   -1    0    0  501    0  0.00000000000E+00  0.00000000000E+00 -0.21518134524E+04  0.21518134524E+04  0.50400001928E-02 0. -1.
    10030    2    1    2    0    0  0.00000000000E+00  0.00000000000E+00 -0.18578806098E+04  0.24457462950E+04  0.15905830941E+04 0.  0.
        1    1    3    3  502    0  0.10728688312E+02 -0.48345184954E+03 -0.18997849842E+04  0.19603631760E+04  0.50400001928E-02 0. -1.
       -1    1    3    3    0  502 -0.10728688312E+02  0.48345184954E+03  0.41904374438E+02  0.48538311899E+03  0.50400001928E-02 0.  1.
</event>
<event>
 5   0  0.7395088E-04  0.1622734E+04  0.7818609E-02  0.8806702E-01
        2   -1    0    0  501    0  0.00000000000E+00  0.00000000000E+00  0.20118510570E+04  0.20118510570E+04  0.25500000920E-02 0. -1.
       -2   -1    0    0    0  501  0.00000000000E+00  0.00000000000E+00 -0.32721932112E+03  0.32721932113E+03  0.25500000920E-02 0.  1.
    10030    2    1    2    0    0  0.00000000000E+00  0.00000000000E+00  0.16846317359E+04  0.23390703781E+04  0.16227341582E+04 0.  0.
        1    1    3    3  502    0  0.62717418325E+03  0.35750049042E+03  0.30847283911E+03  0.78505385120E+03  0.50400001928E-02 0.  1.
       -1    1    3    3    0  502 -0.62717418325E+03 -0.35750049042E+03  0.13761588968E+04  0.15540165269E+04  0.50400001928E-02 0. -1.
</event>
<event>
 5   0  0.4110803E-04  0.1582687E+04  0.7818609E-02  0.8831255E-01
       -1   -1    0    0    0  501  0.00000000000E+00  0.00000000000E+00  0.27472513383E+03  0.27472513387E+03  0.50400001928E-02 0.  1.
        1   -1    0    0  501    0  0.00000000000E+00  0.00000000000E+00 -0.22794592176E+04  0.22794592176E+04  0.50400001928E-02 0. -1.
    10030    2    1    2    0    0  0.00000000000E+00  0.00000000000E+00 -0.20047340838E+04  0.25541843515E+04  0.15826872574E+04 0.  0.
        5    1    3    3  502    0  0.22574789051E+03  0.74734736437E+03 -0.79373679743E+03  0.11133419900E+04  0.46999998093E+01 0. -1.
       -5    1    3    3    0  502 -0.22574789051E+03 -0.74734736437E+03 -0.12109972863E+04  0.14408423615E+04  0.46999998093E+01 0.  1.
</event>
<event>
 5   0  0.4110803E-04  0.1611452E+04  0.7818609E-02  0.8813543E-01
        1   -1    0    0  501    0  0.00000000000E+00  0.00000000000E+00  0.44697631783E+03  0.44697631786E+03  0.50400001928E-02 0.  1.
       -1   -1    0    0    0  501  0.00000000000E+00  0.00000000000E+00 -0.14524134490E+04  0.14524134490E+04  0.50400001928E-02 0. -1.
    10030    2    1    2    0    0  0.00000000000E+00  0.00000000000E+00 -0.10054371312E+04  0.18993897669E+04  0.16114520352E+04 0.  0.
        5    1    3    3  502    0  0.25389783972E+03 -0.50127689336E+03 -0.11833293778E+04  0.13099744819E+04  0.46999998093E+01 0. -1.
       -5    1    3    3    0  502 -0.25389783972E+03  0.50127689336E+03  0.17789224658E+03  0.58941528503E+03  0.46999998093E+01 0.  1.
</event>
<event>
 5   0  0.7770905E-04  0.1640046E+04  0.7818609E-02  0.8796317E-01
       -2   -1    0    0    0  501  0.00000000000E+00  0.00000000000E+00  0.80967757235E+03  0.80967757236E+03  0.25500000920E-02 0. -1.
        2   -1    0    0  501    0  0.00000000000E+00  0.00000000000E+00 -0.83050013983E+03  0.83050013983E+03  0.25500000920E-02 0.  1.
    10030    2    1    2    0    0  0.00000000000E+00  0.00000000000E+00 -0.20822567473E+02  0.16401777122E+04  0.16400455324E+04 0.  0.
        2    1    3    3  502    0  0.34210191052E+03  0.49425184325E+03  0.54741385616E+03  0.81300709201E+03  0.25500000920E-02 0. -1.
       -2    1    3    3    0  502 -0.34210191052E+03 -0.49425184325E+03 -0.56823642363E+03  0.82717062018E+03  0.25500000920E-02 0.  1.
</event>
<event>
 5   0  0.7770905E-04  0.1565522E+04  0.7818609E-02  0.8842014E-01
       -2   -1    0    0    0  501  0.00000000000E+00  0.00000000000E+00  0.52335420895E+03  0.52335420896E+03  0.25500000920E-02 0. -1.
        2   -1    0    0  501    0  0.00000000000E+00  0.00000000000E+00 -0.11707452027E+04  0.11707452027E+04  0.25500000920E-02 0.  1.
    10030    2    1    2    0    0  0.00000000000E+00  0.00000000000E+00 -0.64739099379E+03  0.16940994117E+04  0.15655215482E+04 0.  0.
        2    1    3    3  502    0  0.64147354551E+03 -0.27543628449E+03 -0.70683860605E+03  0.99346578774E+03  0.25500000920E-02 0.  1.
       -2    1    3    3    0  502 -0.64147354551E+03  0.27543628449E+03  0.59447612261E+02  0.70063362396E+03  0.25500000920E-02 0. -1.
</event>
<event>
 5   0  0.3973227E-04  0.1614942E+04  0.7818609E-02  0.8811421E-01
       -1   -1    0    0    0  501  0.00000000000E+00  0.00000000000E+00  0.58183825270E+03  0.58183825273E+03  0.50400001928E-02 0.  1.
        1   -1    0    0  501    0  0.00000000000E+00  0.00000000000E+00 -0.11206018874E+04  0.11206018874E+04  0.50400001928E-02 0. -1.
    10030    2    1    2    0    0  0.00000000000E+00  0.00000000000E+00 -0.53876363469E+03  0.17024401401E+04  0.16149415397E+04 0.  0.
        3    1    3    3  502    0  0.30140593602E+03 -0.37888390581E+03  0.41185912359E+03  0.63563078925E+03  0.10100000352E+00 0.  1.
       -3    1    3    3    0  502 -0.30140593602E+03  0.37888390581E+03 -0.95062275829E+03  0.10668093509E+04  0.10100000352E+00 0. -1.
</event>
<event>
 5   0  0.7415102E-04  0.1602025E+04  0.7818609E-02  0.8819305E-01
        2   -1    0    0  501    0  0.00000000000E+00  0.00000000000E+00  0.18363485733E+04  0.18363485733E+04  0.25500000920E-02 0.  1.
       -2   -1    0    0    0  501  0.00000000000E+00  0.00000000000E+00 -0.34940057432E+03  0.34940057433E+03  0.25500000920E-02 0. -1.
    10030    2    1    2    0    0  0.00000000000E+00  0.00000000000E+00  0.14869479990E+04  0.21857491476E+04  0.16020252759E+04 0.  0.
        5    1    3    3  502    0  0.90628960839E+02 -0.74743733777E+03  0.37051763104E+03  0.83915528202E+03  0.46999998093E+01 0. -1.
       -5    1    3    3    0  502 -0.90628960839E+02  0.74743733777E+03  0.11164303680E+04  0.13465938656E+04  0.46999998093E+01 0.  1.
</event>
<event>
 5   0  0.3837251E-04  0.1573554E+04  0.7818609E-02  0.8836961E-01
        1   -1    0    0  501    0  0.00000000000E+00  0.00000000000E+00  0.81448220215E+03  0.81448220217E+03  0.50400001928E-02 0. -1.
       -1   -1    0    0    0  501  0.00000000000E+00  0.00000000000E+00 -0.76001468103E+03  0.76001468105E+03  0.50400001928E-02 0.  1.
    10030    2    1    2    0    0  0.00000000000E+00  0.00000000000E+00  0.54467521120E+02  0.15744968832E+04  0.15735544873E+04 0.  0.
        4    1    3    3  502    0  0.42530666034E+03 -0.65905710028E+03  0.88709969137E+02  0.78937512520E+03  0.12699999809E+01 0.  1.
       -4    1    3    3    0  502 -0.42530666034E+03  0.65905710028E+03 -0.34242448017E+02  0.78512175802E+03  0.12699999809E+01 0. -1.
</event>
<event>
 5   0  0.7770905E-04  0.1627563E+04  0.7818609E-02  0.8803792E-01
        2   -1    0    0  501    0  0.00000000000E+00  0.00000000000E+00  0.98296249437E+03  0.98296249437E+03  0.25500000920E-02 0. -1.
       -2   -1    0    0    0  501  0.00000000000E+00  0.00000000000E+00 -0.67371890025E+03  0.67371890026E+03  0.25500000920E-02 0.  1.
    10030    2    1    2    0    0  0.00000000000E+00  0.00000000000E+00  0.30924359411E+03  0.16566813946E+04  0.16275630995E+04 0.  0.
        2    1    3    3  502    0  0.68910582029E+02  0.46632953784E+03 -0.52059240017E+03  0.70230218090E+03  0.25500000920E-02 0.  1.
       -2    1    3    3    0  502 -0.68910582029E+02 -0.46632953784E+03  0.82983599428E+03  0.95437921373E+03  0.25500000920E-02 0. -1.
</event>
<event>
 5   0  0.3973227E-04  0.1600055E+04  0.7818609E-02  0.8820515E-01
        1   -1    0    0  501    0  0.00000000000E+00  0.00000000000E+00  0.12244532852E+04  0.12244532852E+04  0.50400001928E-02 0. -1.
       -1   -1    0    0    0  501  0.00000000000E+00  0.00000000000E+00 -0.52271788133E+03  0.52271788135E+03  0.50400001928E-02 0.  1.
    10030    2    1    2    0    0  0.00000000000E+00  0.00000000000E+00  0.70173540386E+03  0.17471711665E+04  0.16000545329E+04 0.  0.
        3    1    3    3  502    0 -0.12478504011E+03  0.70049953012E+03 -0.48510581989E+02  0.71317892895E+03  0.10100000352E+00 0.  1.
       -3    1    3    3    0  502  0.12478504011E+03 -0.70049953012E+03  0.75024598585E+03  0.10339922376E+04  0.10100000352E+00 0. -1.
</event>
<event>
 5   0  0.4110803E-04  0.1603775E+04  0.7818609E-02  0.8818232E-01
       -1   -1    0    0    0  501  0.00000000000E+00  0.00000000000E+00  0.67368450895E+03  0.67368450897E+03  0.50400001928E-02 0. -1.
        1   -1    0    0  501    0  0.00000000000E+00  0.00000000000E+00 -0.95448823215E+03  0.95448823216E+03  0.50400001928E-02 0.  1.
    10030    2    1    2    0    0  0.00000000000E+00  0.00000000000E+00 -0.28080372320E+03  0.16281727411E+04  0.16037754656E+04 0.  0.
        5    1    3    3  502    0 -0.41834505798E+03 -0.64649305513E+02 -0.83179782513E+03  0.93332836244E+03  0.46999998093E+01 0.  1.
       -5    1    3    3    0  502  0.41834505798E+03  0.64649305513E+02  0.55099410193E+03  0.69484437869E+03  0.46999998093E+01 0. -1.
</event>
<event>
 5   0  0.3950195E-04  0.1259613E+04  0.7818609E-02  0.9062220E-01
       -1   -1    0    0    0  501  0.00000000000E+00  0.00000000000E+00  0.23598539071E+03  0.23598539077E+03  0.50400001928E-02 0.  1.
        1   -1    0    0  501    0  0.00000000000E+00  0.00000000000E+00 -0.16808510881E+04  0.16808510881E+04  0.50400001928E-02 0. -1.
    10030    2    1    2    0    0  0.00000000000E+00  0.00000000000E+00 -0.14448656973E+04  0.19168364788E+04  0.12596131165E+04 0.  0.
        2    1    3    3  502    0 -0.86800541363E+02 -0.59427546677E+03 -0.10110017319E+04  0.11759345927E+04  0.25500000920E-02 0. -1.
       -2    1    3    3    0  502  0.86800541363E+02  0.59427546677E+03 -0.43386396549E+03  0.74090188618E+03  0.25500000920E-02 0.  1.
</event>
<event>
 5   0  0.4110803E-04  0.1591120E+04  0.7818609E-02  0.8826022E-01
       -1   -1    0    0    0  501  0.00000000000E+00  0.00000000000E+00  0.81921306840E+03  0.81921306842E+03  0.50400001928E-02 0.  1.
        1   -1    0    0  501    0  0.00000000000E+00  0.00000000000E+00 -0.77259010987E+03  0.77259010989E+03  0.50400001928E-02 0. -1.
    10030    2    1    2    0    0  0.00000000000E+00  0.00000000000E+00  0.46622958531E+02  0.15918031783E+04  0.15911202526E+04 0.  0.
        5    1    3    3  502    0  0.70733642752E+03 -0.36408192139E+03  0.26967821129E+02  0.79600868121E+03  0.46999998093E+01 0.  1.
       -5    1    3    3    0  502 -0.70733642752E+03  0.36408192139E+03  0.19655137402E+02  0.79579449710E+03  0.46999998093E+01 0. -1.
</event>
<event>
 5   0  0.7770905E-04  0.1637146E+04  0.7818609E-02  0.8798047E-01
       -2   -1    0    0    0  501  0.00000000000E+00  0.00000000000E+00  0.40855789150E+03  0.40855789151E+03  0.25500000920E-02 0. -1.
        2   -1    0    0  501    0  0.00000000000E+00  0.00000000000E+00 -0.16400662595E+04  0.16400662595E+04  0.25500000920E-02 0.  1.
    10030    2    1    2    0    0  0.00000000000E+00  0.00000000000E+00 -0.12315083680E+04  0.20486241510E+04  0.16371463135E+04 0.  0.
        2    1    3    3  502    0 -0.98665622241E+02  0.81220166249E+03 -0.58371485203E+03  0.10050519758E+04  0.25500000920E-02 0. -1.
       -2    1    3    3    0  502  0.98665622241E+02 -0.81220166249E+03 -0.64779351596E+03  0.10435721752E+04  0.25500000920E-02 0.  1.
</event>
<event>
 5   0  0.7770905E-04  0.1589863E+04  0.7818609E-02  0.8826800E-01
        2   -1    0    0  501    0  0.00000000000E+00  0.00000000000E+00  0.14738183203E+04  0.14738183203E+04  0.25500000920E-02 0. -1.
       -2   -1    0    0    0  501  0.00000000000E+00  0.00000000000E+00 -0.42876102982E+03  0.42876102983E+03  0.25500000920E-02 0.  1.
    10030    2    1    2    0    0  0.00000000000E+00  0.00000000000E+00  0.10450572905E+04  0.19025793501E+04  0.15898627120E+04 0.  0.
        2    1    3    3  502    0  0.70166418190E+03  0.12062189384E+03  0.94568075915E+03  0.11837205598E+04  0.25500000920E-02 0. -1.
       -2    1    3    3    0  502 -0.70166418190E+03 -0.12062189384E+03  0.99376531315E+02  0.71885879032E+03  0.25500000920E-02 0.  1.
</event>
<event>
 5   0  0.3837251E-04  0.1603974E+04  0.7818609E-02  0.8818110E-01
       -1   -1    0    0    0  501  0.00000000000E+00  0.00000000000E+00  0.63606474994E+03  0.63606474996E+03  0.50400001928E-02 0. -1.
        1   -1    0    0  501    0  0.00000000000E+00  0.00000000000E+00 -0.10111914380E+04  0.10111914380E+04  0.50400001928E-02 0.  1.
    10030    2    1    2    0    0  0.00000000000E+00  0.00000000000E+00 -0.37512668807E+03  0.16472561880E+04  0.16039741010E+04 0.  0.
        4    1    3    3  502    0 -0.57930037414E+03  0.43225747927E+03  0.16929878990E+03  0.74236052227E+03  0.12699999809E+01 0. -1.
       -4    1    3    3    0  502  0.57930037414E+03 -0.43225747927E+03 -0.54442547796E+03  0.90489566571E+03  0.12699999809E+01 0.  1.
</event>
<event>
 5   0  0.7553070E-04  0.1601496E+04  0.7818609E-02  0.8819629E-01
        2   -1    0    0  501    0  0.00000000000E+00  0.00000000000E+00  0.12083632709E+04  0.12083632709E+04  0.25500000920E-02 0.  1.
       -2   -1    0    0    0  501  0.00000000000E+00  0.00000000000E+00 -0.53063311624E+03  0.53063311624E+03  0.25500000920E-02 0. -1.
    10030    2    1    2    0    0  0.00000000000E+00  0.00000000000E+00  0.67773015469E+03  0.17389963872E+04  0.16014962604E+04 0.  0.
        4    1    3    3  502    0 -0.32829836796E+03  0.49092657853E+03  0.92603906147E+03  0.10983345029E+04  0.12699999809E+01 0.  1.
       -4    1    3    3    0  502  0.32829836796E+03 -0.49092657853E+03 -0.24830890679E+03  0.64066188430E+03  0.12699999809E+01 0. -1.
</event>
<event>
 5   0  0.2781000E-04  0.1621689E+04  0.7818609E-02  0.8807333E-01
        3   -1    0    0  501    0  0.00000000000E+00  0.00000000000E+00  0.90468027273E+03  0.90468027837E+03  0.10100000352E+00 0.  1.
       -3   -1    0    0    0  501  0.00000000000E+00  0.00000000000E+00 -0.72674152653E+03  0.72674153355E+03  0.10100000352E+00 0. -1.
    10030    2    1    2    0    0  0.00000000000E+00  0.00000000000E+00  0.17793874620E+03  0.16314218119E+04  0.16216889131E+04 0.  0.
        4    1    3    3  502    0 -0.91984083881E+01 -0.79731303986E+03  0.23707532623E+03  0.83186478315E+03  0.12699999809E+01 0. -1.
       -4    1    3    3    0  502  0.91984083881E+01  0.79731303986E+03 -0.59136580022E+02  0.79955702876E+03  0.12699999809E+01 0.  1.
</event>
<event>
 5   0  0.4110803E-04  0.1598422E+04  0.7818609E-02  0.8821518E-01
        1   -1    0    0  501    0  0.00000000000E+00  0.00000000000E+00  0.71453881710E+03  0.71453881712E+03  0.50400001928E-02 0. -1.
       -1   -1    0    0    0  501  0.00000000000E+00  0.00000000000E+00 -0.89391624632E+03  0.89391624633E+03  0.50400001928E-02 0.  1.
    10030    2    1    2    0    0  0.00000000000E+00  0.00000000000E+00 -0.17937742922E+03  0.16084550634E+04  0.15984215430E+04 0.  0.
        5    1    3    3  502    0  0.39044859165E+03 -0.53162189981E+03 -0.54379051706E+03  0.85486967634E+03  0.46999998093E+01 0.  1.
       -5    1    3    3    0  502 -0.39044859165E+03  0.53162189981E+03  0.36441308784E+03  0.75358538711E+03  0.46999998093E+01 0. -1.
</event>
<event>
 5   0  0.3973227E-04  0.1593161E+04  0.7818609E-02  0.8824761E-01
        1   -1    0    0  501    0  0.00000000000E+00  0.00000000000E+00  0.11244479984E+04  0.11244479984E+04  0.50400001928E-02 0. -1.
       -1   -1    0    0    0  501  0.00000000000E+00  0.00000000000E+00 -0.56431265563E+03  0.56431265565E+03  0.50400001928E-02 0.  1.
    10030    2    1    2    0    0  0.00000000000E+00  0.00000000000E+00  0.56013534280E+03  0.16887606541E+04  0.15931606776E+04 0.  0.
        3    1    3    3  502    0  0.42460564464E+03  0.13375408275E+03  0.98028208858E+03  0.10766304340E+04  0.10100000352E+00 0. -1.
       -3    1    3    3    0  502 -0.42460564464E+03 -0.13375408275E+03 -0.42014674578E+03  0.61213022005E+03  0.10100000352E+00 0.  1.
</event>
<event>
 5   0  0.7770905E-04  0.1572145E+04  0.7818609E-02  0.8837845E-01
        2   -1    0    0  501    0  0.00000000000E+00  0.00000000000E+00  0.13587532024E+04  0.13587532024E+04  0.25500000920E-02 0.  1.
       -2   -1    0    0    0  501  0.00000000000E+00  0.00000000000E+00 -0.45476265251E+03  0.45476265252E+03  0.25500000920E-02 0. -1.
    10030    2    1    2    0    0  0.00000000000E+00  0.00000000000E+00  0.90399054986E+03  0.18135158549E+04  0.15721452992E+04 0.  0.
        2    1    3    3  502    0  0.73699103277E+03  0.22104071345E+03  0.26636865894E+03  0.81422788079E+03  0.25500000920E-02 0. -1.
       -2    1    3    3    0  502 -0.73699103277E+03 -0.22104071345E+03  0.63762189093E+03  0.99928797410E+03  0.25500000920E-02 0.  1.
</event>
<event>
 5   0  0.3889847E-04  0.1637433E+04  0.7818609E-02  0.8797876E-01
        1   -1    0    0  501    0  0.00000000000E+00  0.00000000000E+00  0.10892020511E+04  0.10892020511E+04  0.50400001928E-02 0. -1.
       -1   -1    0    0    0  501  0.00000000000E+00  0.00000000000E+00 -0.61540129541E+03  0.61540129543E+03  0.50400001928E-02 0.  1.
    10030    2    1    2    0    0  0.00000000000E+00  0.00000000000E+00  0.47380075573E+03  0.17046033466E+04  0.16374325675E+04 0.  0.
        1    1    3    3  502    0  0.64045702845E+03 -0.41834314378E+03  0.54058661201E+03  0.93671237653E+03  0.50400001928E-02 0. -1.
       -1    1    3    3    0  502 -0.64045702845E+03  0.41834314378E+03 -0.66785856281E+02  0.76789097004E+03  0.50400001928E-02 0.  1.
</event>
<event>
 5   0  0.7770905E-04  0.1603817E+04  0.7818609E-02  0.8818206E-01
       -2   -1    0    0    0  501  0.00000000000E+00  0.00000000000E+00  0.32059307175E+03  0.32059307176E+03  0.25500000920E-02 0.  1.
        2   -1    0    0  501    0  0.00000000000E+00  0.00000000000E+00 -0.20058371413E+04  0.20058371413E+04  0.25500000920E-02 0. -1.
    10030    2    1    2    0    0  0.00000000000E+00  0.00000000000E+00 -0.16852440696E+04  0.23264302131E+04  0.16038173095E+04 0.  0.
        2    1    3    3  502    0 -0.77086461930E+03 -0.11930000468E+03 -0.11124131248E+04  0.13586492236E+04  0.25500000920E-02 0. -1.
       -2    1    3    3    0  502  0.77086461930E+03  0.11930000468E+03 -0.57283094474E+03  0.96778098951E+03  0.25500000920E-02 0.  1.
</event>
<event>
 5   0  0.7770905E-04  0.1590414E+04  0.7818609E-02  0.8826459E-01
        2   -1    0    0  501    0  0.00000000000E+00  0.00000000000E+00  0.10858430655E+04  0.10858430656E+04  0.25500000920E-02 0.  1.
       -2   -1    0    0    0  501  0.00000000000E+00  0.00000000000E+00 -0.58236228669E+03  0.58236228670E+03  0.25500000920E-02 0. -1.
    10030    2    1    2    0    0  0.00000000000E+00  0.00000000000E+00  0.50348077886E+03  0.16682053522E+04  0.15904138463E+04 0.  0.
        2    1    3    3  502    0 -0.82802853468E+02 -0.50973946977E+03  0.88601907171E+03  0.10255342193E+04  0.25500000920E-02 0.  1.
       -2    1    3    3    0  502  0.82802853468E+02  0.50973946977E+03 -0.38253829285E+03  0.64267113292E+03  0.25500000920E-02 0. -1.
</event>
<event>
 5   0  0.3973227E-04  0.1555050E+04  0.7818609E-02  0.8848648E-01
        1   -1    0    0  501    0  0.00000000000E+00  0.00000000000E+00  0.69617800066E+03  0.69617800068E+03  0.50400001928E-02 0.  1.
       -1   -1    0    0    0  501  0.00000000000E+00  0.00000000000E+00 -0.86837760522E+03  0.86837760524E+03  0.50400001928E-02 0. -1.
    10030    2    1    2    0    0  0.00000000000E+00  0.00000000000E+00 -0.17219960456E+03  0.15645556059E+04  0.15550503337E+04 0.  0.
        3    1    3    3  502    0 -0.43754530260E+03 -0.39098324633E+03 -0.59934696233E+03  0.83876729919E+03  0.10100000352E+00 0. -1.
       -3    1    3    3    0  502  0.43754530260E+03  0.39098324633E+03  0.42714735777E+03  0.72578830673E+03  0.10100000352E+00 0.  1.
</event>
<event>
 5   0  0.3889847E-04  0.1594620E+04  0.7818609E-02  0.8823860E-01
        1   -1    0    0  501    0  0.00000000000E+00  0.00000000000E+00  0.82081742106E+03  0.82081742107E+03  0.50400001928E-02 0. -1.
       -1   -1    0    0    0  501  0.00000000000E+00  0.00000000000E+00 -0.77447618027E+03  0.77447618028E+03  0.50400001928E-02 0.  1.
    10030    2    1    2    0    0  0.00000000000E+00  0.00000000000E+00  0.46341240787E+02  0.15952936014E+04  0.15946203824E+04 0.  0.
        1    1    3    3  502    0  0.97131639717E+02  0.47646935343E+01  0.81486195787E+03  0.82064442248E+03  0.50400001928E-02 0. -1.
       -1    1    3    3    0  502 -0.97131639717E+02 -0.47646935343E+01 -0.76852071708E+03  0.77464917888E+03  0.50400001928E-02 0.  1.
</event>
<event>
 5   0  0.3973227E-04  0.1627869E+04  0.7818609E-02  0.8803608E-01
        1   -1    0    0  501    0  0.00000000000E+00  0.00000000000E+00  0.32959164278E+03  0.32959164281E+03  0.50400001928E-02 0. -1.
       -1   -1    0    0    0  501  0.00000000000E+00  0.00000000000E+00 -0.20100299991E+04  0.20100299991E+04  0.50400001928E-02 0.  1.
    10030    2    1    2    0    0  0.00000000000E+00  0.00000000000E+00 -0.16804383563E+04  0.23396216419E+04  0.16278686550E+04 0.  0.
        3    1    3    3  502    0 -0.63848833139E+03 -0.50411002857E+03 -0.87810345524E+03  0.11970212857E+04  0.10100000352E+00 0. -1.
       -3    1    3    3    0  502  0.63848833139E+03  0.50411002857E+03 -0.80233490108E+03  0.11426003562E+04  0.10100000352E+00 0.  1.
</event>
<event>
 5   0  0.2781000E-04  0.1610393E+04  0.7818609E-02  0.8814189E-01
       -3   -1    0    0    0  501  0.00000000000E+00  0.00000000000E+00  0.90527697672E+03  0.90527698236E+03  0.10100000352E+00 0.  1.
        3   -1    0    0  501    0  0.00000000000E+00  0.00000000000E+00 -0.71617987105E+03  0.71617987817E+03  0.10100000352E+00 0. -1.
    10030    2    1    2    0    0  0.00000000000E+00  0.00000000000E+00  0.18909710567E+03  0.16214568605E+04  0.16103926959E+04 0.  0.
        2    1    3    3  502    0  0.52691072506E+03  0.55363869501E+03  0.34964757243E+03  0.84047851948E+03  0.25500000920E-02 0.  1.
       -2    1    3    3    0  502 -0.52691072506E+03 -0.55363869501E+03 -0.16055046675E+03  0.78097834104E+03  0.25500000920E-02 0. -1.
</event>
<event>
 5   0  0.3837251E-04  0.1251215E+04  0.7818609E-02  0.9069173E-01
        1   -1    0    0  501    0  0.00000000000E+00  0.00000000000E+00  0.14062479440E+04  0.14062479440E+04  0.50400001928E-02 0.  1.
       -1   -1    0    0    0  501  0.00000000000E+00  0.00000000000E+00 -0.27831846284E+03  0.27831846288E+03  0.50400001928E-02 0. -1.
    10030    2    1    2    0    0  0.00000000000E+00  0.00000000000E+00  0.11279294812E+04  0.16845664069E+04  0.12512150354E+04 0.  0.
        4    1    3    3  502    0 -0.48866058606E+03  0.36484842881E+03  0.75187318530E+03  0.96810043077E+03  0.12699999809E+01 0.  1.
       -4    1    3    3    0  502  0.48866058606E+03 -0.36484842881E+03  0.37605629586E+03  0.71646597612E+03  0.12699999809E+01 0. -1.
</event>
<event>
 5   0  0.3837251E-04  0.1592894E+04  0.7818609E-02  0.8824925E-01
        1   -1    0    0  501    0  0.00000000000E+00  0.00000000000E+00  0.17188032383E+04  0.17188032383E+04  0.50400001928E-02 0.  1.
       -1   -1    0    0    0  501  0.00000000000E+00  0.00000000000E+00 -0.36905205182E+03  0.36905205185E+03  0.50400001928E-02 0. -1.
    10030    2    1    2    0    0  0.00000000000E+00  0.00000000000E+00  0.13497511865E+04  0.20878552902E+04  0.15928940477E+04 0.  0.
        4    1    3    3  502    0 -0.22585942781E+02  0.42640110411E+03 -0.20633938096E+03  0.47424211056E+03  0.12699999809E+01 0. -1.
       -4    1    3    3    0  502  0.22585942781E+02 -0.42640110411E+03  0.15560905675E+04  0.16136131796E+04  0.12699999809E+01 0.  1.
</event>
<event>
 5   0  0.7395088E-04  0.1592294E+04  0.7818609E-02  0.8825296E-01
       -2   -1    0    0    0  501  0.00000000000E+00  0.00000000000E+00  0.32689733138E+03  0.32689733139E+03  0.25500000920E-02 0. -1.
        2   -1    0    0  501    0  0.00000000000E+00  0.00000000000E+00 -0.19389869193E+04  0.19389869193E+04  0.25500000920E-02 0.  1.
    10030    2    1    2    0    0  0.00000000000E+00  0.00000000000E+00 -0.16120895879E+04  0.22658842507E+04  0.15922935025E+04 0.  0.
        1    1    3    3  502    0 -0.13173401115E+03 -0.64768447232E+03 -0.17443566434E+03  0.68357649638E+03  0.50400001928E-02 0. -1.
       -1    1    3    3    0  502  0.13173401115E+03  0.64768447232E+03 -0.14376539235E+04  0.15823077543E+04  0.50400001928E-02 0.  1.
</event>
<event>
 5   0  0.7488884E-04  0.1575969E+04  0.7818609E-02  0.8835448E-01
        2   -1    0    0  501    0  0.00000000000E+00  0.00000000000E+00  0.14856628933E+04  0.14856628933E+04  0.25500000920E-02 0.  1.
       -2   -1    0    0    0  501  0.00000000000E+00  0.00000000000E+00 -0.41794134071E+03  0.41794134072E+03  0.25500000920E-02 0. -1.
    10030    2    1    2    0    0  0.00000000000E+00  0.00000000000E+00  0.10677215526E+04  0.19036042340E+04  0.15759694686E+04 0.  0.
        3    1    3    3  502    0  0.30106410715E+03 -0.61268523635E+02  0.14103346613E+04  0.14434116861E+04  0.10100000352E+00 0.  1.
       -3    1    3    3    0  502 -0.30106410715E+03  0.61268523635E+02 -0.34261310875E+03  0.46019254784E+03  0.10100000352E+00 0. -1.
</event>
<event>
 5   0  0.4110803E-04  0.1246237E+04  0.7818609E-02  0.9073321E-01
        1   -1    0    0  501    0  0.00000000000E+00  0.00000000000E+00  0.52508593307E+03  0.52508593309E+03  0.50400001928E-02 0. -1.
       -1   -1    0    0    0  501  0.00000000000E+00  0.00000000000E+00 -0.73945380619E+03  0.73945380620E+03  0.50400001928E-02 0.  1.
    10030    2    1    2    0    0  0.00000000000E+00  0.00000000000E+00 -0.21436787311E+03  0.12645397393E+04  0.12462372034E+04 0.  0.
        5    1    3    3  502    0  0.48600501658E+03  0.23244619713E+03 -0.42486758317E+03  0.68612437934E+03  0.46999998093E+01 0.  1.
       -5    1    3    3    0  502 -0.48600501658E+03 -0.23244619713E+03  0.21049971006E+03  0.57841535995E+03  0.46999998093E+01 0. -1.
</event>
<event>
 5   0  0.7770905E-04  0.1589063E+04  0.7818609E-02  0.8827295E-01
        2   -1    0    0  501    0  0.00000000000E+00  0.00000000000E+00  0.12437606418E+04  0.12437606418E+04  0.25500000920E-02 0.  1.
       -2   -1    0    0    0  501  0.00000000000E+00  0.00000000000E+00 -0.50755765431E+03  0.50755765432E+03  0.25500000920E-02 0. -1.
    10030    2    1    2    0    0  0.00000000000E+00  0.00000000000E+00  0.73620298750E+03  0.17513182961E+04  0.15890629111E+04 0.  0.
        2    1    3    3  502    0 -0.13007396295E+02 -0.80246947961E+02  0.12391650194E+04  0.12418287766E+04  0.25500000920E-02 0.  1.
       -2    1    3    3    0  502  0.13007396295E+02  0.80246947961E+02 -0.50296203190E+03  0.50948951957E+03  0.25500000920E-02 0. -1.
</event>
<event>
 5   0  0.7553070E-04  0.1589631E+04  0.7818609E-02  0.8826944E-01
       -2   -1    0    0    0  501  0.00000000000E+00  0.00000000000E+00  0.58973743883E+03  0.58973743883E+03  0.25500000920E-02 0.  1.
        2   -1    0    0  501    0  0.00000000000E+00  0.00000000000E+00 -0.10712080375E+04  0.10712080375E+04  0.25500000920E-02 0. -1.
    10030    2    1    2    0    0  0.00000000000E+00  0.00000000000E+00 -0.48147059866E+03  0.16609454763E+04  0.15896307552E+04 0.  0.
        4    1    3    3  502    0  0.30265873187E+03  0.30047326425E+03  0.46005775184E+03  0.62732865264E+03  0.12699999809E+01 0.  1.
       -4    1    3    3    0  502 -0.30265873187E+03 -0.30047326425E+03 -0.94152835050E+03  0.10336168237E+04  0.12699999809E+01 0. -1.
</event>
<event>
 5   0  0.3837251E-04  0.1553475E+04  0.7818609E-02  0.8849651E-01
       -1   -1    0    0    0  501  0.00000000000E+00  0.00000000000E+00  0.10420730372E+04  0.10420730372E+04  0.50400001928E-02 0. -1.
        1   -1    0    0  501    0  0.00000000000E+00  0.00000000000E+00 -0.57896272531E+03  0.57896272533E+03  0.50400001928E-02 0.  1.
    10030    2    1    2    0    0  0.00000000000E+00  0.00000000000E+00  0.46311031187E+03  0.16210357625E+04  0.15534753884E+04 0.  0.
        4    1    3    3  502    0  0.33478505335E+03 -0.48617073958E+02 -0.49804885668E+03  0.60207883899E+03  0.12699999809E+01 0.  1.
       -4    1    3    3    0  502 -0.33478505335E+03  0.48617073958E+02  0.96115916854E+03  0.10189569235E+04  0.12699999809E+01 0. -1.
</event>
<event>
 5   0  0.7415102E-04  0.1581095E+04  0.7818609E-02  0.8832247E-01
       -2   -1    0    0    0  501  0.00000000000E+00  0.00000000000E+00  0.50062160962E+03  0.50062160963E+03  0.25500000920E-02 0. -1.
        2   -1    0    0  501    0  0.00000000000E+00  0.00000000000E+00 -0.12483789273E+04  0.12483789273E+04  0.25500000920E-02 0.  1.
    10030    2    1    2    0    0  0.00000000000E+00  0.00000000000E+00 -0.74775731763E+03  0.17490005369E+04  0.15810951496E+04 0.  0.
        5    1    3    3  502    0  0.38983598842E+03  0.17034717325E+03  0.36317735322E+03  0.55938371195E+03  0.46999998093E+01 0. -1.
       -5    1    3    3    0  502 -0.38983598842E+03 -0.17034717325E+03 -0.11109346709E+04  0.11896168249E+04  0.46999998093E+01 0.  1.
</event>
<event>
 5   0  0.7488884E-04  0.1597215E+04  0.7818609E-02  0.8822261E-01
       -2   -1    0    0    0  501  0.00000000000E+00  0.00000000000E+00  0.79850459974E+03  0.79850459975E+03  0.25500000920E-02 0.  1.
        2   -1    0    0  501    0  0.00000000000E+00  0.00000000000E+00 -0.79870996169E+03  0.79870996170E+03  0.25500000920E-02 0. -1.
    10030    2    1    2    0    0  0.00000000000E+00  0.00000000000E+00 -0.20536194835E+00  0.15972145614E+04  0.15972145482E+04 0.  0.
        3    1    3    3  502    0  0.45953375844E+03 -0.45737427912E+02 -0.65164729774E+03  0.79869105311E+03  0.10100000352E+00 0. -1.
       -3    1    3    3    0  502 -0.45953375844E+03  0.45737427912E+02  0.65144193579E+03  0.79852350834E+03  0.10100000352E+00 0.  1.
</event>
<event>
 5   0  0.3837251E-04  0.1507968E+04  0.7818609E-02  0.8879171E-01
       -1   -1    0    0    0  501  0.00000000000E+00  0.00000000000E+00  0.53982966219E+03  0.53982966221E+03  0.50400001928E-02 0. -1.
        1   -1    0    0  501    0  0.00000000000E+00  0.00000000000E+00 -0.10530955294E+04  0.10530955294E+04  0.50400001928E-02 0.  1.
    10030    2    1    2    0    0  0.00000000000E+00  0.00000000000E+00 -0.51326586718E+03  0.15929251916E+04  0.15079684399E+04 0.  0.
        4    1    3    3  502    0 -0.50639777888E+03  0.37430746487E+02  0.33212853542E+03  0.60675427331E+03  0.12699999809E+01 0. -1.
       -4    1    3    3    0  502  0.50639777888E+03 -0.37430746487E+02 -0.84539440260E+03  0.98617091829E+03  0.12699999809E+01 0.  1.
</event>
<event>
 5   0  0.3973227E-04  0.1622975E+04  0.7818609E-02  0.8806557E-01
       -1   -1    0    0    0  501  0.00000000000E+00  0.00000000000E+00  0.59307453592E+03  0.59307453594E+03  0.50400001928E-02 0. -1.
        1   -1    0    0  501    0  0.00000000000E+00  0.00000000000E+00 -0.11103359606E+04  0.11103359606E+04  0.50400001928E-02 0.  1.
    10030    2    1    2    0    0  0.00000000000E+00  0.00000000000E+00 -0.51726142466E+03  0.17034104965E+04  0.16229750270E+04 0.  0.
        3    1    3    3  502    0 -0.53458902838E+03 -0.55322505689E+03 -0.52962996251E+03  0.93399748406E+03  0.10100000352E+00 0.  1.
       -3    1    3    3    0  502  0.53458902838E+03  0.55322505689E+03  0.12368537851E+02  0.76941301247E+03  0.10100000352E+00 0. -1.
</event>
<event>
 5   0  0.7553070E-04  0.1647979E+04  0.7818609E-02  0.8791603E-01
       -2   -1    0    0    0  501  0.00000000000E+00  0.00000000000E+00  0.62860960734E+03  0.62860960735E+03  0.25500000920E-02 0.  1.
        2   -1    0    0  501    0  0.00000000000E+00  0.00000000000E+00 -0.10800963607E+04  0.10800963607E+04  0.25500000920E-02 0. -1.
    10030    2    1    2    0    0  0.00000000000E+00  0.00000000000E+00 -0.45148675337E+03  0.17087059681E+04  0.16479793072E+04 0.  0.
        4    1    3    3  502    0 -0.52974319126E+03 -0.50776440280E+03  0.16290885063E+03  0.75166045789E+03  0.12699999809E+01 0. -1.
       -4    1    3    3    0  502  0.52974319126E+03  0.50776440280E+03 -0.61439560401E+03  0.95704551018E+03  0.12699999809E+01 0.  1.
</event>
<event>
 5   0  0.7488884E-04  0.1623968E+04  0.7818609E-02  0.8805958E-01
       -2   -1    0    0    0  501  0.00000000000E+00  0.00000000000E+00  0.10813069492E+04  0.10813069492E+04  0.25500000920E-02 0.  1.
        2   -1    0    0  501    0  0.00000000000E+00  0.00000000000E+00 -0.60974149931E+03  0.60974149932E+03  0.25500000920E-02 0. -1.
    10030    2    1    2    0    0  0.00000000000E+00  0.00000000000E+00  0.47156544990E+03  0.16910484485E+04  0.16239676357E+04 0.  0.
        3    1    3    3  502    0  0.35768301259E+03 -0.50834531106E+03  0.77982500744E+03  0.99723575206E+03  0.10100000352E+00 0.  1.
       -3    1    3    3    0  502 -0.35768301259E+03  0.50834531106E+03 -0.30825955753E+03  0.69381269647E+03  0.10100000352E+00 0. -1.
</event>
<event>
 5   0  0.7770905E-04  0.1633361E+04  0.7818609E-02  0.8800311E-01
       -2   -1    0    0    0  501  0.00000000000E+00  0.00000000000E+00  0.41764977277E+03  0.41764977278E+03  0.25500000920E-02 0.  1.
        2   -1    0    0  501    0  0.00000000000E+00  0.00000000000E+00 -0.15969531184E+04  0.15969531184E+04  0.25500000920E-02 0. -1.
    10030    2    1    2    0    0  0.00000000000E+00  0.00000000000E+00 -0.11793033457E+04  0.20146028912E+04  0.16333610832E+04 0.  0.
        2    1    3    3  502    0  0.12181837076E+03 -0.62398352950E+03  0.42609842941E+02  0.63718973569E+03  0.25500000920E-02 0.  1.
       -2    1    3    3    0  502 -0.12181837076E+03  0.62398352950E+03 -0.12219131886E+04  0.13774131555E+04  0.25500000920E-02 0. -1.
</event>
<event>
 5   0  0.7770905E-04  0.1625181E+04  0.7818609E-02  0.8805226E-01
        2   -1    0    0  501    0  0.00000000000E+00  0.00000000000E+00  0.86409459746E+03  0.86409459746E+03  0.25500000920E-02 0.  1.
       -2   -1    0    0    0  501  0.00000000000E+00  0.00000000000E+00 -0.76415637542E+03  0.76415637542E+03  0.25500000920E-02 0. -1.
    10030    2    1    2    0    0  0.00000000000E+00  0.00000000000E+00  0.99938222040E+02  0.16282509729E+04  0.16251810922E+04 0.  0.
        2    1    3    3  502    0  0.55281864058E+03  0.28391179465E+03 -0.47455495547E+03  0.78193143068E+03  0.25500000920E-02 0. -1.
       -2    1    3    3    0  502 -0.55281864058E+03 -0.28391179465E+03  0.57449317751E+03  0.84631954221E+03  0.25500000920E-02 0.  1.
</event>
<event>
 5   0  0.7553070E-04  0.1605671E+04  0.7818609E-02  0.8817072E-01
       -2   -1    0    0    0  501  0.00000000000E+00  0.00000000000E+00  0.75884306476E+03  0.75884306476E+03  0.25500000920E-02 0.  1.
        2   -1    0    0  501    0  0.00000000000E+00  0.00000000000E+00 -0.84937790602E+03  0.84937790602E+03  0.25500000920E-02 0. -1.
    10030    2    1    2    0    0  0.00000000000E+00  0.00000000000E+00 -0.90534841264E+02  0.16082209708E+04  0.16056706180E+04 0.  0.
        4    1    3    3  502    0 -0.77329681534E+03 -0.10108312795E+03 -0.23619327106E+03  0.81485866109E+03  0.12699999809E+01 0. -1.
       -4    1    3    3    0  502  0.77329681534E+03  0.10108312795E+03  0.14565842979E+03  0.79336230969E+03  0.12699999809E+01 0.  1.
</event>
<event>
 5   0  0.7415102E-04  0.1603866E+04  0.7818609E-02  0.8818176E-01
       -2   -1    0    0    0  501  0.00000000000E+00  0.00000000000E+00  0.27102400536E+03  0.27102400537E+03  0.25500000920E-02 0. -1.
        2   -1    0    0  501    0  0.00000000000E+00  0.00000000000E+00 -0.23728400453E+04  0.23728400453E+04  0.25500000920E-02 0.  1.
    10030    2    1    2    0    0  0.00000000000E+00  0.00000000000E+00 -0.21018160400E+04  0.26438640507E+04  0.16038660956E+04 0.  0.
        5    1    3    3  502    0 -0.55808933503E+03  0.55171948396E+03 -0.13228564641E+04  0.15381252905E+04  0.46999998093E+01 0. -1.
       -5    1    3    3    0  502  0.55808933503E+03 -0.55171948396E+03 -0.77895957589E+03  0.11057387602E+04  0.46999998093E+01 0.  1.
</event>
<event>
 5   0  0.7415102E-04  0.1444921E+04  0.7818609E-02  0.8921929E-01
       -2   -1    0    0    0  501  0.00000000000E+00  0.00000000000E+00  0.33632426315E+03  0.33632426316E+03  0.25500000920E-02 0.  1.
        2   -1    0    0  501    0  0.00000000000E+00  0.00000000000E+00 -0.15519217797E+04  0.15519217797E+04  0.25500000920E-02 0. -1.
    10030    2    1    2    0    0  0.00000000000E+00  0.00000000000E+00 -0.12155975165E+04  0.18882460428E+04  0.14449206885E+04 0.  0.
        5    1    3    3  502    0 -0.57331582319E+03 -0.43640976701E+03 -0.67673058139E+03  0.98849931090E+03  0.46999998093E+01 0. -1.
       -5    1    3    3    0  502  0.57331582319E+03  0.43640976701E+03 -0.53886693513E+03  0.89974673194E+03  0.46999998093E+01 0.  1.
</event>
<event>
 5   0  0.7488884E-04  0.1599886E+04  0.7818609E-02  0.8820618E-01
        2   -1    0    0  501    0  0.00000000000E+00  0.00000000000E+00  0.10550150186E+04  0.10550150186E+04  0.25500000920E-02 0.  1.
       -2   -1    0    0    0  501  0.00000000000E+00  0.00000000000E+00 -0.60653972571E+03  0.60653972572E+03  0.25500000920E-02 0. -1.
    10030    2    1    2    0    0  0.00000000000E+00  0.00000000000E+00  0.44847529286E+03  0.16615547443E+04  0.15998856459E+04 0.  0.
        3    1    3    3  502    0  0.54104374699E+03 -0.91072516768E+02 -0.38034058763E+03  0.66759382282E+03  0.10100000352E+00 0. -1.
       -3    1    3    3    0  502 -0.54104374699E+03  0.91072516768E+02  0.82881588049E+03  0.99396092148E+03  0.10100000352E+00 0.  1.
</event>
<event>
 5   0  0.3889847E-04  0.1584024E+04  0.7818609E-02  0.8830424E-01
       -1   -1    0    0    0  501  0.00000000000E+00  0.00000000000E+00  0.37118275456E+03  0.37118275459E+03  0.50400001928E-02 0. -1.
        1   -1    0    0  501    0  0.00000000000E+00  0.00000000000E+00 -0.16899562857E+04  0.16899562857E+04  0.50400001928E-02 0.  1.
    10030    2    1    2    0    0  0.00000000000E+00  0.00000000000E+00 -0.13187735312E+04  0.20611390403E+04  0.15840235216E+04 0.  0.
        1    1    3    3  502    0  0.71391372729E+03 -0.21257459986E+03 -0.30921550744E+03  0.80652030389E+03  0.50400001928E-02 0. -1.
       -1    1    3    3    0  502 -0.71391372729E+03  0.21257459986E+03 -0.10095580237E+04  0.12546187364E+04  0.50400001928E-02 0.  1.
</event>
<event>
 5   0  0.3889847E-04  0.1538941E+04  0.7818609E-02  0.8858962E-01
       -1   -1    0    0    0  501  0.00000000000E+00  0.00000000000E+00  0.93918464778E+03  0.93918464779E+03  0.50400001928E-02 0.  1.
        1   -1    0    0  501    0  0.00000000000E+00  0.00000000000E+00 -0.63042472090E+03  0.63042472092E+03  0.50400001928E-02 0. -1.
    10030    2    1    2    0    0  0.00000000000E+00  0.00000000000E+00  0.30875992688E+03  0.15696093687E+04  0.15389414797E+04 0.  0.
        1    1    3    3  502    0 -0.15434074483E+03  0.36065703798E+03 -0.52077121869E+03  0.65199480581E+03  0.50400001928E-02 0. -1.
       -1    1    3    3    0  502  0.15434074483E+03 -0.36065703798E+03  0.82953114557E+03  0.91761456291E+03  0.50400001928E-02 0.  1.
</event>
<event>
 5   0  0.7770905E-04  0.1611681E+04  0.7818609E-02  0.8813404E-01
       -2   -1    0    0    0  501  0.00000000000E+00  0.00000000000E+00  0.26060216891E+04  0.26060216891E+04  0.25500000920E-02 0. -1.
        2   -1    0    0  501    0  0.00000000000E+00  0.00000000000E+00 -0.24918385780E+03  0.24918385781E+03  0.25500000920E-02 0.  1.
    10030    2    1    2    0    0  0.00000000000E+00  0.00000000000E+00  0.23568378313E+04  0.28552055469E+04  0.16116805366E+04 0.  0.
        2    1    3    3  502    0 -0.64461654011E+03 -0.45409572195E+03  0.14729748197E+04  0.16707448123E+04  0.25500000920E-02 0.  1.
       -2    1    3    3    0  502  0.64461654011E+03  0.45409572195E+03  0.88386301164E+03  0.11844607346E+04  0.25500000920E-02 0. -1.
</event>
<event>
 5   0  0.7553070E-04  0.1599418E+04  0.7818609E-02  0.8820906E-01
       -2   -1    0    0    0  501  0.00000000000E+00  0.00000000000E+00  0.40825074480E+03  0.40825074481E+03  0.25500000920E-02 0.  1.
        2   -1    0    0  501    0  0.00000000000E+00  0.00000000000E+00 -0.15665231036E+04  0.15665231036E+04  0.25500000920E-02 0. -1.
    10030    2    1    2    0    0  0.00000000000E+00  0.00000000000E+00 -0.11582723588E+04  0.19747738484E+04  0.15994176738E+04 0.  0.
        4    1    3    3  502    0  0.10684930357E+03 -0.69077242073E+03 -0.10588376261E+04  0.12687482187E+04  0.12699999809E+01 0. -1.
       -4    1    3    3    0  502 -0.10684930357E+03  0.69077242073E+03 -0.99434732671E+02  0.70602562976E+03  0.12699999809E+01 0.  1.
</event>
<event>
 5   0  0.4110803E-04  0.1626245E+04  0.7818609E-02  0.8804585E-01
       -1   -1    0    0    0  501  0.00000000000E+00  0.00000000000E+00  0.85642111735E+03  0.85642111736E+03  0.50400001928E-02 0. -1.
        1   -1    0    0  501    0  0.00000000000E+00  0.00000000000E+00 -0.77201340749E+03  0.77201340750E+03  0.50400001928E-02 0.  1.
    10030    2    1    2    0    0  0.00000000000E+00  0.00000000000E+00  0.84407709863E+02  0.16284345249E+04  0.16262454736E+04 0.  0.
        5    1    3    3  502    0 -0.66756663515E+03  0.35329463675E+03 -0.25933964510E+03  0.79858716133E+03  0.46999998093E+01 0.  1.
       -5    1    3    3    0  502  0.66756663515E+03 -0.35329463675E+03  0.34374735497E+03  0.82984736353E+03  0.46999998093E+01 0. -1.
</event>
<event>
 5   0  0.2781000E-04  0.1597811E+04  0.7818609E-02  0.8821894E-01
       -3   -1    0    0    0  501  0.00000000000E+00  0.00000000000E+00  0.35625120983E+03  0.35625122415E+03  0.10100000352E+00 0. -1.
        3   -1    0    0  501    0  0.00000000000E+00  0.00000000000E+00 -0.17915718172E+04  0.17915718200E+04  0.10100000352E+00 0.  1.
    10030    2    1    2    0    0  0.00000000000E+00  0.00000000000E+00 -0.14353206074E+04  0.21478230442E+04  0.15978105592E+04 0.  0.
        5    1    3    3  502    0  0.14342623176E+02 -0.17380917391E+03  0.33033158909E+03  0.37357246757E+03  0.46999998093E+01 0. -1.
       -5    1    3    3    0  502 -0.14342623176E+02  0.17380917391E+03 -0.17656521965E+04  0.17742505766E+04  0.46999998093E+01 0.  1.
</event>
<event>
 5   0  0.7395088E-04  0.1599824E+04  0.7818609E-02  0.8820656E-01
        2   -1    0    0  501    0  0.00000000000E+00  0.00000000000E+00  0.17948304901E+04  0.17948304901E+04  0.25500000920E-02 0.  1.
       -2   -1    0    0    0  501  0.00000000000E+00  0.00000000000E+00 -0.35650102434E+03  0.35650102435E+03  0.25500000920E-02 0. -1.
    10030    2    1    2    0    0  0.00000000000E+00  0.00000000000E+00  0.14383294657E+04  0.21513315144E+04  0.15998236256E+04 0.  0.
        1    1    3    3  502    0 -0.26695933517E+03 -0.67213513862E+03  0.25953835586E+03  0.76837041158E+03  0.50400001928E-02 0. -1.
       -1    1    3    3    0  502  0.26695933517E+03  0.67213513862E+03  0.11787911099E+04  0.13829611028E+04  0.50400001928E-02 0.  1.
</event>
<event>
 5   0  0.4110803E-04  0.1578827E+04  0.7818609E-02  0.8833662E-01
        1   -1    0    0  501    0  0.00000000000E+00  0.00000000000E+00  0.46563565554E+03  0.46563565557E+03  0.50400001928E-02 0.  1.
       -1   -1    0    0    0  501  0.00000000000E+00  0.00000000000E+00 -0.13383293451E+04  0.13383293451E+04  0.50400001928E-02 0. -1.
    10030    2    1    2    0    0  0.00000000000E+00  0.00000000000E+00 -0.87269368956E+03  0.18039650007E+04  0.15788272381E+04 0.  0.
        5    1    3    3  502    0  0.59727710150E+03 -0.51477143392E+03 -0.47943668426E+03  0.92282782217E+03  0.46999998093E+01 0.  1.
       -5    1    3    3    0  502 -0.59727710150E+03  0.51477143392E+03 -0.39325700531E+03  0.88113717852E+03  0.46999998093E+01 0. -1.
</event>
<event>
 5   0  0.3837251E-04  0.1607405E+04  0.7818609E-02  0.8816012E-01
        1   -1    0    0  501    0  0.00000000000E+00  0.00000000000E+00  0.79735247294E+03  0.79735247296E+03  0.50400001928E-02 0. -1.
       -1   -1    0    0    0  501  0.00000000000E+00  0.00000000000E+00 -0.81010340108E+03  0.81010340110E+03  0.50400001928E-02 0.  1.
    10030    2    1    2    0    0  0.00000000000E+00  0.00000000000E+00 -0.12750928141E+02  0.16074558741E+04  0.16074053008E+04 0.  0.
        4    1    3    3  502    0 -0.21146398147E+03 -0.15842502538E+03  0.75267465707E+03  0.79770687374E+03  0.12699999809E+01 0. -1.
       -4    1    3    3    0  502  0.21146398147E+03  0.15842502538E+03 -0.76542558521E+03  0.80974900032E+03  0.12699999809E+01 0.  1.
</event>
<event>
 5   0  0.3889847E-04  0.1602785E+04  0.7818609E-02  0.8818839E-01
       -1   -1    0    0    0  501  0.00000000000E+00  0.00000000000E+00  0.18805137047E+04  0.18805137047E+04  0.50400001928E-02 0. -1.
        1   -1    0    0  501    0  0.00000000000E+00  0.00000000000E+00 -0.34151826786E+03  0.34151826789E+03  0.50400001928E-02 0.  1.
    10030    2    1    2    0    0  0.00000000000E+00  0.00000000000E+00  0.15389954369E+04  0.22220319726E+04  0.16027848055E+04 0.  0.
        1    1    3    3  502    0  0.41558038603E+03  0.68486385887E+03  0.80000452624E+03  0.11321452223E+04  0.50400001928E-02 0. -1.
       -1    1    3    3    0  502 -0.41558038603E+03 -0.68486385887E+03  0.73899091064E+03  0.10898867503E+04  0.50400001928E-02 0.  1.
</event>
<event>
 5   0  0.3889847E-04  0.1618268E+04  0.7818609E-02  0.8809403E-01
        1   -1    0    0  501    0  0.00000000000E+00  0.00000000000E+00  0.25740245321E+04  0.25740245321E+04  0.50400001928E-02 0.  1.
       -1   -1    0    0    0  501  0.00000000000E+00  0.00000000000E+00 -0.25434792031E+03  0.25434792036E+03  0.50400001928E-02 0. -1.
    10030    2    1    2    0    0  0.00000000000E+00  0.00000000000E+00  0.23196766118E+04  0.28283724524E+04  0.16182679464E+04 0.  0.
        1    1    3    3  502    0  0.47056898473E+03 -0.21698463916E+02  0.10029380690E+02  0.47117574346E+03  0.50400001928E-02 0. -1.
       -1    1    3    3    0  502 -0.47056898473E+03  0.21698463916E+02  0.23096472311E+04  0.23571967090E+04  0.50400001928E-02 0.  1.
</event>
<event>
 5   0  0.3889847E-04  0.1527267E+04  0.7818609E-02  0.8866520E-01
       -1   -1    0    0    0  501  0.00000000000E+00  0.00000000000E+00  0.10807785326E+04  0.10807785326E+04  0.50400001928E-02 0. -1.
        1   -1    0    0  501    0  0.00000000000E+00  0.00000000000E+00 -0.53955197731E+03  0.53955197733E+03  0.50400001928E-02 0.  1.
    10030    2    1    2    0    0  0.00000000000E+00  0.00000000000E+00  0.54122655526E+03  0.16203305099E+04  0.15272670943E+04 0.  0.
        1    1    3    3  502    0 -0.64335952029E+02  0.89920116093E+02 -0.53101493289E+03  0.54240354071E+03  0.50400001928E-02 0.  1.
       -1    1    3    3    0  502  0.64335952029E+02 -0.89920116093E+02  0.10722414881E+04  0.10779269692E+04  0.50400001928E-02 0. -1.
</event>
<event>
 5   0  0.3950195E-04  0.1585241E+04  0.7818609E-02  0.8829666E-01
        1   -1    0    0  501    0  0.00000000000E+00  0.00000000000E+00  0.59287436012E+03  0.59287436014E+03  0.50400001928E-02 0. -1.
       -1   -1    0    0    0  501  0.00000000000E+00  0.00000000000E+00 -0.10596638063E+04  0.10596638063E+04  0.50400001928E-02 0.  1.
    10030    2    1    2    0    0  0.00000000000E+00  0.00000000000E+00 -0.46678944614E+03  0.16525381664E+04  0.15852413079E+04 0.  0.
        2    1    3    3  502    0  0.54036438131E+03 -0.52935025656E+03 -0.48017672479E+03  0.89597714577E+03  0.25500000920E-02 0. -1.
       -2    1    3    3    0  502 -0.54036438131E+03  0.52935025656E+03  0.13387278652E+02  0.75656102064E+03  0.25500000920E-02 0.  1.
</event>
<event>
 5   0  0.4110803E-04  0.1613859E+04  0.7818609E-02  0.8812079E-01
       -1   -1    0    0    0  501  0.00000000000E+00  0.00000000000E+00  0.60299591581E+03  0.60299591583E+03  0.50400001928E-02 0.  1.
        1   -1    0    0  501    0  0.00000000000E+00  0.00000000000E+00 -0.10798332373E+04  0.10798332373E+04  0.50400001928E-02 0. -1.
    10030    2    1    2    0    0  0.00000000000E+00  0.00000000000E+00 -0.47683732144E+03  0.16828291531E+04  0.16138587693E+04 0.  0.
        5    1    3    3  502    0 -0.66938192922E+03 -0.35794188101E+03 -0.52382834334E+03  0.92228671281E+03  0.46999998093E+01 0. -1.
       -5    1    3    3    0  502  0.66938192922E+03  0.35794188101E+03  0.46991021898E+02  0.76054244029E+03  0.46999998093E+01 0.  1.
</event>
<event>
 5   0  0.7488884E-04  0.1621195E+04  0.7818609E-02  0.8807632E-01
        2   -1    0    0  501    0  0.00000000000E+00  0.00000000000E+00  0.13463167216E+04  0.13463167216E+04  0.25500000920E-02 0.  1.
       -2   -1    0    0    0  501  0.00000000000E+00  0.00000000000E+00 -0.48804872001E+03  0.48804872002E+03  0.25500000920E-02 0. -1.
    10030    2    1    2    0    0  0.00000000000E+00  0.00000000000E+00  0.85826800156E+03  0.18343654416E+04  0.16211948096E+04 0.  0.
        3    1    3    3  502    0  0.59837093541E+03 -0.44996402652E+03  0.77546879060E+02  0.75268116102E+03  0.10100000352E+00 0. -1.
       -3    1    3    3    0  502 -0.59837093541E+03  0.44996402652E+03  0.78072112250E+03  0.10816842806E+04  0.10100000352E+00 0.  1.
</event>
<event>
 5   0  0.3973227E-04  0.1613427E+04  0.7818609E-02  0.8812341E-01
       -1   -1    0    0    0  501  0.00000000000E+00  0.00000000000E+00  0.32330458595E+03  0.32330458599E+03  0.50400001928E-02 0. -1.
        1   -1    0    0  501    0  0.00000000000E+00  0.00000000000E+00 -0.20129214303E+04  0.20129214303E+04  0.50400001928E-02 0.  1.
    10030    2    1    2    0    0  0.00000000000E+00  0.00000000000E+00 -0.16896168443E+04  0.23362260163E+04  0.16134270726E+04 0.  0.
        3    1    3    3  502    0 -0.44449036163E+03  0.26948801487E+03  0.48486600970E+02  0.52205979774E+03  0.10100000352E+00 0. -1.
       -3    1    3    3    0  502  0.44449036163E+03 -0.26948801487E+03 -0.17381034453E+04  0.18141662185E+04  0.10100000352E+00 0.  1.
</event>
<event>
 5   0  0.3950195E-04  0.1659353E+04  0.7818609E-02  0.8784893E-01
        1   -1    0    0  501    0  0.00000000000E+00  0.00000000000E+00  0.14051215253E+04  0.14051215253E+04  0.50400001928E-02 0.  1.
       -1   -1    0    0    0  501  0.00000000000E+00  0.00000000000E+00 -0.48989560575E+03  0.48989560577E+03  0.50400001928E-02 0. -1.
    10030    2    1    2    0    0  0.00000000000E+00  0.00000000000E+00  0.91522591955E+03  0.18950171311E+04  0.16593527182E+04 0.  0.
        2    1    3    3  502    0  0.13968945578E+03 -0.37382808522E+03  0.12883130269E+04  0.13487071723E+04  0.25500000920E-02 0.  1.
       -2    1    3    3    0  502 -0.13968945578E+03  0.37382808522E+03 -0.37308710736E+03  0.54630995876E+03  0.25500000920E-02 0. -1.
</event>
<event>
 5   0  0.7415102E-04  0.1594700E+04  0.7818609E-02  0.8823810E-01
        2   -1    0    0  501    0  0.00000000000E+00  0.00000000000E+00  0.15660237088E+04  0.15660237088E+04  0.25500000920E-02 0. -1.
       -2   -1    0    0    0  501  0.00000000000E+00  0.00000000000E+00 -0.40597554226E+03  0.40597554227E+03  0.25500000920E-02 0.  1.
    10030    2    1    2    0    0  0.00000000000E+00  0.00000000000E+00  0.11600481665E+04  0.19719992510E+04  0.15947003786E+04 0.  0.
        5    1    3    3  502    0  0.32409591839E+03 -0.64815011201E+03  0.16875893824E+03  0.74406881486E+03  0.46999998093E+01 0.  1.
       -5    1    3    3    0  502 -0.32409591839E+03  0.64815011201E+03  0.99128922827E+03  0.12279304362E+04  0.46999998093E+01 0. -1.
</event>
<event>
 5   0  0.7488884E-04  0.1607551E+04  0.7818609E-02  0.8815922E-01
        2   -1    0    0  501    0  0.00000000000E+00  0.00000000000E+00  0.83404776248E+03  0.83404776248E+03  0.25500000920E-02 0.  1.
       -2   -1    0    0    0  501  0.00000000000E+00  0.00000000000E+00 -0.77460211195E+03  0.77460211196E+03  0.25500000920E-02 0. -1.
    10030    2    1    2    0    0  0.00000000000E+00  0.00000000000E+00  0.59445650526E+02  0.16086498744E+04  0.16075511293E+04 0.  0.
        3    1    3    3  502    0 -0.79486479203E+03 -0.10825311904E+03  0.80020214724E+02  0.80618361454E+03  0.10100000352E+00 0.  1.
       -3    1    3    3    0  502  0.79486479203E+03  0.10825311904E+03 -0.20574564199E+02  0.80246625990E+03  0.10100000352E+00 0. -1.
</event>
<event>
 5   0  0.3889847E-04  0.1599239E+04  0.7818609E-02  0.8821016E-01
        1   -1    0    0  501    0  0.00000000000E+00  0.00000000000E+00  0.21948657788E+04  0.21948657788E+04  0.50400001928E-02 0.  1.
       -1   -1    0    0    0  501  0.00000000000E+00  0.00000000000E+00 -0.29131221568E+03  0.29131221572E+03  0.50400001928E-02 0. -1.
    10030    2    1    2    0    0  0.00000000000E+00  0.00000000000E+00  0.19035535631E+04  0.24861779945E+04  0.15992388354E+04 0.  0.
        1    1    3    3  502    0 -0.73391950473E+03 -0.11353813094E+03  0.14125853927E+04  0.15959092199E+04  0.50400001928E-02 0.  1.
       -1    1    3    3    0  502  0.73391950473E+03  0.11353813094E+03  0.49096817044E+03  0.89026877460E+03  0.50400001928E-02 0. -1.
</event>
<event>
 5   0  0.7553070E-04  0.1597170E+04  0.7818609E-02  0.8822289E-01
        2   -1    0    0  501    0  0.00000000000E+00  0.00000000000E+00  0.38723481773E+03  0.38723481774E+03  0.25500000920E-02 0. -1.
       -2   -1    0    0    0  501  0.00000000000E+00  0.00000000000E+00 -0.16469018836E+04  0.16469018836E+04  0.25500000920E-02 0.  1.
    10030    2    1    2    0    0  0.00000000000E+00  0.00000000000E+00 -0.12596670659E+04  0.20341367014E+04  0.15971696851E+04 0.  0.
        4    1    3    3  502    0 -0.47825269639E+03 -0.26014770382E+02 -0.14436691715E+04  0.15210472378E+04  0.12699999809E+01 0.  1.
       -4    1    3    3    0  502  0.47825269639E+03  0.26014770382E+02  0.18400210561E+03  0.51308946359E+03  0.12699999809E+01 0. -1.
</event>
<event>
 5   0  0.7395088E-04  0.1632157E+04  0.7818609E-02  0.8801033E-01
       -2   -1    0    0    0  501  0.00000000000E+00  0.00000000000E+00  0.66166195776E+03  0.66166195777E+03  0.25500000920E-02 0. -1.
        2   -1    0    0  501    0  0.00000000000E+00  0.00000000000E+00 -0.10065324720E+04  0.10065324720E+04  0.25500000920E-02 0.  1.
    10030    2    1    2    0    0  0.00000000000E+00  0.00000000000E+00 -0.34487051421E+03  0.16681944297E+04  0.16321571566E+04 0.  0.
        1    1    3    3  502    0 -0.50824736344E+03 -0.44851929136E+02 -0.82341019712E+03  0.96867509039E+03  0.50400001928E-02 0.  1.
       -1    1    3    3    0  502  0.50824736344E+03  0.44851929136E+02  0.47853968291E+03  0.69951933936E+03  0.50400001928E-02 0. -1.
</event>
<event>
 5   0  0.7488884E-04  0.1554139E+04  0.7818609E-02  0.8849229E-01
       -2   -1    0    0    0  501  0.00000000000E+00  0.00000000000E+00  0.46041926204E+03  0.46041926205E+03  0.25500000920E-02 0. -1.
        2   -1    0    0  501    0  0.00000000000E+00  0.00000000000E+00 -0.13114930537E+04  0.13114930537E+04  0.25500000920E-02 0.  1.
    10030    2    1    2    0    0  0.00000000000E+00  0.00000000000E+00 -0.85107379163E+03  0.17719123157E+04  0.15541385575E+04 0.  0.
        3    1    3    3  502    0  0.22905643709E+03  0.31488450821E+03 -0.11922381918E+04  0.12542133076E+04  0.10100000352E+00 0.  1.
       -3    1    3    3    0  502 -0.22905643709E+03 -0.31488450821E+03  0.34116440013E+03  0.51769900811E+03  0.10100000352E+00 0. -1.
</event>
<event>
 5   0  0.4110803E-04  0.1646280E+04  0.7818609E-02  0.8792610E-01
       -1   -1    0    0    0  501  0.00000000000E+00  0.00000000000E+00  0.67676090284E+03  0.67676090286E+03  0.50400001928E-02 0.  1.
        1   -1    0    0  501    0  0.00000000000E+00  0.00000000000E+00 -0.10011795746E+04  0.10011795746E+04  0.50400001928E-02 0. -1.
    10030    2    1    2    0    0  0.00000000000E+00  0.00000000000E+00 -0.32441867177E+03  0.16779404775E+04  0.16462796759E+04 0.  0.
        5    1    3    3  502    0 -0.30691747366E+03  0.48275070464E+03  0.44102649377E+03  0.72233858866E+03  0.46999998093E+01 0.  1.
       -5    1    3    3    0  502  0.30691747366E+03 -0.48275070464E+03 -0.76544516553E+03  0.95560188881E+03  0.46999998093E+01 0. -1.
</event>
<event>
 5   0  0.3950195E-04  0.1600158E+04  0.7818609E-02  0.8820451E-01
        1   -1    0    0  501    0  0.00000000000E+00  0.00000000000E+00  0.96853498735E+03  0.96853498736E+03  0.50400001928E-02 0. -1.
       -1   -1    0    0    0  501  0.00000000000E+00  0.00000000000E+00 -0.66092193948E+03  0.66092193950E+03  0.50400001928E-02 0.  1.
    10030    2    1    2    0    0  0.00000000000E+00  0.00000000000E+00  0.30761304787E+03  0.16294569269E+04  0.16001575201E+04 0.  0.
        2    1    3    3  502    0  0.70888659345E+03 -0.13310222969E+03  0.50639728898E+03  0.88129145021E+03  0.25500000920E-02 0. -1.
       -2    1    3    3    0  502 -0.70888659345E+03  0.13310222969E+03 -0.19878424111E+03  0.74816547665E+03  0.25500000920E-02 0.  1.
</event>
<event>
 5   0  0.3889847E-04  0.1595875E+04  0.7818609E-02  0.8823086E-01
       -1   -1    0    0    0  501  0.00000000000E+00  0.00000000000E+00  0.76894735533E+03  0.76894735534E+03  0.50400001928E-02 0.  1.
        1   -1    0    0  501    0  0.00000000000E+00  0.00000000000E+00 -0.82802060760E+03  0.82802060762E+03  0.50400001928E-02 0. -1.
    10030    2    1    2    0    0  0.00000000000E+00  0.00000000000E+00 -0.59073252274E+02  0.15969679630E+04  0.15958750031E+04 0.  0.
        1    1    3    3  502    0 -0.20079094269E+03 -0.65870450353E+03 -0.43292016854E+03  0.81340549419E+03  0.50400001928E-02 0. -1.
       -1    1    3    3    0  502  0.20079094269E+03  0.65870450353E+03  0.37384691627E+03  0.78356246877E+03  0.50400001928E-02 0.  1.
</event>
<event>
 5   0  0.7770905E-04  0.1585735E+04  0.7818609E-02  0.8829359E-01
       -2   -1    0    0    0  501  0.00000000000E+00  0.00000000000E+00  0.65790121011E+03  0.65790121011E+03  0.25500000920E-02 0. -1.
        2   -1    0    0  501    0  0.00000000000E+00  0.00000000000E+00 -0.95552220380E+03  0.95552220380E+03  0.25500000920E-02 0.  1.
    10030    2    1    2    0    0  0.00000000000E+00  0.00000000000E+00 -0.29762099369E+03  0.16134234139E+04  0.15857354309E+04 0.  0.
        2    1    3    3  502    0 -0.25847533652E+03 -0.59100384108E+03 -0.61788543299E+03  0.89323986033E+03  0.25500000920E-02 0.  1.
       -2    1    3    3    0  502  0.25847533652E+03  0.59100384108E+03  0.32026443931E+03  0.72018355359E+03  0.25500000920E-02 0. -1.
</event>
<event>
 5   0  0.7553070E-04  0.1618821E+04  0.7818609E-02  0.8809068E-01
        2   -1    0    0  501    0  0.00000000000E+00  0.00000000000E+00  0.11887611356E+04  0.11887611356E+04  0.25500000920E-02 0.  1.
       -2   -1    0    0    0  501  0.00000000000E+00  0.00000000000E+00 -0.55111617773E+03  0.55111617773E+03  0.25500000920E-02 0. -1.
    10030    2    1    2    0    0  0.00000000000E+00  0.00000000000E+00  0.63764495791E+03  0.17398773134E+04  0.16188211678E+04 0.  0.
        4    1    3    3  502    0  0.70404882781E+02  0.73330484699E+03 -0.41591376092E+02  0.73785113783E+03  0.12699999809E+01 0. -1.
       -4    1    3    3    0  502 -0.70404882781E+02 -0.73330484699E+03  0.67923633400E+03  0.10020261755E+04  0.12699999809E+01 0.  1.
</event>
<event>
 5   0  0.3950195E-04  0.1618395E+04  0.7818609E-02  0.8809326E-01
       -1   -1    0    0    0  501  0.00000000000E+00  0.00000000000E+00  0.72128643562E+03  0.72128643564E+03  0.50400001928E-02 0.  1.
        1   -1    0    0  501    0  0.00000000000E+00  0.00000000000E+00 -0.90782347847E+03  0.90782347848E+03  0.50400001928E-02 0. -1.
    10030    2    1    2    0    0  0.00000000000E+00  0.00000000000E+00 -0.18653704284E+03  0.16291099141E+04  0.16183952063E+04 0.  0.
        2    1    3    3  502    0 -0.37373927784E+03 -0.63295629888E+03  0.24732945560E+03  0.77555566126E+03  0.25500000920E-02 0.  1.
       -2    1    3    3    0  502  0.37373927784E+03  0.63295629888E+03 -0.43386649844E+03  0.85355425286E+03  0.25500000920E-02 0. -1.
</event>
<event>
 5   0  0.4110803E-04  0.1588712E+04  0.7818609E-02  0.8827513E-01
        1   -1    0    0  501    0  0.00000000000E+00  0.00000000000E+00  0.67353557615E+03  0.67353557617E+03  0.50400001928E-02 0.  1.
       -1   -1    0    0    0  501  0.00000000000E+00  0.00000000000E+00 -0.93684916637E+03  0.93684916639E+03  0.50400001928E-02 0. -1.
    10030    2    1    2    0    0  0.00000000000E+00  0.00000000000E+00 -0.26331359022E+03  0.16103847426E+04  0.15887117335E+04 0.  0.
        5    1    3    3  502    0 -0.14928272422E+03 -0.45447016898E+03 -0.77446135893E+03  0.91029717825E+03  0.46999998093E+01 0. -1.
       -5    1    3    3    0  502  0.14928272422E+03  0.45447016898E+03  0.51114776872E+03  0.70008756431E+03  0.46999998093E+01 0.  1.
</event>
<event>
 5   0  0.3950195E-04  0.1597413E+04  0.7818609E-02  0.8822139E-01
        1   -1    0    0  501    0  0.00000000000E+00  0.00000000000E+00  0.80369330854E+03  0.80369330855E+03  0.50400001928E-02 0.  1.
       -1   -1    0    0    0  501  0.00000000000E+00  0.00000000000E+00 -0.79375088962E+03  0.79375088964E+03  0.50400001928E-02 0. -1.
    10030    2    1    2    0    0  0.00000000000E+00  0.00000000000E+00  0.99424189149E+01  0.15974441982E+04  0.15974132573E+04 0.  0.
        2    1    3    3  502    0  0.51947032890E+03  0.13821033211E+03  0.59572858719E+03  0.80239894573E+03  0.25500000920E-02 0.  1.
       -2    1    3    3    0  502 -0.51947032890E+03 -0.13821033211E+03 -0.58578616828E+03  0.79504525246E+03  0.25500000920E-02 0. -1.
</event>
<event>
 5   0  0.2781000E-04  0.1599655E+04  0.7818609E-02  0.8820760E-01
        3   -1    0    0  501    0  0.00000000000E+00  0.00000000000E+00  0.11478254742E+04  0.11478254786E+04  0.10100000352E+00 0.  1.
       -3   -1    0    0    0  501  0.00000000000E+00  0.00000000000E+00 -0.55733527382E+03  0.55733528297E+03  0.10100000352E+00 0. -1.
    10030    2    1    2    0    0  0.00000000000E+00  0.00000000000E+00  0.59049020038E+03  0.17051607616E+04  0.15996545084E+04 0.  0.
        3    1    3    3  502    0 -0.77640478542E+03 -0.18282702287E+03  0.35824943866E+03  0.87439852563E+03  0.10100000352E+00 0.  1.
       -3    1    3    3    0  502  0.77640478542E+03  0.18282702287E+03  0.23224076172E+03  0.83076223598E+03  0.10100000352E+00 0. -1.
</event>
<event>
 5   0  0.7770905E-04  0.1695349E+04  0.7818609E-02  0.8764021E-01
        2   -1    0    0  501    0  0.00000000000E+00  0.00000000000E+00  0.12897932388E+04  0.12897932388E+04  0.25500000920E-02 0.  1.
       -2   -1    0    0    0  501  0.00000000000E+00  0.00000000000E+00 -0.55710666830E+03  0.55710666831E+03  0.25500000920E-02 0. -1.
    10030    2    1    2    0    0  0.00000000000E+00  0.00000000000E+00  0.73268657047E+03  0.18468999071E+04  0.16953494201E+04 0.  0.
        2    1    3    3  502    0  0.60034348089E+03  0.39541489579E+03 -0.12301948055E+03  0.72931408012E+03  0.25500000920E-02 0. -1.
       -2    1    3    3    0  502 -0.60034348089E+03 -0.39541489579E+03  0.85570605102E+03  0.11175858270E+04  0.25500000920E-02 0.  1.
</event>
<event>
 5   0  0.7488884E-04  0.1608020E+04  0.7818609E-02  0.8815636E-01
       -2   -1    0    0    0  501  0.00000000000E+00  0.00000000000E+00  0.77861055888E+03  0.77861055888E+03  0.25500000920E-02 0.  1.
        2   -1    0    0  501    0  0.00000000000E+00  0.00000000000E+00 -0.83023831546E+03  0.83023831546E+03  0.25500000920E-02 0. -1.
    10030    2    1    2    0    0  0.00000000000E+00  0.00000000000E+00 -0.51627756575E+02  0.16088488743E+04  0.16080202969E+04 0.  0.
        3    1    3    3  502    0  0.24314427118E+02  0.48573119934E+03  0.61475529008E+03  0.78386865370E+03  0.10100000352E+00 0.  1.
       -3    1    3    3    0  502 -0.24314427118E+02 -0.48573119934E+03 -0.66638304666E+03  0.82498022064E+03  0.10100000352E+00 0. -1.
</event>
<event>
 5   0  0.7770905E-04  0.1601404E+04  0.7818609E-02  0.8819686E-01
        2   -1    0    0  501    0  0.00000000000E+00  0.00000000000E+00  0.59524474887E+03  0.59524474888E+03  0.25500000920E-02 0. -1.
       -2   -1    0    0    0  501  0.00000000000E+00  0.00000000000E+00 -0.10770764206E+04  0.10770764206E+04  0.25500000920E-02 0.  1.
    10030    2    1    2    0    0  0.00000000000E+00  0.00000000000E+00 -0.48183167178E+03  0.16723211695E+04  0.16014044880E+04 0.  0.
        2    1    3    3  502    0 -0.23526747819E+03  0.23442823930E+03  0.51991995470E+03  0.61694744102E+03  0.25500000920E-02 0. -1.
       -2    1    3    3    0  502  0.23526747819E+03 -0.23442823930E+03 -0.10017516265E+04  0.10553737285E+04  0.25500000920E-02 0.  1.
</event>
<event>
 5   0  0.3973227E-04  0.1602819E+04  0.7818609E-02  0.8818818E-01
       -1   -1    0    0    0  501  0.00000000000E+00  0.00000000000E+00  0.55392374855E+03  0.55392374858E+03  0.50400001928E-02 0.  1.
        1   -1    0    0  501    0  0.00000000000E+00  0.00000000000E+00 -0.11594684498E+04  0.11594684498E+04  0.50400001928E-02 0. -1.
    10030    2    1    2    0    0  0.00000000000E+00  0.00000000000E+00 -0.60554470122E+03  0.17133921984E+04  0.16028189044E+04 0.  0.
        3    1    3    3  502    0  0.17932210760E+03  0.35800581193E+03 -0.10448775006E+04  0.11189698750E+04  0.10100000352E+00 0. -1.
       -3    1    3    3    0  502 -0.17932210760E+03 -0.35800581193E+03  0.43933279942E+03  0.59442232335E+03  0.10100000352E+00 0.  1.
</event>
<event>
 5   0  0.4110803E-04  0.1449622E+04  0.7818609E-02  0.8918663E-01
       -1   -1    0    0    0  501  0.00000000000E+00  0.00000000000E+00  0.94365089727E+03  0.94365089728E+03  0.50400001928E-02 0.  1.
        1   -1    0    0  501    0  0.00000000000E+00  0.00000000000E+00 -0.55672164506E+03  0.55672164508E+03  0.50400001928E-02 0. -1.
    10030    2    1    2    0    0  0.00000000000E+00  0.00000000000E+00  0.38692925221E+03  0.15003725424E+04  0.14496218540E+04 0.  0.
        5    1    3    3  502    0 -0.51202398300E+03 -0.35654943497E+03 -0.18827398484E+03  0.65174016456E+03  0.46999998093E+01 0. -1.
       -5    1    3    3    0  502  0.51202398300E+03  0.35654943497E+03  0.57520323705E+03  0.84863237780E+03  0.46999998093E+01 0.  1.
</event>
<event>
 5   0  0.7415102E-04  0.1609959E+04  0.7818609E-02  0.8814453E-01
        2   -1    0    0  501    0  0.00000000000E+00  0.00000000000E+00  0.16954465925E+04  0.16954465925E+04  0.25500000920E-02 0.  1.
       -2   -1    0    0    0  501  0.00000000000E+00  0.00000000000E+00 -0.38219533322E+03  0.38219533323E+03  0.25500000920E-02 0. -1.
    10030    2    1    2    0    0  0.00000000000E+00  0.00000000000E+00  0.13132512593E+04  0.20776419258E+04  0.16099587267E+04 0.  0.
        5    1    3    3  502    0 -0.76520577159E+03 -0.23659064721E+03  0.55294604341E+03  0.97328640396E+03  0.46999998093E+01 0. -1.
       -5    1    3    3    0  502  0.76520577159E+03  0.23659064721E+03  0.76030521591E+03  0.11043555218E+04  0.46999998093E+01 0.  1.
</event>
<event>
 5   0  0.4110803E-04  0.1167348E+04  0.7818609E-02  0.9141927E-01
        1   -1    0    0  501    0  0.00000000000E+00  0.00000000000E+00  0.18432429539E+04  0.18432429539E+04  0.50400001928E-02 0. -1.
       -1   -1    0    0    0  501  0.00000000000E+00  0.00000000000E+00 -0.18482387728E+03  0.18482387735E+03  0.50400001928E-02 0.  1.
    10030    2    1    2    0    0  0.00000000000E+00  0.00000000000E+00  0.16584190766E+04  0.20280668312E+04  0.11673479508E+04 0.  0.
        5    1    3    3  502    0  0.28181657317E+03 -0.22257067228E+03  0.16285598895E+04  0.16676893262E+04  0.46999998093E+01 0. -1.
       -5    1    3    3    0  502 -0.28181657317E+03  0.22257067228E+03  0.29859187101E+02  0.36037750502E+03  0.46999998093E+01 0.  1.
</event>
<event>
 5   0  0.3950195E-04  0.1605614E+04  0.7818609E-02  0.8817107E-01
        1   -1    0    0  501    0  0.00000000000E+00  0.00000000000E+00  0.43010885882E+03  0.43010885885E+03  0.50400001928E-02 0. -1.
       -1   -1    0    0    0  501  0.00000000000E+00  0.00000000000E+00 -0.14984549052E+04  0.14984549052E+04  0.50400001928E-02 0.  1.
    10030    2    1    2    0    0  0.00000000000E+00  0.00000000000E+00 -0.10683460463E+04  0.19285637640E+04  0.16056135641E+04 0.  0.
        2    1    3    3  502    0 -0.57331295154E+03 -0.28904980152E+03  0.44697330256E+02  0.64361120212E+03  0.25500000920E-02 0. -1.
       -2    1    3    3    0  502  0.57331295154E+03  0.28904980152E+03 -0.11130433766E+04  0.12849525619E+04  0.25500000920E-02 0.  1.
</event>
<event>
 5   0  0.7415102E-04  0.1611677E+04  0.7818609E-02  0.8813406E-01
        2   -1    0    0  501    0  0.00000000000E+00  0.00000000000E+00  0.73345125192E+03  0.73345125192E+03  0.25500000920E-02 0.  1.
       -2   -1    0    0    0  501  0.00000000000E+00  0.00000000000E+00 -0.88537008531E+03  0.88537008531E+03  0.25500000920E-02 0. -1.
    10030    2    1    2    0    0  0.00000000000E+00  0.00000000000E+00 -0.15191883339E+03  0.16188213372E+04  0.16116771358E+04 0.  0.
        5    1    3    3  502    0  0.15247481218E+03 -0.45956339007E+03  0.57102834014E+03  0.74869388476E+03  0.46999998093E+01 0.  1.
       -5    1    3    3    0  502 -0.15247481218E+03  0.45956339007E+03 -0.72294717353E+03  0.87012745248E+03  0.46999998093E+01 0. -1.
</event>
<event>
 5   0  0.3889847E-04  0.1634235E+04  0.7818609E-02  0.8799788E-01
       -1   -1    0    0    0  501  0.00000000000E+00  0.00000000000E+00  0.12461520991E+04  0.12461520992E+04  0.50400001928E-02 0.  1.
        1   -1    0    0  501    0  0.00000000000E+00  0.00000000000E+00 -0.53579421034E+03  0.53579421036E+03  0.50400001928E-02 0. -1.
    10030    2    1    2    0    0  0.00000000000E+00  0.00000000000E+00  0.71035788881E+03  0.17819463095E+04  0.16342350871E+04 0.  0.
        1    1    3    3  502    0  0.10232266971E+03  0.67832182885E+03 -0.12889654397E+03  0.69800053818E+03  0.50400001928E-02 0. -1.
       -1    1    3    3    0  502 -0.10232266971E+03 -0.67832182885E+03  0.83925443278E+03  0.10839457713E+04  0.50400001928E-02 0.  1.
</event>
<event>
 5   0  0.7488884E-04  0.1566618E+04  0.7818609E-02  0.8841322E-01
        2   -1    0    0  501    0  0.00000000000E+00  0.00000000000E+00  0.23338928109E+04  0.23338928109E+04  0.25500000920E-02 0. -1.
       -2   -1    0    0    0  501  0.00000000000E+00  0.00000000000E+00 -0.26289692029E+03  0.26289692030E+03  0.25500000920E-02 0.  1.
    10030    2    1    2    0    0  0.00000000000E+00  0.00000000000E+00  0.20709958906E+04  0.25967897312E+04  0.15666183100E+04 0.  0.
        3    1    3    3  502    0  0.13898403766E+02 -0.51060246037E+03  0.51135853409E+02  0.51334483914E+03  0.10100000352E+00 0.  1.
       -3    1    3    3    0  502 -0.13898403766E+02  0.51060246037E+03  0.20198600372E+04  0.20834448921E+04  0.10100000352E+00 0. -1.
</event>
<event>
 5   0  0.7395088E-04  0.1608801E+04  0.7818609E-02  0.8815159E-01
        2   -1    0    0  501    0  0.00000000000E+00  0.00000000000E+00  0.85308808051E+03  0.85308808051E+03  0.25500000920E-02 0.  1.
       -2   -1    0    0    0  501  0.00000000000E+00  0.00000000000E+00 -0.75849201822E+03  0.75849201823E+03  0.25500000920E-02 0. -1.
    10030    2    1    2    0    0  0.00000000000E+00  0.00000000000E+00  0.94596062284E+02  0.16115800987E+04  0.16088014171E+04 0.  0.
        1    1    3    3  502    0  0.41233902480E+03  0.60652498283E+03 -0.28367310306E+03  0.78636280151E+03  0.50400001928E-02 0. -1.
       -1    1    3    3    0  502 -0.41233902480E+03 -0.60652498283E+03  0.37826916535E+03  0.82521729723E+03  0.50400001928E-02 0.  1.
</event>
<event>
 5   0  0.7488884E-04  0.1604137E+04  0.7818609E-02  0.8818011E-01
       -2   -1    0    0    0  501  0.00000000000E+00  0.00000000000E+00  0.33388149965E+03  0.33388149966E+03  0.25500000920E-02 0.  1.
        2   -1    0    0  501    0  0.00000000000E+00  0.00000000000E+00 -0.19267720559E+04  0.19267720559E+04  0.25500000920E-02 0. -1.
    10030    2    1    2    0    0  0.00000000000E+00  0.00000000000E+00 -0.15928905562E+04  0.22606535556E+04  0.16041365821E+04 0.  0.
        3    1    3    3  502    0 -0.53880738792E+02 -0.74251947841E+03 -0.37584347584E+03  0.83396441073E+03  0.10100000352E+00 0.  1.
       -3    1    3    3    0  502  0.53880738792E+02  0.74251947841E+03 -0.12170470804E+04  0.14266891448E+04  0.10100000352E+00 0. -1.
</event>
<event>
 5   0  0.3950195E-04  0.1585406E+04  0.7818609E-02  0.8829564E-01
       -1   -1    0    0    0  501  0.00000000000E+00  0.00000000000E+00  0.37710647471E+03  0.37710647474E+03  0.50400001928E-02 0. -1.
        1   -1    0    0  501    0  0.00000000000E+00  0.00000000000E+00 -0.16663154112E+04  0.16663154112E+04  0.50400001928E-02 0.  1.
    10030    2    1    2    0    0  0.00000000000E+00  0.00000000000E+00 -0.12892089365E+04  0.20434218860E+04  0.15854063587E+04 0.  0.
        2    1    3    3  502    0 -0.29782100918E+03 -0.64053721317E+03 -0.11082359620E+04  0.13142192444E+04  0.25500000920E-02 0.  1.
       -2    1    3    3    0  502  0.29782100918E+03  0.64053721317E+03 -0.18097297456E+03  0.72920264158E+03  0.25500000920E-02 0. -1.
</event>
<event>
 5   0  0.7553070E-04  0.1643599E+04  0.7818609E-02  0.8794202E-01
       -2   -1    0    0    0  501  0.00000000000E+00  0.00000000000E+00  0.28009339481E+03  0.28009339482E+03  0.25500000920E-02 0. -1.
        2   -1    0    0  501    0  0.00000000000E+00  0.00000000000E+00 -0.24111762647E+04  0.24111762647E+04  0.25500000920E-02 0.  1.
    10030    2    1    2    0    0  0.00000000000E+00  0.00000000000E+00 -0.21310828698E+04  0.26912696595E+04  0.16435991549E+04 0.  0.
        4    1    3    3  502    0  0.31524526057E+03  0.63089191288E+03 -0.17562721683E+04  0.18925902151E+04  0.12699999809E+01 0.  1.
       -4    1    3    3    0  502 -0.31524526057E+03 -0.63089191288E+03 -0.37481070152E+03  0.79867944441E+03  0.12699999809E+01 0. -1.
</event>
<event>
 5   0  0.4110803E-04  0.1594497E+04  0.7818609E-02  0.8823936E-01
       -1   -1    0    0    0  501  0.00000000000E+00  0.00000000000E+00  0.70398289499E+03  0.70398289501E+03  0.50400001928E-02 0.  1.
        1   -1    0    0  501    0  0.00000000000E+00  0.00000000000E+00 -0.90287070475E+03  0.90287070476E+03  0.50400001928E-02 0. -1.
    10030    2    1    2    0    0  0.00000000000E+00  0.00000000000E+00 -0.19888780975E+03  0.16068535998E+04  0.15944974538E+04 0.  0.
        5    1    3    3  502    0 -0.54958287204E+03 -0.56987142263E+03 -0.49695176926E+01  0.79173326169E+03  0.46999998093E+01 0. -1.
       -5    1    3    3    0  502  0.54958287204E+03  0.56987142263E+03 -0.19391829206E+03  0.81512033808E+03  0.46999998093E+01 0.  1.
</event>
<event>
 5   0  0.2781000E-04  0.1613503E+04  0.7818609E-02  0.8812295E-01
        4   -1    0    0  501    0  0.00000000000E+00  0.00000000000E+00  0.54042894315E+03  0.54043043539E+03  0.12699999809E+01 0.  1.
       -4   -1    0    0    0  501  0.00000000000E+00  0.00000000000E+00 -0.12043142263E+04  0.12043148959E+04  0.12699999809E+01 0. -1.
    10030    2    1    2    0    0  0.00000000000E+00  0.00000000000E+00 -0.66388528314E+03  0.17447453313E+04  0.16135032079E+04 0.  0.
        3    1    3    3  502    0 -0.23988883979E+03  0.47746112192E+03 -0.98553397373E+03  0.11210677954E+04  0.10100000352E+00 0. -1.
       -3    1    3    3    0  502  0.23988883979E+03 -0.47746112192E+03  0.32164869059E+03  0.62367753588E+03  0.10100000352E+00 0.  1.
</event>
<event>
 5   0  0.2781000E-04  0.1529746E+04  0.7818609E-02  0.8864909E-01
        3   -1    0    0  501    0  0.00000000000E+00  0.00000000000E+00  0.13266135436E+04  0.13266135474E+04  0.10100000352E+00 0. -1.
       -3   -1    0    0    0  501  0.00000000000E+00  0.00000000000E+00 -0.44099582060E+03  0.44099583217E+03  0.10100000352E+00 0.  1.
    10030    2    1    2    0    0  0.00000000000E+00  0.00000000000E+00  0.88561772300E+03  0.17676093796E+04  0.15297464390E+04 0.  0.
        1    1    3    3  502    0  0.29410763169E+03 -0.21929527105E+03 -0.33269856503E+03  0.49525554022E+03  0.50400001928E-02 0.  1.
       -1    1    3    3    0  502 -0.29410763169E+03  0.21929527105E+03  0.12183162880E+04  0.12723538394E+04  0.50400001928E-02 0. -1.
</event>
<event>
 5   0  0.3950195E-04  0.1613309E+04  0.7818609E-02  0.8812413E-01
       -1   -1    0    0    0  501  0.00000000000E+00  0.00000000000E+00  0.59344749640E+03  0.59344749642E+03  0.50400001928E-02 0.  1.
        1   -1    0    0  501    0  0.00000000000E+00  0.00000000000E+00 -0.10964601394E+04  0.10964601394E+04  0.50400001928E-02 0. -1.
    10030    2    1    2    0    0  0.00000000000E+00  0.00000000000E+00 -0.50301264299E+03  0.16899076358E+04  0.16133090524E+04 0.  0.
        2    1    3    3  502    0 -0.48760189455E+03  0.64030745559E+03 -0.30832450591E+03  0.86186614170E+03  0.25500000920E-02 0. -1.
       -2    1    3    3    0  502  0.48760189455E+03 -0.64030745559E+03 -0.19468813708E+03  0.82804149412E+03  0.25500000920E-02 0.  1.
</event>
<event>
 5   0  0.3973227E-04  0.1607356E+04  0.7818609E-02  0.8816042E-01
       -1   -1    0    0    0  501  0.00000000000E+00  0.00000000000E+00  0.74305181122E+03  0.74305181124E+03  0.50400001928E-02 0.  1.
        1   -1    0    0  501    0  0.00000000000E+00  0.00000000000E+00 -0.86925088425E+03  0.86925088426E+03  0.50400001928E-02 0. -1.
    10030    2    1    2    0    0  0.00000000000E+00  0.00000000000E+00 -0.12619907303E+03  0.16123026955E+04  0.16073561447E+04 0.  0.
        3    1    3    3  502    0 -0.64910450369E+03  0.16140620448E+03  0.38381600414E+03  0.77117012053E+03  0.10100000352E+00 0.  1.
       -3    1    3    3    0  502  0.64910450369E+03 -0.16140620448E+03 -0.51001507716E+03  0.84113257498E+03  0.10100000352E+00 0. -1.
</event>
<event>
 5   0  0.4110803E-04  0.1594899E+04  0.7818609E-02  0.8823688E-01
       -1   -1    0    0    0  501  0.00000000000E+00  0.00000000000E+00  0.77333770793E+03  0.77333770795E+03  0.50400001928E-02 0.  1.
        1   -1    0    0  501    0  0.00000000000E+00  0.00000000000E+00 -0.82231314290E+03  0.82231314291E+03  0.50400001928E-02 0. -1.
    10030    2    1    2    0    0  0.00000000000E+00  0.00000000000E+00 -0.48975434965E+02  0.15956508509E+04  0.15948990704E+04 0.  0.
        5    1    3    3  502    0 -0.18706712024E+02  0.78442430578E+03  0.11781940337E+03  0.79345758197E+03  0.46999998093E+01 0.  1.
       -5    1    3    3    0  502  0.18706712024E+02 -0.78442430578E+03 -0.16679483834E+03  0.80219326890E+03  0.46999998093E+01 0. -1.
</event>
<event>
 5   0  0.7415102E-04  0.1566605E+04  0.7818609E-02  0.8841331E-01
       -2   -1    0    0    0  501  0.00000000000E+00  0.00000000000E+00  0.15637032023E+04  0.15637032023E+04  0.25500000920E-02 0. -1.
        2   -1    0    0  501    0  0.00000000000E+00  0.00000000000E+00 -0.39237811098E+03  0.39237811099E+03  0.25500000920E-02 0.  1.
    10030    2    1    2    0    0  0.00000000000E+00  0.00000000000E+00  0.11713250913E+04  0.19560813133E+04  0.15666051304E+04 0.  0.
        5    1    3    3  502    0 -0.20617936709E+03  0.33453313803E+03 -0.26037520220E+03  0.47142304544E+03  0.46999998093E+01 0.  1.
       -5    1    3    3    0  502  0.20617936709E+03 -0.33453313803E+03  0.14317002935E+04  0.14846582679E+04  0.46999998093E+01 0. -1.
</event>
<event>
 5   0  0.3889847E-04  0.1596328E+04  0.7818609E-02  0.8822807E-01
       -1   -1    0    0    0  501  0.00000000000E+00  0.00000000000E+00  0.58655153800E+03  0.58655153803E+03  0.50400001928E-02 0. -1.
        1   -1    0    0  501    0  0.00000000000E+00  0.00000000000E+00 -0.10861204263E+04  0.10861204264E+04  0.50400001928E-02 0.  1.
    10030    2    1    2    0    0  0.00000000000E+00  0.00000000000E+00 -0.49956888835E+03  0.16726719644E+04  0.15963277941E+04 0.  0.
        1    1    3    3  502    0 -0.47460498509E+03 -0.97205525760E+02  0.41487590630E+03  0.63782507301E+03  0.50400001928E-02 0. -1.
       -1    1    3    3    0  502  0.47460498509E+03  0.97205525760E+02 -0.91444479465E+03  0.10348468914E+04  0.50400001928E-02 0.  1.
</event>
<event>
 5   0  0.4110803E-04  0.1596891E+04  0.7818609E-02  0.8822460E-01
        1   -1    0    0  501    0  0.00000000000E+00  0.00000000000E+00  0.19858940766E+04  0.19858940766E+04  0.50400001928E-02 0.  1.
       -1   -1    0    0    0  501  0.00000000000E+00  0.00000000000E+00 -0.32102171266E+03  0.32102171270E+03  0.50400001928E-02 0. -1.
    10030    2    1    2    0    0  0.00000000000E+00  0.00000000000E+00  0.16648723640E+04  0.23069157893E+04  0.15968908763E+04 0.  0.
        5    1    3    3  502    0 -0.16489988713E+02  0.34964528259E+03 -0.20424965409E+03  0.40529465153E+03  0.46999998093E+01 0. -1.
       -5    1    3    3    0  502  0.16489988713E+02 -0.34964528259E+03  0.18691220181E+04  0.19016211378E+04  0.46999998093E+01 0.  1.
</event>
<event>
 5   0  0.3837251E-04  0.1661888E+04  0.7818609E-02  0.8783405E-01
       -1   -1    0    0    0  501  0.00000000000E+00  0.00000000000E+00  0.81171881524E+03  0.81171881526E+03  0.50400001928E-02 0. -1.
        1   -1    0    0  501    0  0.00000000000E+00  0.00000000000E+00 -0.85062458785E+03  0.85062458787E+03  0.50400001928E-02 0.  1.
    10030    2    1    2    0    0  0.00000000000E+00  0.00000000000E+00 -0.38905772607E+02  0.16623434031E+04  0.16618880620E+04 0.  0.
        4    1    3    3  502    0 -0.54019325522E+03  0.40622635682E+03 -0.50294622679E+03  0.84248746335E+03  0.12699999809E+01 0.  1.
       -4    1    3    3    0  502  0.54019325522E+03 -0.40622635682E+03  0.46404045418E+03  0.81985593977E+03  0.12699999809E+01 0. -1.
</event>
<event>
 5   0  0.3950195E-04  0.1530515E+04  0.7818609E-02  0.8864410E-01
       -1   -1    0    0    0  501  0.00000000000E+00  0.00000000000E+00  0.47178116449E+03  0.47178116451E+03  0.50400001928E-02 0. -1.
        1   -1    0    0  501    0  0.00000000000E+00  0.00000000000E+00 -0.12412944833E+04  0.12412944833E+04  0.50400001928E-02 0.  1.
    10030    2    1    2    0    0  0.00000000000E+00  0.00000000000E+00 -0.76951331883E+03  0.17130756478E+04  0.15305154123E+04 0.  0.
        2    1    3    3  502    0 -0.36413063249E+03  0.53744446680E+03 -0.83828161307E+03  0.10602611637E+04  0.25500000920E-02 0.  1.
       -2    1    3    3    0  502  0.36413063249E+03 -0.53744446680E+03  0.68768294245E+02  0.65281448414E+03  0.25500000920E-02 0. -1.
</event>
<event>
 5   0  0.7770905E-04  0.1642116E+04  0.7818609E-02  0.8795084E-01
       -2   -1    0    0    0  501  0.00000000000E+00  0.00000000000E+00  0.10158372766E+04  0.10158372766E+04  0.25500000920E-02 0.  1.
        2   -1    0    0  501    0  0.00000000000E+00  0.00000000000E+00 -0.66362622146E+03  0.66362622146E+03  0.25500000920E-02 0. -1.
    10030    2    1    2    0    0  0.00000000000E+00  0.00000000000E+00  0.35221105515E+03  0.16794634981E+04  0.16421160172E+04 0.  0.
        2    1    3    3  502    0  0.19221670426E+02 -0.79492474786E+03 -0.33148459525E+02  0.79584775413E+03  0.25500000920E-02 0. -1.
       -2    1    3    3    0  502 -0.19221670426E+02  0.79492474786E+03  0.38535951467E+03  0.88361574394E+03  0.25500000920E-02 0.  1.
</event>
<event>
 5   0  0.7488884E-04  0.1601616E+04  0.7818609E-02  0.8819556E-01
       -2   -1    0    0    0  501  0.00000000000E+00  0.00000000000E+00  0.41755728734E+03  0.41755728735E+03  0.25500000920E-02 0. -1.
        2   -1    0    0  501    0  0.00000000000E+00  0.00000000000E+00 -0.15358217908E+04  0.15358217908E+04  0.25500000920E-02 0.  1.
    10030    2    1    2    0    0  0.00000000000E+00  0.00000000000E+00 -0.11182645035E+04  0.19533790782E+04  0.16016161598E+04 0.  0.
        3    1    3    3  502    0  0.65225599326E+03 -0.31605772609E+03 -0.97445736510E+03  0.12144535947E+04  0.10100000352E+00 0.  1.
       -3    1    3    3    0  502 -0.65225599326E+03  0.31605772609E+03 -0.14380713839E+03  0.73892548353E+03  0.10100000352E+00 0. -1.
</event>
<event>
 5   0  0.7553070E-04  0.1626332E+04  0.7818609E-02  0.8804533E-01
       -2   -1    0    0    0  501  0.00000000000E+00  0.00000000000E+00  0.77957856714E+03  0.77957856715E+03  0.25500000920E-02 0. -1.
        2   -1    0    0  501    0  0.00000000000E+00  0.00000000000E+00 -0.84820031355E+03  0.84820031355E+03  0.25500000920E-02 0.  1.
    10030    2    1    2    0    0  0.00000000000E+00  0.00000000000E+00 -0.68621746406E+02  0.16277788807E+04  0.16263318051E+04 0.  0.
        4    1    3    3  502    0 -0.40951704089E+03  0.30744225579E+03 -0.66654706791E+03  0.84054241658E+03  0.12699999809E+01 0.  1.
       -4    1    3    3    0  502  0.40951704089E+03 -0.30744225579E+03  0.59792532151E+03  0.78723646411E+03  0.12699999809E+01 0. -1.
</event>
<event>
 5   0  0.4110803E-04  0.1550402E+04  0.7818609E-02  0.8851611E-01
        1   -1    0    0  501    0  0.00000000000E+00  0.00000000000E+00  0.18831673123E+04  0.18831673123E+04  0.50400001928E-02 0. -1.
       -1   -1    0    0    0  501  0.00000000000E+00  0.00000000000E+00 -0.31910954906E+03  0.31910954910E+03  0.50400001928E-02 0.  1.
    10030    2    1    2    0    0  0.00000000000E+00  0.00000000000E+00  0.15640577632E+04  0.22022768614E+04  0.15504021051E+04 0.  0.
        5    1    3    3  502    0  0.52269103621E+03 -0.82904170154E+02 -0.22550346148E+02  0.52972599415E+03  0.46999998093E+01 0.  1.
       -5    1    3    3    0  502 -0.52269103621E+03  0.82904170154E+02  0.15866081094E+04  0.16725508672E+04  0.46999998093E+01 0. -1.
</event>
<event>
 5   0  0.7395088E-04  0.1580587E+04  0.7818609E-02  0.8832564E-01
        2   -1    0    0  501    0  0.00000000000E+00  0.00000000000E+00  0.14778058143E+04  0.14778058143E+04  0.25500000920E-02 0.  1.
       -2   -1    0    0    0  501  0.00000000000E+00  0.00000000000E+00 -0.42262891951E+03  0.42262891952E+03  0.25500000920E-02 0. -1.
    10030    2    1    2    0    0  0.00000000000E+00  0.00000000000E+00  0.10551768948E+04  0.19004347338E+04  0.15805865678E+04 0.  0.
        1    1    3    3  502    0  0.25398166845E+03 -0.16973935486E+03  0.14039478253E+04  0.14367977007E+04  0.50400001928E-02 0.  1.
       -1    1    3    3    0  502 -0.25398166845E+03  0.16973935486E+03 -0.34877093052E+03  0.46363703314E+03  0.50400001928E-02 0. -1.
</event>
<event>
 5   0  0.7415102E-04  0.1598554E+04  0.7818609E-02  0.8821437E-01
       -2   -1    0    0    0  501  0.00000000000E+00  0.00000000000E+00  0.60759941217E+03  0.60759941217E+03  0.25500000920E-02 0. -1.
        2   -1    0    0  501    0  0.00000000000E+00  0.00000000000E+00 -0.10514223403E+04  0.10514223403E+04  0.25500000920E-02 0.  1.
    10030    2    1    2    0    0  0.00000000000E+00  0.00000000000E+00 -0.44382292809E+03  0.16590217524E+04  0.15985538413E+04 0.  0.
        5    1    3    3  502    0  0.56594891022E+03  0.24331358539E+02  0.36327122435E+03  0.67296229941E+03  0.46999998093E+01 0. -1.
       -5    1    3    3    0  502 -0.56594891022E+03 -0.24331358539E+02 -0.80709415244E+03  0.98605945302E+03  0.46999998093E+01 0.  1.
</event>
<event>
 5   0  0.3837251E-04  0.1553815E+04  0.7818609E-02  0.8849435E-01
        1   -1    0    0  501    0  0.00000000000E+00  0.00000000000E+00  0.11878471884E+04  0.11878471884E+04  0.50400001928E-02 0.  1.
       -1   -1    0    0    0  501  0.00000000000E+00  0.00000000000E+00 -0.50813381725E+03  0.50813381728E+03  0.50400001928E-02 0. -1.
    10030    2    1    2    0    0  0.00000000000E+00  0.00000000000E+00  0.67971337117E+03  0.16959810057E+04  0.15538150806E+04 0.  0.
        4    1    3    3  502    0 -0.71363068679E+03 -0.30600875538E+03  0.36818508152E+03  0.85934392571E+03  0.12699999809E+01 0. -1.
       -4    1    3    3    0  502  0.71363068679E+03  0.30600875538E+03  0.31152828965E+03  0.83663708001E+03  0.12699999809E+01 0.  1.
</event>
<event>
 5   0  0.3950195E-04  0.1418106E+04  0.7818609E-02  0.8940815E-01
       -1   -1    0    0    0  501  0.00000000000E+00  0.00000000000E+00  0.50590042440E+03  0.50590042442E+03  0.50400001928E-02 0. -1.
        1   -1    0    0  501    0  0.00000000000E+00  0.00000000000E+00 -0.99378546165E+03  0.99378546167E+03  0.50400001928E-02 0.  1.
    10030    2    1    2    0    0  0.00000000000E+00  0.00000000000E+00 -0.48788503725E+03  0.14996858861E+04  0.14181064655E+04 0.  0.
        2    1    3    3  502    0 -0.61701055318E+03  0.26903791730E+03 -0.82466672968E+01  0.67316523322E+03  0.25500000920E-02 0. -1.
       -2    1    3    3    0  502  0.61701055318E+03 -0.26903791730E+03 -0.47963836996E+03  0.82652065287E+03  0.25500000920E-02 0.  1.
</event>
<event>
 5   0  0.3950195E-04  0.1558647E+04  0.7818609E-02  0.8846364E-01
       -1   -1    0    0    0  501  0.00000000000E+00  0.00000000000E+00  0.30730637682E+03  0.30730637686E+03  0.50400001928E-02 0.  1.
        1   -1    0    0  501    0  0.00000000000E+00  0.00000000000E+00 -0.19763496056E+04  0.19763496056E+04  0.50400001928E-02 0. -1.
    10030    2    1    2    0    0  0.00000000000E+00  0.00000000000E+00 -0.16690432288E+04  0.22836559825E+04  0.15586466395E+04 0.  0.
        2    1    3    3  502    0  0.61540138109E+03  0.11353107781E+03 -0.15150480495E+04  0.16392006460E+04  0.25500000920E-02 0. -1.
       -2    1    3    3    0  502 -0.61540138109E+03 -0.11353107781E+03 -0.15399517928E+03  0.64445533649E+03  0.25500000920E-02 0.  1.
</event>
<event>
 5   0  0.3973227E-04  0.1417516E+04  0.7818609E-02  0.8941236E-01
       -1   -1    0    0    0  501  0.00000000000E+00  0.00000000000E+00  0.41552639331E+03  0.41552639334E+03  0.50400001928E-02 0.  1.
        1   -1    0    0  501    0  0.00000000000E+00  0.00000000000E+00 -0.12089188963E+04  0.12089188963E+04  0.50400001928E-02 0. -1.
    10030    2    1    2    0    0  0.00000000000E+00  0.00000000000E+00 -0.79339250299E+03  0.16244452896E+04  0.14175157266E+04 0.  0.
        3    1    3    3  502    0 -0.51694273502E+03  0.21293647737E+02  0.15842983431E+03  0.54109447726E+03  0.10100000352E+00 0.  1.
       -3    1    3    3    0  502  0.51694273502E+03 -0.21293647737E+02 -0.95182233730E+03  0.10833508124E+04  0.10100000352E+00 0. -1.
</event>
<event>
 5   0  0.3950195E-04  0.1591723E+04  0.7818609E-02  0.8825649E-01
        1   -1    0    0  501    0  0.00000000000E+00  0.00000000000E+00  0.12358384277E+04  0.12358384277E+04  0.50400001928E-02 0. -1.
       -1   -1    0    0    0  501  0.00000000000E+00  0.00000000000E+00 -0.51252310514E+03  0.51252310516E+03  0.50400001928E-02 0.  1.
    10030    2    1    2    0    0  0.00000000000E+00  0.00000000000E+00  0.72331532252E+03  0.17483615328E+04  0.15917232780E+04 0.  0.
        2    1    3    3  502    0 -0.60228230668E+03 -0.51730345994E+03  0.30100702040E+03  0.84908896645E+03  0.25500000920E-02 0.  1.
       -2    1    3    3    0  502  0.60228230668E+03  0.51730345994E+03  0.42230830212E+03  0.89927256638E+03  0.25500000920E-02 0. -1.
</event>
<event>
 5   0  0.7770905E-04  0.1581963E+04  0.7818609E-02  0.8831706E-01
        2   -1    0    0  501    0  0.00000000000E+00  0.00000000000E+00  0.61872450652E+03  0.61872450652E+03  0.25500000920E-02 0.  1.
       -2   -1    0    0    0  501  0.00000000000E+00  0.00000000000E+00 -0.10111962527E+04  0.10111962527E+04  0.25500000920E-02 0. -1.
    10030    2    1    2    0    0  0.00000000000E+00  0.00000000000E+00 -0.39247174621E+03  0.16299207593E+04  0.15819632138E+04 0.  0.
        2    1    3    3  502    0  0.27568450487E+03 -0.66741129258E+03 -0.52884122412E+03  0.89504906012E+03  0.25500000920E-02 0. -1.
       -2    1    3    3    0  502 -0.27568450487E+03  0.66741129258E+03  0.13636947790E+03  0.73487169914E+03  0.25500000920E-02 0.  1.
</event>
<event>
 5   0  0.7770905E-04  0.1585611E+04  0.7818609E-02  0.8829437E-01
        2   -1    0    0  501    0  0.00000000000E+00  0.00000000000E+00  0.42631256779E+03  0.42631256780E+03  0.25500000920E-02 0. -1.
       -2   -1    0    0    0  501  0.00000000000E+00  0.00000000000E+00 -0.14743651320E+04  0.14743651320E+04  0.25500000920E-02 0.  1.
    10030    2    1    2    0    0  0.00000000000E+00  0.00000000000E+00 -0.10480525642E+04  0.19006776998E+04  0.15856107786E+04 0.  0.
        2    1    3    3  502    0  0.88276189170E+02  0.77401757381E+03 -0.34767215801E+03  0.85309543406E+03  0.25500000920E-02 0. -1.
       -2    1    3    3    0  502 -0.88276189170E+02 -0.77401757381E+03 -0.70038040623E+03  0.10475822658E+04  0.25500000920E-02 0.  1.
</event>
<event>
 5   0  0.7488884E-04  0.1619667E+04  0.7818609E-02  0.8808556E-01
       -2   -1    0    0    0  501  0.00000000000E+00  0.00000000000E+00  0.42581693156E+03  0.42581693157E+03  0.25500000920E-02 0. -1.
        2   -1    0    0  501    0  0.00000000000E+00  0.00000000000E+00 -0.15401687452E+04  0.15401687452E+04  0.25500000920E-02 0.  1.
    10030    2    1    2    0    0  0.00000000000E+00  0.00000000000E+00 -0.11143518136E+04  0.19659856768E+04  0.16196665449E+04 0.  0.
        3    1    3    3  502    0  0.29139201155E+03 -0.67218690472E+03 -0.13830137001E+03  0.74556811790E+03  0.10100000352E+00 0.  1.
       -3    1    3    3    0  502 -0.29139201155E+03  0.67218690472E+03 -0.97605044362E+03  0.12204175589E+04  0.10100000352E+00 0. -1.
</event>
<event>
 5   0  0.3889847E-04  0.1603653E+04  0.7818609E-02  0.8818307E-01
       -1   -1    0    0    0  501  0.00000000000E+00  0.00000000000E+00  0.94797450307E+03  0.94797450309E+03  0.50400001928E-02 0.  1.
        1   -1    0    0  501    0  0.00000000000E+00  0.00000000000E+00 -0.67821014049E+03  0.67821014051E+03  0.50400001928E-02 0. -1.
    10030    2    1    2    0    0  0.00000000000E+00  0.00000000000E+00  0.26976436259E+03  0.16261846436E+04  0.16036532305E+04 0.  0.
        1    1    3    3  502    0 -0.70090423837E+03 -0.10316856504E+03 -0.24591409223E+03  0.74992282600E+03  0.50400001928E-02 0. -1.
       -1    1    3    3    0  502  0.70090423837E+03  0.10316856504E+03  0.51567845482E+03  0.87626181759E+03  0.50400001928E-02 0.  1.
</event>
<event>
 5   0  0.3950195E-04  0.1622788E+04  0.7818609E-02  0.8806670E-01
        1   -1    0    0  501    0  0.00000000000E+00  0.00000000000E+00  0.51585599390E+03  0.51585599392E+03  0.50400001928E-02 0.  1.
       -1   -1    0    0    0  501  0.00000000000E+00  0.00000000000E+00 -0.12762478272E+04  0.12762478272E+04  0.50400001928E-02 0. -1.
    10030    2    1    2    0    0  0.00000000000E+00  0.00000000000E+00 -0.76039183332E+03  0.17921038211E+04  0.16227878375E+04 0.  0.
        2    1    3    3  502    0 -0.59489425940E+02 -0.48707712704E+03  0.33342848531E+03  0.59326020793E+03  0.25500000920E-02 0.  1.
       -2    1    3    3    0  502  0.59489425940E+02  0.48707712704E+03 -0.10938203186E+04  0.11988436132E+04  0.25500000920E-02 0. -1.
</event>
<event>
 5   0  0.3950195E-04  0.1596435E+04  0.7818609E-02  0.8822741E-01
        1   -1    0    0  501    0  0.00000000000E+00  0.00000000000E+00  0.10150025240E+04  0.10150025240E+04  0.50400001928E-02 0.  1.
       -1   -1    0    0    0  501  0.00000000000E+00  0.00000000000E+00 -0.62773328099E+03  0.62773328101E+03  0.50400001928E-02 0. -1.
    10030    2    1    2    0    0  0.00000000000E+00  0.00000000000E+00  0.38726924298E+03  0.16427358050E+04  0.15964346083E+04 0.  0.
        2    1    3    3  502    0  0.30648991336E+03 -0.40127153943E+03  0.82978476424E+03  0.97133808240E+03  0.25500000920E-02 0.  1.
       -2    1    3    3    0  502 -0.30648991336E+03  0.40127153943E+03 -0.44251552126E+03  0.67139772260E+03  0.25500000920E-02 0. -1.
</event>
<event>
 5   0  0.7488884E-04  0.1577857E+04  0.7818609E-02  0.8834268E-01
       -2   -1    0    0    0  501  0.00000000000E+00  0.00000000000E+00  0.44955892197E+03  0.44955892198E+03  0.25500000920E-02 0. -1.
        2   -1    0    0  501    0  0.00000000000E+00  0.00000000000E+00 -0.13844861673E+04  0.13844861673E+04  0.25500000920E-02 0.  1.
    10030    2    1    2    0    0  0.00000000000E+00  0.00000000000E+00 -0.93492724535E+03  0.18340450893E+04  0.15778569122E+04 0.  0.
        3    1    3    3  502    0 -0.48940093667E+03 -0.27352767272E+03  0.17770366055E+03  0.58814051529E+03  0.10100000352E+00 0. -1.
       -3    1    3    3    0  502  0.48940093667E+03  0.27352767272E+03 -0.11126309059E+04  0.12459045740E+04  0.10100000352E+00 0.  1.
</event>
<event>
 5   0  0.7770905E-04  0.1735980E+04  0.7818609E-02  0.8741105E-01
        2   -1    0    0  501    0  0.00000000000E+00  0.00000000000E+00  0.10471181067E+04  0.10471181067E+04  0.25500000920E-02 0.  1.
       -2   -1    0    0    0  501  0.00000000000E+00  0.00000000000E+00 -0.71950532591E+03  0.71950532591E+03  0.25500000920E-02 0. -1.
    10030    2    1    2    0    0  0.00000000000E+00  0.00000000000E+00  0.32761278083E+03  0.17666234327E+04  0.17359804776E+04 0.  0.
        2    1    3    3  502    0 -0.51209493751E+03  0.65960538315E+03  0.40481279472E+03  0.92800532610E+03  0.25500000920E-02 0.  1.
       -2    1    3    3    0  502  0.51209493751E+03 -0.65960538315E+03 -0.77200013889E+02  0.83861810656E+03  0.25500000920E-02 0. -1.
</event>
<event>
 5   0  0.7770905E-04  0.1633694E+04  0.7818609E-02  0.8800112E-01
        2   -1    0    0  501    0  0.00000000000E+00  0.00000000000E+00  0.21875582687E+04  0.21875582687E+04  0.25500000920E-02 0. -1.
       -2   -1    0    0    0  501  0.00000000000E+00  0.00000000000E+00 -0.30501536717E+03  0.30501536718E+03  0.25500000920E-02 0.  1.
    10030    2    1    2    0    0  0.00000000000E+00  0.00000000000E+00  0.18825429016E+04  0.24925736359E+04  0.16336938374E+04 0.  0.
        2    1    3    3  502    0  0.47430319928E+03  0.44202408250E+03  0.16993760676E+04  0.18188534392E+04  0.25500000920E-02 0. -1.
       -2    1    3    3    0  502 -0.47430319928E+03 -0.44202408250E+03  0.18316683401E+03  0.67372019670E+03  0.25500000920E-02 0.  1.
</event>
<event>
 5   0  0.3837251E-04  0.1623875E+04  0.7818609E-02  0.8806013E-01
        1   -1    0    0  501    0  0.00000000000E+00  0.00000000000E+00  0.90541816753E+03  0.90541816755E+03  0.50400001928E-02 0.  1.
       -1   -1    0    0    0  501  0.00000000000E+00  0.00000000000E+00 -0.72810850025E+03  0.72810850027E+03  0.50400001928E-02 0. -1.
    10030    2    1    2    0    0  0.00000000000E+00  0.00000000000E+00  0.17730966729E+03  0.16335266678E+04  0.16238751973E+04 0.  0.
        4    1    3    3  502    0  0.61474513720E+03 -0.27873825185E+03 -0.36528595833E+03  0.76749074327E+03  0.12699999809E+01 0. -1.
       -4    1    3    3    0  502 -0.61474513720E+03  0.27873825185E+03  0.54259562562E+03  0.86603592454E+03  0.12699999809E+01 0.  1.
</event>
<event>
 5   0  0.2781000E-04  0.1607917E+04  0.7818609E-02  0.8815699E-01
       -3   -1    0    0    0  501  0.00000000000E+00  0.00000000000E+00  0.59510929164E+03  0.59510930021E+03  0.10100000352E+00 0. -1.
        3   -1    0    0  501    0  0.00000000000E+00  0.00000000000E+00 -0.10861018858E+04  0.10861018905E+04  0.10100000352E+00 0.  1.
    10030    2    1    2    0    0  0.00000000000E+00  0.00000000000E+00 -0.49099259421E+03  0.16812111907E+04  0.16079170813E+04 0.  0.
        2    1    3    3  502    0  0.21755653042E+02 -0.23781546182E+03 -0.10481609749E+04  0.10750213634E+04  0.25500000920E-02 0.  1.
       -2    1    3    3    0  502 -0.21755653042E+02  0.23781546182E+03  0.55716838073E+03  0.60618982737E+03  0.25500000920E-02 0. -1.
</event>
<event>
 5   0  0.7395088E-04  0.1570303E+04  0.7818609E-02  0.8839003E-01
        2   -1    0    0  501    0  0.00000000000E+00  0.00000000000E+00  0.88227444304E+03  0.88227444304E+03  0.25500000920E-02 0. -1.
       -2   -1    0    0    0  501  0.00000000000E+00  0.00000000000E+00 -0.69871974331E+03  0.69871974332E+03  0.25500000920E-02 0.  1.
    10030    2    1    2    0    0  0.00000000000E+00  0.00000000000E+00  0.18355469973E+03  0.15809941864E+04  0.15703026108E+04 0.  0.
        1    1    3    3  502    0  0.32912093815E+01  0.73243780732E+03 -0.19296727521E+03  0.75743801263E+03  0.50400001928E-02 0.  1.
       -1    1    3    3    0  502 -0.32912093815E+01 -0.73243780732E+03  0.37652197494E+03  0.82355617373E+03  0.50400001928E-02 0. -1.
</event>
<event>
 5   0  0.7488884E-04  0.1594488E+04  0.7818609E-02  0.8823941E-01
        2   -1    0    0  501    0  0.00000000000E+00  0.00000000000E+00  0.98287378763E+03  0.98287378763E+03  0.25500000920E-02 0. -1.
       -2   -1    0    0    0  501  0.00000000000E+00  0.00000000000E+00 -0.64667327710E+03  0.64667327710E+03  0.25500000920E-02 0.  1.
    10030    2    1    2    0    0  0.00000000000E+00  0.00000000000E+00  0.33620051053E+03  0.16295470647E+04  0.15944882731E+04 0.  0.
        3    1    3    3  502    0  0.61036213072E+03 -0.15919988972E+03  0.66637724047E+03  0.91757570387E+03  0.10100000352E+00 0. -1.
       -3    1    3    3    0  502 -0.61036213072E+03  0.15919988972E+03 -0.33017672994E+03  0.71197136087E+03  0.10100000352E+00 0.  1.
</event>
<event>
 5   0  0.3950195E-04  0.1693888E+04  0.7818609E-02  0.8764858E-01
       -1   -1    0    0    0  501  0.00000000000E+00  0.00000000000E+00  0.61190733598E+03  0.61190733600E+03  0.50400001928E-02 0. -1.
        1   -1    0    0  501    0  0.00000000000E+00  0.00000000000E+00 -0.11722597411E+04  0.11722597411E+04  0.50400001928E-02 0.  1.
    10030    2    1    2    0    0  0.00000000000E+00  0.00000000000E+00 -0.56035240511E+03  0.17841670771E+04  0.16938882316E+04 0.  0.
        2    1    3    3  502    0 -0.20198063540E+03  0.76283135570E+02  0.58243404520E+03  0.62116399676E+03  0.25500000920E-02 0. -1.
       -2    1    3    3    0  502  0.20198063540E+03 -0.76283135570E+02 -0.11427864503E+04  0.11630030803E+04  0.25500000920E-02 0.  1.
</event>
<event>
 5   0  0.7488884E-04  0.1590206E+04  0.7818609E-02  0.8826588E-01
       -2   -1    0    0    0  501  0.00000000000E+00  0.00000000000E+00  0.63088683457E+03  0.63088683457E+03  0.25500000920E-02 0. -1.
        2   -1    0    0  501    0  0.00000000000E+00  0.00000000000E+00 -0.10020630746E+04  0.10020630746E+04  0.25500000920E-02 0.  1.
    10030    2    1    2    0    0  0.00000000000E+00  0.00000000000E+00 -0.37117624007E+03  0.16329499092E+04  0.15902055228E+04 0.  0.
        3    1    3    3  502    0  0.13610507460E+03  0.76412565820E+03 -0.83932414414E+01  0.77619782888E+03  0.10100000352E+00 0.  1.
       -3    1    3    3    0  502 -0.13610507460E+03 -0.76412565820E+03 -0.36278299863E+03  0.85675208033E+03  0.10100000352E+00 0. -1.
</event>
<event>
 5   0  0.7770905E-04  0.1628192E+04  0.7818609E-02  0.8803413E-01
        2   -1    0    0  501    0  0.00000000000E+00  0.00000000000E+00  0.11503811514E+04  0.11503811514E+04  0.25500000920E-02 0. -1.
       -2   -1    0    0    0  501  0.00000000000E+00  0.00000000000E+00 -0.57611532740E+03  0.57611532741E+03  0.25500000920E-02 0.  1.
    10030    2    1    2    0    0  0.00000000000E+00  0.00000000000E+00  0.57426582402E+03  0.17264964788E+04  0.16281918974E+04 0.  0.
        2    1    3    3  502    0 -0.39861876042E+03 -0.32513617297E+03  0.95621434337E+03  0.10857975491E+04  0.25500000920E-02 0. -1.
       -2    1    3    3    0  502  0.39861876042E+03  0.32513617297E+03 -0.38194851935E+03  0.64069892974E+03  0.25500000920E-02 0.  1.
</event>
<event>
 5   0  0.7415102E-04  0.1212383E+04  0.7818609E-02  0.9102086E-01
        2   -1    0    0  501    0  0.00000000000E+00  0.00000000000E+00  0.10943890783E+04  0.10943890783E+04  0.25500000920E-02 0.  1.
       -2   -1    0    0    0  501  0.00000000000E+00  0.00000000000E+00 -0.33577488488E+03  0.33577488489E+03  0.25500000920E-02 0. -1.
    10030    2    1    2    0    0  0.00000000000E+00  0.00000000000E+00  0.75861419341E+03  0.14301639632E+04  0.12123833829E+04 0.  0.
        5    1    3    3  502    0  0.11644830182E+03  0.59159934740E+03  0.30567434279E+03  0.67602432551E+03  0.46999998093E+01 0. -1.
       -5    1    3    3    0  502 -0.11644830182E+03 -0.59159934740E+03  0.45293985062E+03  0.75413963768E+03  0.46999998093E+01 0.  1.
</event>
<event>
 5   0  0.3973227E-04  0.1587443E+04  0.7818609E-02  0.8828300E-01
       -1   -1    0    0    0  501  0.00000000000E+00  0.00000000000E+00  0.76030500986E+03  0.76030500987E+03  0.50400001928E-02 0. -1.
        1   -1    0    0  501    0  0.00000000000E+00  0.00000000000E+00 -0.82860648475E+03  0.82860648476E+03  0.50400001928E-02 0.  1.
    10030    2    1    2    0    0  0.00000000000E+00  0.00000000000E+00 -0.68301474890E+02  0.15889114946E+04  0.15874428010E+04 0.  0.
        3    1    3    3  502    0  0.32721030747E+03 -0.10465991147E+03 -0.75033587925E+03  0.82524191863E+03  0.10100000352E+00 0.  1.
       -3    1    3    3    0  502 -0.32721030747E+03  0.10465991147E+03  0.68203440436E+03  0.76366957600E+03  0.10100000352E+00 0. -1.
</event>
<event>
 5   0  0.4110803E-04  0.1600028E+04  0.7818609E-02  0.8820531E-01
        1   -1    0    0  501    0  0.00000000000E+00  0.00000000000E+00  0.53171252310E+03  0.53171252313E+03  0.50400001928E-02 0. -1.
       -1   -1    0    0    0  501  0.00000000000E+00  0.00000000000E+00 -0.12036996027E+04  0.12036996028E+04  0.50400001928E-02 0.  1.
    10030    2    1    2    0    0  0.00000000000E+00  0.00000000000E+00 -0.67198707965E+03  0.17354121259E+04  0.16000276908E+04 0.  0.
        5    1    3    3  502    0 -0.59184803787E+03 -0.52813168616E+03 -0.44867277847E+03  0.91133776943E+03  0.46999998093E+01 0.  1.
       -5    1    3    3    0  502  0.59184803787E+03  0.52813168616E+03 -0.22331430118E+03  0.82407435645E+03  0.46999998093E+01 0. -1.
</event>
<event>
 5   0  0.7395088E-04  0.1459351E+04  0.7818609E-02  0.8911943E-01
        2   -1    0    0  501    0  0.00000000000E+00  0.00000000000E+00  0.10231622022E+04  0.10231622022E+04  0.25500000920E-02 0.  1.
       -2   -1    0    0    0  501  0.00000000000E+00  0.00000000000E+00 -0.52037355312E+03  0.52037355313E+03  0.25500000920E-02 0. -1.
    10030    2    1    2    0    0  0.00000000000E+00  0.00000000000E+00  0.50278864906E+03  0.15435357553E+04  0.14593512950E+04 0.  0.
        1    1    3    3  502    0  0.13176970553E+03  0.35573997821E+02  0.10095405211E+04  0.10187250995E+04  0.50400001928E-02 0.  1.
       -1    1    3    3    0  502 -0.13176970553E+03 -0.35573997821E+02 -0.50675187203E+03  0.52481065581E+03  0.50400001928E-02 0. -1.
</event>
<event>
 5   0  0.3950195E-04  0.1591988E+04  0.7818609E-02  0.8825485E-01
        1   -1    0    0  501    0  0.00000000000E+00  0.00000000000E+00  0.86371462476E+03  0.86371462477E+03  0.50400001928E-02 0. -1.
       -1   -1    0    0    0  501  0.00000000000E+00  0.00000000000E+00 -0.73358307293E+03  0.73358307294E+03  0.50400001928E-02 0.  1.
    10030    2    1    2    0    0  0.00000000000E+00  0.00000000000E+00  0.13013155183E+03  0.15972976977E+04  0.15919879756E+04 0.  0.
        2    1    3    3  502    0 -0.37469042908E+03  0.62587992146E+03  0.38469985429E+03  0.82468937887E+03  0.25500000920E-02 0.  1.
       -2    1    3    3    0  502  0.37469042908E+03 -0.62587992146E+03 -0.25456830246E+03  0.77260831885E+03  0.25500000920E-02 0. -1.
</event>
<event>
 5   0  0.7770905E-04  0.1326291E+04  0.7818609E-02  0.9008972E-01
       -2   -1    0    0    0  501  0.00000000000E+00  0.00000000000E+00  0.42928558103E+03  0.42928558104E+03  0.25500000920E-02 0. -1.
        2   -1    0    0  501    0  0.00000000000E+00  0.00000000000E+00 -0.10244048779E+04  0.10244048780E+04  0.25500000920E-02 0.  1.
    10030    2    1    2    0    0  0.00000000000E+00  0.00000000000E+00 -0.59511929692E+03  0.14536904590E+04  0.13262914359E+04 0.  0.
        2    1    3    3  502    0 -0.62968216336E+03 -0.10034283190E+03 -0.97866884631E+02  0.64509397601E+03  0.25500000920E-02 0.  1.
       -2    1    3    3    0  502  0.62968216336E+03  0.10034283190E+03 -0.49725241229E+03  0.80859648298E+03  0.25500000920E-02 0. -1.
</event>
<event>
 5   0  0.3889847E-04  0.1551341E+04  0.7818609E-02  0.8851011E-01
       -1   -1    0    0    0  501  0.00000000000E+00  0.00000000000E+00  0.54632206640E+03  0.54632206642E+03  0.50400001928E-02 0. -1.
        1   -1    0    0  501    0  0.00000000000E+00  0.00000000000E+00 -0.11013008752E+04  0.11013008752E+04  0.50400001928E-02 0.  1.
    10030    2    1    2    0    0  0.00000000000E+00  0.00000000000E+00 -0.55497880878E+03  0.16476229416E+04  0.15513413163E+04 0.  0.
        1    1    3    3  502    0  0.99848692788E+02 -0.40690696792E+03 -0.97078335864E+03  0.10573378700E+04  0.50400001928E-02 0.  1.
       -1    1    3    3    0  502 -0.99848692788E+02  0.40690696792E+03  0.41580454987E+03  0.59028507156E+03  0.50400001928E-02 0. -1.
</event>
<event>
 5   0  0.7553070E-04  0.1632237E+04  0.7818609E-02  0.8800984E-01
       -2   -1    0    0    0  501  0.00000000000E+00  0.00000000000E+00  0.96719712560E+03  0.96719712560E+03  0.25500000920E-02 0.  1.
        2   -1    0    0  501    0  0.00000000000E+00  0.00000000000E+00 -0.68863911007E+03  0.68863911007E+03  0.25500000920E-02 0. -1.
    10030    2    1    2    0    0  0.00000000000E+00  0.00000000000E+00  0.27855801553E+03  0.16558362357E+04  0.16322374433E+04 0.  0.
        4    1    3    3  502    0 -0.61191686717E+03 -0.28603436346E+03  0.60392981032E+03  0.90608539228E+03  0.12699999809E+01 0.  1.
       -4    1    3    3    0  502  0.61191686717E+03  0.28603436346E+03 -0.32537179479E+03  0.74975084339E+03  0.12699999809E+01 0. -1.
</event>
<event>
 5   0  0.3837251E-04  0.1581602E+04  0.7818609E-02  0.8831931E-01
        1   -1    0    0  501    0  0.00000000000E+00  0.00000000000E+00  0.21568000165E+04  0.21568000165E+04  0.50400001928E-02 0. -1.
       -1   -1    0    0    0  501  0.00000000000E+00  0.00000000000E+00 -0.28995099841E+03  0.28995099845E+03  0.50400001928E-02 0.  1.
    10030    2    1    2    0    0  0.00000000000E+00  0.00000000000E+00  0.18668490181E+04  0.24467510150E+04  0.15816021222E+04 0.  0.
        4    1    3    3  502    0  0.59490799902E+03  0.23830386949E+02  0.12826478352E+03  0.60904587860E+03  0.12699999809E+01 0.  1.
       -4    1    3    3    0  502 -0.59490799902E+03 -0.23830386949E+02  0.17385842346E+04  0.18377051364E+04  0.12699999809E+01 0. -1.
</event>
<event>
 5   0  0.7415102E-04  0.1621830E+04  0.7818609E-02  0.8807248E-01
       -2   -1    0    0    0  501  0.00000000000E+00  0.00000000000E+00  0.53413329296E+03  0.53413329296E+03  0.25500000920E-02 0.  1.
        2   -1    0    0  501    0  0.00000000000E+00  0.00000000000E+00 -0.12311221872E+04  0.12311221872E+04  0.25500000920E-02 0. -1.
    10030    2    1    2    0    0  0.00000000000E+00  0.00000000000E+00 -0.69698889423E+03  0.17652554801E+04  0.16218302598E+04 0.  0.
        5    1    3    3  502    0  0.50168372250E+03 -0.73874685231E+02  0.34025069468E+03  0.61068539508E+03  0.46999998093E+01 0.  1.
       -5    1    3    3    0  502 -0.50168372250E+03  0.73874685231E+02 -0.10372395889E+04  0.11545700851E+04  0.46999998093E+01 0. -1.
</event>
<event>
 5   0  0.3837251E-04  0.1585658E+04  0.7818609E-02  0.8829407E-01
        1   -1    0    0  501    0  0.00000000000E+00  0.00000000000E+00  0.89272460648E+03  0.89272460649E+03  0.50400001928E-02 0. -1.
       -1   -1    0    0    0  501  0.00000000000E+00  0.00000000000E+00 -0.70411182009E+03  0.70411182011E+03  0.50400001928E-02 0.  1.
    10030    2    1    2    0    0  0.00000000000E+00  0.00000000000E+00  0.18861278638E+03  0.15968364266E+04  0.15856581568E+04 0.  0.
        4    1    3    3  502    0 -0.29143688321E+03 -0.53077284322E+03 -0.42108371681E+03  0.73754211910E+03  0.12699999809E+01 0.  1.
       -4    1    3    3    0  502  0.29143688321E+03  0.53077284322E+03  0.60969650320E+03  0.85929430750E+03  0.12699999809E+01 0. -1.
</event>
<event>
 5   0  0.4110803E-04  0.1578686E+04  0.7818609E-02  0.8833750E-01
        1   -1    0    0  501    0  0.00000000000E+00  0.00000000000E+00  0.10855239046E+04  0.10855239047E+04  0.50400001928E-02 0.  1.
       -1   -1    0    0    0  501  0.00000000000E+00  0.00000000000E+00 -0.57397388988E+03  0.57397388990E+03  0.50400001928E-02 0. -1.
    10030    2    1    2    0    0  0.00000000000E+00  0.00000000000E+00  0.51155001477E+03  0.16594977946E+04  0.15786860082E+04 0.  0.
        5    1    3    3  502    0  0.63903128521E+03  0.11077471735E+02  0.74268854924E+03  0.97984287773E+03  0.46999998093E+01 0.  1.
       -5    1    3    3    0  502 -0.63903128521E+03 -0.11077471735E+02 -0.23113853447E+03  0.67965491683E+03  0.46999998093E+01 0. -1.
</event>
<event>
 5   0  0.7395088E-04  0.1563346E+04  0.7818609E-02  0.8843388E-01
        2   -1    0    0  501    0  0.00000000000E+00  0.00000000000E+00  0.61846327809E+03  0.61846327810E+03  0.25500000920E-02 0.  1.
       -2   -1    0    0    0  501  0.00000000000E+00  0.00000000000E+00 -0.98795326495E+03  0.98795326496E+03  0.25500000920E-02 0. -1.
    10030    2    1    2    0    0  0.00000000000E+00  0.00000000000E+00 -0.36948998686E+03  0.16064165431E+04  0.15633461739E+04 0.  0.
        1    1    3    3  502    0 -0.69841697394E+03 -0.27829780560E+03  0.35104815217E+02  0.75264087463E+03  0.50400001928E-02 0.  1.
       -1    1    3    3    0  502  0.69841697394E+03  0.27829780560E+03 -0.40459480208E+03  0.85377566842E+03  0.50400001928E-02 0. -1.
</event>
<event>
 5   0  0.3973227E-04  0.1606277E+04  0.7818609E-02  0.8816701E-01
        1   -1    0    0  501    0  0.00000000000E+00  0.00000000000E+00  0.22120137610E+04  0.22120137610E+04  0.50400001928E-02 0. -1.
       -1   -1    0    0    0  501  0.00000000000E+00  0.00000000000E+00 -0.29160386174E+03  0.29160386178E+03  0.50400001928E-02 0.  1.
    10030    2    1    2    0    0  0.00000000000E+00  0.00000000000E+00  0.19204098993E+04  0.25036176228E+04  0.16062773795E+04 0.  0.
        3    1    3    3  502    0 -0.52030706234E+03  0.37878147915E+03  0.21134592136E+03  0.67739350214E+03  0.10100000352E+00 0.  1.
       -3    1    3    3    0  502  0.52030706234E+03 -0.37878147915E+03  0.17090639779E+04  0.18262241207E+04  0.10100000352E+00 0. -1.
</event>
<event>
 5   0  0.7395088E-04  0.1619411E+04  0.7818609E-02  0.8808711E-01
        2   -1    0    0  501    0  0.00000000000E+00  0.00000000000E+00  0.17909821336E+04  0.17909821336E+04  0.25500000920E-02 0.  1.
       -2   -1    0    0    0  501  0.00000000000E+00  0.00000000000E+00 -0.36606897708E+03  0.36606897709E+03  0.25500000920E-02 0. -1.
    10030    2    1    2    0    0  0.00000000000E+00  0.00000000000E+00  0.14249131565E+04  0.21570511107E+04  0.16194110011E+04 0.  0.
        1    1    3    3  502    0 -0.16214848025E+03 -0.15727057668E+03  0.17481620834E+04  0.17626958994E+04  0.50400001928E-02 0.  1.
       -1    1    3    3    0  502  0.16214848025E+03  0.15727057668E+03 -0.32324892686E+03  0.39435521130E+03  0.50400001928E-02 0. -1.
</event>
<event>
 5   0  0.3973227E-04  0.1573938E+04  0.7818609E-02  0.8836721E-01
       -1   -1    0    0    0  501  0.00000000000E+00  0.00000000000E+00  0.69897481859E+03  0.69897481861E+03  0.50400001928E-02 0. -1.
        1   -1    0    0  501    0  0.00000000000E+00  0.00000000000E+00 -0.88604045417E+03  0.88604045419E+03  0.50400001928E-02 0.  1.
    10030    2    1    2    0    0  0.00000000000E+00  0.00000000000E+00 -0.18706563559E+03  0.15850152728E+04  0.15739376935E+04 0.  0.
        3    1    3    3  502    0  0.40107462874E+03 -0.62966424391E+03  0.15718132886E+03  0.76291801540E+03  0.10100000352E+00 0. -1.
       -3    1    3    3    0  502 -0.40107462874E+03  0.62966424391E+03 -0.34424696445E+03  0.82209725739E+03  0.10100000352E+00 0.  1.
</event>
<event>
 5   0  0.4110803E-04  0.1603962E+04  0.7818609E-02  0.8818117E-01
        1   -1    0    0  501    0  0.00000000000E+00  0.00000000000E+00  0.52443508321E+03  0.52443508324E+03  0.50400001928E-02 0.  1.
       -1   -1    0    0    0  501  0.00000000000E+00  0.00000000000E+00 -0.12264126615E+04  0.12264126615E+04  0.50400001928E-02 0. -1.
    10030    2    1    2    0    0  0.00000000000E+00  0.00000000000E+00 -0.70197757828E+03  0.17508477447E+04  0.16039623764E+04 0.  0.
        5    1    3    3  502    0  0.77050662409E+03 -0.19701999236E+03 -0.46366149515E+03  0.92059839628E+03  0.46999998093E+01 0.  1.
       -5    1    3    3    0  502 -0.77050662409E+03  0.19701999236E+03 -0.23831608314E+03  0.83024934847E+03  0.46999998093E+01 0. -1.
</event>
<event>
 5   0  0.7553070E-04  0.1372782E+04  0.7818609E-02  0.8973759E-01
        2   -1    0    0  501    0  0.00000000000E+00  0.00000000000E+00  0.92447146316E+03  0.92447146317E+03  0.25500000920E-02 0. -1.
       -2   -1    0    0    0  501  0.00000000000E+00  0.00000000000E+00 -0.50962411098E+03  0.50962411099E+03  0.25500000920E-02 0.  1.
    10030    2    1    2    0    0  0.00000000000E+00  0.00000000000E+00  0.41484735218E+03  0.14340955742E+04  0.13727824992E+04 0.  0.
        4    1    3    3  502    0 -0.83304019749E+01 -0.60115193349E+03  0.55339228926E+03  0.81712770204E+03  0.12699999809E+01 0. -1.
       -4    1    3    3    0  502  0.83304019749E+01  0.60115193349E+03 -0.13854493708E+03  0.61696787211E+03  0.12699999809E+01 0.  1.
</event>
<event>
 5   0  0.7770905E-04  0.1595879E+04  0.7818609E-02  0.8823084E-01
        2   -1    0    0  501    0  0.00000000000E+00  0.00000000000E+00  0.80115034848E+03  0.80115034849E+03  0.25500000920E-02 0. -1.
       -2   -1    0    0    0  501  0.00000000000E+00  0.00000000000E+00 -0.79474133654E+03  0.79474133654E+03  0.25500000920E-02 0.  1.
    10030    2    1    2    0    0  0.00000000000E+00  0.00000000000E+00  0.64090119475E+01  0.15958916850E+04  0.15958788159E+04 0.  0.
        2    1    3    3  502    0 -0.33691087961E+03  0.60042344068E+03 -0.40014729293E+03  0.79632600420E+03  0.25500000920E-02 0.  1.
       -2    1    3    3    0  502  0.33691087961E+03 -0.60042344068E+03  0.40655630488E+03  0.79956568083E+03  0.25500000920E-02 0. -1.
</event>
<event>
 5   0  0.3837251E-04  0.1592950E+04  0.7818609E-02  0.8824891E-01
        1   -1    0    0  501    0  0.00000000000E+00  0.00000000000E+00  0.13469655083E+04  0.13469655083E+04  0.50400001928E-02 0.  1.
       -1   -1    0    0    0  501  0.00000000000E+00  0.00000000000E+00 -0.47096429264E+03  0.47096429266E+03  0.50400001928E-02 0. -1.
    10030    2    1    2    0    0  0.00000000000E+00  0.00000000000E+00  0.87600121565E+03  0.18179298010E+04  0.15929502916E+04 0.  0.
        4    1    3    3  502    0 -0.22710498702E+02  0.79277657171E+03  0.52155725425E+03  0.94922812946E+03  0.12699999809E+01 0. -1.
       -4    1    3    3    0  502  0.22710498702E+02 -0.79277657171E+03  0.35444396141E+03  0.86870167150E+03  0.12699999809E+01 0.  1.
</event>
<event>
 5   0  0.7415102E-04  0.1568904E+04  0.7818609E-02  0.8839883E-01
       -2   -1    0    0    0  501  0.00000000000E+00  0.00000000000E+00  0.82855797988E+03  0.82855797989E+03  0.25500000920E-02 0. -1.
        2   -1    0    0  501    0  0.00000000000E+00  0.00000000000E+00 -0.74269348568E+03  0.74269348569E+03  0.25500000920E-02 0.  1.
    10030    2    1    2    0    0  0.00000000000E+00  0.00000000000E+00  0.85864494199E+02  0.15712514656E+04  0.15689035843E+04 0.  0.
        5    1    3    3  502    0  0.26053038506E+03  0.34686284688E+02 -0.69727009392E+03  0.74517574689E+03  0.46999998093E+01 0.  1.
       -5    1    3    3    0  502 -0.26053038506E+03 -0.34686284688E+02  0.78313458812E+03  0.82607571868E+03  0.46999998093E+01 0. -1.
</event>
<event>
 5   0  0.3889847E-04  0.1601022E+04  0.7818609E-02  0.8819920E-01
       -1   -1    0    0    0  501  0.00000000000E+00  0.00000000000E+00  0.93569723632E+03  0.93569723633E+03  0.50400001928E-02 0. -1.
        1   -1    0    0  501    0  0.00000000000E+00  0.00000000000E+00 -0.68485614389E+03  0.68485614390E+03  0.50400001928E-02 0.  1.
    10030    2    1    2    0    0  0.00000000000E+00  0.00000000000E+00  0.25084109243E+03  0.16205533802E+04  0.16010221749E+04 0.  0.
        1    1    3    3  502    0 -0.80703823186E+02 -0.55533644306E+03 -0.45242582609E+03  0.72083340670E+03  0.50400001928E-02 0. -1.
       -1    1    3    3    0  502  0.80703823186E+02  0.55533644306E+03  0.70326691853E+03  0.89971997354E+03  0.50400001928E-02 0.  1.
</event>
<event>
 5   0  0.7553070E-04  0.1621923E+04  0.7818609E-02  0.8807192E-01
       -2   -1    0    0    0  501  0.00000000000E+00  0.00000000000E+00  0.49911961262E+03  0.49911961263E+03  0.25500000920E-02 0. -1.
        2   -1    0    0  501    0  0.00000000000E+00  0.00000000000E+00 -0.13176369036E+04  0.13176369037E+04  0.25500000920E-02 0.  1.
    10030    2    1    2    0    0  0.00000000000E+00  0.00000000000E+00 -0.81851729103E+03  0.18167565163E+04  0.16219228353E+04 0.  0.
        4    1    3    3  502    0  0.50741624625E+03  0.52271353428E+03 -0.80836933751E+03  0.10881926689E+04  0.12699999809E+01 0. -1.
       -4    1    3    3    0  502 -0.50741624625E+03 -0.52271353428E+03 -0.10147953518E+02  0.72856384740E+03  0.12699999809E+01 0.  1.
</event>
<event>
 5   0  0.3950195E-04  0.1570496E+04  0.7818609E-02  0.8838881E-01
       -1   -1    0    0    0  501  0.00000000000E+00  0.00000000000E+00  0.10914439231E+04  0.10914439231E+04  0.50400001928E-02 0.  1.
        1   -1    0    0  501    0  0.00000000000E+00  0.00000000000E+00 -0.56495319591E+03  0.56495319593E+03  0.50400001928E-02 0. -1.
    10030    2    1    2    0    0  0.00000000000E+00  0.00000000000E+00  0.52649072717E+03  0.16563971190E+04  0.15704963961E+04 0.  0.
        2    1    3    3  502    0 -0.60716739315E+03 -0.37552287713E+03 -0.81666301306E+02  0.71856736590E+03  0.25500000920E-02 0. -1.
       -2    1    3    3    0  502  0.60716739315E+03  0.37552287713E+03  0.60815702847E+03  0.93782975312E+03  0.25500000920E-02 0.  1.
</event>
<event>
 5   0  0.3950195E-04  0.1631041E+04  0.7818609E-02  0.8801702E-01
       -1   -1    0    0    0  501  0.00000000000E+00  0.00000000000E+00  0.47373012354E+03  0.47373012357E+03  0.50400001928E-02 0. -1.
        1   -1    0    0  501    0  0.00000000000E+00  0.00000000000E+00 -0.14039084292E+04  0.14039084292E+04  0.50400001928E-02 0.  1.
    10030    2    1    2    0    0  0.00000000000E+00  0.00000000000E+00 -0.93017830567E+03  0.18776385528E+04  0.16310410340E+04 0.  0.
        2    1    3    3  502    0  0.33922389162E+02 -0.60639777409E+03 -0.10916209221E+04  0.12492018358E+04  0.25500000920E-02 0.  1.
       -2    1    3    3    0  502 -0.33922389162E+02  0.60639777409E+03  0.16144261643E+03  0.62843671703E+03  0.25500000920E-02 0. -1.
</event>
<event>
 5   0  0.7770905E-04  0.1600563E+04  0.7818609E-02  0.8820202E-01
       -2   -1    0    0    0  501  0.00000000000E+00  0.00000000000E+00  0.77363067844E+03  0.77363067844E+03  0.25500000920E-02 0. -1.
        2   -1    0    0  501    0  0.00000000000E+00  0.00000000000E+00 -0.82785060580E+03  0.82785060580E+03  0.25500000920E-02 0.  1.
    10030    2    1    2    0    0  0.00000000000E+00  0.00000000000E+00 -0.54219927360E+02  0.16014812842E+04  0.16005631832E+04 0.  0.
        2    1    3    3  502    0  0.58869851823E+03 -0.23995262166E+03  0.45928349305E+03  0.78427325149E+03  0.25500000920E-02 0. -1.
       -2    1    3    3    0  502 -0.58869851823E+03  0.23995262166E+03 -0.51350342041E+03  0.81720803275E+03  0.25500000920E-02 0.  1.
</event>
<event>
 5   0  0.4110803E-04  0.1585019E+04  0.7818609E-02  0.8829805E-01
        1   -1    0    0  501    0  0.00000000000E+00  0.00000000000E+00  0.97478869665E+03  0.97478869666E+03  0.50400001928E-02 0.  1.
       -1   -1    0    0    0  501  0.00000000000E+00  0.00000000000E+00 -0.64431537383E+03  0.64431537385E+03  0.50400001928E-02 0. -1.
    10030    2    1    2    0    0  0.00000000000E+00  0.00000000000E+00  0.33047332281E+03  0.16191040705E+04  0.15850190453E+04 0.  0.
        5    1    3    3  502    0  0.42239245950E+03  0.44657190798E+03 -0.34572739394E+03  0.70525979593E+03  0.46999998093E+01 0. -1.
       -5    1    3    3    0  502 -0.42239245950E+03 -0.44657190798E+03  0.67620071676E+03  0.91384427458E+03  0.46999998093E+01 0.  1.
</event>
<event>
 5   0  0.3837251E-04  0.1578847E+04  0.7818609E-02  0.8833649E-01
       -1   -1    0    0    0  501  0.00000000000E+00  0.00000000000E+00  0.11189964355E+04  0.11189964355E+04  0.50400001928E-02 0. -1.
        1   -1    0    0  501    0  0.00000000000E+00  0.00000000000E+00 -0.55691830889E+03  0.55691830891E+03  0.50400001928E-02 0.  1.
    10030    2    1    2    0    0  0.00000000000E+00  0.00000000000E+00  0.56207812665E+03  0.16759147445E+04  0.15788471776E+04 0.  0.
        4    1    3    3  502    0  0.44400178802E+03  0.41392769535E+03 -0.25468167734E+03  0.65828420490E+03  0.12699999809E+01 0. -1.
       -4    1    3    3    0  502 -0.44400178802E+03 -0.41392769535E+03  0.81675980399E+03  0.10176305396E+04  0.12699999809E+01 0.  1.
</event>
<event>
 5   0  0.4110803E-04  0.1593772E+04  0.7818609E-02  0.8824383E-01
        1   -1    0    0  501    0  0.00000000000E+00  0.00000000000E+00  0.64359269584E+03  0.64359269586E+03  0.50400001928E-02 0. -1.
       -1   -1    0    0    0  501  0.00000000000E+00  0.00000000000E+00 -0.98669096248E+03  0.98669096249E+03  0.50400001928E-02 0.  1.
    10030    2    1    2    0    0  0.00000000000E+00  0.00000000000E+00 -0.34309826665E+03  0.16302836584E+04  0.15937717484E+04 0.  0.
        5    1    3    3  502    0 -0.68646193176E+03 -0.40280042445E+03 -0.21151911368E+03  0.82355363586E+03  0.46999998093E+01 0. -1.
       -5    1    3    3    0  502  0.68646193176E+03  0.40280042445E+03 -0.13157915297E+03  0.80673002249E+03  0.46999998093E+01 0.  1.
</event>
<event>
 5   0  0.7770905E-04  0.1582217E+04  0.7818609E-02  0.8831548E-01
       -2   -1    0    0    0  501  0.00000000000E+00  0.00000000000E+00  0.52845235544E+03  0.52845235545E+03  0.25500000920E-02 0.  1.
        2   -1    0    0  501    0  0.00000000000E+00  0.00000000000E+00 -0.11843117958E+04  0.11843117958E+04  0.25500000920E-02 0. -1.
    10030    2    1    2    0    0  0.00000000000E+00  0.00000000000E+00 -0.65585944034E+03  0.17127641512E+04  0.15822166199E+04 0.  0.
        2    1    3    3  502    0 -0.80697665472E+02  0.67800040445E+03 -0.76046728573E+03  0.10220113279E+04  0.25500000920E-02 0. -1.
       -2    1    3    3    0  502  0.80697665472E+02 -0.67800040445E+03  0.10460784539E+03  0.69075282335E+03  0.25500000920E-02 0.  1.
</event>
<event>
 5   0  0.7770905E-04  0.1660070E+04  0.7818609E-02  0.8784471E-01
        2   -1    0    0  501    0  0.00000000000E+00  0.00000000000E+00  0.84489804531E+03  0.84489804531E+03  0.25500000920E-02 0. -1.
       -2   -1    0    0    0  501  0.00000000000E+00  0.00000000000E+00 -0.81543348474E+03  0.81543348474E+03  0.25500000920E-02 0.  1.
    10030    2    1    2    0    0  0.00000000000E+00  0.00000000000E+00  0.29464560570E+02  0.16603315301E+04  0.16600700676E+04 0.  0.
        2    1    3    3  502    0  0.67260204867E+03 -0.48383829193E+03 -0.34925803752E+02  0.82928452318E+03  0.25500000920E-02 0. -1.
       -2    1    3    3    0  502 -0.67260204867E+03  0.48383829193E+03  0.64390364321E+02  0.83104700688E+03  0.25500000920E-02 0.  1.
</event>
<event>
 5   0  0.3889847E-04  0.1646980E+04  0.7818609E-02  0.8792195E-01
        1   -1    0    0  501    0  0.00000000000E+00  0.00000000000E+00  0.85209000853E+03  0.85209000855E+03  0.50400001928E-02 0. -1.
       -1   -1    0    0    0  501  0.00000000000E+00  0.00000000000E+00 -0.79585012524E+03  0.79585012525E+03  0.50400001928E-02 0.  1.
    10030    2    1    2    0    0  0.00000000000E+00  0.00000000000E+00  0.56239883293E+02  0.16479401338E+04  0.16469801942E+04 0.  0.
        1    1    3    3  502    0  0.54089556264E+03 -0.60437072918E+03  0.17069492955E+03  0.82883577805E+03  0.50400001928E-02 0.  1.
       -1    1    3    3    0  502 -0.54089556264E+03  0.60437072918E+03 -0.11445504625E+03  0.81910435575E+03  0.50400001928E-02 0. -1.
</event>
<event>
 5   0  0.7488884E-04  0.1597323E+04  0.7818609E-02  0.8822194E-01
       -2   -1    0    0    0  501  0.00000000000E+00  0.00000000000E+00  0.75172914493E+03  0.75172914494E+03  0.25500000920E-02 0. -1.
        2   -1    0    0  501    0  0.00000000000E+00  0.00000000000E+00 -0.84852391468E+03  0.84852391468E+03  0.25500000920E-02 0.  1.
    10030    2    1    2    0    0  0.00000000000E+00  0.00000000000E+00 -0.96794769747E+02  0.16002530596E+04  0.15973229565E+04 0.  0.
        3    1    3    3  502    0  0.16437173833E+03 -0.19675692703E+03 -0.80617685315E+03  0.84596246101E+03  0.10100000352E+00 0.  1.
       -3    1    3    3    0  502 -0.16437173833E+03  0.19675692703E+03  0.70938208340E+03  0.75429059860E+03  0.10100000352E+00 0. -1.
</event>
<event>
 5   0  0.7488884E-04  0.1595233E+04  0.7818609E-02  0.8823482E-01
       -2   -1    0    0    0  501  0.00000000000E+00  0.00000000000E+00  0.48626915321E+03  0.48626915321E+03  0.25500000920E-02 0. -1.
        2   -1    0    0  501    0  0.00000000000E+00  0.00000000000E+00 -0.13083125268E+04  0.13083125268E+04  0.25500000920E-02 0.  1.
    10030    2    1    2    0    0  0.00000000000E+00  0.00000000000E+00 -0.82204337358E+03  0.17945816800E+04  0.15952329291E+04 0.  0.
        3    1    3    3  502    0  0.64512601294E+03  0.33980252036E+03 -0.77475045229E+03  0.10639039425E+04  0.10100000352E+00 0.  1.
       -3    1    3    3    0  502 -0.64512601294E+03 -0.33980252036E+03 -0.47292921284E+02  0.73067773746E+03  0.10100000352E+00 0. -1.
</event>
<event>
 5   0  0.7553070E-04  0.1636248E+04  0.7818609E-02  0.8798584E-01
        2   -1    0    0  501    0  0.00000000000E+00  0.00000000000E+00  0.11583930266E+04  0.11583930266E+04  0.25500000920E-02 0.  1.
       -2   -1    0    0    0  501  0.00000000000E+00  0.00000000000E+00 -0.57780611543E+03  0.57780611544E+03  0.25500000920E-02 0. -1.
    10030    2    1    2    0    0  0.00000000000E+00  0.00000000000E+00  0.58058691115E+03  0.17361991420E+04  0.16362476278E+04 0.  0.
        4    1    3    3  502    0 -0.60601359143E+03 -0.46932596675E+03  0.59378185359E+03  0.96958642658E+03  0.12699999809E+01 0.  1.
       -4    1    3    3    0  502  0.60601359143E+03  0.46932596675E+03 -0.13194942433E+02  0.76661271544E+03  0.12699999809E+01 0. -1.
</event>
<event>
 5   0  0.3837251E-04  0.1616491E+04  0.7818609E-02  0.8810481E-01
       -1   -1    0    0    0  501  0.00000000000E+00  0.00000000000E+00  0.74339101612E+03  0.74339101613E+03  0.50400001928E-02 0.  1.
        1   -1    0    0  501    0  0.00000000000E+00  0.00000000000E+00 -0.87875797975E+03  0.87875797976E+03  0.50400001928E-02 0. -1.
    10030    2    1    2    0    0  0.00000000000E+00  0.00000000000E+00 -0.13536696363E+03  0.16221489959E+04  0.16164909991E+04 0.  0.
        4    1    3    3  502    0 -0.38797288830E+02  0.94880876668E+02  0.73684055201E+03  0.74393764683E+03  0.12699999809E+01 0.  1.
       -4    1    3    3    0  502  0.38797288830E+02 -0.94880876668E+02 -0.87220751565E+03  0.87821134907E+03  0.12699999809E+01 0. -1.
</event>
<event>
 5   0  0.3837251E-04  0.1617723E+04  0.7818609E-02  0.8809734E-01
        1   -1    0    0  501    0  0.00000000000E+00  0.00000000000E+00  0.69800281851E+03  0.69800281852E+03  0.50400001928E-02 0.  1.
       -1   -1    0    0    0  501  0.00000000000E+00  0.00000000000E+00 -0.93732663448E+03  0.93732663450E+03  0.50400001928E-02 0. -1.
    10030    2    1    2    0    0  0.00000000000E+00  0.00000000000E+00 -0.23932381598E+03  0.16353294530E+04  0.16177226372E+04 0.  0.
        4    1    3    3  502    0 -0.78289224608E+03  0.49938743365E+02  0.79563940958E+02  0.78850883360E+03  0.12699999809E+01 0.  1.
       -4    1    3    3    0  502  0.78289224608E+03 -0.49938743365E+02 -0.31888775694E+03  0.84682061942E+03  0.12699999809E+01 0. -1.
</event>
<event>
 5   0  0.7415102E-04  0.1498980E+04  0.7818609E-02  0.8885131E-01
        2   -1    0    0  501    0  0.00000000000E+00  0.00000000000E+00  0.92258579077E+03  0.92258579078E+03  0.25500000920E-02 0.  1.
       -2   -1    0    0    0  501  0.00000000000E+00  0.00000000000E+00 -0.60887071185E+03  0.60887071186E+03  0.25500000920E-02 0. -1.
    10030    2    1    2    0    0  0.00000000000E+00  0.00000000000E+00  0.31371507892E+03  0.15314565026E+04  0.14989802763E+04 0.  0.
        5    1    3    3  502    0  0.21590222177E+03 -0.68622210353E+03  0.37164758318E+03  0.80972746083E+03  0.46999998093E+01 0. -1.
       -5    1    3    3    0  502 -0.21590222177E+03  0.68622210353E+03 -0.57932504257E+02  0.72172904181E+03  0.46999998093E+01 0.  1.
</event>
<event>
 5   0  0.3837251E-04  0.1621898E+04  0.7818609E-02  0.8807207E-01
        1   -1    0    0  501    0  0.00000000000E+00  0.00000000000E+00  0.10495803469E+04  0.10495803469E+04  0.50400001928E-02 0. -1.
       -1   -1    0    0    0  501  0.00000000000E+00  0.00000000000E+00 -0.62657248467E+03  0.62657248469E+03  0.50400001928E-02 0.  1.
    10030    2    1    2    0    0  0.00000000000E+00  0.00000000000E+00  0.42300786220E+03  0.16761528316E+04  0.16218978585E+04 0.  0.
        4    1    3    3  502    0  0.68013882139E+03 -0.25797605311E+03 -0.15895074020E+03  0.74458539540E+03  0.12699999809E+01 0.  1.
       -4    1    3    3    0  502 -0.68013882139E+03  0.25797605311E+03  0.58195860239E+03  0.93156743617E+03  0.12699999809E+01 0. -1.
</event>
<event>
 5   0  0.7488884E-04  0.1643380E+04  0.7818609E-02  0.8794332E-01
        2   -1    0    0  501    0  0.00000000000E+00  0.00000000000E+00  0.91953712652E+03  0.91953712652E+03  0.25500000920E-02 0.  1.
       -2   -1    0    0    0  501  0.00000000000E+00  0.00000000000E+00 -0.73425484009E+03  0.73425484010E+03  0.25500000920E-02 0. -1.
    10030    2    1    2    0    0  0.00000000000E+00  0.00000000000E+00  0.18528228642E+03  0.16537919666E+04  0.16433801578E+04 0.  0.
        3    1    3    3  502    0 -0.48030370871E+03 -0.54056753961E+02  0.76135156239E+03  0.90181483521E+03  0.10100000352E+00 0.  1.
       -3    1    3    3    0  502  0.48030370871E+03  0.54056753961E+02 -0.57606927597E+03  0.75197713141E+03  0.10100000352E+00 0. -1.
</event>
<event>
 5   0  0.7415102E-04  0.1568051E+04  0.7818609E-02  0.8840420E-01
        2   -1    0    0  501    0  0.00000000000E+00  0.00000000000E+00  0.12712288204E+04  0.12712288204E+04  0.25500000920E-02 0. -1.
       -2   -1    0    0    0  501  0.00000000000E+00  0.00000000000E+00 -0.48354442381E+03  0.48354442381E+03  0.25500000920E-02 0.  1.
    10030    2    1    2    0    0  0.00000000000E+00  0.00000000000E+00  0.78768439656E+03  0.17547732442E+04  0.15680505189E+04 0.  0.
        5    1    3    3  502    0  0.57408270524E+03  0.49310383347E+03  0.62305191015E+03  0.98027451041E+03  0.46999998093E+01 0. -1.
       -5    1    3    3    0  502 -0.57408270524E+03 -0.49310383347E+03  0.16463248641E+03  0.77449873377E+03  0.46999998093E+01 0.  1.
</event>
<event>
 5   0  0.3837251E-04  0.1631786E+04  0.7818609E-02  0.8801255E-01
       -1   -1    0    0    0  501  0.00000000000E+00  0.00000000000E+00  0.88346081385E+03  0.88346081386E+03  0.50400001928E-02 0. -1.
        1   -1    0    0  501    0  0.00000000000E+00  0.00000000000E+00 -0.75349319036E+03  0.75349319038E+03  0.50400001928E-02 0.  1.
    10030    2    1    2    0    0  0.00000000000E+00  0.00000000000E+00  0.12996762349E+03  0.16369540042E+04  0.16317863919E+04 0.  0.
        4    1    3    3  502    0 -0.61418069299E+01  0.20358564695E+03  0.85754609598E+03  0.88140328855E+03  0.12699999809E+01 0. -1.
       -4    1    3    3    0  502  0.61418069299E+01 -0.20358564695E+03 -0.72757847250E+03  0.75555071569E+03  0.12699999809E+01 0.  1.
</event>
<event>
 5   0  0.3973227E-04  0.1521418E+04  0.7818609E-02  0.8870334E-01
       -1   -1    0    0    0  501  0.00000000000E+00  0.00000000000E+00  0.57194346267E+03  0.57194346269E+03  0.50400001928E-02 0.  1.
        1   -1    0    0  501    0  0.00000000000E+00  0.00000000000E+00 -0.10117756183E+04  0.10117756183E+04  0.50400001928E-02 0. -1.
    10030    2    1    2    0    0  0.00000000000E+00  0.00000000000E+00 -0.43983215559E+03  0.15837190810E+04  0.15214183522E+04 0.  0.
        3    1    3    3  502    0  0.64441383818E+03  0.40423239444E+03 -0.21749336445E+03  0.79118670194E+03  0.10100000352E+00 0. -1.
       -3    1    3    3    0  502 -0.64441383818E+03 -0.40423239444E+03 -0.22233879114E+03  0.79253237902E+03  0.10100000352E+00 0.  1.
</event>
<event>
 5   0  0.3837251E-04  0.1649885E+04  0.7818609E-02  0.8790475E-01
        1   -1    0    0  501    0  0.00000000000E+00  0.00000000000E+00  0.22602154691E+04  0.22602154691E+04  0.50400001928E-02 0. -1.
       -1   -1    0    0    0  501  0.00000000000E+00  0.00000000000E+00 -0.30109080998E+03  0.30109081002E+03  0.50400001928E-02 0.  1.
    10030    2    1    2    0    0  0.00000000000E+00  0.00000000000E+00  0.19591246591E+04  0.25613062791E+04  0.16498849734E+04 0.  0.
        4    1    3    3  502    0 -0.59886343577E+03  0.46073204716E+03  0.14935431591E+04  0.16737933609E+04  0.12699999809E+01 0.  1.
       -4    1    3    3    0  502  0.59886343577E+03 -0.46073204716E+03  0.46558150005E+03  0.88751291825E+03  0.12699999809E+01 0. -1.
</event>
<event>
 5   0  0.7415102E-04  0.1620115E+04  0.7818609E-02  0.8808285E-01
       -2   -1    0    0    0  501  0.00000000000E+00  0.00000000000E+00  0.52546713925E+03  0.52546713926E+03  0.25500000920E-02 0.  1.
        2   -1    0    0  501    0  0.00000000000E+00  0.00000000000E+00 -0.12487801909E+04  0.12487801909E+04  0.25500000920E-02 0. -1.
    10030    2    1    2    0    0  0.00000000000E+00  0.00000000000E+00 -0.72331305163E+03  0.17742473301E+04  0.16201147545E+04 0.  0.
        5    1    3    3  502    0  0.66806943759E+03 -0.38978010834E+03 -0.98081961774E+02  0.77967138432E+03  0.46999998093E+01 0. -1.
       -5    1    3    3    0  502 -0.66806943759E+03  0.38978010834E+03 -0.62523108986E+03  0.99457594583E+03  0.46999998093E+01 0.  1.
</event>
<event>
 5   0  0.3837251E-04  0.1363182E+04  0.7818609E-02  0.8980909E-01
       -1   -1    0    0    0  501  0.00000000000E+00  0.00000000000E+00  0.45144807525E+03  0.45144807528E+03  0.50400001928E-02 0. -1.
        1   -1    0    0  501    0  0.00000000000E+00  0.00000000000E+00 -0.10290580275E+04  0.10290580276E+04  0.50400001928E-02 0.  1.
    10030    2    1    2    0    0  0.00000000000E+00  0.00000000000E+00 -0.57760995229E+03  0.14805061028E+04  0.13631819627E+04 0.  0.
        4    1    3    3  502    0  0.46001167351E+03 -0.10135305689E+03 -0.82383072112E+03  0.94898991136E+03  0.12699999809E+01 0.  1.
       -4    1    3    3    0  502 -0.46001167351E+03  0.10135305689E+03  0.24622076882E+03  0.53151619148E+03  0.12699999809E+01 0. -1.
</event>
<event>
 5   0  0.2781000E-04  0.1613556E+04  0.7818609E-02  0.8812263E-01
       -3   -1    0    0    0  501  0.00000000000E+00  0.00000000000E+00  0.96999813791E+03  0.96999814317E+03  0.10100000352E+00 0.  1.
        3   -1    0    0  501    0  0.00000000000E+00  0.00000000000E+00 -0.67102236524E+03  0.67102237284E+03  0.10100000352E+00 0. -1.
    10030    2    1    2    0    0  0.00000000000E+00  0.00000000000E+00  0.29897577266E+03  0.16410205160E+04  0.16135556456E+04 0.  0.
        5    1    3    3  502    0 -0.16452823942E+03  0.56431196635E+03  0.71147921512E+03  0.92289885712E+03  0.46999998093E+01 0.  1.
       -5    1    3    3    0  502  0.16452823942E+03 -0.56431196635E+03 -0.41250344246E+03  0.71812165889E+03  0.46999998093E+01 0. -1.
</event>
<event>
 5   0  0.3950195E-04  0.1601066E+04  0.7818609E-02  0.8819893E-01
        1   -1    0    0  501    0  0.00000000000E+00  0.00000000000E+00  0.11698420164E+04  0.11698420164E+04  0.50400001928E-02 0.  1.
       -1   -1    0    0    0  501  0.00000000000E+00  0.00000000000E+00 -0.54781172647E+03  0.54781172650E+03  0.50400001928E-02 0. -1.
    10030    2    1    2    0    0  0.00000000000E+00  0.00000000000E+00  0.62203028994E+03  0.17176537429E+04  0.16010661132E+04 0.  0.
        2    1    3    3  502    0  0.47328527395E+03  0.61159380066E+03  0.53298040328E+03  0.93920926200E+03  0.25500000920E-02 0.  1.
       -2    1    3    3    0  502 -0.47328527395E+03 -0.61159380066E+03  0.89049886665E+02  0.77844448092E+03  0.25500000920E-02 0. -1.
</event>
<event>
 5   0  0.4110803E-04  0.1553224E+04  0.7818609E-02  0.8849811E-01
        1   -1    0    0  501    0  0.00000000000E+00  0.00000000000E+00  0.14593340448E+04  0.14593340448E+04  0.50400001928E-02 0. -1.
       -1   -1    0    0    0  501  0.00000000000E+00  0.00000000000E+00 -0.41328878300E+03  0.41328878303E+03  0.50400001928E-02 0.  1.
    10030    2    1    2    0    0  0.00000000000E+00  0.00000000000E+00  0.10460452618E+04  0.18726228278E+04  0.15532242483E+04 0.  0.
        5    1    3    3  502    0  0.62178501464E+03  0.46423654759E+03  0.56061305058E+03  0.95730938522E+03  0.46999998093E+01 0. -1.
       -5    1    3    3    0  502 -0.62178501464E+03 -0.46423654759E+03  0.48543221122E+03  0.91531344262E+03  0.46999998093E+01 0.  1.
</event>
<event>
 5   0  0.7770905E-04  0.1593854E+04  0.7818609E-02  0.8824332E-01
        2   -1    0    0  501    0  0.00000000000E+00  0.00000000000E+00  0.11657935385E+04  0.11657935385E+04  0.25500000920E-02 0. -1.
       -2   -1    0    0    0  501  0.00000000000E+00  0.00000000000E+00 -0.54477313763E+03  0.54477313764E+03  0.25500000920E-02 0.  1.
    10030    2    1    2    0    0  0.00000000000E+00  0.00000000000E+00  0.62102040087E+03  0.17105666761E+04  0.15938544523E+04 0.  0.
        2    1    3    3  502    0 -0.16007332425E+03 -0.67540190813E+03 -0.10969843235E+03  0.70272679806E+03  0.25500000920E-02 0.  1.
       -2    1    3    3    0  502  0.16007332425E+03  0.67540190813E+03  0.73071883322E+03  0.10078398781E+04  0.25500000920E-02 0. -1.
</event>
<event>
 5   0  0.7553070E-04  0.1578901E+04  0.7818609E-02  0.8833616E-01
        2   -1    0    0  501    0  0.00000000000E+00  0.00000000000E+00  0.15951788809E+04  0.15951788810E+04  0.25500000920E-02 0. -1.
       -2   -1    0    0    0  501  0.00000000000E+00  0.00000000000E+00 -0.39069727963E+03  0.39069727963E+03  0.25500000920E-02 0.  1.
    10030    2    1    2    0    0  0.00000000000E+00  0.00000000000E+00  0.12044816013E+04  0.19858761606E+04  0.15789009460E+04 0.  0.
        4    1    3    3  502    0  0.40328120918E+02 -0.34108304797E+03 -0.29180033429E+03  0.45068065295E+03  0.12699999809E+01 0.  1.
       -4    1    3    3    0  502 -0.40328120918E+02  0.34108304797E+03  0.14962819356E+04  0.15351955076E+04  0.12699999809E+01 0. -1.
</event>
<event>
 5   0  0.7488884E-04  0.1615951E+04  0.7818609E-02  0.8810808E-01
        2   -1    0    0  501    0  0.00000000000E+00  0.00000000000E+00  0.16457155319E+04  0.16457155319E+04  0.25500000920E-02 0. -1.
       -2   -1    0    0    0  501  0.00000000000E+00  0.00000000000E+00 -0.39668122446E+03  0.39668122447E+03  0.25500000920E-02 0.  1.
    10030    2    1    2    0    0  0.00000000000E+00  0.00000000000E+00  0.12490343074E+04  0.20423967563E+04  0.16159510541E+04 0.  0.
        3    1    3    3  502    0 -0.44449514003E+03 -0.18341090819E+03 -0.19614956491E+03  0.51931700605E+03  0.10100000352E+00 0.  1.
       -3    1    3    3    0  502  0.44449514003E+03  0.18341090819E+03  0.14451838723E+04  0.15230797503E+04  0.10100000352E+00 0. -1.
</event>
<event>
 5   0  0.3837251E-04  0.1583415E+04  0.7818609E-02  0.8830802E-01
        1   -1    0    0  501    0  0.00000000000E+00  0.00000000000E+00  0.19661464792E+04  0.19661464792E+04  0.50400001928E-02 0. -1.
       -1   -1    0    0    0  501  0.00000000000E+00  0.00000000000E+00 -0.31879648175E+03  0.31879648179E+03  0.50400001928E-02 0.  1.
    10030    2    1    2    0    0  0.00000000000E+00  0.00000000000E+00  0.16473499974E+04  0.22849429609E+04  0.15834147659E+04 0.  0.
        4    1    3    3  502    0 -0.12412436210E+03 -0.24649424287E+03  0.18944831573E+04  0.19144801684E+04  0.12699999809E+01 0. -1.
       -4    1    3    3    0  502  0.12412436210E+03  0.24649424287E+03 -0.24713315990E+03  0.37046279254E+03  0.12699999809E+01 0.  1.
</event>
<event>
 5   0  0.3973227E-04  0.1573744E+04  0.7818609E-02  0.8836843E-01
        1   -1    0    0  501    0  0.00000000000E+00  0.00000000000E+00  0.91265787546E+03  0.91265787547E+03  0.50400001928E-02 0.  1.
       -1   -1    0    0    0  501  0.00000000000E+00  0.00000000000E+00 -0.67842204655E+03  0.67842204657E+03  0.50400001928E-02 0. -1.
    10030    2    1    2    0    0  0.00000000000E+00  0.00000000000E+00  0.23423582890E+03  0.15910799220E+04  0.15737435925E+04 0.  0.
        3    1    3    3  502    0 -0.26879436309E+02 -0.73729950421E+03 -0.15945391152E+03  0.75482357085E+03  0.10100000352E+00 0. -1.
       -3    1    3    3    0  502  0.26879436309E+02  0.73729950421E+03  0.39368974042E+03  0.83625635120E+03  0.10100000352E+00 0.  1.
</event>
<event>
 5   0  0.4110803E-04  0.1654802E+04  0.7818609E-02  0.8787571E-01
       -1   -1    0    0    0  501  0.00000000000E+00  0.00000000000E+00  0.36329911568E+03  0.36329911572E+03  0.50400001928E-02 0. -1.
        1   -1    0    0  501    0  0.00000000000E+00  0.00000000000E+00 -0.18843766279E+04  0.18843766279E+04  0.50400001928E-02 0.  1.
    10030    2    1    2    0    0  0.00000000000E+00  0.00000000000E+00 -0.15210775123E+04  0.22476757437E+04  0.16548019369E+04 0.  0.
        5    1    3    3  502    0 -0.30253987154E+03  0.49272216071E+03  0.43331329856E+02  0.57983204091E+03  0.46999998093E+01 0. -1.
       -5    1    3    3    0  502  0.30253987154E+03 -0.49272216071E+03 -0.15644088421E+04  0.16678437028E+04  0.46999998093E+01 0.  1.
</event>
<event>
 5   0  0.4110803E-04  0.1601767E+04  0.7818609E-02  0.8819463E-01
        1   -1    0    0  501    0  0.00000000000E+00  0.00000000000E+00  0.64499756743E+03  0.64499756745E+03  0.50400001928E-02 0. -1.
       -1   -1    0    0    0  501  0.00000000000E+00  0.00000000000E+00 -0.99444417890E+03  0.99444417891E+03  0.50400001928E-02 0.  1.
    10030    2    1    2    0    0  0.00000000000E+00  0.00000000000E+00 -0.34944661147E+03  0.16394417464E+04  0.16017666202E+04 0.  0.
        5    1    3    3  502    0  0.51282034074E+03  0.52609092644E+03  0.15157868585E+03  0.75016968264E+03  0.46999998093E+01 0.  1.
       -5    1    3    3    0  502 -0.51282034074E+03 -0.52609092644E+03 -0.50102529731E+03  0.88927206371E+03  0.46999998093E+01 0. -1.
</event>
<event>
 5   0  0.7770905E-04  0.1641259E+04  0.7818609E-02  0.8795594E-01
       -2   -1    0    0    0  501  0.00000000000E+00  0.00000000000E+00  0.52630746521E+03  0.52630746522E+03  0.25500000920E-02 0.  1.
        2   -1    0    0  501    0  0.00000000000E+00  0.00000000000E+00 -0.12795423622E+04  0.12795423622E+04  0.25500000920E-02 0. -1.
    10030    2    1    2    0    0  0.00000000000E+00  0.00000000000E+00 -0.75323489699E+03  0.18058498274E+04  0.16412589038E+04 0.  0.
        2    1    3    3  502    0 -0.41720032776E+02 -0.39356077326E+03 -0.11675995428E+04  0.12328500865E+04  0.25500000920E-02 0. -1.
       -2    1    3    3    0  502  0.41720032776E+02  0.39356077326E+03  0.41436464583E+03  0.57299974092E+03  0.25500000920E-02 0.  1.
</event>
<event>
 5   0  0.7770905E-04  0.1598139E+04  0.7818609E-02  0.8821692E-01
       -2   -1    0    0    0  501  0.00000000000E+00  0.00000000000E+00  0.49373013296E+03  0.49373013296E+03  0.25500000920E-02 0. -1.
        2   -1    0    0  501    0  0.00000000000E+00  0.00000000000E+00 -0.12932416540E+04  0.12932416540E+04  0.25500000920E-02 0.  1.
    10030    2    1    2    0    0  0.00000000000E+00  0.00000000000E+00 -0.79951152104E+03  0.17869717870E+04  0.15981393854E+04 0.  0.
        2    1    3    3  502    0  0.29060422197E+03 -0.13633750171E+03  0.41846800911E+03  0.52740326398E+03  0.25500000920E-02 0. -1.
       -2    1    3    3    0  502 -0.29060422197E+03  0.13633750171E+03 -0.12179795302E+04  0.12595685230E+04  0.25500000920E-02 0.  1.
</event>
<event>
 5   0  0.3973227E-04  0.1986491E+04  0.7818609E-02  0.8612963E-01
        1   -1    0    0  501    0  0.00000000000E+00  0.00000000000E+00  0.11908692657E+04  0.11908692657E+04  0.50400001928E-02 0. -1.
       -1   -1    0    0    0  501  0.00000000000E+00  0.00000000000E+00 -0.82841753272E+03  0.82841753273E+03  0.50400001928E-02 0.  1.
    10030    2    1    2    0    0  0.00000000000E+00  0.00000000000E+00  0.36245173301E+03  0.20192867985E+04  0.19864913581E+04 0.  0.
        3    1    3    3  502    0  0.11574104028E+02 -0.57801174959E+03 -0.63976215663E+03  0.86228021537E+03  0.10100000352E+00 0.  1.
       -3    1    3    3    0  502 -0.11574104028E+02  0.57801174959E+03  0.10022138896E+04  0.11570065831E+04  0.10100000352E+00 0. -1.
</event>
<event>
 5   0  0.3889847E-04  0.1603337E+04  0.7818609E-02  0.8818501E-01
       -1   -1    0    0    0  501  0.00000000000E+00  0.00000000000E+00  0.40844346308E+03  0.40844346311E+03  0.50400001928E-02 0.  1.
        1   -1    0    0  501    0  0.00000000000E+00  0.00000000000E+00 -0.15734668225E+04  0.15734668225E+04  0.50400001928E-02 0. -1.
    10030    2    1    2    0    0  0.00000000000E+00  0.00000000000E+00 -0.11650233594E+04  0.19819102856E+04  0.16033368181E+04 0.  0.
        1    1    3    3  502    0  0.44179917744E+03 -0.46616824430E+03 -0.11755548571E+04  0.13395628269E+04  0.50400001928E-02 0. -1.
       -1    1    3    3    0  502 -0.44179917744E+03  0.46616824430E+03  0.10531497729E+02  0.64234745866E+03  0.50400001928E-02 0.  1.
</event>
<event>
 5   0  0.7395088E-04  0.1618628E+04  0.7818609E-02  0.8809185E-01
       -2   -1    0    0    0  501  0.00000000000E+00  0.00000000000E+00  0.54017872431E+03  0.54017872431E+03  0.25500000920E-02 0. -1.
        2   -1    0    0  501    0  0.00000000000E+00  0.00000000000E+00 -0.12125413144E+04  0.12125413144E+04  0.25500000920E-02 0.  1.
    10030    2    1    2    0    0  0.00000000000E+00  0.00000000000E+00 -0.67236259004E+03  0.17527200387E+04  0.16186278391E+04 0.  0.
        1    1    3    3  502    0  0.78774301766E+02 -0.75757963819E+03 -0.39915886059E+02  0.76270936588E+03  0.50400001928E-02 0. -1.
       -1    1    3    3    0  502 -0.78774301766E+02  0.75757963819E+03 -0.63244670399E+03  0.99001067279E+03  0.50400001928E-02 0.  1.
</event>
<event>
 5   0  0.7415102E-04  0.1605108E+04  0.7818609E-02  0.8817416E-01
       -2   -1    0    0    0  501  0.00000000000E+00  0.00000000000E+00  0.47671486705E+03  0.47671486705E+03  0.25500000920E-02 0. -1.
        2   -1    0    0  501    0  0.00000000000E+00  0.00000000000E+00 -0.13511078136E+04  0.13511078136E+04  0.25500000920E-02 0.  1.
    10030    2    1    2    0    0  0.00000000000E+00  0.00000000000E+00 -0.87439294655E+03  0.18278226806E+04  0.16051083225E+04 0.  0.
        5    1    3    3  502    0 -0.51784078539E+02  0.34491980065E+03  0.38587877760E+03  0.52016899242E+03  0.46999998093E+01 0. -1.
       -5    1    3    3    0  502  0.51784078539E+02 -0.34491980065E+03 -0.12602717241E+04  0.13076536882E+04  0.46999998093E+01 0.  1.
</event>
<event>
 5   0  0.3950195E-04  0.1587631E+04  0.7818609E-02  0.8828183E-01
        1   -1    0    0  501    0  0.00000000000E+00  0.00000000000E+00  0.18067083237E+04  0.18067083237E+04  0.50400001928E-02 0. -1.
       -1   -1    0    0    0  501  0.00000000000E+00  0.00000000000E+00 -0.34877982954E+03  0.34877982958E+03  0.50400001928E-02 0.  1.
    10030    2    1    2    0    0  0.00000000000E+00  0.00000000000E+00  0.14579284942E+04  0.21554881533E+04  0.15876314701E+04 0.  0.
        2    1    3    3  502    0 -0.75657982175E+03 -0.63060998252E+02  0.41418931181E+03  0.86483669106E+03  0.25500000920E-02 0.  1.
       -2    1    3    3    0  502  0.75657982175E+03  0.63060998252E+02  0.10437391824E+04  0.12906514623E+04  0.25500000920E-02 0. -1.
</event>
<event>
 5   0  0.3950195E-04  0.1658577E+04  0.7818609E-02  0.8785348E-01
       -1   -1    0    0    0  501  0.00000000000E+00  0.00000000000E+00  0.63670029243E+03  0.63670029245E+03  0.50400001928E-02 0. -1.
        1   -1    0    0  501    0  0.00000000000E+00  0.00000000000E+00 -0.10801311647E+04  0.10801311647E+04  0.50400001928E-02 0.  1.
    10030    2    1    2    0    0  0.00000000000E+00  0.00000000000E+00 -0.44343087229E+03  0.17168314572E+04  0.16585774971E+04 0.  0.
        2    1    3    3  502    0  0.25681822679E+03  0.20878343949E+03  0.56536852127E+03  0.65512417988E+03  0.25500000920E-02 0. -1.
       -2    1    3    3    0  502 -0.25681822679E+03 -0.20878343949E+03 -0.10087993936E+04  0.10617072773E+04  0.25500000920E-02 0.  1.
</event>
<event>
 5   0  0.3973227E-04  0.1605420E+04  0.7818609E-02  0.8817225E-01
       -1   -1    0    0    0  501  0.00000000000E+00  0.00000000000E+00  0.42133099992E+03  0.42133099995E+03  0.50400001928E-02 0.  1.
        1   -1    0    0  501    0  0.00000000000E+00  0.00000000000E+00 -0.15293039655E+04  0.15293039655E+04  0.50400001928E-02 0. -1.
    10030    2    1    2    0    0  0.00000000000E+00  0.00000000000E+00 -0.11079729656E+04  0.19506349654E+04  0.16054197819E+04 0.  0.
        3    1    3    3  502    0 -0.74931591923E+03 -0.28541586382E+03 -0.59955576488E+03  0.10012011224E+04  0.10100000352E+00 0.  1.
       -3    1    3    3    0  502  0.74931591923E+03  0.28541586382E+03 -0.50841720068E+03  0.94943384303E+03  0.10100000352E+00 0. -1.
</event>
<event>
 5   0  0.7488884E-04  0.1604025E+04  0.7818609E-02  0.8818079E-01
       -2   -1    0    0    0  501  0.00000000000E+00  0.00000000000E+00  0.44277939151E+03  0.44277939152E+03  0.25500000920E-02 0.  1.
        2   -1    0    0  501    0  0.00000000000E+00  0.00000000000E+00 -0.14526972760E+04  0.14526972760E+04  0.25500000920E-02 0. -1.
    10030    2    1    2    0    0  0.00000000000E+00  0.00000000000E+00 -0.10099178845E+04  0.18954766675E+04  0.16040254561E+04 0.  0.
        3    1    3    3  502    0 -0.57666997297E+03 -0.13412620228E+03 -0.11442643692E+04  0.12883629352E+04  0.10100000352E+00 0. -1.
       -3    1    3    3    0  502  0.57666997297E+03  0.13412620228E+03  0.13434648471E+03  0.60711373236E+03  0.10100000352E+00 0.  1.
</event>
<event>
 5   0  0.4110803E-04  0.1609804E+04  0.7818609E-02  0.8814548E-01
        1   -1    0    0  501    0  0.00000000000E+00  0.00000000000E+00  0.85648578135E+03  0.85648578137E+03  0.50400001928E-02 0. -1.
       -1   -1    0    0    0  501  0.00000000000E+00  0.00000000000E+00 -0.75642489042E+03  0.75642489044E+03  0.50400001928E-02 0.  1.
    10030    2    1    2    0    0  0.00000000000E+00  0.00000000000E+00  0.10006089093E+03  0.16129106718E+04  0.16098039177E+04 0.  0.
        5    1    3    3  502    0  0.18672186477E+03 -0.10304442545E+03 -0.72758713403E+03  0.75821391177E+03  0.46999998093E+01 0.  1.
       -5    1    3    3    0  502 -0.18672186477E+03  0.10304442545E+03  0.82764802496E+03  0.85469676004E+03  0.46999998093E+01 0. -1.
</event>
<event>
 5   0  0.3950195E-04  0.1582942E+04  0.7818609E-02  0.8831096E-01
        1   -1    0    0  501    0  0.00000000000E+00  0.00000000000E+00  0.66156303911E+03  0.66156303912E+03  0.50400001928E-02 0.  1.
       -1   -1    0    0    0  501  0.00000000000E+00  0.00000000000E+00 -0.94688846065E+03  0.94688846066E+03  0.50400001928E-02 0. -1.
    10030    2    1    2    0    0  0.00000000000E+00  0.00000000000E+00 -0.28532542155E+03  0.16084514998E+04  0.15829420807E+04 0.  0.
        2    1    3    3  502    0  0.75460776142E+03  0.15276175792E+03  0.43753250666E+02  0.77115716636E+03  0.25500000920E-02 0.  1.
       -2    1    3    3    0  502 -0.75460776142E+03 -0.15276175792E+03 -0.32907867221E+03  0.83729433343E+03  0.25500000920E-02 0. -1.
</event>
<event>
 5   0  0.7488884E-04  0.1631084E+04  0.7818609E-02  0.8801676E-01
       -2   -1    0    0    0  501  0.00000000000E+00  0.00000000000E+00  0.31662872009E+03  0.31662872010E+03  0.25500000920E-02 0. -1.
        2   -1    0    0  501    0  0.00000000000E+00  0.00000000000E+00 -0.21005943593E+04  0.21005943593E+04  0.25500000920E-02 0.  1.
    10030    2    1    2    0    0  0.00000000000E+00  0.00000000000E+00 -0.17839656392E+04  0.24172230794E+04  0.16310836930E+04 0.  0.
        3    1    3    3  502    0  0.21604753179E+03  0.94073143573E+02 -0.20490448046E+04  0.20625496149E+04  0.10100000352E+00 0.  1.
       -3    1    3    3    0  502 -0.21604753179E+03 -0.94073143573E+02  0.26507916538E+03  0.35467346454E+03  0.10100000352E+00 0. -1.
</event>
<event>
 5   0  0.7415102E-04  0.1583758E+04  0.7818609E-02  0.8830589E-01
       -2   -1    0    0    0  501  0.00000000000E+00  0.00000000000E+00  0.66795179505E+03  0.66795179505E+03  0.25500000920E-02 0. -1.
        2   -1    0    0  501    0  0.00000000000E+00  0.00000000000E+00 -0.93879830175E+03  0.93879830176E+03  0.25500000920E-02 0.  1.
    10030    2    1    2    0    0  0.00000000000E+00  0.00000000000E+00 -0.27084650671E+03  0.16067500968E+04  0.15837575709E+04 0.  0.
        5    1    3    3  502    0  0.37751341886E+03 -0.14865018234E+03 -0.82532264176E+03  0.91966994685E+03  0.46999998093E+01 0.  1.
       -5    1    3    3    0  502 -0.37751341886E+03  0.14865018234E+03  0.55447613505E+03  0.68708014996E+03  0.46999998093E+01 0. -1.
</event>
<event>
 5   0  0.7415102E-04  0.1617771E+04  0.7818609E-02  0.8809704E-01
       -2   -1    0    0    0  501  0.00000000000E+00  0.00000000000E+00  0.24907501306E+03  0.24907501307E+03  0.25500000920E-02 0. -1.
        2   -1    0    0  501    0  0.00000000000E+00  0.00000000000E+00 -0.26269026099E+04  0.26269026099E+04  0.25500000920E-02 0.  1.
    10030    2    1    2    0    0  0.00000000000E+00  0.00000000000E+00 -0.23778275968E+04  0.28759776230E+04  0.16177710615E+04 0.  0.
        5    1    3    3  502    0 -0.65110907529E+02  0.28248095623E+03  0.15353218147E+03  0.32806880629E+03  0.46999998093E+01 0. -1.
       -5    1    3    3    0  502  0.65110907529E+02 -0.28248095623E+03 -0.25313597783E+04  0.25479088167E+04  0.46999998093E+01 0.  1.
</event>
<event>
 5   0  0.7415102E-04  0.1597093E+04  0.7818609E-02  0.8822336E-01
       -2   -1    0    0    0  501  0.00000000000E+00  0.00000000000E+00  0.28905232860E+03  0.28905232861E+03  0.25500000920E-02 0. -1.
        2   -1    0    0  501    0  0.00000000000E+00  0.00000000000E+00 -0.22060936761E+04  0.22060936761E+04  0.25500000920E-02 0.  1.
    10030    2    1    2    0    0  0.00000000000E+00  0.00000000000E+00 -0.19170413475E+04  0.24951460047E+04  0.15970930019E+04 0.  0.
        5    1    3    3  502    0  0.31706232007E+03  0.16490464438E+03  0.15711411060E+03  0.39042155460E+03  0.46999998093E+01 0. -1.
       -5    1    3    3    0  502 -0.31706232007E+03 -0.16490464438E+03 -0.20741554581E+04  0.21047244501E+04  0.46999998093E+01 0.  1.
</event>
<event>
 5   0  0.7770905E-04  0.1601073E+04  0.7818609E-02  0.8819889E-01
        2   -1    0    0  501    0  0.00000000000E+00  0.00000000000E+00  0.20930060965E+04  0.20930060965E+04  0.25500000920E-02 0.  1.
       -2   -1    0    0    0  501  0.00000000000E+00  0.00000000000E+00 -0.30619064582E+03  0.30619064583E+03  0.25500000920E-02 0. -1.
    10030    2    1    2    0    0  0.00000000000E+00  0.00000000000E+00  0.17868154507E+04  0.23991967423E+04  0.16010732505E+04 0.  0.
        2    1    3    3  502    0 -0.72951488118E+03  0.98337568987E+00  0.13873786886E+04  0.15674860620E+04  0.25500000920E-02 0.  1.
       -2    1    3    3    0  502  0.72951488118E+03 -0.98337568987E+00  0.39943676207E+03  0.83171068034E+03  0.25500000920E-02 0. -1.
</event>
<event>
 5   0  0.7553070E-04  0.1492312E+04  0.7818609E-02  0.8889581E-01
       -2   -1    0    0    0  501  0.00000000000E+00  0.00000000000E+00  0.30022194123E+03  0.30022194125E+03  0.25500000920E-02 0. -1.
        2   -1    0    0  501    0  0.00000000000E+00  0.00000000000E+00 -0.18544584956E+04  0.18544584956E+04  0.25500000920E-02 0.  1.
    10030    2    1    2    0    0  0.00000000000E+00  0.00000000000E+00 -0.15542365543E+04  0.21546804368E+04  0.14923124733E+04 0.  0.
        4    1    3    3  502    0 -0.22739865792E+03 -0.49114217485E+03 -0.15187260395E+04  0.16122844605E+04  0.12699999809E+01 0.  1.
       -4    1    3    3    0  502  0.22739865792E+03  0.49114217485E+03 -0.35510514783E+02  0.54239597629E+03  0.12699999809E+01 0. -1.
</event>
<event>
 5   0  0.7488884E-04  0.1584198E+04  0.7818609E-02  0.8830315E-01
        2   -1    0    0  501    0  0.00000000000E+00  0.00000000000E+00  0.13018078877E+04  0.13018078877E+04  0.25500000920E-02 0. -1.
       -2   -1    0    0    0  501  0.00000000000E+00  0.00000000000E+00 -0.48196086661E+03  0.48196086661E+03  0.25500000920E-02 0.  1.
    10030    2    1    2    0    0  0.00000000000E+00  0.00000000000E+00  0.81984702114E+03  0.17837687544E+04  0.15841975353E+04 0.  0.
        3    1    3    3  502    0  0.16224491347E+02 -0.76963613241E+03  0.19982275273E+03  0.79531890028E+03  0.10100000352E+00 0. -1.
       -3    1    3    3    0  502 -0.16224491347E+02  0.76963613241E+03  0.62002426841E+03  0.98844985409E+03  0.10100000352E+00 0.  1.
</event>
<event>
 5   0  0.7415102E-04  0.1603446E+04  0.7818609E-02  0.8818434E-01
        2   -1    0    0  501    0  0.00000000000E+00  0.00000000000E+00  0.64727524420E+03  0.64727524421E+03  0.25500000920E-02 0. -1.
       -2   -1    0    0    0  501  0.00000000000E+00  0.00000000000E+00 -0.99302391484E+03  0.99302391485E+03  0.25500000920E-02 0.  1.
    10030    2    1    2    0    0  0.00000000000E+00  0.00000000000E+00 -0.34574867064E+03  0.16402991591E+04  0.16034460352E+04 0.  0.
        5    1    3    3  502    0 -0.26645757679E+02 -0.28491597946E+02 -0.99203835588E+03  0.99281617488E+03  0.46999998093E+01 0.  1.
       -5    1    3    3    0  502  0.26645757679E+02  0.28491597946E+02  0.64628968524E+03  0.64748298418E+03  0.46999998093E+01 0. -1.
</event>
<event>
 5   0  0.7395088E-04  0.1595924E+04  0.7818609E-02  0.8823056E-01
        2   -1    0    0  501    0  0.00000000000E+00  0.00000000000E+00  0.54469774648E+03  0.54469774649E+03  0.25500000920E-02 0. -1.
       -2   -1    0    0    0  501  0.00000000000E+00  0.00000000000E+00 -0.11689853916E+04  0.11689853916E+04  0.25500000920E-02 0.  1.
    10030    2    1    2    0    0  0.00000000000E+00  0.00000000000E+00 -0.62428764510E+03  0.17136831381E+04  0.15959244449E+04 0.  0.
        1    1    3    3  502    0  0.12295662812E+03  0.90603551166E+02 -0.11531435950E+04  0.11632142909E+04  0.50400001928E-02 0.  1.
       -1    1    3    3    0  502 -0.12295662812E+03 -0.90603551166E+02  0.52885594991E+03  0.55046884714E+03  0.50400001928E-02 0. -1.
</event>
<event>
 5   0  0.2781000E-04  0.1595822E+04  0.7818609E-02  0.8823119E-01
        3   -1    0    0  501    0  0.00000000000E+00  0.00000000000E+00  0.72263756515E+03  0.72263757221E+03  0.10100000352E+00 0.  1.
       -3   -1    0    0    0  501  0.00000000000E+00  0.00000000000E+00 -0.88102511043E+03  0.88102511622E+03  0.10100000352E+00 0. -1.
    10030    2    1    2    0    0  0.00000000000E+00  0.00000000000E+00 -0.15838754527E+03  0.16036626884E+04  0.15958218584E+04 0.  0.
        1    1    3    3  502    0  0.43729208671E+03  0.70910990168E+02  0.58770015650E+03  0.73596481682E+03  0.50400001928E-02 0.  1.
       -1    1    3    3    0  502 -0.43729208671E+03 -0.70910990168E+02 -0.74608770178E+03  0.86769787161E+03  0.50400001928E-02 0. -1.
</event>
<event>
 5   0  0.7395088E-04  0.1573730E+04  0.7818609E-02  0.8836851E-01
        2   -1    0    0  501    0  0.00000000000E+00  0.00000000000E+00  0.13117247515E+04  0.13117247515E+04  0.25500000920E-02 0. -1.
       -2   -1    0    0    0  501  0.00000000000E+00  0.00000000000E+00 -0.47201737504E+03  0.47201737505E+03  0.25500000920E-02 0.  1.
    10030    2    1    2    0    0  0.00000000000E+00  0.00000000000E+00  0.83970737644E+03  0.17837421265E+04  0.15737304394E+04 0.  0.
        1    1    3    3  502    0  0.53282313184E+03 -0.39785459280E+03  0.89666793893E+03  0.11163342508E+04  0.50400001928E-02 0. -1.
       -1    1    3    3    0  502 -0.53282313184E+03  0.39785459280E+03 -0.56960562498E+02  0.66740787570E+03  0.50400001928E-02 0.  1.
</event>
<event>
 5   0  0.3950195E-04  0.1551743E+04  0.7818609E-02  0.8850755E-01
       -1   -1    0    0    0  501  0.00000000000E+00  0.00000000000E+00  0.29251632771E+03  0.29251632775E+03  0.50400001928E-02 0.  1.
        1   -1    0    0  501    0  0.00000000000E+00  0.00000000000E+00 -0.20579242525E+04  0.20579242525E+04  0.50400001928E-02 0. -1.
    10030    2    1    2    0    0  0.00000000000E+00  0.00000000000E+00 -0.17654079248E+04  0.23504405803E+04  0.15517428203E+04 0.  0.
        2    1    3    3  502    0 -0.50513268224E+03  0.23987806782E+03 -0.16973813872E+04  0.17871217328E+04  0.25500000920E-02 0. -1.
       -2    1    3    3    0  502  0.50513268224E+03 -0.23987806782E+03 -0.68026537561E+02  0.56331884746E+03  0.25500000920E-02 0.  1.
</event>
<event>
 5   0  0.7488884E-04  0.1602295E+04  0.7818609E-02  0.8819139E-01
        2   -1    0    0  501    0  0.00000000000E+00  0.00000000000E+00  0.69492364183E+03  0.69492364184E+03  0.25500000920E-02 0.  1.
       -2   -1    0    0    0  501  0.00000000000E+00  0.00000000000E+00 -0.92360894944E+03  0.92360894944E+03  0.25500000920E-02 0. -1.
    10030    2    1    2    0    0  0.00000000000E+00  0.00000000000E+00 -0.22868530761E+03  0.16185325913E+04  0.16022954719E+04 0.  0.
        3    1    3    3  502    0 -0.42048183851E+03 -0.15365364330E+03 -0.78547234606E+03  0.90409138655E+03  0.10100000352E+00 0. -1.
       -3    1    3    3    0  502  0.42048183851E+03  0.15365364330E+03  0.55678703845E+03  0.71444120472E+03  0.10100000352E+00 0.  1.
</event>
<event>
 5   0  0.3837251E-04  0.1591637E+04  0.7818609E-02  0.8825702E-01
        1   -1    0    0  501    0  0.00000000000E+00  0.00000000000E+00  0.51277651037E+03  0.51277651039E+03  0.50400001928E-02 0.  1.
       -1   -1    0    0    0  501  0.00000000000E+00  0.00000000000E+00 -0.12350941704E+04  0.12350941704E+04  0.50400001928E-02 0. -1.
    10030    2    1    2    0    0  0.00000000000E+00  0.00000000000E+00 -0.72231766003E+03  0.17478706808E+04  0.15916372435E+04 0.  0.
        4    1    3    3  502    0 -0.11360078440E+03  0.69124996281E+03  0.53523810888E+02  0.70256534254E+03  0.12699999809E+01 0.  1.
       -4    1    3    3    0  502  0.11360078440E+03 -0.69124996281E+03 -0.77584147092E+03  0.10453053383E+04  0.12699999809E+01 0. -1.
</event>
<event>
 5   0  0.3889847E-04  0.1621645E+04  0.7818609E-02  0.8807360E-01
        1   -1    0    0  501    0  0.00000000000E+00  0.00000000000E+00  0.12225724305E+04  0.12225724305E+04  0.50400001928E-02 0.  1.
       -1   -1    0    0    0  501  0.00000000000E+00  0.00000000000E+00 -0.53774562049E+03  0.53774562051E+03  0.50400001928E-02 0. -1.
    10030    2    1    2    0    0  0.00000000000E+00  0.00000000000E+00  0.68482680999E+03  0.17603180510E+04  0.16216448073E+04 0.  0.
        1    1    3    3  502    0 -0.38779969720E+03 -0.43609275137E+03  0.95345987539E+03  0.11178780018E+04  0.50400001928E-02 0.  1.
       -1    1    3    3    0  502  0.38779969720E+03  0.43609275137E+03 -0.26863306540E+03  0.64244004918E+03  0.50400001928E-02 0. -1.
</event>
<event>
 5   0  0.4110803E-04  0.1593763E+04  0.7818609E-02  0.8824389E-01
       -1   -1    0    0    0  501  0.00000000000E+00  0.00000000000E+00  0.42191557638E+03  0.42191557641E+03  0.50400001928E-02 0. -1.
        1   -1    0    0  501    0  0.00000000000E+00  0.00000000000E+00 -0.15050884409E+04  0.15050884409E+04  0.50400001928E-02 0.  1.
    10030    2    1    2    0    0  0.00000000000E+00  0.00000000000E+00 -0.10831728645E+04  0.19270040173E+04  0.15937631657E+04 0.  0.
        5    1    3    3  502    0  0.41830576164E+03 -0.67806544878E+03 -0.52263399934E+03  0.95284880769E+03  0.46999998093E+01 0.  1.
       -5    1    3    3    0  502 -0.41830576164E+03  0.67806544878E+03 -0.56053886517E+03  0.97415520962E+03  0.46999998093E+01 0. -1.
</event>
<event>
 5   0  0.7553070E-04  0.1538380E+04  0.7818609E-02  0.8859324E-01
       -2   -1    0    0    0  501  0.00000000000E+00  0.00000000000E+00  0.76692839334E+03  0.76692839335E+03  0.25500000920E-02 0.  1.
        2   -1    0    0  501    0  0.00000000000E+00  0.00000000000E+00 -0.77145823573E+03  0.77145823573E+03  0.25500000920E-02 0. -1.
    10030    2    1    2    0    0  0.00000000000E+00  0.00000000000E+00 -0.45298423863E+01  0.15383866291E+04  0.15383799599E+04 0.  0.
        4    1    3    3  502    0  0.63182957775E+03 -0.41507145413E+03 -0.14424682069E+03  0.76961138605E+03  0.12699999809E+01 0. -1.
       -4    1    3    3    0  502 -0.63182957775E+03  0.41507145413E+03  0.13971697830E+03  0.76877524303E+03  0.12699999809E+01 0.  1.
</event>
<event>
 5   0  0.3950195E-04  0.1619076E+04  0.7818609E-02  0.8808914E-01
        1   -1    0    0  501    0  0.00000000000E+00  0.00000000000E+00  0.81495467401E+03  0.81495467403E+03  0.50400001928E-02 0.  1.
       -1   -1    0    0    0  501  0.00000000000E+00  0.00000000000E+00 -0.80415710341E+03  0.80415710342E+03  0.50400001928E-02 0. -1.
    10030    2    1    2    0    0  0.00000000000E+00  0.00000000000E+00  0.10797570602E+02  0.16191117775E+04  0.16190757735E+04 0.  0.
        2    1    3    3  502    0 -0.76818923509E+03 -0.88912218630E+02 -0.23404652450E+03  0.80795907023E+03  0.25500000920E-02 0.  1.
       -2    1    3    3    0  502  0.76818923509E+03  0.88912218630E+02  0.24484409510E+03  0.81115270722E+03  0.25500000920E-02 0. -1.
</event>
<event>
 5   0  0.7770905E-04  0.1597291E+04  0.7818609E-02  0.8822214E-01
        2   -1    0    0  501    0  0.00000000000E+00  0.00000000000E+00  0.59413665973E+03  0.59413665973E+03  0.25500000920E-02 0. -1.
       -2   -1    0    0    0  501  0.00000000000E+00  0.00000000000E+00 -0.10735489510E+04  0.10735489510E+04  0.25500000920E-02 0.  1.
    10030    2    1    2    0    0  0.00000000000E+00  0.00000000000E+00 -0.47941229130E+03  0.16676856108E+04  0.15972911918E+04 0.  0.
        2    1    3    3  502    0  0.76195874622E+03  0.21108736901E+03 -0.12206485768E+03  0.80002427325E+03  0.25500000920E-02 0.  1.
       -2    1    3    3    0  502 -0.76195874622E+03 -0.21108736901E+03 -0.35734743362E+03  0.86766133752E+03  0.25500000920E-02 0. -1.
</event>
<event>
 5   0  0.7395088E-04  0.1673274E+04  0.7818609E-02  0.8776756E-01
       -2   -1    0    0    0  501  0.00000000000E+00  0.00000000000E+00  0.67015076001E+03  0.67015076002E+03  0.25500000920E-02 0.  1.
        2   -1    0    0  501    0  0.00000000000E+00  0.00000000000E+00 -0.10444838016E+04  0.10444838016E+04  0.25500000920E-02 0. -1.
    10030    2    1    2    0    0  0.00000000000E+00  0.00000000000E+00 -0.37433304155E+03  0.17146345616E+04  0.16732741717E+04 0.  0.
        1    1    3    3  502    0  0.39142905474E+03 -0.32262949618E+02 -0.94414413911E+03  0.10225779962E+04  0.50400001928E-02 0. -1.
       -1    1    3    3    0  502 -0.39142905474E+03  0.32262949618E+02  0.56981109756E+03  0.69205656542E+03  0.50400001928E-02 0.  1.
</event>
<event>
 5   0  0.7415102E-04  0.1635827E+04  0.7818609E-02  0.8798836E-01
        2   -1    0    0  501    0  0.00000000000E+00  0.00000000000E+00  0.68077012216E+03  0.68077012217E+03  0.25500000920E-02 0. -1.
       -2   -1    0    0    0  501  0.00000000000E+00  0.00000000000E+00 -0.98268427431E+03  0.98268427431E+03  0.25500000920E-02 0.  1.
    10030    2    1    2    0    0  0.00000000000E+00  0.00000000000E+00 -0.30191415214E+03  0.16634543965E+04  0.16358265109E+04 0.  0.
        5    1    3    3  502    0 -0.32392157227E+03 -0.46416396149E+03 -0.75134095607E+03  0.94069585435E+03  0.46999998093E+01 0.  1.
       -5    1    3    3    0  502  0.32392157227E+03  0.46416396149E+03  0.44942680393E+03  0.72275854213E+03  0.46999998093E+01 0. -1.
</event>
<event>
 5   0  0.3950195E-04  0.1610596E+04  0.7818609E-02  0.8814065E-01
       -1   -1    0    0    0  501  0.00000000000E+00  0.00000000000E+00  0.10224799102E+04  0.10224799102E+04  0.50400001928E-02 0. -1.
        1   -1    0    0  501    0  0.00000000000E+00  0.00000000000E+00 -0.63424669375E+03  0.63424669377E+03  0.50400001928E-02 0.  1.
    10030    2    1    2    0    0  0.00000000000E+00  0.00000000000E+00  0.38823321644E+03  0.16567266040E+04  0.16105955451E+04 0.  0.
        2    1    3    3  502    0  0.16960224616E+02  0.13246766701E+02  0.10221840718E+04  0.10224105842E+04  0.25500000920E-02 0. -1.
       -2    1    3    3    0  502 -0.16960224616E+02 -0.13246766701E+02 -0.63395085531E+03  0.63431601982E+03  0.25500000920E-02 0.  1.
</event>
<event>
 5   0  0.3837251E-04  0.1541171E+04  0.7818609E-02  0.8857527E-01
       -1   -1    0    0    0  501  0.00000000000E+00  0.00000000000E+00  0.11134371461E+04  0.11134371461E+04  0.50400001928E-02 0.  1.
        1   -1    0    0  501    0  0.00000000000E+00  0.00000000000E+00 -0.53330542179E+03  0.53330542181E+03  0.50400001928E-02 0. -1.
    10030    2    1    2    0    0  0.00000000000E+00  0.00000000000E+00  0.58013172433E+03  0.16467425679E+04  0.15411710702E+04 0.  0.
        4    1    3    3  502    0  0.43725289207E+03  0.38911875994E+03 -0.24546197103E+03  0.63470992830E+03  0.12699999809E+01 0. -1.
       -4    1    3    3    0  502 -0.43725289207E+03 -0.38911875994E+03  0.82559369536E+03  0.10120326396E+04  0.12699999809E+01 0.  1.
</event>
<event>
 5   0  0.7553070E-04  0.1594862E+04  0.7818609E-02  0.8823710E-01
        2   -1    0    0  501    0  0.00000000000E+00  0.00000000000E+00  0.94212304002E+03  0.94212304002E+03  0.25500000920E-02 0. -1.
       -2   -1    0    0    0  501  0.00000000000E+00  0.00000000000E+00 -0.67496120075E+03  0.67496120076E+03  0.25500000920E-02 0.  1.
    10030    2    1    2    0    0  0.00000000000E+00  0.00000000000E+00  0.26716183926E+03  0.16170842408E+04  0.15948623744E+04 0.  0.
        4    1    3    3  502    0 -0.51402642903E+03 -0.10547146271E+03  0.74240338351E+03  0.90912694160E+03  0.12699999809E+01 0. -1.
       -4    1    3    3    0  502  0.51402642903E+03  0.10547146271E+03 -0.47524154425E+03  0.70795729918E+03  0.12699999809E+01 0.  1.
</event>
<event>
 5   0  0.7488884E-04  0.1517307E+04  0.7818609E-02  0.8873025E-01
       -2   -1    0    0    0  501  0.00000000000E+00  0.00000000000E+00  0.30166109461E+03  0.30166109463E+03  0.25500000920E-02 0. -1.
        2   -1    0    0  501    0  0.00000000000E+00  0.00000000000E+00 -0.19079519211E+04  0.19079519211E+04  0.25500000920E-02 0.  1.
    10030    2    1    2    0    0  0.00000000000E+00  0.00000000000E+00 -0.16062908264E+04  0.22096130157E+04  0.15173066466E+04 0.  0.
        3    1    3    3  502    0  0.21609944475E+03 -0.40246221721E+03  0.78928354319E+02  0.46357793479E+03  0.10100000352E+00 0. -1.
       -3    1    3    3    0  502 -0.21609944475E+03  0.40246221721E+03 -0.16852191808E+04  0.17460350809E+04  0.10100000352E+00 0.  1.
</event>
<event>
 5   0  0.3889847E-04  0.1584160E+04  0.7818609E-02  0.8830338E-01
       -1   -1    0    0    0  501  0.00000000000E+00  0.00000000000E+00  0.65886537387E+03  0.65886537389E+03  0.50400001928E-02 0.  1.
        1   -1    0    0  501    0  0.00000000000E+00  0.00000000000E+00 -0.95222937721E+03  0.95222937722E+03  0.50400001928E-02 0. -1.
    10030    2    1    2    0    0  0.00000000000E+00  0.00000000000E+00 -0.29336400334E+03  0.16110947511E+04  0.15841603008E+04 0.  0.
        1    1    3    3  502    0 -0.24313158645E+03  0.17603817277E+03 -0.89214441873E+03  0.94128851608E+03  0.50400001928E-02 0. -1.
       -1    1    3    3    0  502  0.24313158645E+03 -0.17603817277E+03  0.59878041540E+03  0.66980623503E+03  0.50400001928E-02 0.  1.
</event>
<event>
 5   0  0.3889847E-04  0.1569040E+04  0.7818609E-02  0.8839797E-01
       -1   -1    0    0    0  501  0.00000000000E+00  0.00000000000E+00  0.39008504734E+03  0.39008504737E+03  0.50400001928E-02 0. -1.
        1   -1    0    0  501    0  0.00000000000E+00  0.00000000000E+00 -0.15777876191E+04  0.15777876191E+04  0.50400001928E-02 0.  1.
    10030    2    1    2    0    0  0.00000000000E+00  0.00000000000E+00 -0.11877025718E+04  0.19678726665E+04  0.15690396530E+04 0.  0.
        1    1    3    3  502    0  0.23498510209E+03 -0.72862011807E+03 -0.80877586678E+03  0.11136533021E+04  0.50400001928E-02 0.  1.
       -1    1    3    3    0  502 -0.23498510209E+03  0.72862011807E+03 -0.37892670501E+03  0.85421936436E+03  0.50400001928E-02 0. -1.
</event>
<event>
 5   0  0.3950195E-04  0.1629858E+04  0.7818609E-02  0.8802412E-01
       -1   -1    0    0    0  501  0.00000000000E+00  0.00000000000E+00  0.85707385048E+03  0.85707385050E+03  0.50400001928E-02 0. -1.
        1   -1    0    0  501    0  0.00000000000E+00  0.00000000000E+00 -0.77485689152E+03  0.77485689154E+03  0.50400001928E-02 0.  1.
    10030    2    1    2    0    0  0.00000000000E+00  0.00000000000E+00  0.82216958964E+02  0.16319307420E+04  0.16298583737E+04 0.  0.
        2    1    3    3  502    0  0.47133419209E+03  0.83136775238E+02 -0.61930726258E+03  0.78269350931E+03  0.25500000920E-02 0.  1.
       -2    1    3    3    0  502 -0.47133419209E+03 -0.83136775238E+02  0.70152422154E+03  0.84923723272E+03  0.25500000920E-02 0. -1.
</event>
<event>
 5   0  0.3950195E-04  0.1610692E+04  0.7818609E-02  0.8814006E-01
       -1   -1    0    0    0  501  0.00000000000E+00  0.00000000000E+00  0.81111019045E+03  0.81111019047E+03  0.50400001928E-02 0. -1.
        1   -1    0    0  501    0  0.00000000000E+00  0.00000000000E+00 -0.79962307721E+03  0.79962307723E+03  0.50400001928E-02 0.  1.
    10030    2    1    2    0    0  0.00000000000E+00  0.00000000000E+00  0.11487113241E+02  0.16107332677E+04  0.16106923064E+04 0.  0.
        2    1    3    3  502    0 -0.97096222199E+02 -0.22970649450E+03  0.77152387868E+03  0.81082787653E+03  0.25500000920E-02 0. -1.
       -2    1    3    3    0  502  0.97096222199E+02  0.22970649450E+03 -0.76003676544E+03  0.79990539116E+03  0.25500000920E-02 0.  1.
</event>
<event>
 5   0  0.7415102E-04  0.1580512E+04  0.7818609E-02  0.8832610E-01
       -2   -1    0    0    0  501  0.00000000000E+00  0.00000000000E+00  0.62050534834E+03  0.62050534835E+03  0.25500000920E-02 0. -1.
        2   -1    0    0  501    0  0.00000000000E+00  0.00000000000E+00 -0.10064451193E+04  0.10064451193E+04  0.25500000920E-02 0.  1.
    10030    2    1    2    0    0  0.00000000000E+00  0.00000000000E+00 -0.38593977093E+03  0.16269504676E+04  0.15805120428E+04 0.  0.
        5    1    3    3  502    0 -0.19376616563E+03  0.55886911567E+02  0.59355724139E+03  0.62689788852E+03  0.46999998093E+01 0. -1.
       -5    1    3    3    0  502  0.19376616563E+03 -0.55886911567E+02 -0.97949701232E+03  0.10000525791E+04  0.46999998093E+01 0.  1.
</event>
<event>
 5   0  0.4110803E-04  0.1570279E+04  0.7818609E-02  0.8839018E-01
        1   -1    0    0  501    0  0.00000000000E+00  0.00000000000E+00  0.19884341459E+04  0.19884341459E+04  0.50400001928E-02 0. -1.
       -1   -1    0    0    0  501  0.00000000000E+00  0.00000000000E+00 -0.31001489908E+03  0.31001489912E+03  0.50400001928E-02 0.  1.
    10030    2    1    2    0    0  0.00000000000E+00  0.00000000000E+00  0.16784192468E+04  0.22984490451E+04  0.15702792250E+04 0.  0.
        5    1    3    3  502    0  0.22747040606E+03  0.31153442803E+03 -0.16172831603E+03  0.41829968167E+03  0.46999998093E+01 0.  1.
       -5    1    3    3    0  502 -0.22747040606E+03 -0.31153442803E+03  0.18401475629E+04  0.18801493634E+04  0.46999998093E+01 0. -1.
</event>
<event>
 5   0  0.3973227E-04  0.1554752E+04  0.7818609E-02  0.8848838E-01
        1   -1    0    0  501    0  0.00000000000E+00  0.00000000000E+00  0.86738886460E+03  0.86738886462E+03  0.50400001928E-02 0. -1.
       -1   -1    0    0    0  501  0.00000000000E+00  0.00000000000E+00 -0.69670395046E+03  0.69670395048E+03  0.50400001928E-02 0.  1.
    10030    2    1    2    0    0  0.00000000000E+00  0.00000000000E+00  0.17068491414E+03  0.15640928151E+04  0.15547517468E+04 0.  0.
        3    1    3    3  502    0  0.74125219430E+03  0.29688873515E+02  0.31906780421E+03  0.80755217704E+03  0.10100000352E+00 0. -1.
       -3    1    3    3    0  502 -0.74125219430E+03 -0.29688873515E+02 -0.14838289007E+03  0.75654063806E+03  0.10100000352E+00 0.  1.
</event>
<event>
 5   0  0.4110803E-04  0.1564682E+04  0.7818609E-02  0.8842544E-01
        1   -1    0    0  501    0  0.00000000000E+00  0.00000000000E+00  0.12998557700E+04  0.12998557700E+04  0.50400001928E-02 0.  1.
       -1   -1    0    0    0  501  0.00000000000E+00  0.00000000000E+00 -0.47086551464E+03  0.47086551467E+03  0.50400001928E-02 0. -1.
    10030    2    1    2    0    0  0.00000000000E+00  0.00000000000E+00  0.82899025534E+03  0.17707212847E+04  0.15646817646E+04 0.  0.
        5    1    3    3  502    0  0.46195316629E+03  0.10760974179E+03 -0.28956588006E+03  0.55574371185E+03  0.46999998093E+01 0. -1.
       -5    1    3    3    0  502 -0.46195316629E+03 -0.10760974179E+03  0.11185561354E+04  0.12149775728E+04  0.46999998093E+01 0.  1.
</event>
<event>
 5   0  0.3837251E-04  0.1599574E+04  0.7818609E-02  0.8820810E-01
       -1   -1    0    0    0  501  0.00000000000E+00  0.00000000000E+00  0.59937731243E+03  0.59937731245E+03  0.50400001928E-02 0.  1.
        1   -1    0    0  501    0  0.00000000000E+00  0.00000000000E+00 -0.10672063905E+04  0.10672063905E+04  0.50400001928E-02 0. -1.
    10030    2    1    2    0    0  0.00000000000E+00  0.00000000000E+00 -0.46782907809E+03  0.16665837030E+04  0.15995740660E+04 0.  0.
        4    1    3    3  502    0  0.30683738045E+03  0.60298930787E+03 -0.67829395149E+03  0.95803422745E+03  0.12699999809E+01 0. -1.
       -4    1    3    3    0  502 -0.30683738045E+03 -0.60298930787E+03  0.21046487340E+03  0.70854947553E+03  0.12699999809E+01 0.  1.
</event>
<event>
 5   0  0.7770905E-04  0.1586747E+04  0.7818609E-02  0.8828731E-01
        2   -1    0    0  501    0  0.00000000000E+00  0.00000000000E+00  0.35744088632E+03  0.35744088633E+03  0.25500000920E-02 0.  1.
       -2   -1    0    0    0  501  0.00000000000E+00  0.00000000000E+00 -0.17609678120E+04  0.17609678120E+04  0.25500000920E-02 0. -1.
    10030    2    1    2    0    0  0.00000000000E+00  0.00000000000E+00 -0.14035269257E+04  0.21184086984E+04  0.15867474853E+04 0.  0.
        2    1    3    3  502    0  0.30597110565E+03  0.37613228413E+03 -0.15401451805E+04  0.16146643582E+04  0.25500000920E-02 0. -1.
       -2    1    3    3    0  502 -0.30597110565E+03 -0.37613228413E+03  0.13661825482E+03  0.50374434013E+03  0.25500000920E-02 0.  1.
</event>
<event>
 5   0  0.7395088E-04  0.1593567E+04  0.7818609E-02  0.8824510E-01
        2   -1    0    0  501    0  0.00000000000E+00  0.00000000000E+00  0.21448958734E+04  0.21448958734E+04  0.25500000920E-02 0. -1.
       -2   -1    0    0    0  501  0.00000000000E+00  0.00000000000E+00 -0.29598840716E+03  0.29598840717E+03  0.25500000920E-02 0.  1.
    10030    2    1    2    0    0  0.00000000000E+00  0.00000000000E+00  0.18489074663E+04  0.24408842806E+04  0.15935674609E+04 0.  0.
        1    1    3    3  502    0  0.34547842157E+03  0.16957294815E+03 -0.14418644049E+03  0.41097451765E+03  0.50400001928E-02 0.  1.
       -1    1    3    3    0  502 -0.34547842157E+03 -0.16957294815E+03  0.19930939068E+04  0.20299097630E+04  0.50400001928E-02 0. -1.
</event>
<event>
 5   0  0.4110803E-04  0.1201995E+04  0.7818609E-02  0.9111112E-01
        1   -1    0    0  501    0  0.00000000000E+00  0.00000000000E+00  0.11992115945E+04  0.11992115945E+04  0.50400001928E-02 0. -1.
       -1   -1    0    0    0  501  0.00000000000E+00  0.00000000000E+00 -0.30119630589E+03  0.30119630594E+03  0.50400001928E-02 0.  1.
    10030    2    1    2    0    0  0.00000000000E+00  0.00000000000E+00  0.89801528860E+03  0.15004079004E+04  0.12019951785E+04 0.  0.
        5    1    3    3  502    0  0.29498878767E+03  0.36793042753E+03  0.91403404796E+03  0.10285288111E+04  0.46999998093E+01 0. -1.
       -5    1    3    3    0  502 -0.29498878767E+03 -0.36793042753E+03 -0.16018759356E+02  0.47187908939E+03  0.46999998093E+01 0.  1.
</event>
<event>
 5   0  0.3950195E-04  0.1606934E+04  0.7818609E-02  0.8816299E-01
        1   -1    0    0  501    0  0.00000000000E+00  0.00000000000E+00  0.13214099158E+04  0.13214099158E+04  0.50400001928E-02 0.  1.
       -1   -1    0    0    0  501  0.00000000000E+00  0.00000000000E+00 -0.48853819079E+03  0.48853819082E+03  0.50400001928E-02 0. -1.
    10030    2    1    2    0    0  0.00000000000E+00  0.00000000000E+00  0.83287172504E+03  0.18099481067E+04  0.16069339869E+04 0.  0.
        2    1    3    3  502    0  0.89406635007E+01 -0.77687361923E+03  0.64711947739E+03  0.10111261908E+04  0.25500000920E-02 0.  1.
       -2    1    3    3    0  502 -0.89406635007E+01  0.77687361923E+03  0.18575224765E+03  0.79882191584E+03  0.25500000920E-02 0. -1.
</event>
<event>
 5   0  0.3973227E-04  0.1600178E+04  0.7818609E-02  0.8820439E-01
        1   -1    0    0  501    0  0.00000000000E+00  0.00000000000E+00  0.17806346818E+04  0.17806346818E+04  0.50400001928E-02 0.  1.
       -1   -1    0    0    0  501  0.00000000000E+00  0.00000000000E+00 -0.35950246711E+03  0.35950246715E+03  0.50400001928E-02 0. -1.
    10030    2    1    2    0    0  0.00000000000E+00  0.00000000000E+00  0.14211322147E+04  0.21401371489E+04  0.16001781915E+04 0.  0.
        3    1    3    3  502    0  0.62265811389E+03 -0.49178387806E+03  0.84818595574E+03  0.11614533720E+04  0.10100000352E+00 0.  1.
       -3    1    3    3    0  502 -0.62265811389E+03  0.49178387806E+03  0.57294625894E+03  0.97868377699E+03  0.10100000352E+00 0. -1.
</event>
<event>
 5   0  0.7770905E-04  0.1516968E+04  0.7818609E-02  0.8873247E-01
       -2   -1    0    0    0  501  0.00000000000E+00  0.00000000000E+00  0.46073259561E+03  0.46073259561E+03  0.25500000920E-02 0. -1.
        2   -1    0    0  501    0  0.00000000000E+00  0.00000000000E+00 -0.12486584882E+04  0.12486584882E+04  0.25500000920E-02 0.  1.
    10030    2    1    2    0    0  0.00000000000E+00  0.00000000000E+00 -0.78792589260E+03  0.17093910838E+04  0.15169675887E+04 0.  0.
        2    1    3    3  502    0 -0.70927987011E+02 -0.57705289414E+03 -0.94286241628E+03  0.11077049959E+04  0.25500000920E-02 0.  1.
       -2    1    3    3    0  502  0.70927987011E+02  0.57705289414E+03  0.15493652368E+03  0.60168608789E+03  0.25500000920E-02 0. -1.
</event>
<event>
 5   0  0.7395088E-04  0.1600717E+04  0.7818609E-02  0.8820108E-01
        2   -1    0    0  501    0  0.00000000000E+00  0.00000000000E+00  0.20914613304E+04  0.20914613304E+04  0.25500000920E-02 0.  1.
       -2   -1    0    0    0  501  0.00000000000E+00  0.00000000000E+00 -0.30628035340E+03  0.30628035341E+03  0.25500000920E-02 0. -1.
    10030    2    1    2    0    0  0.00000000000E+00  0.00000000000E+00  0.17851809770E+04  0.23977416838E+04  0.16007167337E+04 0.  0.
        1    1    3    3  502    0 -0.37890993277E+03 -0.70063734723E+03  0.77552187450E+03  0.11117102173E+04  0.50400001928E-02 0. -1.
       -1    1    3    3    0  502  0.37890993277E+03  0.70063734723E+03  0.10096591025E+04  0.12860314665E+04  0.50400001928E-02 0.  1.
</event>
<event>
 5   0  0.3889847E-04  0.1591907E+04  0.7818609E-02  0.8825535E-01
        1   -1    0    0  501    0  0.00000000000E+00  0.00000000000E+00  0.13014404598E+04  0.13014404598E+04  0.50400001928E-02 0. -1.
       -1   -1    0    0    0  501  0.00000000000E+00  0.00000000000E+00 -0.48680042537E+03  0.48680042539E+03  0.50400001928E-02 0.  1.
    10030    2    1    2    0    0  0.00000000000E+00  0.00000000000E+00  0.81464003438E+03  0.17882408852E+04  0.15919067428E+04 0.  0.
        1    1    3    3  502    0 -0.37843250313E+03  0.26849218250E+03 -0.31915805265E+03  0.56317055506E+03  0.50400001928E-02 0.  1.
       -1    1    3    3    0  502  0.37843250313E+03 -0.26849218250E+03  0.11337980870E+04  0.12250703301E+04  0.50400001928E-02 0. -1.
</event>
<event>
 5   0  0.7770905E-04  0.1606762E+04  0.7818609E-02  0.8816404E-01
        2   -1    0    0  501    0  0.00000000000E+00  0.00000000000E+00  0.15057475342E+04  0.15057475342E+04  0.25500000920E-02 0. -1.
       -2   -1    0    0    0  501  0.00000000000E+00  0.00000000000E+00 -0.42863840073E+03  0.42863840074E+03  0.25500000920E-02 0.  1.
    10030    2    1    2    0    0  0.00000000000E+00  0.00000000000E+00  0.10771091334E+04  0.19343859349E+04  0.16067622288E+04 0.  0.
        2    1    3    3  502    0  0.17366154410E+02 -0.73126856687E+03  0.13860153293E+03  0.74449021830E+03  0.25500000920E-02 0.  1.
       -2    1    3    3    0  502 -0.17366154410E+02  0.73126856687E+03  0.93850760049E+03  0.11898957166E+04  0.25500000920E-02 0. -1.
</event>
<event>
 5   0  0.3837251E-04  0.1599185E+04  0.7818609E-02  0.8821049E-01
       -1   -1    0    0    0  501  0.00000000000E+00  0.00000000000E+00  0.80085843516E+03  0.80085843518E+03  0.50400001928E-02 0. -1.
        1   -1    0    0  501    0  0.00000000000E+00  0.00000000000E+00 -0.79832812817E+03  0.79832812819E+03  0.50400001928E-02 0.  1.
    10030    2    1    2    0    0  0.00000000000E+00  0.00000000000E+00  0.25303069923E+01  0.15991865634E+04  0.15991845616E+04 0.  0.
        4    1    3    3  502    0  0.48923255443E+03  0.57427210850E+03 -0.26370547027E+03  0.79917403290E+03  0.12699999809E+01 0.  1.
       -4    1    3    3    0  502 -0.48923255443E+03 -0.57427210850E+03  0.26623577726E+03  0.80001253047E+03  0.12699999809E+01 0. -1.
</event>
<event>
 5   0  0.3973227E-04  0.1471845E+04  0.7818609E-02  0.8903395E-01
        1   -1    0    0  501    0  0.00000000000E+00  0.00000000000E+00  0.27928773486E+04  0.27928773486E+04  0.50400001928E-02 0.  1.
       -1   -1    0    0    0  501  0.00000000000E+00  0.00000000000E+00 -0.19391527965E+03  0.19391527972E+03  0.50400001928E-02 0. -1.
    10030    2    1    2    0    0  0.00000000000E+00  0.00000000000E+00  0.25989620689E+04  0.29867926283E+04  0.14718445464E+04 0.  0.
        3    1    3    3  502    0 -0.39379646919E+03 -0.44958240054E+03  0.21708496290E+04  0.22516189988E+04  0.10100000352E+00 0.  1.
       -3    1    3    3    0  502  0.39379646919E+03  0.44958240054E+03  0.42811243993E+03  0.73517362946E+03  0.10100000352E+00 0. -1.
</event>
<event>
 5   0  0.7415102E-04  0.1589495E+04  0.7818609E-02  0.8827028E-01
        2   -1    0    0  501    0  0.00000000000E+00  0.00000000000E+00  0.74748917169E+03  0.74748917169E+03  0.25500000920E-02 0.  1.
       -2   -1    0    0    0  501  0.00000000000E+00  0.00000000000E+00 -0.84499319941E+03  0.84499319941E+03  0.25500000920E-02 0. -1.
    10030    2    1    2    0    0  0.00000000000E+00  0.00000000000E+00 -0.97504027720E+02  0.15924823711E+04  0.15894945948E+04 0.  0.
        5    1    3    3  502    0  0.71136073907E+03 -0.35432589578E+03 -0.44245202695E+02  0.79596524388E+03  0.46999998093E+01 0. -1.
       -5    1    3    3    0  502 -0.71136073907E+03  0.35432589578E+03 -0.53258825026E+02  0.79651712722E+03  0.46999998093E+01 0.  1.
</event>
<event>
 5   0  0.7770905E-04  0.1590695E+04  0.7818609E-02  0.8826285E-01
       -2   -1    0    0    0  501  0.00000000000E+00  0.00000000000E+00  0.82278102047E+03  0.82278102047E+03  0.25500000920E-02 0.  1.
        2   -1    0    0  501    0  0.00000000000E+00  0.00000000000E+00 -0.76882863439E+03  0.76882863440E+03  0.25500000920E-02 0. -1.
    10030    2    1    2    0    0  0.00000000000E+00  0.00000000000E+00  0.53952386077E+02  0.15916096549E+04  0.15906949530E+04 0.  0.
        2    1    3    3  502    0  0.58482169741E+03  0.49400884509E+03 -0.18882455750E+03  0.78848961332E+03  0.25500000920E-02 0. -1.
       -2    1    3    3    0  502 -0.58482169741E+03 -0.49400884509E+03  0.24277694357E+03  0.80312004155E+03  0.25500000920E-02 0.  1.
</event>
<event>
 5   0  0.2781000E-04  0.1601705E+04  0.7818609E-02  0.8819502E-01
        3   -1    0    0  501    0  0.00000000000E+00  0.00000000000E+00  0.37874984059E+03  0.37874985406E+03  0.10100000352E+00 0.  1.
       -3   -1    0    0    0  501  0.00000000000E+00  0.00000000000E+00 -0.16933718348E+04  0.16933718378E+04  0.10100000352E+00 0. -1.
    10030    2    1    2    0    0  0.00000000000E+00  0.00000000000E+00 -0.13146219942E+04  0.20721216919E+04  0.16017045041E+04 0.  0.
        4    1    3    3  502    0 -0.36732834359E+03  0.13485308595E+03 -0.15612783856E+04  0.16095674193E+04  0.12699999809E+01 0. -1.
       -4    1    3    3    0  502  0.36732834359E+03 -0.13485308595E+03  0.24665639142E+03  0.46255427262E+03  0.12699999809E+01 0.  1.
</event>
<event>
 5   0  0.4110803E-04  0.1606420E+04  0.7818609E-02  0.8816614E-01
        1   -1    0    0  501    0  0.00000000000E+00  0.00000000000E+00  0.77645565273E+03  0.77645565275E+03  0.50400001928E-02 0. -1.
       -1   -1    0    0    0  501  0.00000000000E+00  0.00000000000E+00 -0.83088572210E+03  0.83088572211E+03  0.50400001928E-02 0.  1.
    10030    2    1    2    0    0  0.00000000000E+00  0.00000000000E+00 -0.54430069365E+02  0.16073413749E+04  0.16064195165E+04 0.  0.
        5    1    3    3  502    0 -0.31130857652E+03  0.58067286424E+03 -0.48685847572E+03  0.81923578441E+03  0.46999998093E+01 0.  1.
       -5    1    3    3    0  502  0.31130857652E+03 -0.58067286424E+03  0.43242840635E+03  0.78810559045E+03  0.46999998093E+01 0. -1.
</event>
<event>
 5   0  0.3950195E-04  0.1618956E+04  0.7818609E-02  0.8808986E-01
        1   -1    0    0  501    0  0.00000000000E+00  0.00000000000E+00  0.85756886803E+03  0.85756886804E+03  0.50400001928E-02 0. -1.
       -1   -1    0    0    0  501  0.00000000000E+00  0.00000000000E+00 -0.76408426395E+03  0.76408426396E+03  0.50400001928E-02 0.  1.
    10030    2    1    2    0    0  0.00000000000E+00  0.00000000000E+00  0.93484604080E+02  0.16216531320E+04  0.16189563025E+04 0.  0.
        2    1    3    3  502    0 -0.11168411935E+03 -0.39568981906E+03 -0.65170762116E+03  0.77056252109E+03  0.25500000920E-02 0.  1.
       -2    1    3    3    0  502  0.11168411935E+03  0.39568981906E+03  0.74519222524E+03  0.85109061091E+03  0.25500000920E-02 0. -1.
</event>
<event>
 5   0  0.3889847E-04  0.1588420E+04  0.7818609E-02  0.8827694E-01
       -1   -1    0    0    0  501  0.00000000000E+00  0.00000000000E+00  0.45296356102E+03  0.45296356105E+03  0.50400001928E-02 0. -1.
        1   -1    0    0  501    0  0.00000000000E+00  0.00000000000E+00 -0.13925387483E+04  0.13925387483E+04  0.50400001928E-02 0.  1.
    10030    2    1    2    0    0  0.00000000000E+00  0.00000000000E+00 -0.93957518725E+03  0.18455023093E+04  0.15884197308E+04 0.  0.
        1    1    3    3  502    0  0.46221453741E+03 -0.53890162888E+03 -0.88336642911E+03  0.11333108542E+04  0.50400001928E-02 0. -1.
       -1    1    3    3    0  502 -0.46221453741E+03  0.53890162888E+03 -0.56208758138E+02  0.71219145510E+03  0.50400001928E-02 0.  1.
</event>
<event>
 5   0  0.7770905E-04  0.1616655E+04  0.7818609E-02  0.8810381E-01
       -2   -1    0    0    0  501  0.00000000000E+00  0.00000000000E+00  0.39476563876E+03  0.39476563877E+03  0.25500000920E-02 0. -1.
        2   -1    0    0  501    0  0.00000000000E+00  0.00000000000E+00 -0.16551425848E+04  0.16551425848E+04  0.25500000920E-02 0.  1.
    10030    2    1    2    0    0  0.00000000000E+00  0.00000000000E+00 -0.12603769461E+04  0.20499082236E+04  0.16166550897E+04 0.  0.
        2    1    3    3  502    0 -0.85487976400E+02  0.80285384936E+03 -0.67947612137E+03  0.10552584030E+04  0.25500000920E-02 0. -1.
       -2    1    3    3    0  502  0.85487976400E+02 -0.80285384936E+03 -0.58090082472E+03  0.99464982064E+03  0.25500000920E-02 0.  1.
</event>
<event>
 5   0  0.3889847E-04  0.1628653E+04  0.7818609E-02  0.8803136E-01
       -1   -1    0    0    0  501  0.00000000000E+00  0.00000000000E+00  0.55100474192E+03  0.55100474195E+03  0.50400001928E-02 0. -1.
        1   -1    0    0  501    0  0.00000000000E+00  0.00000000000E+00 -0.12034884672E+04  0.12034884672E+04  0.50400001928E-02 0.  1.
    10030    2    1    2    0    0  0.00000000000E+00  0.00000000000E+00 -0.65248372529E+03  0.17544932092E+04  0.16286532502E+04 0.  0.
        1    1    3    3  502    0 -0.49580893426E+03 -0.45381970538E+03 -0.82149038534E+03  0.10614260584E+04  0.50400001928E-02 0.  1.
       -1    1    3    3    0  502  0.49580893426E+03  0.45381970538E+03  0.16900666004E+03  0.69306715075E+03  0.50400001928E-02 0. -1.
</event>
<event>
 5   0  0.7415102E-04  0.1518015E+04  0.7818609E-02  0.8872561E-01
        2   -1    0    0  501    0  0.00000000000E+00  0.00000000000E+00  0.89468008701E+03  0.89468008701E+03  0.25500000920E-02 0. -1.
       -2   -1    0    0    0  501  0.00000000000E+00  0.00000000000E+00 -0.64390909708E+03  0.64390909709E+03  0.25500000920E-02 0.  1.
    10030    2    1    2    0    0  0.00000000000E+00  0.00000000000E+00  0.25077098993E+03  0.15385891841E+04  0.15180153451E+04 0.  0.
        5    1    3    3  502    0 -0.49042261683E+03 -0.11313796163E+03 -0.45043044911E+03  0.67544372152E+03  0.46999998093E+01 0.  1.
       -5    1    3    3    0  502  0.49042261683E+03  0.11313796163E+03  0.70120143904E+03  0.86314546258E+03  0.46999998093E+01 0. -1.
</event>
<event>
 5   0  0.3973227E-04  0.1605608E+04  0.7818609E-02  0.8817110E-01
       -1   -1    0    0    0  501  0.00000000000E+00  0.00000000000E+00  0.74104342416E+03  0.74104342418E+03  0.50400001928E-02 0.  1.
        1   -1    0    0  501    0  0.00000000000E+00  0.00000000000E+00 -0.86971187947E+03  0.86971187948E+03  0.50400001928E-02 0. -1.
    10030    2    1    2    0    0  0.00000000000E+00  0.00000000000E+00 -0.12866845531E+03  0.16107553037E+04  0.16056080085E+04 0.  0.
        3    1    3    3  502    0 -0.20167111227E+03  0.69865225951E+03 -0.40558356459E+03  0.83263692886E+03  0.10100000352E+00 0. -1.
       -3    1    3    3    0  502  0.20167111227E+03 -0.69865225951E+03  0.27691510929E+03  0.77811837479E+03  0.10100000352E+00 0.  1.
</event>
<event>
 5   0  0.2781000E-04  0.1609675E+04  0.7818609E-02  0.8814626E-01
        3   -1    0    0  501    0  0.00000000000E+00  0.00000000000E+00  0.37666270062E+03  0.37666271416E+03  0.10100000352E+00 0.  1.
       -3   -1    0    0    0  501  0.00000000000E+00  0.00000000000E+00 -0.17197448522E+04  0.17197448552E+04  0.10100000352E+00 0. -1.
    10030    2    1    2    0    0  0.00000000000E+00  0.00000000000E+00 -0.13430821516E+04  0.20964075693E+04  0.16096754427E+04 0.  0.
        2    1    3    3  502    0 -0.26061931685E+03 -0.74421912147E+02 -0.16585198952E+04  0.16805205420E+04  0.25500000920E-02 0. -1.
       -2    1    3    3    0  502  0.26061931685E+03  0.74421912147E+02  0.31543774367E+03  0.41588702728E+03  0.25500000920E-02 0.  1.
</event>
<event>
 5   0  0.4110803E-04  0.1610156E+04  0.7818609E-02  0.8814333E-01
       -1   -1    0    0    0  501  0.00000000000E+00  0.00000000000E+00  0.69287226019E+03  0.69287226021E+03  0.50400001928E-02 0. -1.
        1   -1    0    0  501    0  0.00000000000E+00  0.00000000000E+00 -0.93545498280E+03  0.93545498281E+03  0.50400001928E-02 0.  1.
    10030    2    1    2    0    0  0.00000000000E+00  0.00000000000E+00 -0.24258272261E+03  0.16283272430E+04  0.16101562760E+04 0.  0.
        5    1    3    3  502    0  0.14609801148E+03  0.73704039235E+03 -0.41361323202E+03  0.85771275181E+03  0.46999998093E+01 0.  1.
       -5    1    3    3    0  502 -0.14609801148E+03 -0.73704039235E+03  0.17103050942E+03  0.77061449121E+03  0.46999998093E+01 0. -1.
</event>
<event>
 5   0  0.7770905E-04  0.1559559E+04  0.7818609E-02  0.8845785E-01
       -2   -1    0    0    0  501  0.00000000000E+00  0.00000000000E+00  0.57591085518E+03  0.57591085518E+03  0.25500000920E-02 0.  1.
        2   -1    0    0  501    0  0.00000000000E+00  0.00000000000E+00 -0.10558157807E+04  0.10558157807E+04  0.25500000920E-02 0. -1.
    10030    2    1    2    0    0  0.00000000000E+00  0.00000000000E+00 -0.47990492550E+03  0.16317266359E+04  0.15595586160E+04 0.  0.
        2    1    3    3  502    0  0.19378446098E+03 -0.61560202535E+03 -0.69785453173E+03  0.95053627937E+03  0.25500000920E-02 0. -1.
       -2    1    3    3    0  502 -0.19378446098E+03  0.61560202535E+03  0.21794960623E+03  0.68119035650E+03  0.25500000920E-02 0.  1.
</event>
<event>
 5   0  0.2781000E-04  0.1600526E+04  0.7818609E-02  0.8820225E-01
        3   -1    0    0  501    0  0.00000000000E+00  0.00000000000E+00  0.28579040336E+03  0.28579042121E+03  0.10100000352E+00 0.  1.
       -3   -1    0    0    0  501  0.00000000000E+00  0.00000000000E+00 -0.22408763935E+04  0.22408763958E+04  0.10100000352E+00 0. -1.
    10030    2    1    2    0    0  0.00000000000E+00  0.00000000000E+00 -0.19550859902E+04  0.25266668170E+04  0.16005261557E+04 0.  0.
        4    1    3    3  502    0  0.33960243381E+03 -0.14227436226E+03 -0.20992135974E+04  0.21312604599E+04  0.12699999809E+01 0. -1.
       -4    1    3    3    0  502 -0.33960243381E+03  0.14227436226E+03  0.14412760726E+03  0.39540635716E+03  0.12699999809E+01 0.  1.
</event>
<event>
 5   0  0.3889847E-04  0.1609999E+04  0.7818609E-02  0.8814429E-01
        1   -1    0    0  501    0  0.00000000000E+00  0.00000000000E+00  0.93265225496E+03  0.93265225497E+03  0.50400001928E-02 0.  1.
       -1   -1    0    0    0  501  0.00000000000E+00  0.00000000000E+00 -0.69481885155E+03  0.69481885157E+03  0.50400001928E-02 0. -1.
    10030    2    1    2    0    0  0.00000000000E+00  0.00000000000E+00  0.23783340341E+03  0.16274711065E+04  0.16099992158E+04 0.  0.
        1    1    3    3  502    0 -0.14846498115E+03  0.58905493314E+03  0.65285028329E+03  0.89176289298E+03  0.50400001928E-02 0.  1.
       -1    1    3    3    0  502  0.14846498115E+03 -0.58905493314E+03 -0.41501687988E+03  0.73570821356E+03  0.50400001928E-02 0. -1.
</event>
<event>
 5   0  0.7770905E-04  0.1586852E+04  0.7818609E-02  0.8828666E-01
       -2   -1    0    0    0  501  0.00000000000E+00  0.00000000000E+00  0.41965192357E+03  0.41965192358E+03  0.25500000920E-02 0. -1.
        2   -1    0    0  501    0  0.00000000000E+00  0.00000000000E+00 -0.15001126625E+04  0.15001126625E+04  0.25500000920E-02 0.  1.
    10030    2    1    2    0    0  0.00000000000E+00  0.00000000000E+00 -0.10804607389E+04  0.19197645861E+04  0.15868524372E+04 0.  0.
        2    1    3    3  502    0 -0.62504238444E+03  0.43598134555E+03 -0.80739345414E+03  0.11102440749E+04  0.25500000920E-02 0.  1.
       -2    1    3    3    0  502  0.62504238444E+03 -0.43598134555E+03 -0.27306728477E+03  0.80952051119E+03  0.25500000920E-02 0. -1.
</event>
<event>
 5   0  0.3950195E-04  0.1601738E+04  0.7818609E-02  0.8819481E-01
       -1   -1    0    0    0  501  0.00000000000E+00  0.00000000000E+00  0.38928128436E+03  0.38928128440E+03  0.50400001928E-02 0. -1.
        1   -1    0    0  501    0  0.00000000000E+00  0.00000000000E+00 -0.16476300442E+04  0.16476300442E+04  0.50400001928E-02 0.  1.
    10030    2    1    2    0    0  0.00000000000E+00  0.00000000000E+00 -0.12583487598E+04  0.20369113286E+04  0.16017384803E+04 0.  0.
        2    1    3    3  502    0 -0.28638105979E+03  0.69762711146E+03 -0.97204425160E+03  0.12302714030E+04  0.25500000920E-02 0.  1.
       -2    1    3    3    0  502  0.28638105979E+03 -0.69762711146E+03 -0.28630450821E+03  0.80663992555E+03  0.25500000920E-02 0. -1.
</event>
<event>
 5   0  0.3950195E-04  0.1617551E+04  0.7818609E-02  0.8809838E-01
        1   -1    0    0  501    0  0.00000000000E+00  0.00000000000E+00  0.11874854478E+04  0.11874854478E+04  0.50400001928E-02 0.  1.
       -1   -1    0    0    0  501  0.00000000000E+00  0.00000000000E+00 -0.55084258004E+03  0.55084258006E+03  0.50400001928E-02 0. -1.
    10030    2    1    2    0    0  0.00000000000E+00  0.00000000000E+00  0.63664286779E+03  0.17383280279E+04  0.16175506766E+04 0.  0.
        2    1    3    3  502    0  0.11618981472E+03 -0.29211117846E+03 -0.48249539286E+03  0.57587395996E+03  0.25500000920E-02 0. -1.
       -2    1    3    3    0  502 -0.11618981472E+03  0.29211117846E+03  0.11191382607E+04  0.11624540679E+04  0.25500000920E-02 0.  1.
</event>
<event>
 5   0  0.3837251E-04  0.1620576E+04  0.7818609E-02  0.8808006E-01
       -1   -1    0    0    0  501  0.00000000000E+00  0.00000000000E+00  0.30754015995E+03  0.30754015999E+03  0.50400001928E-02 0. -1.
        1   -1    0    0  501    0  0.00000000000E+00  0.00000000000E+00 -0.21348976837E+04  0.21348976837E+04  0.50400001928E-02 0.  1.
    10030    2    1    2    0    0  0.00000000000E+00  0.00000000000E+00 -0.18273575237E+04  0.24424378437E+04  0.16205761632E+04 0.  0.
        4    1    3    3  502    0  0.36594931450E+03 -0.42813336009E+03 -0.17916428998E+04  0.18780849203E+04  0.12699999809E+01 0.  1.
       -4    1    3    3    0  502 -0.36594931450E+03  0.42813336009E+03 -0.35714623951E+02  0.56435292333E+03  0.12699999809E+01 0. -1.
</event>
<event>
 5   0  0.3837251E-04  0.1646842E+04  0.7818609E-02  0.8792277E-01
       -1   -1    0    0    0  501  0.00000000000E+00  0.00000000000E+00  0.37314280991E+03  0.37314280995E+03  0.50400001928E-02 0.  1.
        1   -1    0    0  501    0  0.00000000000E+00  0.00000000000E+00 -0.18170587463E+04  0.18170587463E+04  0.50400001928E-02 0. -1.
    10030    2    1    2    0    0  0.00000000000E+00  0.00000000000E+00 -0.14439159364E+04  0.21902015562E+04  0.16468423196E+04 0.  0.
        4    1    3    3  502    0 -0.64482386170E+03  0.26440883723E+03 -0.13051801973E+04  0.14795968391E+04  0.12699999809E+01 0. -1.
       -4    1    3    3    0  502  0.64482386170E+03 -0.26440883723E+03 -0.13873573903E+03  0.71060471713E+03  0.12699999809E+01 0.  1.
</event>
<event>
 5   0  0.4110803E-04  0.1573241E+04  0.7818609E-02  0.8837158E-01
       -1   -1    0    0    0  501  0.00000000000E+00  0.00000000000E+00  0.13294469029E+04  0.13294469029E+04  0.50400001928E-02 0. -1.
        1   -1    0    0  501    0  0.00000000000E+00  0.00000000000E+00 -0.46543544464E+03  0.46543544467E+03  0.50400001928E-02 0.  1.
    10030    2    1    2    0    0  0.00000000000E+00  0.00000000000E+00  0.86401145826E+03  0.17948823476E+04  0.15732408721E+04 0.  0.
        5    1    3    3  502    0 -0.34301612615E+03 -0.70525092202E+03  0.50150309953E+03  0.93089546924E+03  0.46999998093E+01 0. -1.
       -5    1    3    3    0  502  0.34301612615E+03  0.70525092202E+03  0.36250835872E+03  0.86398687834E+03  0.46999998093E+01 0.  1.
</event>
<event>
 5   0  0.3973227E-04  0.1605828E+04  0.7818609E-02  0.8816975E-01
        1   -1    0    0  501    0  0.00000000000E+00  0.00000000000E+00  0.14776200633E+04  0.14776200633E+04  0.50400001928E-02 0. -1.
       -1   -1    0    0    0  501  0.00000000000E+00  0.00000000000E+00 -0.43629016148E+03  0.43629016151E+03  0.50400001928E-02 0.  1.
    10030    2    1    2    0    0  0.00000000000E+00  0.00000000000E+00  0.10413299018E+04  0.19139102248E+04  0.16058282549E+04 0.  0.
        3    1    3    3  502    0 -0.47329351981E+03 -0.28849099495E+03  0.12130042683E+04  0.13336465706E+04  0.10100000352E+00 0. -1.
       -3    1    3    3    0  502  0.47329351981E+03  0.28849099495E+03 -0.17167436653E+03  0.58026365420E+03  0.10100000352E+00 0.  1.
</event>
<event>
 5   0  0.7415102E-04  0.1608955E+04  0.7818609E-02  0.8815065E-01
        2   -1    0    0  501    0  0.00000000000E+00  0.00000000000E+00  0.75053011036E+03  0.75053011036E+03  0.25500000920E-02 0.  1.
       -2   -1    0    0    0  501  0.00000000000E+00  0.00000000000E+00 -0.86230253918E+03  0.86230253919E+03  0.25500000920E-02 0. -1.
    10030    2    1    2    0    0  0.00000000000E+00  0.00000000000E+00 -0.11177242882E+03  0.16128326495E+04  0.16089549651E+04 0.  0.
        5    1    3    3  502    0 -0.18106914615E+03 -0.27076633741E+02  0.72935524593E+03  0.75199756951E+03  0.46999998093E+01 0.  1.
       -5    1    3    3    0  502  0.18106914615E+03  0.27076633741E+02 -0.84112767476E+03  0.86083508004E+03  0.46999998093E+01 0. -1.
</event>
<event>
 5   0  0.4110803E-04  0.1592477E+04  0.7818609E-02  0.8825183E-01
        1   -1    0    0  501    0  0.00000000000E+00  0.00000000000E+00  0.11893228343E+04  0.11893228343E+04  0.50400001928E-02 0. -1.
       -1   -1    0    0    0  501  0.00000000000E+00  0.00000000000E+00 -0.53307299708E+03  0.53307299710E+03  0.50400001928E-02 0.  1.
    10030    2    1    2    0    0  0.00000000000E+00  0.00000000000E+00  0.65624983717E+03  0.17223958314E+04  0.15924771744E+04 0.  0.
        5    1    3    3  502    0  0.54797281987E+03  0.36595500837E+03 -0.15530326906E+03  0.67700699763E+03  0.46999998093E+01 0.  1.
       -5    1    3    3    0  502 -0.54797281987E+03 -0.36595500837E+03  0.81155310623E+03  0.10453888337E+04  0.46999998093E+01 0. -1.
</event>
<event>
 5   0  0.7395088E-04  0.1621947E+04  0.7818609E-02  0.8807177E-01
       -2   -1    0    0    0  501  0.00000000000E+00  0.00000000000E+00  0.53340336631E+03  0.53340336632E+03  0.25500000920E-02 0.  1.
        2   -1    0    0  501    0  0.00000000000E+00  0.00000000000E+00 -0.12329846683E+04  0.12329846683E+04  0.25500000920E-02 0. -1.
    10030    2    1    2    0    0  0.00000000000E+00  0.00000000000E+00 -0.69958130201E+03  0.17663880346E+04  0.16219471911E+04 0.  0.
        1    1    3    3  502    0 -0.52683319590E+03 -0.61654215657E+03 -0.35071829754E+03  0.88356141348E+03  0.50400001928E-02 0.  1.
       -1    1    3    3    0  502  0.52683319590E+03  0.61654215657E+03 -0.34886300447E+03  0.88282662117E+03  0.50400001928E-02 0. -1.
</event>
<event>
 5   0  0.3973227E-04  0.1581936E+04  0.7818609E-02  0.8831723E-01
       -1   -1    0    0    0  501  0.00000000000E+00  0.00000000000E+00  0.89975261446E+03  0.89975261447E+03  0.50400001928E-02 0. -1.
        1   -1    0    0  501    0  0.00000000000E+00  0.00000000000E+00 -0.69533587201E+03  0.69533587203E+03  0.50400001928E-02 0.  1.
    10030    2    1    2    0    0  0.00000000000E+00  0.00000000000E+00  0.20441674245E+03  0.15950884865E+04  0.15819358632E+04 0.  0.
        3    1    3    3  502    0 -0.11879852401E+03  0.12943278771E+03  0.87983005645E+03  0.89719946181E+03  0.10100000352E+00 0. -1.
       -3    1    3    3    0  502  0.11879852401E+03 -0.12943278771E+03 -0.67541331401E+03  0.69788902469E+03  0.10100000352E+00 0.  1.
</event>
<event>
 5   0  0.3950195E-04  0.1518242E+04  0.7818609E-02  0.8872412E-01
       -1   -1    0    0    0  501  0.00000000000E+00  0.00000000000E+00  0.17550758507E+04  0.17550758507E+04  0.50400001928E-02 0.  1.
        1   -1    0    0  501    0  0.00000000000E+00  0.00000000000E+00 -0.32834160867E+03  0.32834160871E+03  0.50400001928E-02 0. -1.
    10030    2    1    2    0    0  0.00000000000E+00  0.00000000000E+00  0.14267342421E+04  0.20834174595E+04  0.15182416517E+04 0.  0.
        2    1    3    3  502    0  0.74450541077E+03 -0.11852011341E+03  0.59117380187E+03  0.95803016026E+03  0.25500000920E-02 0. -1.
       -2    1    3    3    0  502 -0.74450541077E+03  0.11852011341E+03  0.83556044020E+03  0.11253872992E+04  0.25500000920E-02 0.  1.
</event>
<event>
 5   0  0.7395088E-04  0.1698110E+04  0.7818609E-02  0.8762443E-01
       -2   -1    0    0    0  501  0.00000000000E+00  0.00000000000E+00  0.58926201670E+03  0.58926201671E+03  0.25500000920E-02 0. -1.
        2   -1    0    0  501    0  0.00000000000E+00  0.00000000000E+00 -0.12233855636E+04  0.12233855636E+04  0.25500000920E-02 0.  1.
    10030    2    1    2    0    0  0.00000000000E+00  0.00000000000E+00 -0.63412354691E+03  0.18126475803E+04  0.16981102961E+04 0.  0.
        1    1    3    3  502    0 -0.31330902385E+03 -0.53371873118E+03  0.30341627261E+03  0.68926022876E+03  0.50400001928E-02 0. -1.
       -1    1    3    3    0  502  0.31330902385E+03  0.53371873118E+03 -0.93753981952E+03  0.11233873516E+04  0.50400001928E-02 0.  1.
</event>
<event>
 5   0  0.7488884E-04  0.1622550E+04  0.7818609E-02  0.8806813E-01
       -2   -1    0    0    0  501  0.00000000000E+00  0.00000000000E+00  0.15980138711E+04  0.15980138711E+04  0.25500000920E-02 0. -1.
        2   -1    0    0  501    0  0.00000000000E+00  0.00000000000E+00 -0.41186571788E+03  0.41186571788E+03  0.25500000920E-02 0.  1.
    10030    2    1    2    0    0  0.00000000000E+00  0.00000000000E+00  0.11861481533E+04  0.20098795890E+04  0.16225500057E+04 0.  0.
        3    1    3    3  502    0 -0.54487327805E+02 -0.41411599682E+03 -0.26844078389E+03  0.49650920673E+03  0.10100000352E+00 0.  1.
       -3    1    3    3    0  502  0.54487327805E+02  0.41411599682E+03  0.14545889371E+04  0.15133703823E+04  0.10100000352E+00 0. -1.
</event>
<event>
 5   0  0.7395088E-04  0.1582127E+04  0.7818609E-02  0.8831604E-01
        2   -1    0    0  501    0  0.00000000000E+00  0.00000000000E+00  0.50395106105E+03  0.50395106105E+03  0.25500000920E-02 0.  1.
       -2   -1    0    0    0  501  0.00000000000E+00  0.00000000000E+00 -0.12417506185E+04  0.12417506185E+04  0.25500000920E-02 0. -1.
    10030    2    1    2    0    0  0.00000000000E+00  0.00000000000E+00 -0.73779955743E+03  0.17457016795E+04  0.15821271020E+04 0.  0.
        1    1    3    3  502    0 -0.21771235947E+03  0.28750224001E+03  0.40797176869E+03  0.54451554023E+03  0.50400001928E-02 0.  1.
       -1    1    3    3    0  502  0.21771235947E+03 -0.28750224001E+03 -0.11457713261E+04  0.12011861393E+04  0.50400001928E-02 0. -1.
</event>
<event>
 5   0  0.7488884E-04  0.1553730E+04  0.7818609E-02  0.8849489E-01
       -2   -1    0    0    0  501  0.00000000000E+00  0.00000000000E+00  0.32089154461E+03  0.32089154462E+03  0.25500000920E-02 0.  1.
        2   -1    0    0  501    0  0.00000000000E+00  0.00000000000E+00 -0.18807568629E+04  0.18807568629E+04  0.25500000920E-02 0. -1.
    10030    2    1    2    0    0  0.00000000000E+00  0.00000000000E+00 -0.15598653183E+04  0.22016484075E+04  0.15537296737E+04 0.  0.
        3    1    3    3  502    0 -0.17369294421E+03  0.15983857518E+03  0.26884651924E+03  0.35776538414E+03  0.10100000352E+00 0.  1.
       -3    1    3    3    0  502  0.17369294421E+03 -0.15983857518E+03 -0.18287118375E+04  0.18438830234E+04  0.10100000352E+00 0. -1.
</event>
<event>
 5   0  0.7770905E-04  0.1586306E+04  0.7818609E-02  0.8829005E-01
       -2   -1    0    0    0  501  0.00000000000E+00  0.00000000000E+00  0.12917026243E+04  0.12917026243E+04  0.25500000920E-02 0. -1.
        2   -1    0    0  501    0  0.00000000000E+00  0.00000000000E+00 -0.48702508872E+03  0.48702508872E+03  0.25500000920E-02 0.  1.
    10030    2    1    2    0    0  0.00000000000E+00  0.00000000000E+00  0.80467753561E+03  0.17787277131E+04  0.15863058787E+04 0.  0.
        2    1    3    3  502    0 -0.38067791902E+03 -0.17333040234E+03 -0.35329928351E+03  0.54752122346E+03  0.25500000920E-02 0.  1.
       -2    1    3    3    0  502  0.38067791902E+03  0.17333040234E+03  0.11579768191E+04  0.12312064896E+04  0.25500000920E-02 0. -1.
</event>
<event>
 5   0  0.7395088E-04  0.1681921E+04  0.7818609E-02  0.8771743E-01
        2   -1    0    0  501    0  0.00000000000E+00  0.00000000000E+00  0.13811535923E+04  0.13811535923E+04  0.25500000920E-02 0. -1.
       -2   -1    0    0    0  501  0.00000000000E+00  0.00000000000E+00 -0.51204635492E+03  0.51204635493E+03  0.25500000920E-02 0.  1.
    10030    2    1    2    0    0  0.00000000000E+00  0.00000000000E+00  0.86910723736E+03  0.18931999472E+04  0.16819211189E+04 0.  0.
        1    1    3    3  502    0  0.62302182832E+02  0.40682738661E+03 -0.39093517605E+03  0.56764460394E+03  0.50400001928E-02 0.  1.
       -1    1    3    3    0  502 -0.62302182832E+02 -0.40682738661E+03  0.12600424134E+04  0.13255553433E+04  0.50400001928E-02 0. -1.
</event>
<event>
 5   0  0.4110803E-04  0.1615846E+04  0.7818609E-02  0.8810872E-01
        1   -1    0    0  501    0  0.00000000000E+00  0.00000000000E+00  0.50773803498E+03  0.50773803501E+03  0.50400001928E-02 0.  1.
       -1   -1    0    0    0  501  0.00000000000E+00  0.00000000000E+00 -0.12855837526E+04  0.12855837527E+04  0.50400001928E-02 0. -1.
    10030    2    1    2    0    0  0.00000000000E+00  0.00000000000E+00 -0.77784571766E+03  0.17933217877E+04  0.16158462407E+04 0.  0.
        5    1    3    3  502    0 -0.56360820241E+03  0.25325261045E+03  0.18875271767E+03  0.64609656318E+03  0.46999998093E+01 0.  1.
       -5    1    3    3    0  502  0.56360820241E+03 -0.25325261045E+03 -0.96659843533E+03  0.11472252245E+04  0.46999998093E+01 0. -1.
</event>
<event>
 5   0  0.4110803E-04  0.1584249E+04  0.7818609E-02  0.8830283E-01
        1   -1    0    0  501    0  0.00000000000E+00  0.00000000000E+00  0.92263061263E+03  0.92263061265E+03  0.50400001928E-02 0. -1.
       -1   -1    0    0    0  501  0.00000000000E+00  0.00000000000E+00 -0.68007883890E+03  0.68007883892E+03  0.50400001928E-02 0.  1.
    10030    2    1    2    0    0  0.00000000000E+00  0.00000000000E+00  0.24255177373E+03  0.16027094516E+04  0.15842494195E+04 0.  0.
        5    1    3    3  502    0  0.15191887726E+03 -0.52021733386E+02  0.90597758961E+03  0.92011036778E+03  0.46999998093E+01 0. -1.
       -5    1    3    3    0  502 -0.15191887726E+03  0.52021733386E+02 -0.66342581588E+03  0.68259908379E+03  0.46999998093E+01 0.  1.
</event>
<event>
 5   0  0.7770905E-04  0.1608200E+04  0.7818609E-02  0.8815526E-01
       -2   -1    0    0    0  501  0.00000000000E+00  0.00000000000E+00  0.43144444454E+03  0.43144444455E+03  0.25500000920E-02 0.  1.
        2   -1    0    0  501    0  0.00000000000E+00  0.00000000000E+00 -0.14986321792E+04  0.14986321792E+04  0.25500000920E-02 0. -1.
    10030    2    1    2    0    0  0.00000000000E+00  0.00000000000E+00 -0.10671877346E+04  0.19300766237E+04  0.16081996495E+04 0.  0.
        2    1    3    3  502    0  0.58406959473E+03 -0.54859235946E+03 -0.45321391348E+03  0.92059422100E+03  0.25500000920E-02 0.  1.
       -2    1    3    3    0  502 -0.58406959473E+03  0.54859235946E+03 -0.61397382116E+03  0.10094824027E+04  0.25500000920E-02 0. -1.
</event>
<event>
 5   0  0.3973227E-04  0.1465302E+04  0.7818609E-02  0.8907861E-01
       -1   -1    0    0    0  501  0.00000000000E+00  0.00000000000E+00  0.53450224582E+03  0.53450224585E+03  0.50400001928E-02 0.  1.
        1   -1    0    0  501    0  0.00000000000E+00  0.00000000000E+00 -0.10042561196E+04  0.10042561197E+04  0.50400001928E-02 0. -1.
    10030    2    1    2    0    0  0.00000000000E+00  0.00000000000E+00 -0.46975387382E+03  0.15387583655E+04  0.14653015408E+04 0.  0.
        3    1    3    3  502    0  0.63703119011E+03  0.43467163011E+02 -0.61216340871E+03  0.88455761859E+03  0.10100000352E+00 0. -1.
       -3    1    3    3    0  502 -0.63703119011E+03 -0.43467163011E+02  0.14240953489E+03  0.65420074692E+03  0.10100000352E+00 0.  1.
</event>
<event>
 5   0  0.4110803E-04  0.1597810E+04  0.7818609E-02  0.8821895E-01
        1   -1    0    0  501    0  0.00000000000E+00  0.00000000000E+00  0.11502695706E+04  0.11502695706E+04  0.50400001928E-02 0. -1.
       -1   -1    0    0    0  501  0.00000000000E+00  0.00000000000E+00 -0.55486913074E+03  0.55486913076E+03  0.50400001928E-02 0.  1.
    10030    2    1    2    0    0  0.00000000000E+00  0.00000000000E+00  0.59540043984E+03  0.17051387013E+04  0.15978098470E+04 0.  0.
        5    1    3    3  502    0  0.77671955869E+03  0.60789960204E+02  0.10908433006E+03  0.78670844229E+03  0.46999998093E+01 0.  1.
       -5    1    3    3    0  502 -0.77671955869E+03 -0.60789960204E+02  0.48631610979E+03  0.91843025906E+03  0.46999998093E+01 0. -1.
</event>
<event>
 5   0  0.2781000E-04  0.1592419E+04  0.7818609E-02  0.8825219E-01
        4   -1    0    0  501    0  0.00000000000E+00  0.00000000000E+00  0.14106610147E+04  0.14106615863E+04  0.12699999809E+01 0.  1.
       -4   -1    0    0    0  501  0.00000000000E+00  0.00000000000E+00 -0.44939749007E+03  0.44939928458E+03  0.12699999809E+01 0. -1.
    10030    2    1    2    0    0  0.00000000000E+00  0.00000000000E+00  0.96126352459E+03  0.18600608709E+04  0.15924191910E+04 0.  0.
        2    1    3    3  502    0 -0.48744593093E+03 -0.47806021065E+03  0.95912048883E+03  0.11773093105E+04  0.25500000920E-02 0.  1.
       -2    1    3    3    0  502  0.48744593093E+03  0.47806021065E+03  0.21430357510E+01  0.68275156038E+03  0.25500000920E-02 0. -1.
</event>
<event>
 5   0  0.7488884E-04  0.1640617E+04  0.7818609E-02  0.8795977E-01
       -2   -1    0    0    0  501  0.00000000000E+00  0.00000000000E+00  0.38273557199E+03  0.38273557200E+03  0.25500000920E-02 0.  1.
        2   -1    0    0  501    0  0.00000000000E+00  0.00000000000E+00 -0.17581477389E+04  0.17581477389E+04  0.25500000920E-02 0. -1.
    10030    2    1    2    0    0  0.00000000000E+00  0.00000000000E+00 -0.13754121669E+04  0.21408833109E+04  0.16406165676E+04 0.  0.
        3    1    3    3  502    0  0.19227515657E+02  0.30635800426E+03 -0.16803772791E+04  0.17081840458E+04  0.10100000352E+00 0. -1.
       -3    1    3    3    0  502 -0.19227515657E+02 -0.30635800426E+03  0.30496511219E+03  0.43269926506E+03  0.10100000352E+00 0.  1.
</event>
<event>
 5   0  0.4110803E-04  0.1592090E+04  0.7818609E-02  0.8825422E-01
        1   -1    0    0  501    0  0.00000000000E+00  0.00000000000E+00  0.11344832749E+04  0.11344832749E+04  0.50400001928E-02 0.  1.
       -1   -1    0    0    0  501  0.00000000000E+00  0.00000000000E+00 -0.55856932172E+03  0.55856932174E+03  0.50400001928E-02 0. -1.
    10030    2    1    2    0    0  0.00000000000E+00  0.00000000000E+00  0.57591395318E+03  0.16930525967E+04  0.15920898887E+04 0.  0.
        5    1    3    3  502    0  0.22376899298E+03 -0.53519746976E+03  0.86764661015E+03  0.10437152983E+04  0.46999998093E+01 0.  1.
       -5    1    3    3    0  502 -0.22376899298E+03  0.53519746976E+03 -0.29173265697E+03  0.64933729833E+03  0.46999998093E+01 0. -1.
</event>
<event>
 5   0  0.7770905E-04  0.1757687E+04  0.7818609E-02  0.8729130E-01
        2   -1    0    0  501    0  0.00000000000E+00  0.00000000000E+00  0.89914559715E+03  0.89914559715E+03  0.25500000920E-02 0.  1.
       -2   -1    0    0    0  501  0.00000000000E+00  0.00000000000E+00 -0.85900016832E+03  0.85900016833E+03  0.25500000920E-02 0. -1.
    10030    2    1    2    0    0  0.00000000000E+00  0.00000000000E+00  0.40145428825E+02  0.17581457655E+04  0.17576873662E+04 0.  0.
        2    1    3    3  502    0  0.77623569655E+03 -0.39885651973E+03 -0.83577856678E+02  0.87670612982E+03  0.25500000920E-02 0. -1.
       -2    1    3    3    0  502 -0.77623569655E+03  0.39885651973E+03  0.12372328550E+03  0.88143963566E+03  0.25500000920E-02 0.  1.
</event>
<event>
 5   0  0.3889847E-04  0.1594668E+04  0.7818609E-02  0.8823830E-01
        1   -1    0    0  501    0  0.00000000000E+00  0.00000000000E+00  0.63521458423E+03  0.63521458425E+03  0.50400001928E-02 0. -1.
       -1   -1    0    0    0  501  0.00000000000E+00  0.00000000000E+00 -0.10008297407E+04  0.10008297407E+04  0.50400001928E-02 0.  1.
    10030    2    1    2    0    0  0.00000000000E+00  0.00000000000E+00 -0.36561515649E+03  0.16360443250E+04  0.15946681757E+04 0.  0.
        1    1    3    3  502    0  0.17212467246E+03  0.62370163156E+03 -0.66084915687E+03  0.92485254838E+03  0.50400001928E-02 0.  1.
       -1    1    3    3    0  502 -0.17212467246E+03 -0.62370163156E+03  0.29523400038E+03  0.71119177659E+03  0.50400001928E-02 0. -1.
</event>
<event>
 5   0  0.2781000E-04  0.1445051E+04  0.7818609E-02  0.8921839E-01
       -3   -1    0    0    0  501  0.00000000000E+00  0.00000000000E+00  0.79155619406E+03  0.79155620050E+03  0.10100000352E+00 0. -1.
        3   -1    0    0  501    0  0.00000000000E+00  0.00000000000E+00 -0.65951485648E+03  0.65951486421E+03  0.10100000352E+00 0.  1.
    10030    2    1    2    0    0  0.00000000000E+00  0.00000000000E+00  0.13204133758E+03  0.14510710647E+04  0.14450509749E+04 0.  0.
        3    1    3    3  502    0 -0.20003514069E+03  0.30472871374E+03 -0.56041268062E+03  0.66853274361E+03  0.10100000352E+00 0.  1.
       -3    1    3    3    0  502  0.20003514069E+03 -0.30472871374E+03  0.69245401819E+03  0.78253832110E+03  0.10100000352E+00 0. -1.
</event>
<event>
 5   0  0.7488884E-04  0.1577598E+04  0.7818609E-02  0.8834430E-01
       -2   -1    0    0    0  501  0.00000000000E+00  0.00000000000E+00  0.59746679033E+03  0.59746679034E+03  0.25500000920E-02 0.  1.
        2   -1    0    0  501    0  0.00000000000E+00  0.00000000000E+00 -0.10414035184E+04  0.10414035184E+04  0.25500000920E-02 0. -1.
    10030    2    1    2    0    0  0.00000000000E+00  0.00000000000E+00 -0.44393672812E+03  0.16388703088E+04  0.15775981968E+04 0.  0.
        3    1    3    3  502    0  0.29587724955E+03 -0.67919529981E+03 -0.50332767157E+03  0.89564968445E+03  0.10100000352E+00 0. -1.
       -3    1    3    3    0  502 -0.29587724955E+03  0.67919529981E+03  0.59390943454E+02  0.74322062434E+03  0.10100000352E+00 0.  1.
</event>
<event>
 5   0  0.3950195E-04  0.1626330E+04  0.7818609E-02  0.8804534E-01
       -1   -1    0    0    0  501  0.00000000000E+00  0.00000000000E+00  0.58969005094E+03  0.58969005096E+03  0.50400001928E-02 0.  1.
        1   -1    0    0  501    0  0.00000000000E+00  0.00000000000E+00 -0.11213298162E+04  0.11213298162E+04  0.50400001928E-02 0. -1.
    10030    2    1    2    0    0  0.00000000000E+00  0.00000000000E+00 -0.53163976526E+03  0.17110198672E+04  0.16263296547E+04 0.  0.
        2    1    3    3  502    0  0.13757567461E+02  0.11004742977E+03  0.58169600775E+03  0.59217392116E+03  0.25500000920E-02 0.  1.
       -2    1    3    3    0  502 -0.13757567461E+02 -0.11004742977E+03 -0.11133357730E+04  0.11188459460E+04  0.25500000920E-02 0. -1.
</event>
<event>
 5   0  0.3973227E-04  0.1582684E+04  0.7818609E-02  0.8831257E-01
        1   -1    0    0  501    0  0.00000000000E+00  0.00000000000E+00  0.95341942995E+03  0.95341942996E+03  0.50400001928E-02 0. -1.
       -1   -1    0    0    0  501  0.00000000000E+00  0.00000000000E+00 -0.65681714507E+03  0.65681714509E+03  0.50400001928E-02 0.  1.
    10030    2    1    2    0    0  0.00000000000E+00  0.00000000000E+00  0.29660228488E+03  0.16102365750E+04  0.15826840848E+04 0.  0.
        3    1    3    3  502    0  0.29752049190E+03 -0.56438993084E+03 -0.32800239486E+03  0.71738414979E+03  0.10100000352E+00 0.  1.
       -3    1    3    3    0  502 -0.29752049190E+03  0.56438993084E+03  0.62460467974E+03  0.89285242526E+03  0.10100000352E+00 0. -1.
</event>
<event>
 5   0  0.4110803E-04  0.1604215E+04  0.7818609E-02  0.8817963E-01
        1   -1    0    0  501    0  0.00000000000E+00  0.00000000000E+00  0.87073696392E+03  0.87073696393E+03  0.50400001928E-02 0. -1.
       -1   -1    0    0    0  501  0.00000000000E+00  0.00000000000E+00 -0.73888692912E+03  0.73888692914E+03  0.50400001928E-02 0.  1.
    10030    2    1    2    0    0  0.00000000000E+00  0.00000000000E+00  0.13185003479E+03  0.16096238931E+04  0.16042146507E+04 0.  0.
        5    1    3    3  502    0  0.40608848172E+02 -0.47056398935E+03  0.71639680445E+03  0.85809441092E+03  0.46999998093E+01 0. -1.
       -5    1    3    3    0  502 -0.40608848172E+02  0.47056398935E+03 -0.58454676966E+03  0.75152948215E+03  0.46999998093E+01 0.  1.
</event>
<event>
 5   0  0.3950195E-04  0.1596979E+04  0.7818609E-02  0.8822406E-01
        1   -1    0    0  501    0  0.00000000000E+00  0.00000000000E+00  0.18782176835E+04  0.18782176835E+04  0.50400001928E-02 0. -1.
       -1   -1    0    0    0  501  0.00000000000E+00  0.00000000000E+00 -0.33946307610E+03  0.33946307614E+03  0.50400001928E-02 0.  1.
    10030    2    1    2    0    0  0.00000000000E+00  0.00000000000E+00  0.15387546074E+04  0.22176807597E+04  0.15969790888E+04 0.  0.
        2    1    3    3  502    0  0.58002304257E+03 -0.14257703134E+03  0.15052827599E+04  0.16194539596E+04  0.25500000920E-02 0. -1.
       -2    1    3    3    0  502 -0.58002304257E+03  0.14257703134E+03  0.33471847478E+02  0.59822680010E+03  0.25500000920E-02 0.  1.
</event>
<event>
 5   0  0.7553070E-04  0.1589709E+04  0.7818609E-02  0.8826895E-01
       -2   -1    0    0    0  501  0.00000000000E+00  0.00000000000E+00  0.13770958626E+04  0.13770958626E+04  0.25500000920E-02 0.  1.
        2   -1    0    0  501    0  0.00000000000E+00  0.00000000000E+00 -0.45878724710E+03  0.45878724711E+03  0.25500000920E-02 0. -1.
    10030    2    1    2    0    0  0.00000000000E+00  0.00000000000E+00  0.91830861554E+03  0.18358831097E+04  0.15897094323E+04 0.  0.
        4    1    3    3  502    0 -0.55378445133E+03  0.40829153255E+03 -0.49115376407E+00  0.68802692405E+03  0.12699999809E+01 0.  1.
       -4    1    3    3    0  502  0.55378445133E+03 -0.40829153255E+03  0.91879976930E+03  0.11478561857E+04  0.12699999809E+01 0. -1.
</event>
<event>
 5   0  0.3837251E-04  0.1634226E+04  0.7818609E-02  0.8799793E-01
       -1   -1    0    0    0  501  0.00000000000E+00  0.00000000000E+00  0.44088153072E+03  0.44088153075E+03  0.50400001928E-02 0.  1.
        1   -1    0    0  501    0  0.00000000000E+00  0.00000000000E+00 -0.15144063598E+04  0.15144063598E+04  0.50400001928E-02 0. -1.
    10030    2    1    2    0    0  0.00000000000E+00  0.00000000000E+00 -0.10735248291E+04  0.19552878905E+04  0.16342261705E+04 0.  0.
        4    1    3    3  502    0  0.43799028514E+03 -0.64044182958E+03 -0.84337163641E+03  0.11459836635E+04  0.12699999809E+01 0. -1.
       -4    1    3    3    0  502 -0.43799028514E+03  0.64044182958E+03 -0.23015319265E+03  0.80930422706E+03  0.12699999809E+01 0.  1.
</event>
<event>
 5   0  0.4110803E-04  0.1595806E+04  0.7818609E-02  0.8823128E-01
       -1   -1    0    0    0  501  0.00000000000E+00  0.00000000000E+00  0.98887266676E+03  0.98887266677E+03  0.50400001928E-02 0.  1.
        1   -1    0    0  501    0  0.00000000000E+00  0.00000000000E+00 -0.64381337716E+03  0.64381337718E+03  0.50400001928E-02 0. -1.
    10030    2    1    2    0    0  0.00000000000E+00  0.00000000000E+00  0.34505928960E+03  0.16326860440E+04  0.15958063181E+04 0.  0.
        5    1    3    3  502    0  0.27791384793E+02 -0.75286089401E+03 -0.96327484288E+02  0.75952153427E+03  0.46999998093E+01 0.  1.
       -5    1    3    3    0  502 -0.27791384793E+02  0.75286089401E+03  0.44138677389E+03  0.87316450968E+03  0.46999998093E+01 0. -1.
</event>
<event>
 5   0  0.2781000E-04  0.1546124E+04  0.7818609E-02  0.8854348E-01
        4   -1    0    0  501    0  0.00000000000E+00  0.00000000000E+00  0.10133626241E+04  0.10133634199E+04  0.12699999809E+01 0. -1.
       -4   -1    0    0    0  501  0.00000000000E+00  0.00000000000E+00 -0.58974224133E+03  0.58974360879E+03  0.12699999809E+01 0.  1.
    10030    2    1    2    0    0  0.00000000000E+00  0.00000000000E+00  0.42362038280E+03  0.16031070287E+04  0.15461235128E+04 0.  0.
        3    1    3    3  502    0 -0.17856219876E+03 -0.73395012669E+03  0.41256967247E+02  0.75648489399E+03  0.10100000352E+00 0.  1.
       -3    1    3    3    0  502  0.17856219876E+03  0.73395012669E+03  0.38236341555E+03  0.84662213475E+03  0.10100000352E+00 0. -1.
</event>
<event>
 5   0  0.7395088E-04  0.1534432E+04  0.7818609E-02  0.8861874E-01
       -2   -1    0    0    0  501  0.00000000000E+00  0.00000000000E+00  0.81624807824E+03  0.81624807825E+03  0.25500000920E-02 0. -1.
        2   -1    0    0  501    0  0.00000000000E+00  0.00000000000E+00 -0.72112913818E+03  0.72112913818E+03  0.25500000920E-02 0.  1.
    10030    2    1    2    0    0  0.00000000000E+00  0.00000000000E+00  0.95118940064E+02  0.15373772164E+04  0.15344318469E+04 0.  0.
        1    1    3    3  502    0  0.32121977771E+03 -0.69094140383E+03  0.13738703960E+03  0.77424632243E+03  0.50400001928E-02 0.  1.
       -1    1    3    3    0  502 -0.32121977771E+03  0.69094140383E+03 -0.42268099534E+02  0.76313089400E+03  0.50400001928E-02 0. -1.
</event>
<event>
 5   0  0.7488884E-04  0.1594179E+04  0.7818609E-02  0.8824132E-01
        2   -1    0    0  501    0  0.00000000000E+00  0.00000000000E+00  0.58016618905E+03  0.58016618905E+03  0.25500000920E-02 0.  1.
       -2   -1    0    0    0  501  0.00000000000E+00  0.00000000000E+00 -0.10951199354E+04  0.10951199354E+04  0.25500000920E-02 0. -1.
    10030    2    1    2    0    0  0.00000000000E+00  0.00000000000E+00 -0.51495374635E+03  0.16752861244E+04  0.15941788601E+04 0.  0.
        3    1    3    3  502    0  0.41804049976E+03  0.24046578566E+03 -0.92440717047E+03  0.10426458078E+04  0.10100000352E+00 0. -1.
       -3    1    3    3    0  502 -0.41804049976E+03 -0.24046578566E+03  0.40945342412E+03  0.63264031664E+03  0.10100000352E+00 0.  1.
</event>
<event>
 5   0  0.7488884E-04  0.1572349E+04  0.7818609E-02  0.8837717E-01
       -2   -1    0    0    0  501  0.00000000000E+00  0.00000000000E+00  0.74991709160E+03  0.74991709161E+03  0.25500000920E-02 0.  1.
        2   -1    0    0  501    0  0.00000000000E+00  0.00000000000E+00 -0.82418538600E+03  0.82418538600E+03  0.25500000920E-02 0. -1.
    10030    2    1    2    0    0  0.00000000000E+00  0.00000000000E+00 -0.74268294397E+02  0.15741024776E+04  0.15723494619E+04 0.  0.
        3    1    3    3  502    0 -0.24331756422E+03 -0.20028549902E+03 -0.75818223269E+03  0.82107126752E+03  0.10100000352E+00 0. -1.
       -3    1    3    3    0  502  0.24331756422E+03  0.20028549902E+03  0.68391393829E+03  0.75303121009E+03  0.10100000352E+00 0.  1.
</event>
<event>
 5   0  0.3837251E-04  0.1599126E+04  0.7818609E-02  0.8821085E-01
       -1   -1    0    0    0  501  0.00000000000E+00  0.00000000000E+00  0.29185930575E+03  0.29185930579E+03  0.50400001928E-02 0. -1.
        1   -1    0    0  501    0  0.00000000000E+00  0.00000000000E+00 -0.21904425609E+04  0.21904425609E+04  0.50400001928E-02 0.  1.
    10030    2    1    2    0    0  0.00000000000E+00  0.00000000000E+00 -0.18985832552E+04  0.24823018667E+04  0.15991260678E+04 0.  0.
        4    1    3    3  502    0 -0.28360251980E+03  0.17783958105E+03 -0.20764292402E+04  0.21032397173E+04  0.12699999809E+01 0.  1.
       -4    1    3    3    0  502  0.28360251980E+03 -0.17783958105E+03  0.17784598505E+03  0.37906214942E+03  0.12699999809E+01 0. -1.
</event>
<event>
 5   0  0.7395088E-04  0.1313175E+04  0.7818609E-02  0.9019182E-01
        2   -1    0    0  501    0  0.00000000000E+00  0.00000000000E+00  0.14663319619E+04  0.14663319619E+04  0.25500000920E-02 0. -1.
       -2   -1    0    0    0  501  0.00000000000E+00  0.00000000000E+00 -0.29400356684E+03  0.29400356685E+03  0.25500000920E-02 0.  1.
    10030    2    1    2    0    0  0.00000000000E+00  0.00000000000E+00  0.11723283950E+04  0.17603355287E+04  0.13131745154E+04 0.  0.
        1    1    3    3  502    0 -0.45790001434E+02  0.39520390706E+03 -0.11402317512E+03  0.41386487756E+03  0.50400001928E-02 0.  1.
       -1    1    3    3    0  502  0.45790001434E+02 -0.39520390706E+03  0.12863515702E+04  0.13464706512E+04  0.50400001928E-02 0. -1.
</event>
<event>
 5   0  0.3950195E-04  0.1612960E+04  0.7818609E-02  0.8812626E-01
        1   -1    0    0  501    0  0.00000000000E+00  0.00000000000E+00  0.73111125655E+03  0.73111125657E+03  0.50400001928E-02 0.  1.
       -1   -1    0    0    0  501  0.00000000000E+00  0.00000000000E+00 -0.88961828952E+03  0.88961828953E+03  0.50400001928E-02 0. -1.
    10030    2    1    2    0    0  0.00000000000E+00  0.00000000000E+00 -0.15850703297E+03  0.16207295461E+04  0.16129599444E+04 0.  0.
        2    1    3    3  502    0  0.59366480837E+03  0.39843047231E+03 -0.45417980401E+03  0.84703249072E+03  0.25500000920E-02 0. -1.
       -2    1    3    3    0  502 -0.59366480837E+03 -0.39843047231E+03  0.29567277104E+03  0.77369705538E+03  0.25500000920E-02 0.  1.
</event>
<event>
 5   0  0.3889847E-04  0.1565112E+04  0.7818609E-02  0.8842273E-01
        1   -1    0    0  501    0  0.00000000000E+00  0.00000000000E+00  0.21958212954E+04  0.21958212954E+04  0.50400001928E-02 0. -1.
       -1   -1    0    0    0  501  0.00000000000E+00  0.00000000000E+00 -0.27889047052E+03  0.27889047057E+03  0.50400001928E-02 0.  1.
    10030    2    1    2    0    0  0.00000000000E+00  0.00000000000E+00  0.19169308249E+04  0.24747117660E+04  0.15651116693E+04 0.  0.
        1    1    3    3  502    0 -0.13103630339E+03 -0.39422285403E+03 -0.90141136687E+02  0.42509716065E+03  0.50400001928E-02 0.  1.
       -1    1    3    3    0  502  0.13103630339E+03  0.39422285403E+03  0.20070719615E+04  0.20496146053E+04  0.50400001928E-02 0. -1.
</event>
<event>
 5   0  0.4110803E-04  0.1608644E+04  0.7818609E-02  0.8815255E-01
        1   -1    0    0  501    0  0.00000000000E+00  0.00000000000E+00  0.79672815435E+03  0.79672815437E+03  0.50400001928E-02 0. -1.
       -1   -1    0    0    0  501  0.00000000000E+00  0.00000000000E+00 -0.81198814699E+03  0.81198814701E+03  0.50400001928E-02 0.  1.
    10030    2    1    2    0    0  0.00000000000E+00  0.00000000000E+00 -0.15259992639E+02  0.16087163014E+04  0.16086439230E+04 0.  0.
        5    1    3    3  502    0  0.30871919402E+03  0.19965184609E+03  0.70776456512E+03  0.79757204693E+03  0.46999998093E+01 0. -1.
       -5    1    3    3    0  502 -0.30871919402E+03 -0.19965184609E+03 -0.72302455776E+03  0.81114425445E+03  0.46999998093E+01 0.  1.
</event>
<event>
 5   0  0.7770905E-04  0.1598235E+04  0.7818609E-02  0.8821633E-01
        2   -1    0    0  501    0  0.00000000000E+00  0.00000000000E+00  0.86974727884E+03  0.86974727884E+03  0.25500000920E-02 0.  1.
       -2   -1    0    0    0  501  0.00000000000E+00  0.00000000000E+00 -0.73422300490E+03  0.73422300491E+03  0.25500000920E-02 0. -1.
    10030    2    1    2    0    0  0.00000000000E+00  0.00000000000E+00  0.13552427394E+03  0.16039702838E+04  0.15982346018E+04 0.  0.
        2    1    3    3  502    0  0.13007646322E+03  0.36979665228E+03 -0.63109820134E+03  0.74293632976E+03  0.25500000920E-02 0. -1.
       -2    1    3    3    0  502 -0.13007646322E+03 -0.36979665228E+03  0.76662247528E+03  0.86103395400E+03  0.25500000920E-02 0.  1.
</event>
<event>
 5   0  0.7395088E-04  0.1593082E+04  0.7818609E-02  0.8824809E-01
        2   -1    0    0  501    0  0.00000000000E+00  0.00000000000E+00  0.81051730436E+03  0.81051730437E+03  0.25500000920E-02 0. -1.
       -2   -1    0    0    0  501  0.00000000000E+00  0.00000000000E+00 -0.78280555074E+03  0.78280555074E+03  0.25500000920E-02 0.  1.
    10030    2    1    2    0    0  0.00000000000E+00  0.00000000000E+00  0.27711753628E+02  0.15933228551E+04  0.15930818495E+04 0.  0.
        1    1    3    3  502    0  0.41119243852E+03  0.68007695611E+03 -0.39944054749E+02  0.79572571610E+03  0.50400001928E-02 0.  1.
       -1    1    3    3    0  502 -0.41119243852E+03 -0.68007695611E+03  0.67655808377E+02  0.79759713901E+03  0.50400001928E-02 0. -1.
</event>
<event>
 5   0  0.7415102E-04  0.1614418E+04  0.7818609E-02  0.8811739E-01
       -2   -1    0    0    0  501  0.00000000000E+00  0.00000000000E+00  0.40316643209E+03  0.40316643210E+03  0.25500000920E-02 0.  1.
        2   -1    0    0  501    0  0.00000000000E+00  0.00000000000E+00 -0.16161711848E+04  0.16161711848E+04  0.25500000920E-02 0. -1.
    10030    2    1    2    0    0  0.00000000000E+00  0.00000000000E+00 -0.12130047527E+04  0.20193376169E+04  0.16144175051E+04 0.  0.
        5    1    3    3  502    0 -0.76301193392E+03  0.42593160301E+02 -0.93162403826E+03  0.12049675627E+04  0.46999998093E+01 0. -1.
       -5    1    3    3    0  502  0.76301193392E+03 -0.42593160301E+02 -0.28138071440E+03  0.81437005411E+03  0.46999998093E+01 0.  1.
</event>
<event>
 5   0  0.2781000E-04  0.1578754E+04  0.7818609E-02  0.8833708E-01
        3   -1    0    0  501    0  0.00000000000E+00  0.00000000000E+00  0.41677523197E+03  0.41677524421E+03  0.10100000352E+00 0. -1.
       -3   -1    0    0    0  501  0.00000000000E+00  0.00000000000E+00 -0.14950882165E+04  0.14950882199E+04  0.10100000352E+00 0.  1.
    10030    2    1    2    0    0  0.00000000000E+00  0.00000000000E+00 -0.10783129845E+04  0.19118634641E+04  0.15787536264E+04 0.  0.
        1    1    3    3  502    0 -0.61418583267E+02  0.64661387539E+03  0.40853335587E+01  0.64953709378E+03  0.50400001928E-02 0. -1.
       -1    1    3    3    0  502  0.61418583267E+02 -0.64661387539E+03 -0.10823983180E+04  0.12623263703E+04  0.50400001928E-02 0.  1.
</event>
<event>
 5   0  0.2781000E-04  0.1600120E+04  0.7818609E-02  0.8820475E-01
       -4   -1    0    0    0  501  0.00000000000E+00  0.00000000000E+00  0.28036705848E+03  0.28036993487E+03  0.12699999809E+01 0.  1.
        4   -1    0    0  501    0  0.00000000000E+00  0.00000000000E+00 -0.22830484608E+04  0.22830488140E+04  0.12699999809E+01 0. -1.
    10030    2    1    2    0    0  0.00000000000E+00  0.00000000000E+00 -0.20026814023E+04  0.25634187489E+04  0.16001196465E+04 0.  0.
        3    1    3    3  502    0  0.51921135980E+03 -0.82131114457E+02 -0.19675704225E+04  0.20365803038E+04  0.10100000352E+00 0. -1.
       -3    1    3    3    0  502 -0.51921135980E+03  0.82131114457E+02 -0.35110979786E+02  0.52683844508E+03  0.10100000352E+00 0.  1.
</event>
<event>
 5   0  0.7553070E-04  0.1623885E+04  0.7818609E-02  0.8806007E-01
        2   -1    0    0  501    0  0.00000000000E+00  0.00000000000E+00  0.66778477717E+03  0.66778477717E+03  0.25500000920E-02 0. -1.
       -2   -1    0    0    0  501  0.00000000000E+00  0.00000000000E+00 -0.98722040678E+03  0.98722040678E+03  0.25500000920E-02 0.  1.
    10030    2    1    2    0    0  0.00000000000E+00  0.00000000000E+00 -0.31943562961E+03  0.16550051840E+04  0.16238851676E+04 0.  0.
        4    1    3    3  502    0  0.37596048185E+03  0.71385170034E+03 -0.25267211589E+03  0.84544387457E+03  0.12699999809E+01 0. -1.
       -4    1    3    3    0  502 -0.37596048185E+03 -0.71385170034E+03 -0.66763513720E+02  0.80956130939E+03  0.12699999809E+01 0.  1.
</event>
<event>
 5   0  0.7395088E-04  0.1643057E+04  0.7818609E-02  0.8794524E-01
        2   -1    0    0  501    0  0.00000000000E+00  0.00000000000E+00  0.12608907000E+04  0.12608907000E+04  0.25500000920E-02 0.  1.
       -2   -1    0    0    0  501  0.00000000000E+00  0.00000000000E+00 -0.53526403328E+03  0.53526403329E+03  0.25500000920E-02 0. -1.
    10030    2    1    2    0    0  0.00000000000E+00  0.00000000000E+00  0.72562666675E+03  0.17961547333E+04  0.16430574447E+04 0.  0.
        1    1    3    3  502    0 -0.71584201111E+03  0.20685218693E+03  0.74101483791E+03  0.10508665958E+04  0.50400001928E-02 0.  1.
       -1    1    3    3    0  502  0.71584201111E+03 -0.20685218693E+03 -0.15388171166E+02  0.74528813753E+03  0.50400001928E-02 0. -1.
</event>
<event>
 5   0  0.3889847E-04  0.1757780E+04  0.7818609E-02  0.8729080E-01
        1   -1    0    0  501    0  0.00000000000E+00  0.00000000000E+00  0.10869245198E+04  0.10869245198E+04  0.50400001928E-02 0. -1.
       -1   -1    0    0    0  501  0.00000000000E+00  0.00000000000E+00 -0.71067266040E+03  0.71067266042E+03  0.50400001928E-02 0.  1.
    10030    2    1    2    0    0  0.00000000000E+00  0.00000000000E+00  0.37625185943E+03  0.17975971803E+04  0.17577798954E+04 0.  0.
        1    1    3    3  502    0 -0.96904792036E+02  0.86139437730E+03  0.33652231795E+03  0.92985917346E+03  0.50400001928E-02 0. -1.
       -1    1    3    3    0  502  0.96904792036E+02 -0.86139437730E+03  0.39729541485E+02  0.86773800680E+03  0.50400001928E-02 0.  1.
</event>
<event>
 5   0  0.4110803E-04  0.1611532E+04  0.7818609E-02  0.8813495E-01
       -1   -1    0    0    0  501  0.00000000000E+00  0.00000000000E+00  0.71596518254E+03  0.71596518255E+03  0.50400001928E-02 0. -1.
        1   -1    0    0  501    0  0.00000000000E+00  0.00000000000E+00 -0.90683036832E+03  0.90683036834E+03  0.50400001928E-02 0.  1.
    10030    2    1    2    0    0  0.00000000000E+00  0.00000000000E+00 -0.19086518579E+03  0.16227955509E+04  0.16115321532E+04 0.  0.
        5    1    3    3  502    0 -0.41374761614E+03  0.52488431452E+03 -0.54862949587E+03  0.86470055350E+03  0.46999998093E+01 0.  1.
       -5    1    3    3    0  502  0.41374761614E+03 -0.52488431452E+03  0.35776431008E+03  0.75809499739E+03  0.46999998093E+01 0. -1.
</event>
<event>
 5   0  0.7415102E-04  0.1593916E+04  0.7818609E-02  0.8824295E-01
       -2   -1    0    0    0  501  0.00000000000E+00  0.00000000000E+00  0.40104047616E+03  0.40104047617E+03  0.25500000920E-02 0. -1.
        2   -1    0    0  501    0  0.00000000000E+00  0.00000000000E+00 -0.15837350905E+04  0.15837350905E+04  0.25500000920E-02 0.  1.
    10030    2    1    2    0    0  0.00000000000E+00  0.00000000000E+00 -0.11826946144E+04  0.19847755667E+04  0.15939157755E+04 0.  0.
        5    1    3    3  502    0  0.61506249489E+03 -0.40190386983E+03 -0.20695701151E+03  0.76333602549E+03  0.46999998093E+01 0. -1.
       -5    1    3    3    0  502 -0.61506249489E+03  0.40190386983E+03 -0.97573760285E+03  0.12214395412E+04  0.46999998093E+01 0.  1.
</event>
<event>
 5   0  0.7415102E-04  0.1610452E+04  0.7818609E-02  0.8814152E-01
       -2   -1    0    0    0  501  0.00000000000E+00  0.00000000000E+00  0.29683751923E+03  0.29683751924E+03  0.25500000920E-02 0. -1.
        2   -1    0    0  501    0  0.00000000000E+00  0.00000000000E+00 -0.21843238083E+04  0.21843238083E+04  0.25500000920E-02 0.  1.
    10030    2    1    2    0    0  0.00000000000E+00  0.00000000000E+00 -0.18874862891E+04  0.24811613276E+04  0.16104524339E+04 0.  0.
        5    1    3    3  502    0 -0.67429990458E+03 -0.22137972020E+03 -0.35772900838E+03  0.79478391734E+03  0.46999998093E+01 0. -1.
       -5    1    3    3    0  502  0.67429990458E+03  0.22137972020E+03 -0.15297572807E+04  0.16863774102E+04  0.46999998093E+01 0.  1.
</event>
<event>
 5   0  0.7415102E-04  0.1574548E+04  0.7818609E-02  0.8836339E-01
        2   -1    0    0  501    0  0.00000000000E+00  0.00000000000E+00  0.41684069460E+03  0.41684069461E+03  0.25500000920E-02 0.  1.
       -2   -1    0    0    0  501  0.00000000000E+00  0.00000000000E+00 -0.14868996458E+04  0.14868996458E+04  0.25500000920E-02 0. -1.
    10030    2    1    2    0    0  0.00000000000E+00  0.00000000000E+00 -0.10700589512E+04  0.19037403404E+04  0.15745479112E+04 0.  0.
        5    1    3    3  502    0 -0.16247235665E+03  0.26882162624E+03  0.33777904474E+03  0.46127985700E+03  0.46999998093E+01 0.  1.
       -5    1    3    3    0  502  0.16247235665E+03 -0.26882162624E+03 -0.14078379960E+04  0.14424604834E+04  0.46999998093E+01 0. -1.
</event>
<event>
 5   0  0.7553070E-04  0.1475177E+04  0.7818609E-02  0.8901130E-01
       -2   -1    0    0    0  501  0.00000000000E+00  0.00000000000E+00  0.23008745545E+03  0.23008745546E+03  0.25500000920E-02 0. -1.
        2   -1    0    0  501    0  0.00000000000E+00  0.00000000000E+00 -0.23644794664E+04  0.23644794664E+04  0.25500000920E-02 0.  1.
    10030    2    1    2    0    0  0.00000000000E+00  0.00000000000E+00 -0.21343920110E+04  0.25945669219E+04  0.14751773641E+04 0.  0.
        4    1    3    3  502    0 -0.57435953618E+03  0.11938708375E+03 -0.18535530006E+04  0.19441714151E+04  0.12699999809E+01 0.  1.
       -4    1    3    3    0  502  0.57435953618E+03 -0.11938708375E+03 -0.28083901042E+03  0.65039550678E+03  0.12699999809E+01 0. -1.
</event>
<event>
 5   0  0.7553070E-04  0.1541701E+04  0.7818609E-02  0.8857186E-01
        2   -1    0    0  501    0  0.00000000000E+00  0.00000000000E+00  0.60345049595E+03  0.60345049595E+03  0.25500000920E-02 0. -1.
       -2   -1    0    0    0  501  0.00000000000E+00  0.00000000000E+00 -0.98468813477E+03  0.98468813477E+03  0.25500000920E-02 0.  1.
    10030    2    1    2    0    0  0.00000000000E+00  0.00000000000E+00 -0.38123763882E+03  0.15881386307E+04  0.15417010648E+04 0.  0.
        4    1    3    3  502    0  0.42447243075E+03  0.17555006923E+03  0.44707038940E+03  0.64099002898E+03  0.12699999809E+01 0. -1.
       -4    1    3    3    0  502 -0.42447243075E+03 -0.17555006923E+03 -0.82830802822E+03  0.94714860174E+03  0.12699999809E+01 0.  1.
</event>
<event>
 5   0  0.4110803E-04  0.1599936E+04  0.7818609E-02  0.8820588E-01
        1   -1    0    0  501    0  0.00000000000E+00  0.00000000000E+00  0.10618762444E+04  0.10618762444E+04  0.50400001928E-02 0.  1.
       -1   -1    0    0    0  501  0.00000000000E+00  0.00000000000E+00 -0.60265832883E+03  0.60265832885E+03  0.50400001928E-02 0. -1.
    10030    2    1    2    0    0  0.00000000000E+00  0.00000000000E+00  0.45921791559E+03  0.16645345733E+04  0.15999357024E+04 0.  0.
        5    1    3    3  502    0  0.38096285984E+03 -0.14153923736E+02  0.96127763924E+03  0.10341227315E+04  0.46999998093E+01 0.  1.
       -5    1    3    3    0  502 -0.38096285984E+03  0.14153923736E+02 -0.50205972365E+03  0.63041184177E+03  0.46999998093E+01 0. -1.
</event>
<event>
 5   0  0.7488884E-04  0.1629397E+04  0.7818609E-02  0.8802689E-01
       -2   -1    0    0    0  501  0.00000000000E+00  0.00000000000E+00  0.62083042284E+03  0.62083042285E+03  0.25500000920E-02 0. -1.
        2   -1    0    0  501    0  0.00000000000E+00  0.00000000000E+00 -0.10691067409E+04  0.10691067409E+04  0.25500000920E-02 0.  1.
    10030    2    1    2    0    0  0.00000000000E+00  0.00000000000E+00 -0.44827631803E+03  0.16899371637E+04  0.16293974224E+04 0.  0.
        3    1    3    3  502    0 -0.38993065587E+03  0.41644191421E+03  0.37907602824E+03  0.68495870655E+03  0.10100000352E+00 0. -1.
       -3    1    3    3    0  502  0.38993065587E+03 -0.41644191421E+03 -0.82735234627E+03  0.10049784572E+04  0.10100000352E+00 0.  1.
</event>
<event>
 5   0  0.7553070E-04  0.1598063E+04  0.7818609E-02  0.8821739E-01
       -2   -1    0    0    0  501  0.00000000000E+00  0.00000000000E+00  0.42460772032E+03  0.42460772033E+03  0.25500000920E-02 0.  1.
        2   -1    0    0  501    0  0.00000000000E+00  0.00000000000E+00 -0.15036265521E+04  0.15036265521E+04  0.25500000920E-02 0. -1.
    10030    2    1    2    0    0  0.00000000000E+00  0.00000000000E+00 -0.10790188318E+04  0.19282342725E+04  0.15980631308E+04 0.  0.
        4    1    3    3  502    0 -0.28989952574E+03  0.28555434749E+02 -0.14372710378E+04  0.14664947313E+04  0.12699999809E+01 0. -1.
       -4    1    3    3    0  502  0.28989952574E+03 -0.28555434749E+02  0.35825220600E+03  0.46173954117E+03  0.12699999809E+01 0.  1.
</event>
<event>
 5   0  0.3973227E-04  0.1596123E+04  0.7818609E-02  0.8822934E-01
       -1   -1    0    0    0  501  0.00000000000E+00  0.00000000000E+00  0.66120338209E+03  0.66120338211E+03  0.50400001928E-02 0.  1.
        1   -1    0    0  501    0  0.00000000000E+00  0.00000000000E+00 -0.96324645562E+03  0.96324645563E+03  0.50400001928E-02 0. -1.
    10030    2    1    2    0    0  0.00000000000E+00  0.00000000000E+00 -0.30204307353E+03  0.16244498377E+04  0.15961225696E+04 0.  0.
        3    1    3    3  502    0  0.77109930483E+03 -0.20455275831E+03 -0.17298780208E+03  0.81630922984E+03  0.10100000352E+00 0. -1.
       -3    1    3    3    0  502 -0.77109930483E+03  0.20455275831E+03 -0.12905527145E+03  0.80814060790E+03  0.10100000352E+00 0.  1.
</event>
<event>
 5   0  0.7415102E-04  0.1590139E+04  0.7818609E-02  0.8826629E-01
       -2   -1    0    0    0  501  0.00000000000E+00  0.00000000000E+00  0.71090953501E+03  0.71090953502E+03  0.25500000920E-02 0. -1.
        2   -1    0    0  501    0  0.00000000000E+00  0.00000000000E+00 -0.88919304447E+03  0.88919304448E+03  0.25500000920E-02 0.  1.
    10030    2    1    2    0    0  0.00000000000E+00  0.00000000000E+00 -0.17828350946E+03  0.16001025795E+04  0.15901393823E+04 0.  0.
        5    1    3    3  502    0  0.69686514674E+03 -0.32413361072E+03  0.11567740876E+03  0.77723032830E+03  0.46999998093E+01 0. -1.
       -5    1    3    3    0  502 -0.69686514674E+03  0.32413361072E+03 -0.29396091821E+03  0.82287225119E+03  0.46999998093E+01 0.  1.
</event>
<event>
 5   0  0.7770905E-04  0.1621832E+04  0.7818609E-02  0.8807247E-01
       -2   -1    0    0    0  501  0.00000000000E+00  0.00000000000E+00  0.53044434236E+03  0.53044434236E+03  0.25500000920E-02 0. -1.
        2   -1    0    0  501    0  0.00000000000E+00  0.00000000000E+00 -0.12396865506E+04  0.12396865506E+04  0.25500000920E-02 0.  1.
    10030    2    1    2    0    0  0.00000000000E+00  0.00000000000E+00 -0.70924220824E+03  0.17701308930E+04  0.16218319482E+04 0.  0.
        2    1    3    3  502    0 -0.48617137804E+03 -0.27903927507E+03 -0.99417017006E+03  0.11413149666E+04  0.25500000920E-02 0.  1.
       -2    1    3    3    0  502  0.48617137804E+03  0.27903927507E+03  0.28492796182E+03  0.62881592640E+03  0.25500000920E-02 0. -1.
</event>
<event>
 5   0  0.3889847E-04  0.1585738E+04  0.7818609E-02  0.8829358E-01
       -1   -1    0    0    0  501  0.00000000000E+00  0.00000000000E+00  0.54217656282E+03  0.54217656284E+03  0.50400001928E-02 0.  1.
        1   -1    0    0  501    0  0.00000000000E+00  0.00000000000E+00 -0.11594774415E+04  0.11594774415E+04  0.50400001928E-02 0. -1.
    10030    2    1    2    0    0  0.00000000000E+00  0.00000000000E+00 -0.61730087871E+03  0.17016540044E+04  0.15857383062E+04 0.  0.
        1    1    3    3  502    0 -0.49963630765E+03 -0.57437714339E+03 -0.70877415083E+02  0.76457122020E+03  0.50400001928E-02 0.  1.
       -1    1    3    3    0  502  0.49963630765E+03  0.57437714339E+03 -0.54642346362E+03  0.93708278417E+03  0.50400001928E-02 0. -1.
</event>
<event>
 5   0  0.7415102E-04  0.1614507E+04  0.7818609E-02  0.8811685E-01
        2   -1    0    0  501    0  0.00000000000E+00  0.00000000000E+00  0.12181199414E+04  0.12181199414E+04  0.25500000920E-02 0.  1.
       -2   -1    0    0    0  501  0.00000000000E+00  0.00000000000E+00 -0.53497018263E+03  0.53497018263E+03  0.25500000920E-02 0. -1.
    10030    2    1    2    0    0  0.00000000000E+00  0.00000000000E+00  0.68314975878E+03  0.17530901240E+04  0.16145065469E+04 0.  0.
        5    1    3    3  502    0 -0.46994970120E+03 -0.18531507022E+03 -0.34210675190E+03  0.61012582031E+03  0.46999998093E+01 0. -1.
       -5    1    3    3    0  502  0.46994970120E+03  0.18531507022E+03  0.10252565107E+04  0.11429643037E+04  0.46999998093E+01 0.  1.
</event>
<event>
 5   0  0.7415102E-04  0.1609825E+04  0.7818609E-02  0.8814535E-01
        2   -1    0    0  501    0  0.00000000000E+00  0.00000000000E+00  0.16366672482E+04  0.16366672482E+04  0.25500000920E-02 0. -1.
       -2   -1    0    0    0  501  0.00000000000E+00  0.00000000000E+00 -0.39585565208E+03  0.39585565209E+03  0.25500000920E-02 0.  1.
    10030    2    1    2    0    0  0.00000000000E+00  0.00000000000E+00  0.12408115961E+04  0.20325229003E+04  0.16098248113E+04 0.  0.
        5    1    3    3  502    0  0.58262808922E+03  0.43628132081E+03  0.10542336536E+04  0.12811040425E+04  0.46999998093E+01 0. -1.
       -5    1    3    3    0  502 -0.58262808922E+03 -0.43628132081E+03  0.18657794250E+03  0.75141885780E+03  0.46999998093E+01 0.  1.
</event>
<event>
 5   0  0.7488884E-04  0.1637880E+04  0.7818609E-02  0.8797609E-01
        2   -1    0    0  501    0  0.00000000000E+00  0.00000000000E+00  0.10853184248E+04  0.10853184248E+04  0.25500000920E-02 0. -1.
       -2   -1    0    0    0  501  0.00000000000E+00  0.00000000000E+00 -0.61794105354E+03  0.61794105354E+03  0.25500000920E-02 0.  1.
    10030    2    1    2    0    0  0.00000000000E+00  0.00000000000E+00  0.46737737124E+03  0.17032594783E+04  0.16378801065E+04 0.  0.
        3    1    3    3  502    0 -0.17533661713E+03  0.25760014749E+03  0.10212582146E+04  0.10677401914E+04  0.10100000352E+00 0. -1.
       -3    1    3    3    0  502  0.17533661713E+03 -0.25760014749E+03 -0.55388084331E+03  0.63551928695E+03  0.10100000352E+00 0.  1.
</event>
<event>
 5   0  0.3950195E-04  0.1577567E+04  0.7818609E-02  0.8834449E-01
        1   -1    0    0  501    0  0.00000000000E+00  0.00000000000E+00  0.51935956968E+03  0.51935956971E+03  0.50400001928E-02 0.  1.
       -1   -1    0    0    0  501  0.00000000000E+00  0.00000000000E+00 -0.11979742407E+04  0.11979742407E+04  0.50400001928E-02 0. -1.
    10030    2    1    2    0    0  0.00000000000E+00  0.00000000000E+00 -0.67861467097E+03  0.17173338104E+04  0.15775669699E+04 0.  0.
        2    1    3    3  502    0  0.12754241042E+02 -0.41613853861E+03 -0.10686226286E+04  0.11468601817E+04  0.25500000920E-02 0. -1.
       -2    1    3    3    0  502 -0.12754241042E+02  0.41613853861E+03  0.39000795764E+03  0.57047362867E+03  0.25500000920E-02 0.  1.
</event>
<event>
 5   0  0.4110803E-04  0.1602880E+04  0.7818609E-02  0.8818781E-01
       -1   -1    0    0    0  501  0.00000000000E+00  0.00000000000E+00  0.99728883961E+03  0.99728883962E+03  0.50400001928E-02 0.  1.
        1   -1    0    0  501    0  0.00000000000E+00  0.00000000000E+00 -0.64405231813E+03  0.64405231815E+03  0.50400001928E-02 0. -1.
    10030    2    1    2    0    0  0.00000000000E+00  0.00000000000E+00  0.35323652147E+03  0.16413411578E+04  0.16028801440E+04 0.  0.
        5    1    3    3  502    0  0.45250758157E+03  0.35876143200E+02  0.85294648526E+03  0.96622461454E+03  0.46999998093E+01 0.  1.
       -5    1    3    3    0  502 -0.45250758157E+03 -0.35876143200E+02 -0.49970996379E+03  0.67511654322E+03  0.46999998093E+01 0. -1.
</event>
<event>
 5   0  0.7770905E-04  0.1624268E+04  0.7818609E-02  0.8805777E-01
        2   -1    0    0  501    0  0.00000000000E+00  0.00000000000E+00  0.21252288238E+04  0.21252288238E+04  0.25500000920E-02 0. -1.
       -2   -1    0    0    0  501  0.00000000000E+00  0.00000000000E+00 -0.31034840542E+03  0.31034840543E+03  0.25500000920E-02 0.  1.
    10030    2    1    2    0    0  0.00000000000E+00  0.00000000000E+00  0.18148804184E+04  0.24355772292E+04  0.16242676831E+04 0.  0.
        2    1    3    3  502    0 -0.16651185163E+03 -0.71079126330E+03  0.37388427773E+03  0.82020721154E+03  0.25500000920E-02 0.  1.
       -2    1    3    3    0  502  0.16651185163E+03  0.71079126330E+03  0.14409961406E+04  0.16153700177E+04  0.25500000920E-02 0. -1.
</event>
<event>
 5   0  0.7395088E-04  0.1541380E+04  0.7818609E-02  0.8857392E-01
        2   -1    0    0  501    0  0.00000000000E+00  0.00000000000E+00  0.28293386722E+04  0.28293386722E+04  0.25500000920E-02 0. -1.
       -2   -1    0    0    0  501  0.00000000000E+00  0.00000000000E+00 -0.20993004022E+03  0.20993004023E+03  0.25500000920E-02 0.  1.
    10030    2    1    2    0    0  0.00000000000E+00  0.00000000000E+00  0.26194086320E+04  0.30392687124E+04  0.15413801365E+04 0.  0.
        1    1    3    3  502    0 -0.29425032179E+03  0.45355818793E+03  0.22672108632E+03  0.58625995320E+03  0.50400001928E-02 0.  1.
       -1    1    3    3    0  502  0.29425032179E+03 -0.45355818793E+03  0.23926875457E+04  0.24530087592E+04  0.50400001928E-02 0. -1.
</event>
<event>
 5   0  0.3950195E-04  0.1590195E+04  0.7818609E-02  0.8826594E-01
       -1   -1    0    0    0  501  0.00000000000E+00  0.00000000000E+00  0.43557926314E+03  0.43557926317E+03  0.50400001928E-02 0.  1.
        1   -1    0    0  501    0  0.00000000000E+00  0.00000000000E+00 -0.14513556643E+04  0.14513556643E+04  0.50400001928E-02 0. -1.
    10030    2    1    2    0    0  0.00000000000E+00  0.00000000000E+00 -0.10157764011E+04  0.18869349274E+04  0.15901954984E+04 0.  0.
        2    1    3    3  502    0  0.46002825205E+03  0.34126963627E+03 -0.11622336658E+04  0.12957152663E+04  0.25500000920E-02 0. -1.
       -2    1    3    3    0  502 -0.46002825205E+03 -0.34126963627E+03  0.14645726470E+03  0.59121966114E+03  0.25500000920E-02 0.  1.
</event>
<event>
 5   0  0.3973227E-04  0.1631216E+04  0.7818609E-02  0.8801597E-01
        1   -1    0    0  501    0  0.00000000000E+00  0.00000000000E+00  0.77565857473E+03  0.77565857474E+03  0.50400001928E-02 0. -1.
       -1   -1    0    0    0  501  0.00000000000E+00  0.00000000000E+00 -0.85761471038E+03  0.85761471039E+03  0.50400001928E-02 0.  1.
    10030    2    1    2    0    0  0.00000000000E+00  0.00000000000E+00 -0.81956135650E+02  0.16332732851E+04  0.16312157478E+04 0.  0.
        3    1    3    3  502    0  0.58043360374E+03  0.51559643590E+03 -0.29124001425E+03  0.82919455447E+03  0.10100000352E+00 0.  1.
       -3    1    3    3    0  502 -0.58043360374E+03 -0.51559643590E+03  0.20928387860E+03  0.80407873066E+03  0.10100000352E+00 0. -1.
</event>
<event>
 5   0  0.7770905E-04  0.1596624E+04  0.7818609E-02  0.8822624E-01
       -2   -1    0    0    0  501  0.00000000000E+00  0.00000000000E+00  0.21586054430E+04  0.21586054430E+04  0.25500000920E-02 0. -1.
        2   -1    0    0  501    0  0.00000000000E+00  0.00000000000E+00 -0.29523801344E+03  0.29523801345E+03  0.25500000920E-02 0.  1.
    10030    2    1    2    0    0  0.00000000000E+00  0.00000000000E+00  0.18633674295E+04  0.24538434564E+04  0.15966244177E+04 0.  0.
        2    1    3    3  502    0  0.14633048323E+03  0.43542846823E+03  0.19351379884E+04  0.19889116610E+04  0.25500000920E-02 0. -1.
       -2    1    3    3    0  502 -0.14633048323E+03 -0.43542846823E+03 -0.71770558838E+02  0.46493179542E+03  0.25500000920E-02 0.  1.
</event>
<event>
 5   0  0.3889847E-04  0.1633968E+04  0.7818609E-02  0.8799947E-01
       -1   -1    0    0    0  501  0.00000000000E+00  0.00000000000E+00  0.86252035006E+03  0.86252035008E+03  0.50400001928E-02 0. -1.
        1   -1    0    0  501    0  0.00000000000E+00  0.00000000000E+00 -0.77385209174E+03  0.77385209176E+03  0.50400001928E-02 0.  1.
    10030    2    1    2    0    0  0.00000000000E+00  0.00000000000E+00  0.88668258324E+02  0.16363724418E+04  0.16339683927E+04 0.  0.
        1    1    3    3  502    0  0.67336254654E+02 -0.64761339741E+03 -0.44987535807E+03  0.79140705173E+03  0.50400001928E-02 0. -1.
       -1    1    3    3    0  502 -0.67336254654E+02  0.64761339741E+03  0.53854361639E+03  0.84496539011E+03  0.50400001928E-02 0.  1.
</event>
<event>
 5   0  0.3889847E-04  0.1700003E+04  0.7818609E-02  0.8761363E-01
       -1   -1    0    0    0  501  0.00000000000E+00  0.00000000000E+00  0.11209805242E+04  0.11209805242E+04  0.50400001928E-02 0.  1.
        1   -1    0    0  501    0  0.00000000000E+00  0.00000000000E+00 -0.64452696635E+03  0.64452696637E+03  0.50400001928E-02 0. -1.
    10030    2    1    2    0    0  0.00000000000E+00  0.00000000000E+00  0.47645355784E+03  0.17655074906E+04  0.17000025607E+04 0.  0.
        1    1    3    3  502    0 -0.16329810327E+03  0.41775584534E+03 -0.51161649347E+03  0.68039521843E+03  0.50400001928E-02 0. -1.
       -1    1    3    3    0  502  0.16329810327E+03 -0.41775584534E+03  0.98807005131E+03  0.10851122721E+04  0.50400001928E-02 0.  1.
</event>
<event>
 5   0  0.3950195E-04  0.1601607E+04  0.7818609E-02  0.8819561E-01
       -1   -1    0    0    0  501  0.00000000000E+00  0.00000000000E+00  0.83885769709E+03  0.83885769710E+03  0.50400001928E-02 0. -1.
        1   -1    0    0  501    0  0.00000000000E+00  0.00000000000E+00 -0.76447579831E+03  0.76447579832E+03  0.50400001928E-02 0.  1.
    10030    2    1    2    0    0  0.00000000000E+00  0.00000000000E+00  0.74381898779E+02  0.16033334954E+04  0.16016072024E+04 0.  0.
        2    1    3    3  502    0  0.64606443899E+03  0.46953444659E+03  0.95773695085E+02  0.80438452032E+03  0.25500000920E-02 0.  1.
       -2    1    3    3    0  502 -0.64606443899E+03 -0.46953444659E+03 -0.21391796306E+02  0.79894897510E+03  0.25500000920E-02 0. -1.
</event>
<event>
 5   0  0.7553070E-04  0.1615387E+04  0.7818609E-02  0.8811150E-01
       -2   -1    0    0    0  501  0.00000000000E+00  0.00000000000E+00  0.43328798190E+03  0.43328798191E+03  0.25500000920E-02 0. -1.
        2   -1    0    0  501    0  0.00000000000E+00  0.00000000000E+00 -0.15056245725E+04  0.15056245725E+04  0.25500000920E-02 0.  1.
    10030    2    1    2    0    0  0.00000000000E+00  0.00000000000E+00 -0.10723365906E+04  0.19389125544E+04  0.16153873003E+04 0.  0.
        4    1    3    3  502    0  0.23842576680E+03 -0.63002422821E+03 -0.10710531435E+04  0.12652801364E+04  0.12699999809E+01 0. -1.
       -4    1    3    3    0  502 -0.23842576680E+03  0.63002422821E+03 -0.12834470297E+01  0.67363241797E+03  0.12699999809E+01 0.  1.
</event>
<event>
 5   0  0.2781000E-04  0.1602853E+04  0.7818609E-02  0.8818798E-01
       -4   -1    0    0    0  501  0.00000000000E+00  0.00000000000E+00  0.49088237586E+03  0.49088401871E+03  0.12699999809E+01 0. -1.
        4   -1    0    0  501    0  0.00000000000E+00  0.00000000000E+00 -0.13084234660E+04  0.13084240823E+04  0.12699999809E+01 0.  1.
    10030    2    1    2    0    0  0.00000000000E+00  0.00000000000E+00 -0.81754109010E+03  0.17993081010E+04  0.16028525224E+04 0.  0.
        2    1    3    3  502    0  0.44742824991E+03 -0.13166446024E+03 -0.11403844963E+04  0.12320731992E+04  0.25500000920E-02 0.  1.
       -2    1    3    3    0  502 -0.44742824991E+03  0.13166446024E+03  0.32284340617E+03  0.56723490180E+03  0.25500000920E-02 0. -1.
</event>
<event>
 5   0  0.7553070E-04  0.1615917E+04  0.7818609E-02  0.8810829E-01
        2   -1    0    0  501    0  0.00000000000E+00  0.00000000000E+00  0.13911587794E+04  0.13911587794E+04  0.25500000920E-02 0. -1.
       -2   -1    0    0    0  501  0.00000000000E+00  0.00000000000E+00 -0.46924704941E+03  0.46924704942E+03  0.25500000920E-02 0.  1.
    10030    2    1    2    0    0  0.00000000000E+00  0.00000000000E+00  0.92191172996E+03  0.18604058288E+04  0.16159172658E+04 0.  0.
        4    1    3    3  502    0  0.10684781217E+03 -0.77834845508E+03  0.24387313520E+03  0.82262901205E+03  0.12699999809E+01 0.  1.
       -4    1    3    3    0  502 -0.10684781217E+03  0.77834845508E+03  0.67803859475E+03  0.10377768167E+04  0.12699999809E+01 0. -1.
</event>
<event>
 5   0  0.7395088E-04  0.1610075E+04  0.7818609E-02  0.8814383E-01
        2   -1    0    0  501    0  0.00000000000E+00  0.00000000000E+00  0.11913302100E+04  0.11913302100E+04  0.25500000920E-02 0. -1.
       -2   -1    0    0    0  501  0.00000000000E+00  0.00000000000E+00 -0.54400130272E+03  0.54400130272E+03  0.25500000920E-02 0.  1.
    10030    2    1    2    0    0  0.00000000000E+00  0.00000000000E+00  0.64732890732E+03  0.17353315128E+04  0.16100747638E+04 0.  0.
        1    1    3    3  502    0  0.71084708485E+03 -0.36234346399E+03  0.43918897185E+03  0.91075974712E+03  0.50400001928E-02 0. -1.
       -1    1    3    3    0  502 -0.71084708485E+03  0.36234346399E+03  0.20813993547E+03  0.82457176565E+03  0.50400001928E-02 0.  1.
</event>
<event>
 5   0  0.7415102E-04  0.1625149E+04  0.7818609E-02  0.8805245E-01
       -2   -1    0    0    0  501  0.00000000000E+00  0.00000000000E+00  0.14688861692E+04  0.14688861692E+04  0.25500000920E-02 0.  1.
        2   -1    0    0  501    0  0.00000000000E+00  0.00000000000E+00 -0.44950906953E+03  0.44950906954E+03  0.25500000920E-02 0. -1.
    10030    2    1    2    0    0  0.00000000000E+00  0.00000000000E+00  0.10193770997E+04  0.19183952387E+04  0.16251494149E+04 0.  0.
        5    1    3    3  502    0  0.67413115244E+02  0.43095491314E+03  0.13189495148E+04  0.13892143744E+04  0.46999998093E+01 0.  1.
       -5    1    3    3    0  502 -0.67413115244E+02 -0.43095491314E+03 -0.29957241518E+03  0.52918086436E+03  0.46999998093E+01 0. -1.
</event>
<event>
 5   0  0.7488884E-04  0.1594127E+04  0.7818609E-02  0.8824164E-01
       -2   -1    0    0    0  501  0.00000000000E+00  0.00000000000E+00  0.86410878051E+03  0.86410878051E+03  0.25500000920E-02 0.  1.
        2   -1    0    0  501    0  0.00000000000E+00  0.00000000000E+00 -0.73522009505E+03  0.73522009505E+03  0.25500000920E-02 0. -1.
    10030    2    1    2    0    0  0.00000000000E+00  0.00000000000E+00  0.12888868546E+03  0.15993288756E+04  0.15941268955E+04 0.  0.
        3    1    3    3  502    0  0.62721452088E+03 -0.24787857130E+03 -0.36175751542E+03  0.76531715744E+03  0.10100000352E+00 0. -1.
       -3    1    3    3    0  502 -0.62721452088E+03  0.24787857130E+03  0.49064620088E+03  0.83401171812E+03  0.10100000352E+00 0.  1.
</event>
<event>
 5   0  0.7553070E-04  0.1816519E+04  0.7818609E-02  0.8697564E-01
       -2   -1    0    0    0  501  0.00000000000E+00  0.00000000000E+00  0.55094218588E+03  0.55094218589E+03  0.25500000920E-02 0.  1.
        2   -1    0    0  501    0  0.00000000000E+00  0.00000000000E+00 -0.14973176468E+04  0.14973176468E+04  0.25500000920E-02 0. -1.
    10030    2    1    2    0    0  0.00000000000E+00  0.00000000000E+00 -0.94637546090E+03  0.20482598327E+04  0.18165191519E+04 0.  0.
        4    1    3    3  502    0 -0.87636585719E+03  0.20188949927E+03 -0.32985999072E+03  0.95790694326E+03  0.12699999809E+01 0.  1.
       -4    1    3    3    0  502  0.87636585719E+03 -0.20188949927E+03 -0.61651547018E+03  0.10903528894E+04  0.12699999809E+01 0. -1.
</event>
<event>
 5   0  0.3973227E-04  0.1637219E+04  0.7818609E-02  0.8798004E-01
       -1   -1    0    0    0  501  0.00000000000E+00  0.00000000000E+00  0.37084500338E+03  0.37084500341E+03  0.50400001928E-02 0. -1.
        1   -1    0    0  501    0  0.00000000000E+00  0.00000000000E+00 -0.18070115888E+04  0.18070115889E+04  0.50400001928E-02 0.  1.
    10030    2    1    2    0    0  0.00000000000E+00  0.00000000000E+00 -0.14361665855E+04  0.21778565923E+04  0.16372186400E+04 0.  0.
        3    1    3    3  502    0 -0.85477226722E+02 -0.80933230828E+03 -0.83553528354E+03  0.11663808819E+04  0.10100000352E+00 0.  1.
       -3    1    3    3    0  502  0.85477226722E+02  0.80933230828E+03 -0.60063130194E+03  0.10114757103E+04  0.10100000352E+00 0. -1.
</event>
<event>
 5   0  0.3950195E-04  0.1500947E+04  0.7818609E-02  0.8883823E-01
        1   -1    0    0  501    0  0.00000000000E+00  0.00000000000E+00  0.77528076463E+03  0.77528076465E+03  0.50400001928E-02 0.  1.
       -1   -1    0    0    0  501  0.00000000000E+00  0.00000000000E+00 -0.72646048237E+03  0.72646048238E+03  0.50400001928E-02 0. -1.
    10030    2    1    2    0    0  0.00000000000E+00  0.00000000000E+00  0.48820282264E+02  0.15017412470E+04  0.15009474851E+04 0.  0.
        2    1    3    3  502    0 -0.62663294367E+03 -0.27228704523E+03  0.33506066253E+03  0.76096959774E+03  0.25500000920E-02 0. -1.
       -2    1    3    3    0  502  0.62663294367E+03  0.27228704523E+03 -0.28624038027E+03  0.74077164929E+03  0.25500000920E-02 0.  1.
</event>
<event>
 5   0  0.4110803E-04  0.1591715E+04  0.7818609E-02  0.8825654E-01
       -1   -1    0    0    0  501  0.00000000000E+00  0.00000000000E+00  0.70658589791E+03  0.70658589793E+03  0.50400001928E-02 0. -1.
        1   -1    0    0  501    0  0.00000000000E+00  0.00000000000E+00 -0.89640839846E+03  0.89640839847E+03  0.50400001928E-02 0.  1.
    10030    2    1    2    0    0  0.00000000000E+00  0.00000000000E+00 -0.18982250055E+03  0.16029942964E+04  0.15917154685E+04 0.  0.
        5    1    3    3  502    0 -0.23741067898E+03 -0.49401911944E+03  0.48619455833E+03  0.73268407886E+03  0.46999998093E+01 0. -1.
       -5    1    3    3    0  502  0.23741067898E+03  0.49401911944E+03 -0.67601705888E+03  0.87031021754E+03  0.46999998093E+01 0.  1.
</event>
<event>
 5   0  0.7553070E-04  0.1596114E+04  0.7818609E-02  0.8822939E-01
       -2   -1    0    0    0  501  0.00000000000E+00  0.00000000000E+00  0.21849961758E+03  0.21849961760E+03  0.25500000920E-02 0. -1.
        2   -1    0    0  501    0  0.00000000000E+00  0.00000000000E+00 -0.29148579878E+04  0.29148579878E+04  0.25500000920E-02 0.  1.
    10030    2    1    2    0    0  0.00000000000E+00  0.00000000000E+00 -0.26963583702E+04  0.31333576054E+04  0.15961144767E+04 0.  0.
        4    1    3    3  502    0 -0.70673481829E+03  0.82270114259E+02 -0.20577614305E+04  0.21772979109E+04  0.12699999809E+01 0.  1.
       -4    1    3    3    0  502  0.70673481829E+03 -0.82270114259E+02 -0.63859693965E+03  0.95605969443E+03  0.12699999809E+01 0. -1.
</event>
<event>
 5   0  0.3889847E-04  0.1587803E+04  0.7818609E-02  0.8828076E-01
       -1   -1    0    0    0  501  0.00000000000E+00  0.00000000000E+00  0.71791148109E+03  0.71791148110E+03  0.50400001928E-02 0.  1.
        1   -1    0    0  501    0  0.00000000000E+00  0.00000000000E+00 -0.87793493948E+03  0.87793493949E+03  0.50400001928E-02 0. -1.
    10030    2    1    2    0    0  0.00000000000E+00  0.00000000000E+00 -0.16002345839E+03  0.15958464206E+04  0.15878029761E+04 0.  0.
        1    1    3    3  502    0  0.41904108961E+03 -0.59759784366E+03 -0.39394150075E+03  0.82940250999E+03  0.50400001928E-02 0. -1.
       -1    1    3    3    0  502 -0.41904108961E+03  0.59759784366E+03  0.23391804236E+03  0.76644391061E+03  0.50400001928E-02 0.  1.
</event>
<event>
 5   0  0.4110803E-04  0.1603413E+04  0.7818609E-02  0.8818454E-01
        1   -1    0    0  501    0  0.00000000000E+00  0.00000000000E+00  0.13400413076E+04  0.13400413076E+04  0.50400001928E-02 0. -1.
       -1   -1    0    0    0  501  0.00000000000E+00  0.00000000000E+00 -0.47963680697E+03  0.47963680700E+03  0.50400001928E-02 0.  1.
    10030    2    1    2    0    0  0.00000000000E+00  0.00000000000E+00  0.86040450064E+03  0.18196781146E+04  0.16034127778E+04 0.  0.
        5    1    3    3  502    0  0.17249815501E+03  0.57548923122E+03  0.10326158102E+04  0.11946802795E+04  0.46999998093E+01 0. -1.
       -5    1    3    3    0  502 -0.17249815501E+03 -0.57548923122E+03 -0.17221130959E+03  0.62499783510E+03  0.46999998093E+01 0.  1.
</event>
<event>
 5   0  0.3889847E-04  0.1582877E+04  0.7818609E-02  0.8831137E-01
        1   -1    0    0  501    0  0.00000000000E+00  0.00000000000E+00  0.13448950347E+04  0.13448950347E+04  0.50400001928E-02 0.  1.
       -1   -1    0    0    0  501  0.00000000000E+00  0.00000000000E+00 -0.46574238653E+03  0.46574238655E+03  0.50400001928E-02 0. -1.
    10030    2    1    2    0    0  0.00000000000E+00  0.00000000000E+00  0.87915264818E+03  0.18106374213E+04  0.15828766511E+04 0.  0.
        1    1    3    3  502    0  0.69844682829E+03  0.16762727946E+03  0.59419449659E+02  0.72073403402E+03  0.50400001928E-02 0. -1.
       -1    1    3    3    0  502 -0.69844682829E+03 -0.16762727946E+03  0.81973319852E+03  0.10899033873E+04  0.50400001928E-02 0.  1.
</event>
<event>
 5   0  0.3950195E-04  0.1594332E+04  0.7818609E-02  0.8824038E-01
       -1   -1    0    0    0  501  0.00000000000E+00  0.00000000000E+00  0.81883921321E+03  0.81883921323E+03  0.50400001928E-02 0. -1.
        1   -1    0    0  501    0  0.00000000000E+00  0.00000000000E+00 -0.77606597805E+03  0.77606597807E+03  0.50400001928E-02 0.  1.
    10030    2    1    2    0    0  0.00000000000E+00  0.00000000000E+00  0.42773235158E+02  0.15949051913E+04  0.15943315275E+04 0.  0.
        2    1    3    3  502    0 -0.12462291854E+03 -0.13527866005E+03 -0.75454836959E+03  0.77664305170E+03  0.25500000920E-02 0.  1.
       -2    1    3    3    0  502  0.12462291854E+03  0.13527866005E+03  0.79732160475E+03  0.81826213960E+03  0.25500000920E-02 0. -1.
</event>
<event>
 5   0  0.7415102E-04  0.1608758E+04  0.7818609E-02  0.8815186E-01
       -2   -1    0    0    0  501  0.00000000000E+00  0.00000000000E+00  0.10476147789E+04  0.10476147789E+04  0.25500000920E-02 0. -1.
        2   -1    0    0  501    0  0.00000000000E+00  0.00000000000E+00 -0.61761790093E+03  0.61761790093E+03  0.25500000920E-02 0.  1.
    10030    2    1    2    0    0  0.00000000000E+00  0.00000000000E+00  0.42999687793E+03  0.16652326798E+04  0.16087580809E+04 0.  0.
        5    1    3    3  502    0  0.10479390719E+02 -0.15392226395E+03 -0.60214535739E+03  0.62161322572E+03  0.46999998093E+01 0.  1.
       -5    1    3    3    0  502 -0.10479390719E+02  0.15392226395E+03  0.10321422353E+04  0.10436194541E+04  0.46999998093E+01 0. -1.
</event>
<event>
 5   0  0.7553070E-04  0.1610187E+04  0.7818609E-02  0.8814314E-01
        2   -1    0    0  501    0  0.00000000000E+00  0.00000000000E+00  0.14945203091E+04  0.14945203091E+04  0.25500000920E-02 0. -1.
       -2   -1    0    0    0  501  0.00000000000E+00  0.00000000000E+00 -0.43370163495E+03  0.43370163496E+03  0.25500000920E-02 0.  1.
    10030    2    1    2    0    0  0.00000000000E+00  0.00000000000E+00  0.10608186742E+04  0.19282219441E+04  0.16101874444E+04 0.  0.
        4    1    3    3  502    0 -0.13149984951E+03 -0.64928826596E+03 -0.17454053665E+02  0.66270183312E+03  0.12699999809E+01 0.  1.
       -4    1    3    3    0  502  0.13149984951E+03  0.64928826596E+03  0.10782727278E+04  0.12655201109E+04  0.12699999809E+01 0. -1.
</event>
<event>
 5   0  0.3973227E-04  0.1588895E+04  0.7818609E-02  0.8827399E-01
       -1   -1    0    0    0  501  0.00000000000E+00  0.00000000000E+00  0.62945160667E+03  0.62945160669E+03  0.50400001928E-02 0. -1.
        1   -1    0    0  501    0  0.00000000000E+00  0.00000000000E+00 -0.10026937837E+04  0.10026937837E+04  0.50400001928E-02 0.  1.
    10030    2    1    2    0    0  0.00000000000E+00  0.00000000000E+00 -0.37324217701E+03  0.16321453904E+04  0.15888954820E+04 0.  0.
        3    1    3    3  502    0 -0.54759196729E+03  0.92034007075E+02 -0.77025929881E+03  0.94954021437E+03  0.10100000352E+00 0.  1.
       -3    1    3    3    0  502  0.54759196729E+03 -0.92034007075E+02  0.39701712181E+03  0.68260517600E+03  0.10100000352E+00 0. -1.
</event>
<event>
 5   0  0.3950195E-04  0.1607044E+04  0.7818609E-02  0.8816232E-01
        1   -1    0    0  501    0  0.00000000000E+00  0.00000000000E+00  0.14770745615E+04  0.14770745615E+04  0.50400001928E-02 0. -1.
       -1   -1    0    0    0  501  0.00000000000E+00  0.00000000000E+00 -0.43711237204E+03  0.43711237207E+03  0.50400001928E-02 0.  1.
    10030    2    1    2    0    0  0.00000000000E+00  0.00000000000E+00  0.10399621895E+04  0.19141869336E+04  0.16070439512E+04 0.  0.
        2    1    3    3  502    0 -0.28898197777E+03  0.31020146371E+03  0.13330148123E+04  0.13988080717E+04  0.25500000920E-02 0. -1.
       -2    1    3    3    0  502  0.28898197777E+03 -0.31020146371E+03 -0.29305262282E+03  0.51537886192E+03  0.25500000920E-02 0.  1.
</event>
<event>
 5   0  0.7553070E-04  0.1635228E+04  0.7818609E-02  0.8799193E-01
       -2   -1    0    0    0  501  0.00000000000E+00  0.00000000000E+00  0.51060714361E+03  0.51060714361E+03  0.25500000920E-02 0. -1.
        2   -1    0    0  501    0  0.00000000000E+00  0.00000000000E+00 -0.13092119079E+04  0.13092119079E+04  0.25500000920E-02 0.  1.
    10030    2    1    2    0    0  0.00000000000E+00  0.00000000000E+00 -0.79860476432E+03  0.18198190515E+04  0.16352283665E+04 0.  0.
        4    1    3    3  502    0 -0.16349495542E+03 -0.49020456629E+03 -0.11044354074E+04  0.12193483092E+04  0.12699999809E+01 0.  1.
       -4    1    3    3    0  502  0.16349495542E+03  0.49020456629E+03  0.30583064305E+03  0.60047074232E+03  0.12699999809E+01 0. -1.
</event>
<event>
 5   0  0.3889847E-04  0.1579834E+04  0.7818609E-02  0.8833033E-01
        1   -1    0    0  501    0  0.00000000000E+00  0.00000000000E+00  0.12107108176E+04  0.12107108176E+04  0.50400001928E-02 0.  1.
       -1   -1    0    0    0  501  0.00000000000E+00  0.00000000000E+00 -0.51537428129E+03  0.51537428132E+03  0.50400001928E-02 0. -1.
    10030    2    1    2    0    0  0.00000000000E+00  0.00000000000E+00  0.69533653634E+03  0.17260850990E+04  0.15798344439E+04 0.  0.
        1    1    3    3  502    0 -0.43378237687E+03  0.37450350385E+03  0.94163964058E+03  0.11023181200E+04  0.50400001928E-02 0.  1.
       -1    1    3    3    0  502  0.43378237687E+03 -0.37450350385E+03 -0.24630310425E+03  0.62376697898E+03  0.50400001928E-02 0. -1.
</event>
<event>
 5   0  0.7395088E-04  0.1534332E+04  0.7818609E-02  0.8861938E-01
        2   -1    0    0  501    0  0.00000000000E+00  0.00000000000E+00  0.97641411090E+03  0.97641411091E+03  0.25500000920E-02 0. -1.
       -2   -1    0    0    0  501  0.00000000000E+00  0.00000000000E+00 -0.60276064996E+03  0.60276064997E+03  0.25500000920E-02 0.  1.
    10030    2    1    2    0    0  0.00000000000E+00  0.00000000000E+00  0.37365346094E+03  0.15791747609E+04  0.15343324335E+04 0.  0.
        1    1    3    3  502    0 -0.52556142441E+03  0.41581888490E+03  0.57113458574E+03  0.88051965959E+03  0.50400001928E-02 0.  1.
       -1    1    3    3    0  502  0.52556142441E+03 -0.41581888490E+03 -0.19748112480E+03  0.69865510128E+03  0.50400001928E-02 0. -1.
</event>
<event>
 5   0  0.3889847E-04  0.1562231E+04  0.7818609E-02  0.8844093E-01
        1   -1    0    0  501    0  0.00000000000E+00  0.00000000000E+00  0.10660440808E+04  0.10660440808E+04  0.50400001928E-02 0. -1.
       -1   -1    0    0    0  501  0.00000000000E+00  0.00000000000E+00 -0.57234135648E+03  0.57234135651E+03  0.50400001928E-02 0.  1.
    10030    2    1    2    0    0  0.00000000000E+00  0.00000000000E+00  0.49370272427E+03  0.16383854373E+04  0.15622306043E+04 0.  0.
        1    1    3    3  502    0 -0.17747336260E+03  0.74401138667E+03  0.80727052787E+02  0.76913366524E+03  0.50400001928E-02 0. -1.
       -1    1    3    3    0  502  0.17747336260E+03 -0.74401138667E+03  0.41297567149E+03  0.86925177204E+03  0.50400001928E-02 0.  1.
</event>
<event>
 5   0  0.3889847E-04  0.1574024E+04  0.7818609E-02  0.8836667E-01
       -1   -1    0    0    0  501  0.00000000000E+00  0.00000000000E+00  0.52244093110E+03  0.52244093112E+03  0.50400001928E-02 0. -1.
        1   -1    0    0  501    0  0.00000000000E+00  0.00000000000E+00 -0.11855650414E+04  0.11855650415E+04  0.50400001928E-02 0.  1.
    10030    2    1    2    0    0  0.00000000000E+00  0.00000000000E+00 -0.66312411035E+03  0.17080059726E+04  0.15740237662E+04 0.  0.
        1    1    3    3  502    0  0.59049660431E+03 -0.40654627225E+03 -0.68388658955E+03  0.99079108725E+03  0.50400001928E-02 0.  1.
       -1    1    3    3    0  502 -0.59049660431E+03  0.40654627225E+03  0.20762479200E+02  0.71721488533E+03  0.50400001928E-02 0. -1.
</event>
<event>
 5   0  0.7488884E-04  0.1579265E+04  0.7818609E-02  0.8833389E-01
        2   -1    0    0  501    0  0.00000000000E+00  0.00000000000E+00  0.21299557484E+04  0.21299557484E+04  0.25500000920E-02 0.  1.
       -2   -1    0    0    0  501  0.00000000000E+00  0.00000000000E+00 -0.29273805122E+03  0.29273805123E+03  0.25500000920E-02 0. -1.
    10030    2    1    2    0    0  0.00000000000E+00  0.00000000000E+00  0.18372176972E+04  0.24226937996E+04  0.15792645060E+04 0.  0.
        3    1    3    3  502    0 -0.18747242881E+03 -0.44209007157E+03  0.18802233280E+04  0.19405744810E+04  0.10100000352E+00 0.  1.
       -3    1    3    3    0  502  0.18747242881E+03  0.44209007157E+03 -0.43005630794E+02  0.48211931866E+03  0.10100000352E+00 0. -1.
</event>
<event>
 5   0  0.4110803E-04  0.1590241E+04  0.7818609E-02  0.8826566E-01
       -1   -1    0    0    0  501  0.00000000000E+00  0.00000000000E+00  0.60046857321E+03  0.60046857323E+03  0.50400001928E-02 0.  1.
        1   -1    0    0  501    0  0.00000000000E+00  0.00000000000E+00 -0.10528726414E+04  0.10528726414E+04  0.50400001928E-02 0. -1.
    10030    2    1    2    0    0  0.00000000000E+00  0.00000000000E+00 -0.45240406822E+03  0.16533412147E+04  0.15902414066E+04 0.  0.
        5    1    3    3  502    0 -0.10360419708E+03  0.10080745799E+03 -0.10390816459E+04  0.10490990087E+04  0.46999998093E+01 0. -1.
       -5    1    3    3    0  502  0.10360419708E+03 -0.10080745799E+03  0.58667757771E+03  0.60424220593E+03  0.46999998093E+01 0.  1.
</event>
<event>
 5   0  0.7488884E-04  0.1601817E+04  0.7818609E-02  0.8819432E-01
        2   -1    0    0  501    0  0.00000000000E+00  0.00000000000E+00  0.15198000239E+04  0.15198000239E+04  0.25500000920E-02 0. -1.
       -2   -1    0    0    0  501  0.00000000000E+00  0.00000000000E+00 -0.42206515384E+03  0.42206515385E+03  0.25500000920E-02 0.  1.
    10030    2    1    2    0    0  0.00000000000E+00  0.00000000000E+00  0.10977348701E+04  0.19418651778E+04  0.16018172566E+04 0.  0.
        3    1    3    3  502    0  0.68439382005E+03  0.38583665617E+03  0.73741555044E+03  0.10775186914E+04  0.10100000352E+00 0. -1.
       -3    1    3    3    0  502 -0.68439382005E+03 -0.38583665617E+03  0.36031931967E+03  0.86434648636E+03  0.10100000352E+00 0.  1.
</event>
<event>
 5   0  0.7553070E-04  0.1594420E+04  0.7818609E-02  0.8823983E-01
        2   -1    0    0  501    0  0.00000000000E+00  0.00000000000E+00  0.10460359239E+04  0.10460359239E+04  0.25500000920E-02 0. -1.
       -2   -1    0    0    0  501  0.00000000000E+00  0.00000000000E+00 -0.60757389416E+03  0.60757389416E+03  0.25500000920E-02 0.  1.
    10030    2    1    2    0    0  0.00000000000E+00  0.00000000000E+00  0.43846202978E+03  0.16536098181E+04  0.15944204210E+04 0.  0.
        4    1    3    3  502    0  0.41961943457E+03  0.61343709941E+03  0.51830559493E+03  0.90610586989E+03  0.12699999809E+01 0. -1.
       -4    1    3    3    0  502 -0.41961943457E+03 -0.61343709941E+03 -0.79843565148E+02  0.74750394822E+03  0.12699999809E+01 0.  1.
</event>
<event>
 5   0  0.7488884E-04  0.1575965E+04  0.7818609E-02  0.8835451E-01
       -2   -1    0    0    0  501  0.00000000000E+00  0.00000000000E+00  0.59908568242E+03  0.59908568243E+03  0.25500000920E-02 0. -1.
        2   -1    0    0  501    0  0.00000000000E+00  0.00000000000E+00 -0.10364395151E+04  0.10364395151E+04  0.25500000920E-02 0.  1.
    10030    2    1    2    0    0  0.00000000000E+00  0.00000000000E+00 -0.43735383264E+03  0.16355251975E+04  0.15759645607E+04 0.  0.
        3    1    3    3  502    0  0.46819022316E+03  0.35109356396E+03  0.32894685105E+03  0.67132318352E+03  0.10100000352E+00 0. -1.
       -3    1    3    3    0  502 -0.46819022316E+03 -0.35109356396E+03 -0.76630068369E+03  0.96420201397E+03  0.10100000352E+00 0.  1.
</event>
<event>
 5   0  0.7395088E-04  0.1523258E+04  0.7818609E-02  0.8869132E-01
        2   -1    0    0  501    0  0.00000000000E+00  0.00000000000E+00  0.11580990222E+04  0.11580990222E+04  0.25500000920E-02 0. -1.
       -2   -1    0    0    0  501  0.00000000000E+00  0.00000000000E+00 -0.50088902139E+03  0.50088902140E+03  0.25500000920E-02 0.  1.
    10030    2    1    2    0    0  0.00000000000E+00  0.00000000000E+00  0.65721000081E+03  0.16589880436E+04  0.15232584625E+04 0.  0.
        1    1    3    3  502    0  0.58721535515E+03  0.18412844781E+03  0.81731329352E+03  0.10230963681E+04  0.50400001928E-02 0. -1.
       -1    1    3    3    0  502 -0.58721535515E+03 -0.18412844781E+03 -0.16010329271E+03  0.63589167550E+03  0.50400001928E-02 0.  1.
</event>
<event>
 5   0  0.3950195E-04  0.1607428E+04  0.7818609E-02  0.8815998E-01
       -1   -1    0    0    0  501  0.00000000000E+00  0.00000000000E+00  0.69762763820E+03  0.69762763822E+03  0.50400001928E-02 0. -1.
        1   -1    0    0  501    0  0.00000000000E+00  0.00000000000E+00 -0.92593228457E+03  0.92593228459E+03  0.50400001928E-02 0.  1.
    10030    2    1    2    0    0  0.00000000000E+00  0.00000000000E+00 -0.22830464638E+03  0.16235599228E+04  0.16074277002E+04 0.  0.
        2    1    3    3  502    0 -0.19511474306E+02  0.72128638837E+03 -0.47171250434E+03  0.86205999700E+03  0.25500000920E-02 0.  1.
       -2    1    3    3    0  502  0.19511474306E+02 -0.72128638837E+03  0.24340785797E+03  0.76149992580E+03  0.25500000920E-02 0. -1.
</event>
<event>
 5   0  0.3837251E-04  0.1551275E+04  0.7818609E-02  0.8851054E-01
        1   -1    0    0  501    0  0.00000000000E+00  0.00000000000E+00  0.52359499480E+03  0.52359499483E+03  0.50400001928E-02 0. -1.
       -1   -1    0    0    0  501  0.00000000000E+00  0.00000000000E+00 -0.11490048143E+04  0.11490048143E+04  0.50400001928E-02 0.  1.
    10030    2    1    2    0    0  0.00000000000E+00  0.00000000000E+00 -0.62540981945E+03  0.16725998091E+04  0.15512745338E+04 0.  0.
        4    1    3    3  502    0  0.66447007876E+02 -0.13103444186E+03  0.50845404467E+03  0.52925642013E+03  0.12699999809E+01 0. -1.
       -4    1    3    3    0  502 -0.66447007876E+02  0.13103444186E+03 -0.11338638641E+04  0.11433433890E+04  0.12699999809E+01 0.  1.
</event>
<event>
 5   0  0.7415102E-04  0.1614942E+04  0.7818609E-02  0.8811421E-01
       -2   -1    0    0    0  501  0.00000000000E+00  0.00000000000E+00  0.71558365855E+03  0.71558365856E+03  0.25500000920E-02 0.  1.
        2   -1    0    0  501    0  0.00000000000E+00  0.00000000000E+00 -0.91115709949E+03  0.91115709949E+03  0.25500000920E-02 0. -1.
    10030    2    1    2    0    0  0.00000000000E+00  0.00000000000E+00 -0.19557344093E+03  0.16267407580E+04  0.16149416470E+04 0.  0.
        5    1    3    3  502    0 -0.25670440571E+03 -0.39867784561E+03  0.56055232958E+03  0.73422216031E+03  0.46999998093E+01 0.  1.
       -5    1    3    3    0  502  0.25670440571E+03  0.39867784561E+03 -0.75612577051E+03  0.89251859774E+03  0.46999998093E+01 0. -1.
</event>
<event>
 5   0  0.3889847E-04  0.1574104E+04  0.7818609E-02  0.8836617E-01
       -1   -1    0    0    0  501  0.00000000000E+00  0.00000000000E+00  0.37425419273E+03  0.37425419277E+03  0.50400001928E-02 0. -1.
        1   -1    0    0  501    0  0.00000000000E+00  0.00000000000E+00 -0.16551605605E+04  0.16551605605E+04  0.50400001928E-02 0.  1.
    10030    2    1    2    0    0  0.00000000000E+00  0.00000000000E+00 -0.12809063678E+04  0.20294147533E+04  0.15741039095E+04 0.  0.
        1    1    3    3  502    0  0.16028832490E+03 -0.32318657846E+03 -0.15422920730E+04  0.15839213206E+04  0.50400001928E-02 0.  1.
       -1    1    3    3    0  502 -0.16028832490E+03  0.32318657846E+03  0.26138570522E+03  0.44549343263E+03  0.50400001928E-02 0. -1.
</event>
<event>
 5   0  0.3837251E-04  0.1574663E+04  0.7818609E-02  0.8836267E-01
       -1   -1    0    0    0  501  0.00000000000E+00  0.00000000000E+00  0.88840423384E+03  0.88840423385E+03  0.50400001928E-02 0. -1.
        1   -1    0    0  501    0  0.00000000000E+00  0.00000000000E+00 -0.69775733953E+03  0.69775733955E+03  0.50400001928E-02 0.  1.
    10030    2    1    2    0    0  0.00000000000E+00  0.00000000000E+00  0.19064689431E+03  0.15861615734E+04  0.15746625983E+04 0.  0.
        4    1    3    3  502    0 -0.17057028612E+03 -0.32237051325E+03  0.79818098674E+03  0.87755995283E+03  0.12699999809E+01 0. -1.
       -4    1    3    3    0  502  0.17057028612E+03  0.32237051325E+03 -0.60753409243E+03  0.70860162057E+03  0.12699999809E+01 0.  1.
</event>
<event>
 5   0  0.4110803E-04  0.1611774E+04  0.7818609E-02  0.8813347E-01
        1   -1    0    0  501    0  0.00000000000E+00  0.00000000000E+00  0.91608759702E+03  0.91608759704E+03  0.50400001928E-02 0. -1.
       -1   -1    0    0    0  501  0.00000000000E+00  0.00000000000E+00 -0.70894307273E+03  0.70894307274E+03  0.50400001928E-02 0.  1.
    10030    2    1    2    0    0  0.00000000000E+00  0.00000000000E+00  0.20714452430E+03  0.16250306698E+04  0.16117741231E+04 0.  0.
        5    1    3    3  502    0  0.26809043553E+03  0.16478511713E+03  0.85156721378E+03  0.90786310974E+03  0.46999998093E+01 0. -1.
       -5    1    3    3    0  502 -0.26809043553E+03 -0.16478511713E+03 -0.64442268948E+03  0.71716756004E+03  0.46999998093E+01 0.  1.
</event>
<event>
 5   0  0.7553070E-04  0.1651003E+04  0.7818609E-02  0.8789813E-01
       -2   -1    0    0    0  501  0.00000000000E+00  0.00000000000E+00  0.90969437237E+03  0.90969437238E+03  0.25500000920E-02 0.  1.
        2   -1    0    0  501    0  0.00000000000E+00  0.00000000000E+00 -0.74910088764E+03  0.74910088765E+03  0.25500000920E-02 0. -1.
    10030    2    1    2    0    0  0.00000000000E+00  0.00000000000E+00  0.16059348473E+03  0.16587952600E+04  0.16510031639E+04 0.  0.
        4    1    3    3  502    0 -0.70781577891E+03 -0.42065919751E+03  0.20908450039E+02  0.82364805196E+03  0.12699999809E+01 0. -1.
       -4    1    3    3    0  502  0.70781577891E+03  0.42065919751E+03  0.13968503469E+03  0.83514720806E+03  0.12699999809E+01 0.  1.
</event>
<event>
 5   0  0.3889847E-04  0.1598129E+04  0.7818609E-02  0.8821698E-01
        1   -1    0    0  501    0  0.00000000000E+00  0.00000000000E+00  0.22741428134E+04  0.22741428134E+04  0.50400001928E-02 0. -1.
       -1   -1    0    0    0  501  0.00000000000E+00  0.00000000000E+00 -0.28076693744E+03  0.28076693748E+03  0.50400001928E-02 0.  1.
    10030    2    1    2    0    0  0.00000000000E+00  0.00000000000E+00  0.19933758759E+04  0.25549097509E+04  0.15981290474E+04 0.  0.
        1    1    3    3  502    0  0.27113697706E+03  0.75156891376E+03  0.10151263347E+04  0.12918407672E+04  0.50400001928E-02 0. -1.
       -1    1    3    3    0  502 -0.27113697706E+03 -0.75156891376E+03  0.97824954128E+03  0.12630689837E+04  0.50400001928E-02 0.  1.
</event>
<event>
 5   0  0.7770905E-04  0.1606204E+04  0.7818609E-02  0.8816746E-01
        2   -1    0    0  501    0  0.00000000000E+00  0.00000000000E+00  0.15279755493E+04  0.15279755493E+04  0.25500000920E-02 0. -1.
       -2   -1    0    0    0  501  0.00000000000E+00  0.00000000000E+00 -0.42210935109E+03  0.42210935110E+03  0.25500000920E-02 0.  1.
    10030    2    1    2    0    0  0.00000000000E+00  0.00000000000E+00  0.11058661982E+04  0.19500849004E+04  0.16062039318E+04 0.  0.
        2    1    3    3  502    0 -0.12481610302E+03  0.49054746168E+03 -0.20405994309E+03  0.54576215709E+03  0.25500000920E-02 0.  1.
       -2    1    3    3    0  502  0.12481610302E+03 -0.49054746168E+03  0.13099261413E+04  0.14043227433E+04  0.25500000920E-02 0. -1.
</event>
<event>
 5   0  0.7415102E-04  0.1581720E+04  0.7818609E-02  0.8831858E-01
       -2   -1    0    0    0  501  0.00000000000E+00  0.00000000000E+00  0.73455331556E+03  0.73455331556E+03  0.25500000920E-02 0. -1.
        2   -1    0    0  501    0  0.00000000000E+00  0.00000000000E+00 -0.85148262237E+03  0.85148262237E+03  0.25500000920E-02 0.  1.
    10030    2    1    2    0    0  0.00000000000E+00  0.00000000000E+00 -0.11692930681E+03  0.15860359379E+04  0.15817198025E+04 0.  0.
        5    1    3    3  502    0 -0.26383348395E+03 -0.72836384950E+03 -0.21800661072E+03  0.80478007980E+03  0.46999998093E+01 0.  1.
       -5    1    3    3    0  502  0.26383348395E+03  0.72836384950E+03  0.10107730391E+03  0.78125585814E+03  0.46999998093E+01 0. -1.
</event>
<event>
 5   0  0.3973227E-04  0.1604661E+04  0.7818609E-02  0.8817690E-01
       -1   -1    0    0    0  501  0.00000000000E+00  0.00000000000E+00  0.13098811150E+04  0.13098811150E+04  0.50400001928E-02 0.  1.
        1   -1    0    0  501    0  0.00000000000E+00  0.00000000000E+00 -0.49144472594E+03  0.49144472597E+03  0.50400001928E-02 0. -1.
    10030    2    1    2    0    0  0.00000000000E+00  0.00000000000E+00  0.81843638905E+03  0.18013258410E+04  0.16046609182E+04 0.  0.
        3    1    3    3  502    0 -0.46630771716E+03 -0.63811504383E+03  0.56436073814E+03  0.97115227910E+03  0.10100000352E+00 0. -1.
       -3    1    3    3    0  502  0.46630771716E+03  0.63811504383E+03  0.25407565091E+03  0.83017356187E+03  0.10100000352E+00 0.  1.
</event>
<event>
 5   0  0.4110803E-04  0.1599735E+04  0.7818609E-02  0.8820711E-01
       -1   -1    0    0    0  501  0.00000000000E+00  0.00000000000E+00  0.30970156753E+03  0.30970156757E+03  0.50400001928E-02 0. -1.
        1   -1    0    0  501    0  0.00000000000E+00  0.00000000000E+00 -0.20658201405E+04  0.20658201405E+04  0.50400001928E-02 0.  1.
    10030    2    1    2    0    0  0.00000000000E+00  0.00000000000E+00 -0.17561185729E+04  0.23755217080E+04  0.15997346477E+04 0.  0.
        5    1    3    3  502    0 -0.10339132629E+03  0.67664765400E+03 -0.14925186382E+04  0.16420035899E+04  0.46999998093E+01 0.  1.
       -5    1    3    3    0  502  0.10339132629E+03 -0.67664765400E+03 -0.26359993476E+03  0.73351811813E+03  0.46999998093E+01 0. -1.
</event>
<event>
 5   0  0.7770905E-04  0.1619402E+04  0.7818609E-02  0.8808717E-01
       -2   -1    0    0    0  501  0.00000000000E+00  0.00000000000E+00  0.54700768256E+03  0.54700768256E+03  0.25500000920E-02 0. -1.
        2   -1    0    0  501    0  0.00000000000E+00  0.00000000000E+00 -0.11985487092E+04  0.11985487092E+04  0.25500000920E-02 0.  1.
    10030    2    1    2    0    0  0.00000000000E+00  0.00000000000E+00 -0.65154102664E+03  0.17455563918E+04  0.16194015584E+04 0.  0.
        2    1    3    3  502    0 -0.62881779581E+03 -0.30941947173E+03 -0.76290351582E+03  0.10359411201E+04  0.25500000920E-02 0.  1.
       -2    1    3    3    0  502  0.62881779581E+03  0.30941947173E+03  0.11136248918E+03  0.70961527169E+03  0.25500000920E-02 0. -1.
</event>
<event>
 5   0  0.3837251E-04  0.1600782E+04  0.7818609E-02  0.8820068E-01
        1   -1    0    0  501    0  0.00000000000E+00  0.00000000000E+00  0.11619848221E+04  0.11619848221E+04  0.50400001928E-02 0. -1.
       -1   -1    0    0    0  501  0.00000000000E+00  0.00000000000E+00 -0.55132007101E+03  0.55132007103E+03  0.50400001928E-02 0.  1.
    10030    2    1    2    0    0  0.00000000000E+00  0.00000000000E+00  0.61066475111E+03  0.17133048932E+04  0.16007817524E+04 0.  0.
        4    1    3    3  502    0  0.76407994064E+03  0.32349349840E+02  0.52599808472E+02  0.76657223331E+03  0.12699999809E+01 0.  1.
       -4    1    3    3    0  502 -0.76407994064E+03 -0.32349349840E+02  0.55806494264E+03  0.94673265985E+03  0.12699999809E+01 0. -1.
</event>
<event>
 5   0  0.7488884E-04  0.1605883E+04  0.7818609E-02  0.8816942E-01
        2   -1    0    0  501    0  0.00000000000E+00  0.00000000000E+00  0.20832647879E+04  0.20832647879E+04  0.25500000920E-02 0. -1.
       -2   -1    0    0    0  501  0.00000000000E+00  0.00000000000E+00 -0.30947326411E+03  0.30947326412E+03  0.25500000920E-02 0.  1.
    10030    2    1    2    0    0  0.00000000000E+00  0.00000000000E+00  0.17737915238E+04  0.23927380520E+04  0.16058826282E+04 0.  0.
        3    1    3    3  502    0  0.20888350347E+03  0.19166946198E+03  0.20062145420E+04  0.20261456758E+04  0.10100000352E+00 0. -1.
       -3    1    3    3    0  502 -0.20888350347E+03 -0.19166946198E+03 -0.23242301826E+03  0.36659237621E+03  0.10100000352E+00 0.  1.
</event>
<event>
 5   0  0.7415102E-04  0.1600117E+04  0.7818609E-02  0.8820476E-01
       -2   -1    0    0    0  501  0.00000000000E+00  0.00000000000E+00  0.90310948670E+03  0.90310948671E+03  0.25500000920E-02 0.  1.
        2   -1    0    0  501    0  0.00000000000E+00  0.00000000000E+00 -0.70876604185E+03  0.70876604186E+03  0.25500000920E-02 0. -1.
    10030    2    1    2    0    0  0.00000000000E+00  0.00000000000E+00  0.19434344485E+03  0.16118755286E+04  0.16001166661E+04 0.  0.
        5    1    3    3  502    0 -0.47910914169E+03  0.54750570719E+03  0.43242849175E+03  0.84635959234E+03  0.46999998093E+01 0.  1.
       -5    1    3    3    0  502  0.47910914169E+03 -0.54750570719E+03 -0.23808504690E+03  0.76551593623E+03  0.46999998093E+01 0. -1.
</event>
<event>
 5   0  0.7395088E-04  0.1547848E+04  0.7818609E-02  0.8853243E-01
       -2   -1    0    0    0  501  0.00000000000E+00  0.00000000000E+00  0.29097585749E+03  0.29097585750E+03  0.25500000920E-02 0. -1.
        2   -1    0    0  501    0  0.00000000000E+00  0.00000000000E+00 -0.20584473504E+04  0.20584473504E+04  0.25500000920E-02 0.  1.
    10030    2    1    2    0    0  0.00000000000E+00  0.00000000000E+00 -0.17674714929E+04  0.23494232079E+04  0.15478481617E+04 0.  0.
        1    1    3    3  502    0  0.77116230969E+03  0.33926388567E+02 -0.79900445453E+03  0.11109682381E+04  0.50400001928E-02 0.  1.
       -1    1    3    3    0  502 -0.77116230969E+03 -0.33926388567E+02 -0.96846703839E+03  0.12384549698E+04  0.50400001928E-02 0. -1.
</event>
<event>
 5   0  0.3837251E-04  0.1636806E+04  0.7818609E-02  0.8798250E-01
        1   -1    0    0  501    0  0.00000000000E+00  0.00000000000E+00  0.76157128060E+03  0.76157128062E+03  0.50400001928E-02 0. -1.
       -1   -1    0    0    0  501  0.00000000000E+00  0.00000000000E+00 -0.87947561937E+03  0.87947561939E+03  0.50400001928E-02 0.  1.
    10030    2    1    2    0    0  0.00000000000E+00  0.00000000000E+00 -0.11790433877E+03  0.16410469000E+04  0.16368058819E+04 0.  0.
        4    1    3    3  502    0 -0.23759952625E+03 -0.65546619208E+02 -0.84137916199E+03  0.87673850223E+03  0.12699999809E+01 0.  1.
       -4    1    3    3    0  502  0.23759952625E+03  0.65546619208E+02  0.72347482322E+03  0.76430839777E+03  0.12699999809E+01 0. -1.
</event>
<event>
 5   0  0.7395088E-04  0.1499674E+04  0.7818609E-02  0.8884669E-01
       -2   -1    0    0    0  501  0.00000000000E+00  0.00000000000E+00  0.41593274903E+03  0.41593274903E+03  0.25500000920E-02 0.  1.
        2   -1    0    0  501    0  0.00000000000E+00  0.00000000000E+00 -0.13517951089E+04  0.13517951089E+04  0.25500000920E-02 0. -1.
    10030    2    1    2    0    0  0.00000000000E+00  0.00000000000E+00 -0.93586235984E+03  0.17677278579E+04  0.14996744390E+04 0.  0.
        1    1    3    3  502    0  0.59869555097E+03 -0.67462711820E+01  0.64168235320E+02  0.60216230153E+03  0.50400001928E-02 0.  1.
       -1    1    3    3    0  502 -0.59869555097E+03  0.67462711820E+01 -0.10000305952E+04  0.11655655564E+04  0.50400001928E-02 0. -1.
</event>
<event>
 5   0  0.3837251E-04  0.1571417E+04  0.7818609E-02  0.8838303E-01
       -1   -1    0    0    0  501  0.00000000000E+00  0.00000000000E+00  0.12143600617E+04  0.12143600617E+04  0.50400001928E-02 0. -1.
        1   -1    0    0  501    0  0.00000000000E+00  0.00000000000E+00 -0.50836479384E+03  0.50836479386E+03  0.50400001928E-02 0.  1.
    10030    2    1    2    0    0  0.00000000000E+00  0.00000000000E+00  0.70599526783E+03  0.17227248555E+04  0.15714170706E+04 0.  0.
        4    1    3    3  502    0 -0.28654555390E+03 -0.33428226299E+03 -0.36041796231E+03  0.56899534819E+03  0.12699999809E+01 0.  1.
       -4    1    3    3    0  502  0.28654555390E+03  0.33428226299E+03  0.10664132301E+04  0.11537295073E+04  0.12699999809E+01 0. -1.
</event>
<event>
 5   0  0.7553070E-04  0.1623495E+04  0.7818609E-02  0.8806243E-01
       -2   -1    0    0    0  501  0.00000000000E+00  0.00000000000E+00  0.11422596146E+04  0.11422596146E+04  0.25500000920E-02 0.  1.
        2   -1    0    0  501    0  0.00000000000E+00  0.00000000000E+00 -0.57686905896E+03  0.57686905896E+03  0.25500000920E-02 0. -1.
    10030    2    1    2    0    0  0.00000000000E+00  0.00000000000E+00  0.56539055563E+03  0.17191286735E+04  0.16234952774E+04 0.  0.
        4    1    3    3  502    0 -0.32873287085E+03  0.63202709896E+03  0.69472950008E+03  0.99507499485E+03  0.12699999809E+01 0.  1.
       -4    1    3    3    0  502  0.32873287085E+03 -0.63202709896E+03 -0.12933894445E+03  0.72405367870E+03  0.12699999809E+01 0. -1.
</event>
<event>
 5   0  0.3889847E-04  0.1655485E+04  0.7818609E-02  0.8787168E-01
       -1   -1    0    0    0  501  0.00000000000E+00  0.00000000000E+00  0.36881561188E+03  0.36881561192E+03  0.50400001928E-02 0. -1.
        1   -1    0    0  501    0  0.00000000000E+00  0.00000000000E+00 -0.18577245965E+04  0.18577245965E+04  0.50400001928E-02 0.  1.
    10030    2    1    2    0    0  0.00000000000E+00  0.00000000000E+00 -0.14889089846E+04  0.22265402084E+04  0.16554852265E+04 0.  0.
        1    1    3    3  502    0 -0.76519710816E+03 -0.13604089206E+02 -0.11685847107E+04  0.13968900857E+04  0.50400001928E-02 0.  1.
       -1    1    3    3    0  502  0.76519710816E+03  0.13604089206E+02 -0.32032427394E+03  0.82965012269E+03  0.50400001928E-02 0. -1.
</event>
<event>
 5   0  0.7415102E-04  0.1616547E+04  0.7818609E-02  0.8810446E-01
       -2   -1    0    0    0  501  0.00000000000E+00  0.00000000000E+00  0.32969842030E+03  0.32969842031E+03  0.25500000920E-02 0. -1.
        2   -1    0    0  501    0  0.00000000000E+00  0.00000000000E+00 -0.19815264933E+04  0.19815264933E+04  0.25500000920E-02 0.  1.
    10030    2    1    2    0    0  0.00000000000E+00  0.00000000000E+00 -0.16518280730E+04  0.23112249136E+04  0.16165471285E+04 0.  0.
        5    1    3    3  502    0 -0.28015451695E+03  0.59781989206E+03 -0.15927231990E+03  0.67916488322E+03  0.46999998093E+01 0. -1.
       -5    1    3    3    0  502  0.28015451695E+03 -0.59781989206E+03 -0.14925557531E+04  0.16320600304E+04  0.46999998093E+01 0.  1.
</event>
<event>
 5   0  0.7415102E-04  0.1527606E+04  0.7818609E-02  0.8866300E-01
        2   -1    0    0  501    0  0.00000000000E+00  0.00000000000E+00  0.24775882544E+04  0.24775882544E+04  0.25500000920E-02 0. -1.
       -2   -1    0    0    0  501  0.00000000000E+00  0.00000000000E+00 -0.23546905949E+03  0.23546905950E+03  0.25500000920E-02 0.  1.
    10030    2    1    2    0    0  0.00000000000E+00  0.00000000000E+00  0.22421191949E+04  0.27130573139E+04  0.15276064625E+04 0.  0.
        5    1    3    3  502    0 -0.74394842532E+03 -0.90875768037E+02  0.13824157966E+04  0.15725181047E+04  0.46999998093E+01 0. -1.
       -5    1    3    3    0  502  0.74394842532E+03  0.90875768037E+02  0.85970339826E+03  0.11405392092E+04  0.46999998093E+01 0.  1.
</event>
<event>
 5   0  0.7770905E-04  0.1603462E+04  0.7818609E-02  0.8818424E-01
       -2   -1    0    0    0  501  0.00000000000E+00  0.00000000000E+00  0.50422710203E+03  0.50422710203E+03  0.25500000920E-02 0. -1.
        2   -1    0    0  501    0  0.00000000000E+00  0.00000000000E+00 -0.12747678889E+04  0.12747678889E+04  0.25500000920E-02 0.  1.
    10030    2    1    2    0    0  0.00000000000E+00  0.00000000000E+00 -0.77054078690E+03  0.17789949910E+04  0.16034619028E+04 0.  0.
        2    1    3    3  502    0  0.78977607352E+03 -0.31404924554E+02 -0.53428690067E+03  0.95404140781E+03  0.25500000920E-02 0.  1.
       -2    1    3    3    0  502 -0.78977607352E+03  0.31404924554E+02 -0.23625388623E+03  0.82495358315E+03  0.25500000920E-02 0. -1.
</event>
<event>
 5   0  0.7770905E-04  0.1598559E+04  0.7818609E-02  0.8821434E-01
       -2   -1    0    0    0  501  0.00000000000E+00  0.00000000000E+00  0.39703450958E+03  0.39703450959E+03  0.25500000920E-02 0. -1.
        2   -1    0    0  501    0  0.00000000000E+00  0.00000000000E+00 -0.16090479677E+04  0.16090479677E+04  0.25500000920E-02 0.  1.
    10030    2    1    2    0    0  0.00000000000E+00  0.00000000000E+00 -0.12120134581E+04  0.20060824773E+04  0.15985588144E+04 0.  0.
        2    1    3    3  502    0  0.63312125201E+02 -0.70737378595E+02 -0.16019479035E+04  0.16047583269E+04  0.25500000920E-02 0.  1.
       -2    1    3    3    0  502 -0.63312125201E+02  0.70737378595E+02  0.38993444547E+03  0.40132415040E+03  0.25500000920E-02 0. -1.
</event>
<event>
 5   0  0.7395088E-04  0.1622307E+04  0.7818609E-02  0.8806960E-01
       -2   -1    0    0    0  501  0.00000000000E+00  0.00000000000E+00  0.57474794331E+03  0.57474794331E+03  0.25500000920E-02 0.  1.
        2   -1    0    0  501    0  0.00000000000E+00  0.00000000000E+00 -0.11447976560E+04  0.11447976560E+04  0.25500000920E-02 0. -1.
    10030    2    1    2    0    0  0.00000000000E+00  0.00000000000E+00 -0.57004971265E+03  0.17195455993E+04  0.16223071205E+04 0.  0.
        1    1    3    3  502    0  0.46675875912E+03 -0.31661971162E+03 -0.90294104596E+03  0.10646193280E+04  0.50400001928E-02 0. -1.
       -1    1    3    3    0  502 -0.46675875912E+03  0.31661971162E+03  0.33289133331E+03  0.65492627129E+03  0.50400001928E-02 0.  1.
</event>
<event>
 5   0  0.3973227E-04  0.1480888E+04  0.7818609E-02  0.8897263E-01
        1   -1    0    0  501    0  0.00000000000E+00  0.00000000000E+00  0.73955356024E+03  0.73955356026E+03  0.50400001928E-02 0. -1.
       -1   -1    0    0    0  501  0.00000000000E+00  0.00000000000E+00 -0.74133529597E+03  0.74133529599E+03  0.50400001928E-02 0.  1.
    10030    2    1    2    0    0  0.00000000000E+00  0.00000000000E+00 -0.17817357281E+01  0.14808888563E+04  0.14808877844E+04 0.  0.
        3    1    3    3  502    0 -0.62564781985E+03  0.93450536993E+02  0.38393268173E+03  0.73998142655E+03  0.10100000352E+00 0. -1.
       -3    1    3    3    0  502  0.62564781985E+03 -0.93450536993E+02 -0.38571441746E+03  0.74090742970E+03  0.10100000352E+00 0.  1.
</event>
<event>
 5   0  0.3973227E-04  0.1580873E+04  0.7818609E-02  0.8832385E-01
        1   -1    0    0  501    0  0.00000000000E+00  0.00000000000E+00  0.18524131881E+04  0.18524131881E+04  0.50400001928E-02 0. -1.
       -1   -1    0    0    0  501  0.00000000000E+00  0.00000000000E+00 -0.33728441967E+03  0.33728441971E+03  0.50400001928E-02 0.  1.
    10030    2    1    2    0    0  0.00000000000E+00  0.00000000000E+00  0.15151287685E+04  0.21896976078E+04  0.15808733121E+04 0.  0.
        3    1    3    3  502    0  0.10865108603E+03 -0.64399923740E+03  0.14083634088E+03  0.66811298549E+03  0.10100000352E+00 0.  1.
       -3    1    3    3    0  502 -0.10865108603E+03  0.64399923740E+03  0.13742924276E+04  0.15215846224E+04  0.10100000352E+00 0. -1.
</event>
<event>
 5   0  0.2781000E-04  0.1596480E+04  0.7818609E-02  0.8822713E-01
        3   -1    0    0  501    0  0.00000000000E+00  0.00000000000E+00  0.67599442127E+03  0.67599442881E+03  0.10100000352E+00 0. -1.
       -3   -1    0    0    0  501  0.00000000000E+00  0.00000000000E+00 -0.94259226567E+03  0.94259227108E+03  0.10100000352E+00 0.  1.
    10030    2    1    2    0    0  0.00000000000E+00  0.00000000000E+00 -0.26659784441E+03  0.16185866999E+04  0.15964800326E+04 0.  0.
        3    1    3    3  502    0 -0.72213537742E+03  0.32375605220E+03 -0.27500543268E+02  0.79186727091E+03  0.10100000352E+00 0. -1.
       -3    1    3    3    0  502  0.72213537742E+03 -0.32375605220E+03 -0.23909730114E+03  0.82671942899E+03  0.10100000352E+00 0.  1.
</event>
<event>
 5   0  0.7488884E-04  0.1602451E+04  0.7818609E-02  0.8819044E-01
       -2   -1    0    0    0  501  0.00000000000E+00  0.00000000000E+00  0.12668051290E+04  0.12668051290E+04  0.25500000920E-02 0. -1.
        2   -1    0    0  501    0  0.00000000000E+00  0.00000000000E+00 -0.50675694598E+03  0.50675694599E+03  0.25500000920E-02 0.  1.
    10030    2    1    2    0    0  0.00000000000E+00  0.00000000000E+00  0.76004818300E+03  0.17735620750E+04  0.16024509956E+04 0.  0.
        3    1    3    3  502    0  0.77265071250E+03 -0.29602514272E+02  0.61243978411E+03  0.98638123043E+03  0.10100000352E+00 0.  1.
       -3    1    3    3    0  502 -0.77265071250E+03  0.29602514272E+02  0.14760839889E+03  0.78718084454E+03  0.10100000352E+00 0. -1.
</event>
<event>
 5   0  0.3889847E-04  0.1677591E+04  0.7818609E-02  0.8774249E-01
       -1   -1    0    0    0  501  0.00000000000E+00  0.00000000000E+00  0.64656444567E+03  0.64656444569E+03  0.50400001928E-02 0.  1.
        1   -1    0    0  501    0  0.00000000000E+00  0.00000000000E+00 -0.10881784474E+04  0.10881784474E+04  0.50400001928E-02 0. -1.
    10030    2    1    2    0    0  0.00000000000E+00  0.00000000000E+00 -0.44161400168E+03  0.17347428931E+04  0.16775905277E+04 0.  0.
        1    1    3    3  502    0 -0.27715507898E+03 -0.27824683084E+03  0.54561905441E+03  0.67226214324E+03  0.50400001928E-02 0.  1.
       -1    1    3    3    0  502  0.27715507898E+03  0.27824683084E+03 -0.98723305609E+03  0.10624807498E+04  0.50400001928E-02 0. -1.
</event>
<event>
 5   0  0.7770905E-04  0.1673673E+04  0.7818609E-02  0.8776524E-01
        2   -1    0    0  501    0  0.00000000000E+00  0.00000000000E+00  0.11058212514E+04  0.11058212514E+04  0.25500000920E-02 0.  1.
       -2   -1    0    0    0  501  0.00000000000E+00  0.00000000000E+00 -0.63328075853E+03  0.63328075853E+03  0.25500000920E-02 0. -1.
    10030    2    1    2    0    0  0.00000000000E+00  0.00000000000E+00  0.47254049283E+03  0.17391020099E+04  0.16736729918E+04 0.  0.
        2    1    3    3  502    0  0.29580588499E+03  0.77845728120E+03  0.32194635685E+03  0.89283050852E+03  0.25500000920E-02 0.  1.
       -2    1    3    3    0  502 -0.29580588499E+03 -0.77845728120E+03  0.15059413598E+03  0.84627150138E+03  0.25500000920E-02 0. -1.
</event>
<event>
 5   0  0.3837251E-04  0.1595002E+04  0.7818609E-02  0.8823624E-01
       -1   -1    0    0    0  501  0.00000000000E+00  0.00000000000E+00  0.49764693538E+03  0.49764693541E+03  0.50400001928E-02 0. -1.
        1   -1    0    0  501    0  0.00000000000E+00  0.00000000000E+00 -0.12780307232E+04  0.12780307232E+04  0.50400001928E-02 0.  1.
    10030    2    1    2    0    0  0.00000000000E+00  0.00000000000E+00 -0.78038378783E+03  0.17756776586E+04  0.15950022856E+04 0.  0.
        4    1    3    3  502    0 -0.26285927305E+03 -0.21988508710E+02 -0.12280590472E+04  0.12560689186E+04  0.12699999809E+01 0.  1.
       -4    1    3    3    0  502  0.26285927305E+03  0.21988508710E+02  0.44767525938E+03  0.51960874002E+03  0.12699999809E+01 0. -1.
</event>
<event>
 5   0  0.3889847E-04  0.1560787E+04  0.7818609E-02  0.8845007E-01
        1   -1    0    0  501    0  0.00000000000E+00  0.00000000000E+00  0.50711891384E+03  0.50711891386E+03  0.50400001928E-02 0. -1.
       -1   -1    0    0    0  501  0.00000000000E+00  0.00000000000E+00 -0.12009292315E+04  0.12009292316E+04  0.50400001928E-02 0.  1.
    10030    2    1    2    0    0  0.00000000000E+00  0.00000000000E+00 -0.69381031771E+03  0.17080481454E+04  0.15607868881E+04 0.  0.
        1    1    3    3  502    0  0.37678084285E+03  0.39069125843E+03  0.26672259805E+03  0.60476806074E+03  0.50400001928E-02 0. -1.
       -1    1    3    3    0  502 -0.37678084285E+03 -0.39069125843E+03 -0.96053291576E+03  0.11032800847E+04  0.50400001928E-02 0.  1.
</event>
<event>
 5   0  0.3950195E-04  0.1497477E+04  0.7818609E-02  0.8886133E-01
       -1   -1    0    0    0  501  0.00000000000E+00  0.00000000000E+00  0.76990752044E+03  0.76990752046E+03  0.50400001928E-02 0. -1.
        1   -1    0    0  501    0  0.00000000000E+00  0.00000000000E+00 -0.72815125388E+03  0.72815125389E+03  0.50400001928E-02 0.  1.
    10030    2    1    2    0    0  0.00000000000E+00  0.00000000000E+00  0.41756266565E+02  0.14980587744E+04  0.14974767129E+04 0.  0.
        2    1    3    3  502    0  0.12361848844E+03  0.17658647090E+03  0.73819576346E+03  0.76902360015E+03  0.25500000920E-02 0. -1.
       -2    1    3    3    0  502 -0.12361848844E+03 -0.17658647090E+03 -0.69643949689E+03  0.72903517421E+03  0.25500000920E-02 0.  1.
</event>
<event>
 5   0  0.3973227E-04  0.1626878E+04  0.7818609E-02  0.8804204E-01
        1   -1    0    0  501    0  0.00000000000E+00  0.00000000000E+00  0.61753621019E+03  0.61753621021E+03  0.50400001928E-02 0.  1.
       -1   -1    0    0    0  501  0.00000000000E+00  0.00000000000E+00 -0.10714886405E+04  0.10714886405E+04  0.50400001928E-02 0. -1.
    10030    2    1    2    0    0  0.00000000000E+00  0.00000000000E+00 -0.45395243026E+03  0.16890248507E+04  0.16268780339E+04 0.  0.
        3    1    3    3  502    0  0.14138494108E+03 -0.91044583079E+02 -0.10532453226E+04  0.10665854571E+04  0.10100000352E+00 0. -1.
       -3    1    3    3    0  502 -0.14138494108E+03  0.91044583079E+02  0.59929289230E+03  0.62243939354E+03  0.10100000352E+00 0.  1.
</event>
<event>
 5   0  0.7553070E-04  0.1584711E+04  0.7818609E-02  0.8829996E-01
        2   -1    0    0  501    0  0.00000000000E+00  0.00000000000E+00  0.18400922152E+04  0.18400922152E+04  0.25500000920E-02 0.  1.
       -2   -1    0    0    0  501  0.00000000000E+00  0.00000000000E+00 -0.34119349102E+03  0.34119349103E+03  0.25500000920E-02 0. -1.
    10030    2    1    2    0    0  0.00000000000E+00  0.00000000000E+00  0.14988987242E+04  0.21812857062E+04  0.15847113134E+04 0.  0.
        4    1    3    3  502    0  0.17785731751E+03  0.19096824516E+03  0.17792407924E+04  0.17982773719E+04  0.12699999809E+01 0.  1.
       -4    1    3    3    0  502 -0.17785731751E+03 -0.19096824516E+03 -0.28034206822E+03  0.38300833433E+03  0.12699999809E+01 0. -1.
</event>
<event>
 5   0  0.7553070E-04  0.1624041E+04  0.7818609E-02  0.8805913E-01
        2   -1    0    0  501    0  0.00000000000E+00  0.00000000000E+00  0.14748372317E+04  0.14748372317E+04  0.25500000920E-02 0. -1.
       -2   -1    0    0    0  501  0.00000000000E+00  0.00000000000E+00 -0.44708471902E+03  0.44708471903E+03  0.25500000920E-02 0.  1.
    10030    2    1    2    0    0  0.00000000000E+00  0.00000000000E+00  0.10277525127E+04  0.19219219507E+04  0.16240408731E+04 0.  0.
        4    1    3    3  502    0  0.31453138404E+03  0.63639094540E+03  0.47284396685E+02  0.71144982535E+03  0.12699999809E+01 0.  1.
       -4    1    3    3    0  502 -0.31453138404E+03 -0.63639094540E+03  0.98046811597E+03  0.12104721254E+04  0.12699999809E+01 0. -1.
</event>
<event>
 5   0  0.3950195E-04  0.1635610E+04  0.7818609E-02  0.8798965E-01
        1   -1    0    0  501    0  0.00000000000E+00  0.00000000000E+00  0.11682065835E+04  0.11682065835E+04  0.50400001928E-02 0. -1.
       -1   -1    0    0    0  501  0.00000000000E+00  0.00000000000E+00 -0.57250584142E+03  0.57250584145E+03  0.50400001928E-02 0.  1.
    10030    2    1    2    0    0  0.00000000000E+00  0.00000000000E+00  0.59570074204E+03  0.17407124249E+04  0.16356100917E+04 0.  0.
        2    1    3    3  502    0  0.49852875531E+03  0.57682041158E+03  0.61275659234E+03  0.97812235868E+03  0.25500000920E-02 0. -1.
       -2    1    3    3    0  502 -0.49852875531E+03 -0.57682041158E+03 -0.17055850306E+02  0.76259006624E+03  0.25500000920E-02 0.  1.
</event>
<event>
 5   0  0.7553070E-04  0.1593870E+04  0.7818609E-02  0.8824323E-01
       -2   -1    0    0    0  501  0.00000000000E+00  0.00000000000E+00  0.15538088607E+04  0.15538088607E+04  0.25500000920E-02 0.  1.
        2   -1    0    0  501    0  0.00000000000E+00  0.00000000000E+00 -0.40874099816E+03  0.40874099817E+03  0.25500000920E-02 0. -1.
    10030    2    1    2    0    0  0.00000000000E+00  0.00000000000E+00  0.11450678625E+04  0.19625498588E+04  0.15938699880E+04 0.  0.
        4    1    3    3  502    0 -0.64546966728E+03  0.36606240919E+03  0.21466697010E+03  0.77247414180E+03  0.12699999809E+01 0. -1.
       -4    1    3    3    0  502  0.64546966728E+03 -0.36606240919E+03  0.93040089241E+03  0.11900757170E+04  0.12699999809E+01 0.  1.
</event>
<event>
 5   0  0.7395088E-04  0.1583062E+04  0.7818609E-02  0.8831022E-01
       -2   -1    0    0    0  501  0.00000000000E+00  0.00000000000E+00  0.36838072740E+03  0.36838072740E+03  0.25500000920E-02 0. -1.
        2   -1    0    0  501    0  0.00000000000E+00  0.00000000000E+00 -0.17007444754E+04  0.17007444754E+04  0.25500000920E-02 0.  1.
    10030    2    1    2    0    0  0.00000000000E+00  0.00000000000E+00 -0.13323637480E+04  0.20691252028E+04  0.15830622059E+04 0.  0.
        1    1    3    3  502    0  0.77461957406E+03  0.11953783445E+03 -0.52183409264E+03  0.94161329571E+03  0.50400001928E-02 0.  1.
       -1    1    3    3    0  502 -0.77461957406E+03 -0.11953783445E+03 -0.81052965535E+03  0.11275119071E+04  0.50400001928E-02 0. -1.
</event>
<event>
 5   0  0.7553070E-04  0.1595547E+04  0.7818609E-02  0.8823288E-01
       -2   -1    0    0    0  501  0.00000000000E+00  0.00000000000E+00  0.11020847520E+04  0.11020847520E+04  0.25500000920E-02 0.  1.
        2   -1    0    0  501    0  0.00000000000E+00  0.00000000000E+00 -0.57748960484E+03  0.57748960485E+03  0.25500000920E-02 0. -1.
    10030    2    1    2    0    0  0.00000000000E+00  0.00000000000E+00  0.52459514714E+03  0.16795743568E+04  0.15955469130E+04 0.  0.
        4    1    3    3  502    0  0.75088568686E+02 -0.54331555880E+03 -0.34753077884E+03  0.64931451910E+03  0.12699999809E+01 0. -1.
       -4    1    3    3    0  502 -0.75088568686E+02  0.54331555880E+03  0.87212592598E+03  0.10302598377E+04  0.12699999809E+01 0.  1.
</event>
<event>
 5   0  0.3973227E-04  0.1615301E+04  0.7818609E-02  0.8811202E-01
       -1   -1    0    0    0  501  0.00000000000E+00  0.00000000000E+00  0.84561204583E+03  0.84561204584E+03  0.50400001928E-02 0.  1.
        1   -1    0    0  501    0  0.00000000000E+00  0.00000000000E+00 -0.77139360559E+03  0.77139360561E+03  0.50400001928E-02 0. -1.
    10030    2    1    2    0    0  0.00000000000E+00  0.00000000000E+00  0.74218440235E+02  0.16170056515E+04  0.16153014889E+04 0.  0.
        3    1    3    3  502    0 -0.42403089269E+03 -0.74892690428E+02  0.72112257353E+03  0.83989814221E+03  0.10100000352E+00 0.  1.
       -3    1    3    3    0  502  0.42403089269E+03  0.74892690428E+02 -0.64690413330E+03  0.77710750924E+03  0.10100000352E+00 0. -1.
</event>
<event>
 5   0  0.7415102E-04  0.1596665E+04  0.7818609E-02  0.8822599E-01
        2   -1    0    0  501    0  0.00000000000E+00  0.00000000000E+00  0.17263138540E+04  0.17263138540E+04  0.25500000920E-02 0. -1.
       -2   -1    0    0    0  501  0.00000000000E+00  0.00000000000E+00 -0.36918824595E+03  0.36918824596E+03  0.25500000920E-02 0.  1.
    10030    2    1    2    0    0  0.00000000000E+00  0.00000000000E+00  0.13571256080E+04  0.20955021000E+04  0.15966650040E+04 0.  0.
        5    1    3    3  502    0  0.54450892554E+03  0.38508317064E+03  0.12544370342E+04  0.14207087601E+04  0.46999998093E+01 0. -1.
       -5    1    3    3    0  502 -0.54450892554E+03 -0.38508317064E+03  0.10268857386E+03  0.67479333985E+03  0.46999998093E+01 0.  1.
</event>
<event>
 5   0  0.3973227E-04  0.1617592E+04  0.7818609E-02  0.8809813E-01
        1   -1    0    0  501    0  0.00000000000E+00  0.00000000000E+00  0.18985466624E+04  0.18985466624E+04  0.50400001928E-02 0.  1.
       -1   -1    0    0    0  501  0.00000000000E+00  0.00000000000E+00 -0.34455359957E+03  0.34455359960E+03  0.50400001928E-02 0. -1.
    10030    2    1    2    0    0  0.00000000000E+00  0.00000000000E+00  0.15539930628E+04  0.22431002620E+04  0.16175921445E+04 0.  0.
        3    1    3    3  502    0  0.22939607362E+01 -0.50356923980E+03  0.16546347454E+04  0.17295674003E+04  0.10100000352E+00 0.  1.
       -3    1    3    3    0  502 -0.22939607362E+01  0.50356923980E+03 -0.10064168255E+03  0.51353286165E+03  0.10100000352E+00 0. -1.
</event>
<event>
 5   0  0.3973227E-04  0.1618494E+04  0.7818609E-02  0.8809266E-01
        1   -1    0    0  501    0  0.00000000000E+00  0.00000000000E+00  0.13697348946E+04  0.13697348946E+04  0.50400001928E-02 0. -1.
       -1   -1    0    0    0  501  0.00000000000E+00  0.00000000000E+00 -0.47810759968E+03  0.47810759970E+03  0.50400001928E-02 0.  1.
    10030    2    1    2    0    0  0.00000000000E+00  0.00000000000E+00  0.89162729491E+03  0.18478424943E+04  0.16184939452E+04 0.  0.
        3    1    3    3  502    0 -0.95941876137E+02 -0.76984185403E+03  0.70870178124E+03  0.10507709307E+04  0.10100000352E+00 0. -1.
       -3    1    3    3    0  502  0.95941876137E+02  0.76984185403E+03  0.18292551368E+03  0.79707156364E+03  0.10100000352E+00 0.  1.
</event>
<event>
 5   0  0.7488884E-04  0.1536704E+04  0.7818609E-02  0.8860405E-01
        2   -1    0    0  501    0  0.00000000000E+00  0.00000000000E+00  0.21187678477E+04  0.21187678477E+04  0.25500000920E-02 0.  1.
       -2   -1    0    0    0  501  0.00000000000E+00  0.00000000000E+00 -0.27863591069E+03  0.27863591070E+03  0.25500000920E-02 0. -1.
    10030    2    1    2    0    0  0.00000000000E+00  0.00000000000E+00  0.18401319371E+04  0.23974037584E+04  0.15367040168E+04 0.  0.
        3    1    3    3  502    0  0.21522077267E+03 -0.70823054259E+03  0.12415148214E+04  0.14454305740E+04  0.10100000352E+00 0.  1.
       -3    1    3    3    0  502 -0.21522077267E+03  0.70823054259E+03  0.59861711568E+03  0.95197318441E+03  0.10100000352E+00 0. -1.
</event>
<event>
 5   0  0.3889847E-04  0.1604347E+04  0.7818609E-02  0.8817882E-01
        1   -1    0    0  501    0  0.00000000000E+00  0.00000000000E+00  0.28617110502E+04  0.28617110502E+04  0.50400001928E-02 0. -1.
       -1   -1    0    0    0  501  0.00000000000E+00  0.00000000000E+00 -0.22485918108E+03  0.22485918113E+03  0.50400001928E-02 0.  1.
    10030    2    1    2    0    0  0.00000000000E+00  0.00000000000E+00  0.26368518691E+04  0.30865702313E+04  0.16043466001E+04 0.  0.
        1    1    3    3  502    0  0.53607547925E+03 -0.50493432548E+03  0.70656432733E+03  0.10205727515E+04  0.50400001928E-02 0.  1.
       -1    1    3    3    0  502 -0.53607547925E+03  0.50493432548E+03  0.19302875418E+04  0.20659974798E+04  0.50400001928E-02 0. -1.
</event>
<event>
 5   0  0.3837251E-04  0.1607881E+04  0.7818609E-02  0.8815721E-01
       -1   -1    0    0    0  501  0.00000000000E+00  0.00000000000E+00  0.12898850983E+04  0.12898850983E+04  0.50400001928E-02 0.  1.
        1   -1    0    0  501    0  0.00000000000E+00  0.00000000000E+00 -0.50106834495E+03  0.50106834498E+03  0.50400001928E-02 0. -1.
    10030    2    1    2    0    0  0.00000000000E+00  0.00000000000E+00  0.78881675338E+03  0.17909534433E+04  0.16078813283E+04 0.  0.
        4    1    3    3  502    0  0.28011066358E+03  0.22935345096E+03  0.11939498310E+04  0.12476308754E+04  0.12699999809E+01 0.  1.
       -4    1    3    3    0  502 -0.28011066358E+03 -0.22935345096E+03 -0.40513307765E+03  0.54332256793E+03  0.12699999809E+01 0. -1.
</event>
<event>
 5   0  0.4110803E-04  0.1626819E+04  0.7818609E-02  0.8804239E-01
        1   -1    0    0  501    0  0.00000000000E+00  0.00000000000E+00  0.11330461742E+04  0.11330461742E+04  0.50400001928E-02 0.  1.
       -1   -1    0    0    0  501  0.00000000000E+00  0.00000000000E+00 -0.58394372563E+03  0.58394372566E+03  0.50400001928E-02 0. -1.
    10030    2    1    2    0    0  0.00000000000E+00  0.00000000000E+00  0.54910244853E+03  0.17169898998E+04  0.16268192331E+04 0.  0.
        5    1    3    3  502    0  0.77474209429E+03 -0.11522645012E+03  0.43052218411E+02  0.78446034379E+03  0.46999998093E+01 0.  1.
       -5    1    3    3    0  502 -0.77474209429E+03  0.11522645012E+03  0.50605023011E+03  0.93252955603E+03  0.46999998093E+01 0. -1.
</event>
<event>
 5   0  0.3837251E-04  0.1563397E+04  0.7818609E-02  0.8843356E-01
       -1   -1    0    0    0  501  0.00000000000E+00  0.00000000000E+00  0.45642400210E+03  0.45642400213E+03  0.50400001928E-02 0.  1.
        1   -1    0    0  501    0  0.00000000000E+00  0.00000000000E+00 -0.13387827890E+04  0.13387827890E+04  0.50400001928E-02 0. -1.
    10030    2    1    2    0    0  0.00000000000E+00  0.00000000000E+00 -0.88235878686E+03  0.17952067911E+04  0.15633970686E+04 0.  0.
        4    1    3    3  502    0 -0.11941079453E+03  0.58456838776E+03  0.13875177869E+03  0.61256249217E+03  0.12699999809E+01 0.  1.
       -4    1    3    3    0  502  0.11941079453E+03 -0.58456838776E+03 -0.10211105655E+04  0.11826442989E+04  0.12699999809E+01 0. -1.
</event>
<event>
 5   0  0.3889847E-04  0.1570962E+04  0.7818609E-02  0.8838588E-01
        1   -1    0    0  501    0  0.00000000000E+00  0.00000000000E+00  0.17758023520E+04  0.17758023520E+04  0.50400001928E-02 0. -1.
       -1   -1    0    0    0  501  0.00000000000E+00  0.00000000000E+00 -0.34743756424E+03  0.34743756428E+03  0.50400001928E-02 0.  1.
    10030    2    1    2    0    0  0.00000000000E+00  0.00000000000E+00  0.14283647878E+04  0.21232399163E+04  0.15709620540E+04 0.  0.
        1    1    3    3  502    0 -0.15315224690E+03 -0.25956496635E+03  0.16945490191E+04  0.17211408893E+04  0.50400001928E-02 0. -1.
       -1    1    3    3    0  502  0.15315224690E+03  0.25956496635E+03 -0.26618423135E+03  0.40209902702E+03  0.50400001928E-02 0.  1.
</event>
<event>
 5   0  0.7553070E-04  0.1562108E+04  0.7818609E-02  0.8844171E-01
       -2   -1    0    0    0  501  0.00000000000E+00  0.00000000000E+00  0.46220637380E+03  0.46220637381E+03  0.25500000920E-02 0. -1.
        2   -1    0    0  501    0  0.00000000000E+00  0.00000000000E+00 -0.13198549994E+04  0.13198549994E+04  0.25500000920E-02 0.  1.
    10030    2    1    2    0    0  0.00000000000E+00  0.00000000000E+00 -0.85764862555E+03  0.17820613732E+04  0.15621080541E+04 0.  0.
        4    1    3    3  502    0  0.14244107569E+03 -0.45417676470E+03  0.27762611305E+03  0.55103889626E+03  0.12699999809E+01 0. -1.
       -4    1    3    3    0  502 -0.14244107569E+03  0.45417676470E+03 -0.11352747386E+04  0.12310224769E+04  0.12699999809E+01 0.  1.
</event>
<event>
 5   0  0.3837251E-04  0.1610793E+04  0.7818609E-02  0.8813945E-01
        1   -1    0    0  501    0  0.00000000000E+00  0.00000000000E+00  0.12678719299E+04  0.12678719299E+04  0.50400001928E-02 0. -1.
       -1   -1    0    0    0  501  0.00000000000E+00  0.00000000000E+00 -0.51161623689E+03  0.51161623691E+03  0.50400001928E-02 0.  1.
    10030    2    1    2    0    0  0.00000000000E+00  0.00000000000E+00  0.75625569302E+03  0.17794881668E+04  0.16107934264E+04 0.  0.
        4    1    3    3  502    0 -0.75691613369E+03 -0.15493116189E+03  0.12685011266E+03  0.78295482778E+03  0.12699999809E+01 0. -1.
       -4    1    3    3    0  502  0.75691613369E+03  0.15493116189E+03  0.62940558036E+03  0.99653333905E+03  0.12699999809E+01 0.  1.
</event>
<event>
 5   0  0.3889847E-04  0.1571912E+04  0.7818609E-02  0.8837992E-01
       -1   -1    0    0    0  501  0.00000000000E+00  0.00000000000E+00  0.59254003917E+03  0.59254003919E+03  0.50400001928E-02 0. -1.
        1   -1    0    0  501    0  0.00000000000E+00  0.00000000000E+00 -0.10425067453E+04  0.10425067454E+04  0.50400001928E-02 0.  1.
    10030    2    1    2    0    0  0.00000000000E+00  0.00000000000E+00 -0.44996670617E+03  0.16350467845E+04  0.15719121957E+04 0.  0.
        1    1    3    3  502    0 -0.50779570395E+03 -0.44798434573E+02 -0.84722728544E+03  0.98876561930E+03  0.50400001928E-02 0.  1.
       -1    1    3    3    0  502  0.50779570395E+03  0.44798434573E+02  0.39726057926E+03  0.64628116525E+03  0.50400001928E-02 0. -1.
</event>
<event>
 5   0  0.3973227E-04  0.1571625E+04  0.7818609E-02  0.8838172E-01
        1   -1    0    0  501    0  0.00000000000E+00  0.00000000000E+00  0.59825716028E+03  0.59825716030E+03  0.50400001928E-02 0.  1.
       -1   -1    0    0    0  501  0.00000000000E+00  0.00000000000E+00 -0.10321667653E+04  0.10321667653E+04  0.50400001928E-02 0. -1.
    10030    2    1    2    0    0  0.00000000000E+00  0.00000000000E+00 -0.43390960498E+03  0.16304239256E+04  0.15716248381E+04 0.  0.
        3    1    3    3  502    0 -0.69859677365E+02  0.13816856128E+03  0.58227758526E+03  0.60250985248E+03  0.10100000352E+00 0.  1.
       -3    1    3    3    0  502  0.69859677365E+02 -0.13816856128E+03 -0.10161871902E+04  0.10279140731E+04  0.10100000352E+00 0. -1.
</event>
<event>
 5   0  0.3973227E-04  0.1580967E+04  0.7818609E-02  0.8832327E-01
        1   -1    0    0  501    0  0.00000000000E+00  0.00000000000E+00  0.23408488272E+04  0.23408488272E+04  0.50400001928E-02 0. -1.
       -1   -1    0    0    0  501  0.00000000000E+00  0.00000000000E+00 -0.26693926418E+03  0.26693926423E+03  0.50400001928E-02 0.  1.
    10030    2    1    2    0    0  0.00000000000E+00  0.00000000000E+00  0.20739095630E+04  0.26077880915E+04  0.15809673792E+04 0.  0.
        3    1    3    3  502    0 -0.64126735545E+03  0.39848979904E+03  0.14232540596E+04  0.16111083357E+04  0.10100000352E+00 0.  1.
       -3    1    3    3    0  502  0.64126735545E+03 -0.39848979904E+03  0.65065550344E+03  0.99667975572E+03  0.10100000352E+00 0. -1.
</event>
<event>
 5   0  0.7553070E-04  0.1532223E+04  0.7818609E-02  0.8863304E-01
       -2   -1    0    0    0  501  0.00000000000E+00  0.00000000000E+00  0.41097060419E+03  0.41097060420E+03  0.25500000920E-02 0. -1.
        2   -1    0    0  501    0  0.00000000000E+00  0.00000000000E+00 -0.14281472799E+04  0.14281472799E+04  0.25500000920E-02 0.  1.
    10030    2    1    2    0    0  0.00000000000E+00  0.00000000000E+00 -0.10171766757E+04  0.18391178841E+04  0.15322226346E+04 0.  0.
        4    1    3    3  502    0 -0.51806626861E+03  0.26015292189E+03  0.92581406345E+02  0.58706484407E+03  0.12699999809E+01 0. -1.
       -4    1    3    3    0  502  0.51806626861E+03 -0.26015292189E+03 -0.11097580820E+04  0.12520530400E+04  0.12699999809E+01 0.  1.
</event>
<event>
 5   0  0.3950195E-04  0.1585053E+04  0.7818609E-02  0.8829783E-01
       -1   -1    0    0    0  501  0.00000000000E+00  0.00000000000E+00  0.27092046641E+03  0.27092046645E+03  0.50400001928E-02 0.  1.
        1   -1    0    0  501    0  0.00000000000E+00  0.00000000000E+00 -0.23183862602E+04  0.23183862602E+04  0.50400001928E-02 0. -1.
    10030    2    1    2    0    0  0.00000000000E+00  0.00000000000E+00 -0.20474657938E+04  0.25893067267E+04  0.15850530426E+04 0.  0.
        2    1    3    3  502    0  0.31174947769E+02  0.28768152514E+03  0.18153918145E+03  0.34159773372E+03  0.25500000920E-02 0.  1.
       -2    1    3    3    0  502 -0.31174947769E+02 -0.28768152514E+03 -0.22290049753E+04  0.22477089929E+04  0.25500000920E-02 0. -1.
</event>
<event>
 5   0  0.3837251E-04  0.1705901E+04  0.7818609E-02  0.8758006E-01
        1   -1    0    0  501    0  0.00000000000E+00  0.00000000000E+00  0.25902657696E+04  0.25902657696E+04  0.50400001928E-02 0. -1.
       -1   -1    0    0    0  501  0.00000000000E+00  0.00000000000E+00 -0.28086877400E+03  0.28086877404E+03  0.50400001928E-02 0.  1.
    10030    2    1    2    0    0  0.00000000000E+00  0.00000000000E+00  0.23093969956E+04  0.28711345437E+04  0.17059012528E+04 0.  0.
        4    1    3    3  502    0 -0.81424225166E+03 -0.17017436738E+03  0.14721389982E+04  0.16909005300E+04  0.12699999809E+01 0.  1.
       -4    1    3    3    0  502  0.81424225166E+03  0.17017436738E+03  0.83725799746E+03  0.11802340136E+04  0.12699999809E+01 0. -1.
</event>
<event>
 5   0  0.7553070E-04  0.1508449E+04  0.7818609E-02  0.8878854E-01
       -2   -1    0    0    0  501  0.00000000000E+00  0.00000000000E+00  0.23622848841E+03  0.23622848842E+03  0.25500000920E-02 0.  1.
        2   -1    0    0  501    0  0.00000000000E+00  0.00000000000E+00 -0.24080700764E+04  0.24080700764E+04  0.25500000920E-02 0. -1.
    10030    2    1    2    0    0  0.00000000000E+00  0.00000000000E+00 -0.21718415880E+04  0.26442985648E+04  0.15084492091E+04 0.  0.
        4    1    3    3  502    0  0.60523639300E+03 -0.32874729274E+03 -0.16247119694E+04  0.17646746074E+04  0.12699999809E+01 0. -1.
       -4    1    3    3    0  502 -0.60523639300E+03  0.32874729274E+03 -0.54712961862E+03  0.87962395736E+03  0.12699999809E+01 0.  1.
</event>
<event>
 5   0  0.7415102E-04  0.1631007E+04  0.7818609E-02  0.8801722E-01
       -2   -1    0    0    0  501  0.00000000000E+00  0.00000000000E+00  0.41473694836E+03  0.41473694837E+03  0.25500000920E-02 0. -1.
        2   -1    0    0  501    0  0.00000000000E+00  0.00000000000E+00 -0.16035367481E+04  0.16035367481E+04  0.25500000920E-02 0.  1.
    10030    2    1    2    0    0  0.00000000000E+00  0.00000000000E+00 -0.11887997997E+04  0.20182736964E+04  0.16310069742E+04 0.  0.
        5    1    3    3  502    0 -0.67162061204E+03  0.12600935061E+03 -0.43674689726E+02  0.68474971448E+03  0.46999998093E+01 0. -1.
       -5    1    3    3    0  502  0.67162061204E+03 -0.12600935061E+03 -0.11451251100E+04  0.13335239820E+04  0.46999998093E+01 0.  1.
</event>
<event>
 5   0  0.3837251E-04  0.1588614E+04  0.7818609E-02  0.8827574E-01
        1   -1    0    0  501    0  0.00000000000E+00  0.00000000000E+00  0.94273034601E+03  0.94273034602E+03  0.50400001928E-02 0. -1.
       -1   -1    0    0    0  501  0.00000000000E+00  0.00000000000E+00 -0.66925144354E+03  0.66925144356E+03  0.50400001928E-02 0.  1.
    10030    2    1    2    0    0  0.00000000000E+00  0.00000000000E+00  0.27347890247E+03  0.16119817896E+04  0.15886140437E+04 0.  0.
        4    1    3    3  502    0  0.25007939677E+03  0.69856467814E+03 -0.15096195586E+03  0.75718124597E+03  0.12699999809E+01 0. -1.
       -4    1    3    3    0  502 -0.25007939677E+03 -0.69856467814E+03  0.42444085833E+03  0.85480054361E+03  0.12699999809E+01 0.  1.
</event>
<event>
 5   0  0.7553070E-04  0.1582856E+04  0.7818609E-02  0.8831150E-01
       -2   -1    0    0    0  501  0.00000000000E+00  0.00000000000E+00  0.76106244864E+03  0.76106244864E+03  0.25500000920E-02 0.  1.
        2   -1    0    0  501    0  0.00000000000E+00  0.00000000000E+00 -0.82300461088E+03  0.82300461088E+03  0.25500000920E-02 0. -1.
    10030    2    1    2    0    0  0.00000000000E+00  0.00000000000E+00 -0.61942162237E+02  0.15840670595E+04  0.15828555264E+04 0.  0.
        4    1    3    3  502    0  0.53844109343E+02 -0.76718026048E+03  0.15596469508E+03  0.78472373432E+03  0.12699999809E+01 0.  1.
       -4    1    3    3    0  502 -0.53844109343E+02  0.76718026048E+03 -0.21790685732E+03  0.79934332521E+03  0.12699999809E+01 0. -1.
</event>
<event>
 5   0  0.7488884E-04  0.1603879E+04  0.7818609E-02  0.8818169E-01
        2   -1    0    0  501    0  0.00000000000E+00  0.00000000000E+00  0.85008549193E+03  0.85008549193E+03  0.25500000920E-02 0.  1.
       -2   -1    0    0    0  501  0.00000000000E+00  0.00000000000E+00 -0.75652022930E+03  0.75652022930E+03  0.25500000920E-02 0. -1.
    10030    2    1    2    0    0  0.00000000000E+00  0.00000000000E+00  0.93565262627E+02  0.16066057212E+04  0.16038788873E+04 0.  0.
        3    1    3    3  502    0  0.43617772140E+03 -0.21449634252E+03  0.68571279459E+03  0.84051277948E+03  0.10100000352E+00 0.  1.
       -3    1    3    3    0  502 -0.43617772140E+03  0.21449634252E+03 -0.59214753197E+03  0.76609294176E+03  0.10100000352E+00 0. -1.
</event>
<event>
 5   0  0.4110803E-04  0.1602117E+04  0.7818609E-02  0.8819249E-01
        1   -1    0    0  501    0  0.00000000000E+00  0.00000000000E+00  0.20502554986E+04  0.20502554986E+04  0.50400001928E-02 0.  1.
       -1   -1    0    0    0  501  0.00000000000E+00  0.00000000000E+00 -0.31298265397E+03  0.31298265401E+03  0.50400001928E-02 0. -1.
    10030    2    1    2    0    0  0.00000000000E+00  0.00000000000E+00  0.17372728446E+04  0.23632381526E+04  0.16021166091E+04 0.  0.
        5    1    3    3  502    0  0.27168396996E+03 -0.72581523727E+03  0.56976627880E+03  0.96191249116E+03  0.46999998093E+01 0. -1.
       -5    1    3    3    0  502 -0.27168396996E+03  0.72581523727E+03  0.11675065658E+04  0.14013256614E+04  0.46999998093E+01 0.  1.
</event>
<event>
 5   0  0.7770905E-04  0.1613949E+04  0.7818609E-02  0.8812024E-01
       -2   -1    0    0    0  501  0.00000000000E+00  0.00000000000E+00  0.45695612752E+03  0.45695612752E+03  0.25500000920E-02 0. -1.
        2   -1    0    0  501    0  0.00000000000E+00  0.00000000000E+00 -0.14250989309E+04  0.14250989309E+04  0.25500000920E-02 0.  1.
    10030    2    1    2    0    0  0.00000000000E+00  0.00000000000E+00 -0.96814280336E+03  0.18820550584E+04  0.16139488081E+04 0.  0.
        2    1    3    3  502    0  0.20194471663E+03  0.77938367927E+03 -0.54780486225E+03  0.97381248462E+03  0.25500000920E-02 0. -1.
       -2    1    3    3    0  502 -0.20194471663E+03 -0.77938367927E+03 -0.42033794111E+03  0.90824257378E+03  0.25500000920E-02 0.  1.
</event>
<event>
 5   0  0.4110803E-04  0.1590242E+04  0.7818609E-02  0.8826565E-01
       -1   -1    0    0    0  501  0.00000000000E+00  0.00000000000E+00  0.14715527104E+04  0.14715527104E+04  0.50400001928E-02 0. -1.
        1   -1    0    0  501    0  0.00000000000E+00  0.00000000000E+00 -0.42962615297E+03  0.42962615300E+03  0.50400001928E-02 0.  1.
    10030    2    1    2    0    0  0.00000000000E+00  0.00000000000E+00  0.10419265575E+04  0.19011788634E+04  0.15902421575E+04 0.  0.
        5    1    3    3  502    0 -0.21844561038E+03  0.54197904637E+03  0.11655908442E+04  0.13038726462E+04  0.46999998093E+01 0. -1.
       -5    1    3    3    0  502  0.21844561038E+03 -0.54197904637E+03 -0.12366428670E+03  0.59730621728E+03  0.46999998093E+01 0.  1.
</event>
<event>
 5   0  0.7770905E-04  0.1574847E+04  0.7818609E-02  0.8836151E-01
        2   -1    0    0  501    0  0.00000000000E+00  0.00000000000E+00  0.13510558098E+04  0.13510558098E+04  0.25500000920E-02 0. -1.
       -2   -1    0    0    0  501  0.00000000000E+00  0.00000000000E+00 -0.45892696155E+03  0.45892696155E+03  0.25500000920E-02 0.  1.
    10030    2    1    2    0    0  0.00000000000E+00  0.00000000000E+00  0.89212884824E+03  0.18099827713E+04  0.15748472150E+04 0.  0.
        2    1    3    3  502    0 -0.23539663482E+03 -0.11629724172E+03 -0.40713577718E+03  0.48445450269E+03  0.25500000920E-02 0.  1.
       -2    1    3    3    0  502  0.23539663482E+03  0.11629724172E+03  0.12992646254E+04  0.13255282686E+04  0.25500000920E-02 0. -1.
</event>
<event>
 5   0  0.3973227E-04  0.1622835E+04  0.7818609E-02  0.8806641E-01
        1   -1    0    0  501    0  0.00000000000E+00  0.00000000000E+00  0.42359505921E+03  0.42359505924E+03  0.50400001928E-02 0. -1.
       -1   -1    0    0    0  501  0.00000000000E+00  0.00000000000E+00 -0.15543107561E+04  0.15543107561E+04  0.50400001928E-02 0.  1.
    10030    2    1    2    0    0  0.00000000000E+00  0.00000000000E+00 -0.11307156969E+04  0.19779058154E+04  0.16228349969E+04 0.  0.
        3    1    3    3  502    0  0.43110474191E+03 -0.61480063358E+03 -0.19055612913E+03  0.77468881888E+03  0.10100000352E+00 0. -1.
       -3    1    3    3    0  502 -0.43110474191E+03  0.61480063358E+03 -0.94015956779E+03  0.12032169965E+04  0.10100000352E+00 0.  1.
</event>
<event>
 5   0  0.7488884E-04  0.1577457E+04  0.7818609E-02  0.8834518E-01
        2   -1    0    0  501    0  0.00000000000E+00  0.00000000000E+00  0.17937875885E+04  0.17937875885E+04  0.25500000920E-02 0. -1.
       -2   -1    0    0    0  501  0.00000000000E+00  0.00000000000E+00 -0.34680390632E+03  0.34680390633E+03  0.25500000920E-02 0.  1.
    10030    2    1    2    0    0  0.00000000000E+00  0.00000000000E+00  0.14469836822E+04  0.21405914949E+04  0.15774568683E+04 0.  0.
        3    1    3    3  502    0 -0.35164809244E+03 -0.32380191746E+03  0.15748209553E+04  0.16457718901E+04  0.10100000352E+00 0. -1.
       -3    1    3    3    0  502  0.35164809244E+03  0.32380191746E+03 -0.12783727311E+03  0.49481960477E+03  0.10100000352E+00 0.  1.
</event>
<event>
 5   0  0.3950195E-04  0.1726541E+04  0.7818609E-02  0.8746370E-01
        1   -1    0    0  501    0  0.00000000000E+00  0.00000000000E+00  0.44439981557E+03  0.44439981560E+03  0.50400001928E-02 0. -1.
       -1   -1    0    0    0  501  0.00000000000E+00  0.00000000000E+00 -0.16769486640E+04  0.16769486640E+04  0.50400001928E-02 0.  1.
    10030    2    1    2    0    0  0.00000000000E+00  0.00000000000E+00 -0.12325488484E+04  0.21213484796E+04  0.17265406767E+04 0.  0.
        2    1    3    3  502    0  0.85777803046E+03 -0.64837646020E+02 -0.70528820281E+03  0.11123931494E+04  0.25500000920E-02 0.  1.
       -2    1    3    3    0  502 -0.85777803046E+03  0.64837646020E+02 -0.52726064564E+03  0.10089553302E+04  0.25500000920E-02 0. -1.
</event>
<event>
 5   0  0.3889847E-04  0.1605847E+04  0.7818609E-02  0.8816964E-01
       -1   -1    0    0    0  501  0.00000000000E+00  0.00000000000E+00  0.10857617333E+04  0.10857617334E+04  0.50400001928E-02 0. -1.
        1   -1    0    0  501    0  0.00000000000E+00  0.00000000000E+00 -0.59376381637E+03  0.59376381640E+03  0.50400001928E-02 0.  1.
    10030    2    1    2    0    0  0.00000000000E+00  0.00000000000E+00  0.49199791697E+03  0.16795255497E+04  0.16058468551E+04 0.  0.
        1    1    3    3  502    0  0.23390041942E+03 -0.41302769183E+03  0.92331101532E+03  0.10381736422E+04  0.50400001928E-02 0. -1.
       -1    1    3    3    0  502 -0.23390041942E+03  0.41302769183E+03 -0.43131309835E+03  0.64135190750E+03  0.50400001928E-02 0.  1.
</event>
<event>
 5   0  0.7770905E-04  0.1601914E+04  0.7818609E-02  0.8819373E-01
        2   -1    0    0  501    0  0.00000000000E+00  0.00000000000E+00  0.11353531216E+04  0.11353531216E+04  0.25500000920E-02 0. -1.
       -2   -1    0    0    0  501  0.00000000000E+00  0.00000000000E+00 -0.56505078990E+03  0.56505078991E+03  0.25500000920E-02 0.  1.
    10030    2    1    2    0    0  0.00000000000E+00  0.00000000000E+00  0.57030233170E+03  0.17004039115E+04  0.16019140778E+04 0.  0.
        2    1    3    3  502    0 -0.56437257684E+03 -0.31829258253E+03  0.78495687572E+03  0.10178329285E+04  0.25500000920E-02 0. -1.
       -2    1    3    3    0  502  0.56437257684E+03  0.31829258253E+03 -0.21465454402E+03  0.68257098302E+03  0.25500000920E-02 0.  1.
</event>
<event>
 5   0  0.3973227E-04  0.1615597E+04  0.7818609E-02  0.8811023E-01
       -1   -1    0    0    0  501  0.00000000000E+00  0.00000000000E+00  0.27052021960E+03  0.27052021964E+03  0.50400001928E-02 0.  1.
        1   -1    0    0  501    0  0.00000000000E+00  0.00000000000E+00 -0.24121610229E+04  0.24121610229E+04  0.50400001928E-02 0. -1.
    10030    2    1    2    0    0  0.00000000000E+00  0.00000000000E+00 -0.21416408033E+04  0.26826812426E+04  0.16155968924E+04 0.  0.
        3    1    3    3  502    0  0.14204211528E+03 -0.12797420260E+03 -0.23740505492E+04  0.23817366310E+04  0.10100000352E+00 0. -1.
       -3    1    3    3    0  502 -0.14204211528E+03  0.12797420260E+03  0.23240974589E+03  0.30094461157E+03  0.10100000352E+00 0.  1.
</event>
<event>
 5   0  0.7553070E-04  0.1567018E+04  0.7818609E-02  0.8841070E-01
        2   -1    0    0  501    0  0.00000000000E+00  0.00000000000E+00  0.10002253046E+04  0.10002253046E+04  0.25500000920E-02 0.  1.
       -2   -1    0    0    0  501  0.00000000000E+00  0.00000000000E+00 -0.61374834764E+03  0.61374834765E+03  0.25500000920E-02 0. -1.
    10030    2    1    2    0    0  0.00000000000E+00  0.00000000000E+00  0.38647695694E+03  0.16139736522E+04  0.15670183508E+04 0.  0.
        4    1    3    3  502    0  0.27550338084E+03  0.48492823211E+03  0.76002566364E+03  0.94270786856E+03  0.12699999809E+01 0.  1.
       -4    1    3    3    0  502 -0.27550338084E+03 -0.48492823211E+03 -0.37354870669E+03  0.67126578367E+03  0.12699999809E+01 0. -1.
</event>
<event>
 5   0  0.7488884E-04  0.1607050E+04  0.7818609E-02  0.8816229E-01
        2   -1    0    0  501    0  0.00000000000E+00  0.00000000000E+00  0.45693483402E+03  0.45693483403E+03  0.25500000920E-02 0.  1.
       -2   -1    0    0    0  501  0.00000000000E+00  0.00000000000E+00 -0.14130068314E+04  0.14130068314E+04  0.25500000920E-02 0. -1.
    10030    2    1    2    0    0  0.00000000000E+00  0.00000000000E+00 -0.95607199738E+03  0.18699416654E+04  0.16070495226E+04 0.  0.
        3    1    3    3  502    0  0.29862519972E+03  0.71185166988E+03 -0.21852164176E+03  0.80228519115E+03  0.10100000352E+00 0.  1.
       -3    1    3    3    0  502 -0.29862519972E+03 -0.71185166988E+03 -0.73755035562E+03  0.10676564743E+04  0.10100000352E+00 0. -1.
</event>
<event>
 5   0  0.7415102E-04  0.1572674E+04  0.7818609E-02  0.8837514E-01
       -2   -1    0    0    0  501  0.00000000000E+00  0.00000000000E+00  0.21741533197E+04  0.21741533197E+04  0.25500000920E-02 0.  1.
        2   -1    0    0  501    0  0.00000000000E+00  0.00000000000E+00 -0.28439843155E+03  0.28439843156E+03  0.25500000920E-02 0. -1.
    10030    2    1    2    0    0  0.00000000000E+00  0.00000000000E+00  0.18897548882E+04  0.24585517513E+04  0.15726738938E+04 0.  0.
        5    1    3    3  502    0 -0.33336162432E+03 -0.41825658278E+03  0.43797187422E+02  0.53666453696E+03  0.46999998093E+01 0. -1.
       -5    1    3    3    0  502  0.33336162432E+03  0.41825658278E+03  0.18459577008E+04  0.19218872143E+04  0.46999998093E+01 0.  1.
</event>
<event>
 5   0  0.3837251E-04  0.1583037E+04  0.7818609E-02  0.8831038E-01
       -1   -1    0    0    0  501  0.00000000000E+00  0.00000000000E+00  0.83832148399E+03  0.83832148401E+03  0.50400001928E-02 0.  1.
        1   -1    0    0  501    0  0.00000000000E+00  0.00000000000E+00 -0.74732806001E+03  0.74732806003E+03  0.50400001928E-02 0. -1.
    10030    2    1    2    0    0  0.00000000000E+00  0.00000000000E+00  0.90993423977E+02  0.15856495440E+04  0.15830365357E+04 0.  0.
        4    1    3    3  502    0 -0.63801039341E+03  0.41213017910E+03  0.26855467928E+03  0.80562508358E+03  0.12699999809E+01 0. -1.
       -4    1    3    3    0  502  0.63801039341E+03 -0.41213017910E+03 -0.17756125530E+03  0.78002446046E+03  0.12699999809E+01 0.  1.
</event>
<event>
 5   0  0.3973227E-04  0.1562819E+04  0.7818609E-02  0.8843721E-01
        1   -1    0    0  501    0  0.00000000000E+00  0.00000000000E+00  0.19002285407E+04  0.19002285407E+04  0.50400001928E-02 0. -1.
       -1   -1    0    0    0  501  0.00000000000E+00  0.00000000000E+00 -0.32133036922E+03  0.32133036926E+03  0.50400001928E-02 0.  1.
    10030    2    1    2    0    0  0.00000000000E+00  0.00000000000E+00  0.15788981715E+04  0.22215589100E+04  0.15628194248E+04 0.  0.
        3    1    3    3  502    0 -0.12047785469E+03 -0.14495247165E+03 -0.28853233568E+03  0.34464046693E+03  0.10100000352E+00 0.  1.
       -3    1    3    3    0  502  0.12047785469E+03  0.14495247165E+03  0.18674305072E+04  0.18769184431E+04  0.10100000352E+00 0. -1.
</event>
<event>
 5   0  0.4110803E-04  0.1604430E+04  0.7818609E-02  0.8817831E-01
       -1   -1    0    0    0  501  0.00000000000E+00  0.00000000000E+00  0.38983273271E+03  0.38983273274E+03  0.50400001928E-02 0.  1.
        1   -1    0    0  501    0  0.00000000000E+00  0.00000000000E+00 -0.16508342273E+04  0.16508342273E+04  0.50400001928E-02 0. -1.
    10030    2    1    2    0    0  0.00000000000E+00  0.00000000000E+00 -0.12610014946E+04  0.20406669601E+04  0.16044303888E+04 0.  0.
        5    1    3    3  502    0  0.10668456484E+03  0.37563212749E+03  0.26077555373E+03  0.46958180437E+03  0.46999998093E+01 0.  1.
       -5    1    3    3    0  502 -0.10668456484E+03 -0.37563212749E+03 -0.15217770483E+04  0.15710851557E+04  0.46999998093E+01 0. -1.
</event>
<event>
 5   0  0.7553070E-04  0.1630328E+04  0.7818609E-02  0.8802130E-01
        2   -1    0    0  501    0  0.00000000000E+00  0.00000000000E+00  0.12790476311E+04  0.12790476311E+04  0.25500000920E-02 0.  1.
       -2   -1    0    0    0  501  0.00000000000E+00  0.00000000000E+00 -0.51952117277E+03  0.51952117278E+03  0.25500000920E-02 0. -1.
    10030    2    1    2    0    0  0.00000000000E+00  0.00000000000E+00  0.75952645834E+03  0.17985688039E+04  0.16303279736E+04 0.  0.
        4    1    3    3  502    0  0.72827274232E+03  0.35192799502E+03  0.49148699392E+03  0.94646477957E+03  0.12699999809E+01 0. -1.
       -4    1    3    3    0  502 -0.72827274232E+03 -0.35192799502E+03  0.26803946442E+03  0.85210402432E+03  0.12699999809E+01 0.  1.
</event>
<event>
 5   0  0.7395088E-04  0.1604197E+04  0.7818609E-02  0.8817974E-01
       -2   -1    0    0    0  501  0.00000000000E+00  0.00000000000E+00  0.72120171950E+03  0.72120171951E+03  0.25500000920E-02 0. -1.
        2   -1    0    0  501    0  0.00000000000E+00  0.00000000000E+00 -0.89206901887E+03  0.89206901888E+03  0.25500000920E-02 0.  1.
    10030    2    1    2    0    0  0.00000000000E+00  0.00000000000E+00 -0.17086729937E+03  0.16132707384E+04  0.16041966342E+04 0.  0.
        1    1    3    3  502    0 -0.33500411603E+03  0.14860773441E+03 -0.80294660342E+03  0.88262974370E+03  0.50400001928E-02 0.  1.
       -1    1    3    3    0  502  0.33500411603E+03 -0.14860773441E+03  0.63207930405E+03  0.73064099469E+03  0.50400001928E-02 0. -1.
</event>
<event>
 5   0  0.7415102E-04  0.1587980E+04  0.7818609E-02  0.8827967E-01
        2   -1    0    0  501    0  0.00000000000E+00  0.00000000000E+00  0.71661961329E+03  0.71661961329E+03  0.25500000920E-02 0. -1.
       -2   -1    0    0    0  501  0.00000000000E+00  0.00000000000E+00 -0.87971360389E+03  0.87971360389E+03  0.25500000920E-02 0.  1.
    10030    2    1    2    0    0  0.00000000000E+00  0.00000000000E+00 -0.16309399060E+03  0.15963332172E+04  0.15879798772E+04 0.  0.
        5    1    3    3  502    0 -0.50415039423E+03 -0.57941419955E+03 -0.28387546025E+03  0.81883808019E+03  0.46999998093E+01 0.  1.
       -5    1    3    3    0  502  0.50415039423E+03  0.57941419955E+03  0.12078146965E+03  0.77749513699E+03  0.46999998093E+01 0. -1.
</event>
<event>
 5   0  0.7553070E-04  0.1564907E+04  0.7818609E-02  0.8842402E-01
       -2   -1    0    0    0  501  0.00000000000E+00  0.00000000000E+00  0.91252605054E+03  0.91252605054E+03  0.25500000920E-02 0.  1.
        2   -1    0    0  501    0  0.00000000000E+00  0.00000000000E+00 -0.67092125314E+03  0.67092125314E+03  0.25500000920E-02 0. -1.
    10030    2    1    2    0    0  0.00000000000E+00  0.00000000000E+00  0.24160479740E+03  0.15834473037E+04  0.15649065421E+04 0.  0.
        4    1    3    3  502    0  0.14285546211E+03  0.44561776638E+03 -0.51372271971E+03  0.69490684441E+03  0.12699999809E+01 0. -1.
       -4    1    3    3    0  502 -0.14285546211E+03 -0.44561776638E+03  0.75532751711E+03  0.88854045927E+03  0.12699999809E+01 0.  1.
</event>
<event>
 5   0  0.7770905E-04  0.1589565E+04  0.7818609E-02  0.8826985E-01
       -2   -1    0    0    0  501  0.00000000000E+00  0.00000000000E+00  0.29091744050E+03  0.29091744051E+03  0.25500000920E-02 0.  1.
        2   -1    0    0  501    0  0.00000000000E+00  0.00000000000E+00 -0.21713338188E+04  0.21713338188E+04  0.25500000920E-02 0. -1.
    10030    2    1    2    0    0  0.00000000000E+00  0.00000000000E+00 -0.18804163783E+04  0.24622512593E+04  0.15895645656E+04 0.  0.
        2    1    3    3  502    0 -0.40875270431E+02  0.53484511167E+03 -0.18486583203E+04  0.19249071838E+04  0.25500000920E-02 0. -1.
       -2    1    3    3    0  502  0.40875270431E+02 -0.53484511167E+03 -0.31758058024E+02  0.53734407549E+03  0.25500000920E-02 0.  1.
</event>
<event>
 5   0  0.7415102E-04  0.1576367E+04  0.7818609E-02  0.8835200E-01
       -2   -1    0    0    0  501  0.00000000000E+00  0.00000000000E+00  0.46159016244E+03  0.46159016245E+03  0.25500000920E-02 0. -1.
        2   -1    0    0  501    0  0.00000000000E+00  0.00000000000E+00 -0.13458541144E+04  0.13458541144E+04  0.25500000920E-02 0.  1.
    10030    2    1    2    0    0  0.00000000000E+00  0.00000000000E+00 -0.88426395194E+03  0.18074442768E+04  0.15763667331E+04 0.  0.
        5    1    3    3  502    0  0.27006527042E+03  0.69440766955E+03 -0.14740366008E+03  0.75953090182E+03  0.46999998093E+01 0.  1.
       -5    1    3    3    0  502 -0.27006527042E+03 -0.69440766955E+03 -0.73686029186E+03  0.10479133750E+04  0.46999998093E+01 0. -1.
</event>
<event>
 5   0  0.7415102E-04  0.1582407E+04  0.7818609E-02  0.8831429E-01
        2   -1    0    0  501    0  0.00000000000E+00  0.00000000000E+00  0.75184657625E+03  0.75184657626E+03  0.25500000920E-02 0.  1.
       -2   -1    0    0    0  501  0.00000000000E+00  0.00000000000E+00 -0.83262097028E+03  0.83262097028E+03  0.25500000920E-02 0. -1.
    10030    2    1    2    0    0  0.00000000000E+00  0.00000000000E+00 -0.80774394025E+02  0.15844675465E+04  0.15824073127E+04 0.  0.
        5    1    3    3  502    0 -0.35255050530E+03 -0.11234772897E+03 -0.74063114567E+03  0.82793143129E+03  0.46999998093E+01 0. -1.
       -5    1    3    3    0  502  0.35255050530E+03  0.11234772897E+03  0.65985675164E+03  0.75653611525E+03  0.46999998093E+01 0.  1.
</event>
<event>
 5   0  0.3950195E-04  0.1608723E+04  0.7818609E-02  0.8815207E-01
        1   -1    0    0  501    0  0.00000000000E+00  0.00000000000E+00  0.15712369981E+04  0.15712369981E+04  0.50400001928E-02 0. -1.
       -1   -1    0    0    0  501  0.00000000000E+00  0.00000000000E+00 -0.41177582163E+03  0.41177582166E+03  0.50400001928E-02 0.  1.
    10030    2    1    2    0    0  0.00000000000E+00  0.00000000000E+00  0.11594611765E+04  0.19830128198E+04  0.16087229791E+04 0.  0.
        2    1    3    3  502    0 -0.13559520051E+03  0.30525767484E+03 -0.32224595142E+03  0.46412364695E+03  0.25500000920E-02 0.  1.
       -2    1    3    3    0  502  0.13559520051E+03 -0.30525767484E+03  0.14817071279E+04  0.15188891728E+04  0.25500000920E-02 0. -1.
</event>
<event>
 5   0  0.3950195E-04  0.1600481E+04  0.7818609E-02  0.8820252E-01
        1   -1    0    0  501    0  0.00000000000E+00  0.00000000000E+00  0.18057439157E+04  0.18057439158E+04  0.50400001928E-02 0. -1.
       -1   -1    0    0    0  501  0.00000000000E+00  0.00000000000E+00 -0.35463788133E+03  0.35463788137E+03  0.50400001928E-02 0.  1.
    10030    2    1    2    0    0  0.00000000000E+00  0.00000000000E+00  0.14511060344E+04  0.21603817971E+04  0.16004814233E+04 0.  0.
        2    1    3    3  502    0 -0.50440825539E+03  0.12151824352E+03  0.15479442808E+04  0.16325825762E+04  0.25500000920E-02 0. -1.
       -2    1    3    3    0  502  0.50440825539E+03 -0.12151824352E+03 -0.96838246404E+02  0.52779922091E+03  0.25500000920E-02 0.  1.
</event>
<event>
 5   0  0.2781000E-04  0.1511050E+04  0.7818609E-02  0.8877138E-01
       -4   -1    0    0    0  501  0.00000000000E+00  0.00000000000E+00  0.73874748371E+03  0.73874857535E+03  0.12699999809E+01 0. -1.
        4   -1    0    0  501    0  0.00000000000E+00  0.00000000000E+00 -0.77268129408E+03  0.77268233778E+03  0.12699999809E+01 0.  1.
    10030    2    1    2    0    0  0.00000000000E+00  0.00000000000E+00 -0.33933810371E+02  0.15114309131E+04  0.15110499336E+04 0.  0.
        5    1    3    3  502    0 -0.31983919559E+03 -0.64422262892E+03  0.21434013722E+03  0.75052227887E+03  0.46999998093E+01 0. -1.
       -5    1    3    3    0  502  0.31983919559E+03  0.64422262892E+03 -0.24827394759E+03  0.76090863427E+03  0.46999998093E+01 0.  1.
</event>
<event>
 5   0  0.4110803E-04  0.1722918E+04  0.7818609E-02  0.8748400E-01
        1   -1    0    0  501    0  0.00000000000E+00  0.00000000000E+00  0.11876999286E+04  0.11876999287E+04  0.50400001928E-02 0. -1.
       -1   -1    0    0    0  501  0.00000000000E+00  0.00000000000E+00 -0.62483077551E+03  0.62483077553E+03  0.50400001928E-02 0.  1.
    10030    2    1    2    0    0  0.00000000000E+00  0.00000000000E+00  0.56286915314E+03  0.18125307042E+04  0.17229178361E+04 0.  0.
        5    1    3    3  502    0 -0.61595661261E+03  0.22909011939E+03 -0.30449427614E+03  0.72430910917E+03  0.46999998093E+01 0.  1.
       -5    1    3    3    0  502  0.61595661261E+03 -0.22909011939E+03  0.86736342928E+03  0.10882215950E+04  0.46999998093E+01 0. -1.
</event>
<event>
 5   0  0.7488884E-04  0.1598326E+04  0.7818609E-02  0.8821577E-01
        2   -1    0    0  501    0  0.00000000000E+00  0.00000000000E+00  0.74267071595E+03  0.74267071596E+03  0.25500000920E-02 0.  1.
       -2   -1    0    0    0  501  0.00000000000E+00  0.00000000000E+00 -0.85995276332E+03  0.85995276332E+03  0.25500000920E-02 0. -1.
    10030    2    1    2    0    0  0.00000000000E+00  0.00000000000E+00 -0.11728204736E+03  0.16026234793E+04  0.15983262926E+04 0.  0.
        3    1    3    3  502    0  0.28709913644E+03 -0.61545336996E+03 -0.48102523968E+03  0.83222235980E+03  0.10100000352E+00 0. -1.
       -3    1    3    3    0  502 -0.28709913644E+03  0.61545336996E+03  0.36374319232E+03  0.77040111948E+03  0.10100000352E+00 0.  1.
</event>
<event>
 5   0  0.3889847E-04  0.1543080E+04  0.7818609E-02  0.8856300E-01
        1   -1    0    0  501    0  0.00000000000E+00  0.00000000000E+00  0.13038400365E+04  0.13038400365E+04  0.50400001928E-02 0.  1.
       -1   -1    0    0    0  501  0.00000000000E+00  0.00000000000E+00 -0.45655450100E+03  0.45655450103E+03  0.50400001928E-02 0. -1.
    10030    2    1    2    0    0  0.00000000000E+00  0.00000000000E+00  0.84728553553E+03  0.17603945376E+04  0.15430800851E+04 0.  0.
        1    1    3    3  502    0  0.64267239482E+03  0.22360261202E+03  0.83851681692E+03  0.10798779503E+04  0.50400001928E-02 0.  1.
       -1    1    3    3    0  502 -0.64267239482E+03 -0.22360261202E+03  0.87687186134E+01  0.68051658732E+03  0.50400001928E-02 0. -1.
</event>
<event>
 5   0  0.3950195E-04  0.1672408E+04  0.7818609E-02  0.8777259E-01
        1   -1    0    0  501    0  0.00000000000E+00  0.00000000000E+00  0.82754244198E+03  0.82754244200E+03  0.50400001928E-02 0.  1.
       -1   -1    0    0    0  501  0.00000000000E+00  0.00000000000E+00 -0.84495644228E+03  0.84495644230E+03  0.50400001928E-02 0. -1.
    10030    2    1    2    0    0  0.00000000000E+00  0.00000000000E+00 -0.17414000301E+02  0.16724988843E+04  0.16724082249E+04 0.  0.
        2    1    3    3  502    0 -0.32606449543E+03 -0.49088686467E+03  0.58457835039E+03  0.83007217568E+03  0.25500000920E-02 0.  1.
       -2    1    3    3    0  502  0.32606449543E+03  0.49088686467E+03 -0.60199235069E+03  0.84242670861E+03  0.25500000920E-02 0. -1.
</event>
<event>
 5   0  0.4110803E-04  0.1631382E+04  0.7818609E-02  0.8801497E-01
       -1   -1    0    0    0  501  0.00000000000E+00  0.00000000000E+00  0.65416180687E+03  0.65416180689E+03  0.50400001928E-02 0. -1.
        1   -1    0    0  501    0  0.00000000000E+00  0.00000000000E+00 -0.10171058221E+04  0.10171058221E+04  0.50400001928E-02 0.  1.
    10030    2    1    2    0    0  0.00000000000E+00  0.00000000000E+00 -0.36294401524E+03  0.16712676290E+04  0.16313819692E+04 0.  0.
        5    1    3    3  502    0 -0.27320408107E+03  0.21417269813E+03  0.57469300080E+03  0.67141980140E+03  0.46999998093E+01 0. -1.
       -5    1    3    3    0  502  0.27320408107E+03 -0.21417269813E+03 -0.93763701604E+03  0.99984782762E+03  0.46999998093E+01 0.  1.
</event>
<event>
 5   0  0.7770905E-04  0.1600169E+04  0.7818609E-02  0.8820444E-01
       -2   -1    0    0    0  501  0.00000000000E+00  0.00000000000E+00  0.51762701127E+03  0.51762701128E+03  0.25500000920E-02 0.  1.
        2   -1    0    0  501    0  0.00000000000E+00  0.00000000000E+00 -0.12366734356E+04  0.12366734356E+04  0.25500000920E-02 0. -1.
    10030    2    1    2    0    0  0.00000000000E+00  0.00000000000E+00 -0.71904642437E+03  0.17543004469E+04  0.16001694591E+04 0.  0.
        2    1    3    3  502    0 -0.53307179639E+03 -0.20828036060E+03 -0.97247323940E+03  0.11283839994E+04  0.25500000920E-02 0. -1.
       -2    1    3    3    0  502  0.53307179639E+03  0.20828036060E+03  0.25342681503E+03  0.62591644754E+03  0.25500000920E-02 0.  1.
</event>
<event>
 5   0  0.7553070E-04  0.1608792E+04  0.7818609E-02  0.8815165E-01
       -2   -1    0    0    0  501  0.00000000000E+00  0.00000000000E+00  0.71985498114E+03  0.71985498115E+03  0.25500000920E-02 0. -1.
        2   -1    0    0  501    0  0.00000000000E+00  0.00000000000E+00 -0.89886551884E+03  0.89886551885E+03  0.25500000920E-02 0.  1.
    10030    2    1    2    0    0  0.00000000000E+00  0.00000000000E+00 -0.17901053770E+03  0.16187205000E+04  0.16087918711E+04 0.  0.
        4    1    3    3  502    0 -0.22577923868E+02  0.54118280472E+03 -0.68787081925E+03  0.87553210543E+03  0.12699999809E+01 0.  1.
       -4    1    3    3    0  502  0.22577923868E+02 -0.54118280472E+03  0.50886028155E+03  0.74318839456E+03  0.12699999809E+01 0. -1.
</event>
<event>
 5   0  0.3973227E-04  0.1620017E+04  0.7818609E-02  0.8808345E-01
       -1   -1    0    0    0  501  0.00000000000E+00  0.00000000000E+00  0.62261845218E+03  0.62261845220E+03  0.50400001928E-02 0. -1.
        1   -1    0    0  501    0  0.00000000000E+00  0.00000000000E+00 -0.10537970988E+04  0.10537970988E+04  0.50400001928E-02 0.  1.
    10030    2    1    2    0    0  0.00000000000E+00  0.00000000000E+00 -0.43117864663E+03  0.16764155510E+04  0.16200166895E+04 0.  0.
        3    1    3    3  502    0  0.11675104860E+03 -0.63786892019E+03 -0.71788022488E+03  0.96739836374E+03  0.10100000352E+00 0.  1.
       -3    1    3    3    0  502 -0.11675104860E+03  0.63786892019E+03  0.28670157825E+03  0.70901718728E+03  0.10100000352E+00 0. -1.
</event>
<event>
 5   0  0.7770905E-04  0.1585705E+04  0.7818609E-02  0.8829378E-01
       -2   -1    0    0    0  501  0.00000000000E+00  0.00000000000E+00  0.29349332725E+03  0.29349332726E+03  0.25500000920E-02 0. -1.
        2   -1    0    0  501    0  0.00000000000E+00  0.00000000000E+00 -0.21418389676E+04  0.21418389676E+04  0.25500000920E-02 0.  1.
    10030    2    1    2    0    0  0.00000000000E+00  0.00000000000E+00 -0.18483456404E+04  0.24353322949E+04  0.15857054519E+04 0.  0.
        2    1    3    3  502    0 -0.39084981430E+03  0.68738756231E+02 -0.19783282183E+04  0.20177391143E+04  0.25500000920E-02 0.  1.
       -2    1    3    3    0  502  0.39084981430E+03 -0.68738756231E+02  0.12998257791E+03  0.41759318063E+03  0.25500000920E-02 0. -1.
</event>
<event>
 5   0  0.4110803E-04  0.1586128E+04  0.7818609E-02  0.8829115E-01
       -1   -1    0    0    0  501  0.00000000000E+00  0.00000000000E+00  0.42051936958E+03  0.42051936961E+03  0.50400001928E-02 0.  1.
        1   -1    0    0  501    0  0.00000000000E+00  0.00000000000E+00 -0.14956524074E+04  0.14956524074E+04  0.50400001928E-02 0. -1.
    10030    2    1    2    0    0  0.00000000000E+00  0.00000000000E+00 -0.10751330378E+04  0.19161717770E+04  0.15861283775E+04 0.  0.
        5    1    3    3  502    0 -0.37821659354E+03  0.69540268703E+03 -0.59545401476E+03  0.99056562753E+03  0.46999998093E+01 0. -1.
       -5    1    3    3    0  502  0.37821659354E+03 -0.69540268703E+03 -0.47967902302E+03  0.92560614944E+03  0.46999998093E+01 0.  1.
</event>
<event>
 5   0  0.2781000E-04  0.1573269E+04  0.7818609E-02  0.8837140E-01
       -3   -1    0    0    0  501  0.00000000000E+00  0.00000000000E+00  0.10473680444E+04  0.10473680493E+04  0.10100000352E+00 0.  1.
        3   -1    0    0  501    0  0.00000000000E+00  0.00000000000E+00 -0.59080817496E+03  0.59080818359E+03  0.10100000352E+00 0. -1.
    10030    2    1    2    0    0  0.00000000000E+00  0.00000000000E+00  0.45655986947E+03  0.16381762329E+04  0.15732687169E+04 0.  0.
        5    1    3    3  502    0 -0.52376269425E+03  0.24762176640E+03 -0.32576990860E+03  0.66467437324E+03  0.46999998093E+01 0. -1.
       -5    1    3    3    0  502  0.52376269425E+03 -0.24762176640E+03  0.78232977807E+03  0.97350185965E+03  0.46999998093E+01 0.  1.
</event>
<event>
 5   0  0.3837251E-04  0.1538556E+04  0.7818609E-02  0.8859211E-01
       -1   -1    0    0    0  501  0.00000000000E+00  0.00000000000E+00  0.46269910355E+03  0.46269910358E+03  0.50400001928E-02 0.  1.
        1   -1    0    0  501    0  0.00000000000E+00  0.00000000000E+00 -0.12789927652E+04  0.12789927652E+04  0.50400001928E-02 0. -1.
    10030    2    1    2    0    0  0.00000000000E+00  0.00000000000E+00 -0.81629366165E+03  0.17416918688E+04  0.15385562140E+04 0.  0.
        4    1    3    3  502    0 -0.40207809975E+03 -0.62933082650E+02 -0.11471464367E+04  0.12171992160E+04  0.12699999809E+01 0. -1.
       -4    1    3    3    0  502  0.40207809975E+03  0.62933082650E+02  0.33085277507E+03  0.52449265282E+03  0.12699999809E+01 0.  1.
</event>
<event>
 5   0  0.3950195E-04  0.1623694E+04  0.7818609E-02  0.8806123E-01
       -1   -1    0    0    0  501  0.00000000000E+00  0.00000000000E+00  0.71045517682E+03  0.71045517684E+03  0.50400001928E-02 0. -1.
        1   -1    0    0  501    0  0.00000000000E+00  0.00000000000E+00 -0.92770908658E+03  0.92770908659E+03  0.50400001928E-02 0.  1.
    10030    2    1    2    0    0  0.00000000000E+00  0.00000000000E+00 -0.21725390976E+03  0.16381642634E+04  0.16236942116E+04 0.  0.
        2    1    3    3  502    0 -0.54637920557E+03  0.76067655261E+02 -0.70956856930E+03  0.89877921594E+03  0.25500000920E-02 0.  1.
       -2    1    3    3    0  502  0.54637920557E+03 -0.76067655261E+02  0.49231465954E+03  0.73938504749E+03  0.25500000920E-02 0. -1.
</event>
<event>
 5   0  0.4110803E-04  0.1610086E+04  0.7818609E-02  0.8814376E-01
        1   -1    0    0  501    0  0.00000000000E+00  0.00000000000E+00  0.18861724453E+04  0.18861724453E+04  0.50400001928E-02 0. -1.
       -1   -1    0    0    0  501  0.00000000000E+00  0.00000000000E+00 -0.34360277342E+03  0.34360277346E+03  0.50400001928E-02 0.  1.
    10030    2    1    2    0    0  0.00000000000E+00  0.00000000000E+00  0.15425696718E+04  0.22297752187E+04  0.16100858156E+04 0.  0.
        5    1    3    3  502    0  0.17182450203E+03 -0.63521571072E+03  0.12906884932E+03  0.67059937109E+03  0.46999998093E+01 0.  1.
       -5    1    3    3    0  502 -0.17182450203E+03  0.63521571072E+03  0.14135008225E+04  0.15591758477E+04  0.46999998093E+01 0. -1.
</event>
<event>
 5   0  0.3889847E-04  0.1601007E+04  0.7818609E-02  0.8819930E-01
        1   -1    0    0  501    0  0.00000000000E+00  0.00000000000E+00  0.12646601277E+04  0.12646601277E+04  0.50400001928E-02 0. -1.
       -1   -1    0    0    0  501  0.00000000000E+00  0.00000000000E+00 -0.50670181771E+03  0.50670181774E+03  0.50400001928E-02 0.  1.
    10030    2    1    2    0    0  0.00000000000E+00  0.00000000000E+00  0.75795831000E+03  0.17713619455E+04  0.16010066652E+04 0.  0.
        1    1    3    3  502    0  0.32222882876E+03  0.72639708487E+02 -0.42778489380E+03  0.54047003684E+03  0.50400001928E-02 0.  1.
       -1    1    3    3    0  502 -0.32222882876E+03 -0.72639708487E+02  0.11857432038E+04  0.12308919086E+04  0.50400001928E-02 0. -1.
</event>
<event>
 5   0  0.7488884E-04  0.1609265E+04  0.7818609E-02  0.8814876E-01
       -2   -1    0    0    0  501  0.00000000000E+00  0.00000000000E+00  0.71642059253E+03  0.71642059254E+03  0.25500000920E-02 0. -1.
        2   -1    0    0  501    0  0.00000000000E+00  0.00000000000E+00 -0.90370579510E+03  0.90370579510E+03  0.25500000920E-02 0.  1.
    10030    2    1    2    0    0  0.00000000000E+00  0.00000000000E+00 -0.18728520257E+03  0.16201263876E+04  0.16092649766E+04 0.  0.
        3    1    3    3  502    0 -0.25680434328E+03 -0.21078289340E+03  0.64414428783E+03  0.72477567056E+03  0.10100000352E+00 0. -1.
       -3    1    3    3    0  502  0.25680434328E+03  0.21078289340E+03 -0.83142949040E+03  0.89535071709E+03  0.10100000352E+00 0.  1.
</event>
<event>
 5   0  0.7488884E-04  0.1597060E+04  0.7818609E-02  0.8822356E-01
        2   -1    0    0  501    0  0.00000000000E+00  0.00000000000E+00  0.12660304413E+04  0.12660304413E+04  0.25500000920E-02 0.  1.
       -2   -1    0    0    0  501  0.00000000000E+00  0.00000000000E+00 -0.50366110171E+03  0.50366110171E+03  0.25500000920E-02 0. -1.
    10030    2    1    2    0    0  0.00000000000E+00  0.00000000000E+00  0.76236933960E+03  0.17696915430E+04  0.15970601578E+04 0.  0.
        3    1    3    3  502    0 -0.69316487122E+03  0.84857254536E+02  0.81030725153E+03  0.10697084390E+04  0.10100000352E+00 0. -1.
       -3    1    3    3    0  502  0.69316487122E+03 -0.84857254536E+02 -0.47937911930E+02  0.69998310404E+03  0.10100000352E+00 0.  1.
</event>
<event>
 5   0  0.4110803E-04  0.1595379E+04  0.7818609E-02  0.8823392E-01
        1   -1    0    0  501    0  0.00000000000E+00  0.00000000000E+00  0.70336825470E+03  0.70336825472E+03  0.50400001928E-02 0.  1.
       -1   -1    0    0    0  501  0.00000000000E+00  0.00000000000E+00 -0.90465956498E+03  0.90465956500E+03  0.50400001928E-02 0. -1.
    10030    2    1    2    0    0  0.00000000000E+00  0.00000000000E+00 -0.20129131028E+03  0.16080278197E+04  0.15953793522E+04 0.  0.
        5    1    3    3  502    0 -0.63796762837E+03  0.24638719610E+02 -0.58263873576E+03  0.86434932045E+03  0.46999998093E+01 0. -1.
       -5    1    3    3    0  502  0.63796762837E+03 -0.24638719610E+02  0.38134742548E+03  0.74367849927E+03  0.46999998093E+01 0.  1.
</event>
<event>
 5   0  0.3973227E-04  0.1611097E+04  0.7818609E-02  0.8813760E-01
        1   -1    0    0  501    0  0.00000000000E+00  0.00000000000E+00  0.11525382813E+04  0.11525382813E+04  0.50400001928E-02 0. -1.
       -1   -1    0    0    0  501  0.00000000000E+00  0.00000000000E+00 -0.56302540783E+03  0.56302540786E+03  0.50400001928E-02 0.  1.
    10030    2    1    2    0    0  0.00000000000E+00  0.00000000000E+00  0.58951287347E+03  0.17155636892E+04  0.16110969380E+04 0.  0.
        3    1    3    3  502    0 -0.12944164652E+03  0.27075693366E+03  0.10907882390E+04  0.11313193402E+04  0.10100000352E+00 0. -1.
       -3    1    3    3    0  502  0.12944164652E+03 -0.27075693366E+03 -0.50127536555E+03  0.58424434895E+03  0.10100000352E+00 0.  1.
</event>
<event>
 5   0  0.3973227E-04  0.1592568E+04  0.7818609E-02  0.8825127E-01
       -1   -1    0    0    0  501  0.00000000000E+00  0.00000000000E+00  0.11901258514E+04  0.11901258514E+04  0.50400001928E-02 0.  1.
        1   -1    0    0  501    0  0.00000000000E+00  0.00000000000E+00 -0.53277379033E+03  0.53277379036E+03  0.50400001928E-02 0. -1.
    10030    2    1    2    0    0  0.00000000000E+00  0.00000000000E+00  0.65735206102E+03  0.17228996417E+04  0.15925675632E+04 0.  0.
        3    1    3    3  502    0  0.59073009541E+03 -0.52698410515E+03  0.42169871205E+03  0.89694152911E+03  0.10100000352E+00 0.  1.
       -3    1    3    3    0  502 -0.59073009541E+03  0.52698410515E+03  0.23565334897E+03  0.82595811261E+03  0.10100000352E+00 0. -1.
</event>
<event>
 5   0  0.7770905E-04  0.1589474E+04  0.7818609E-02  0.8827041E-01
       -2   -1    0    0    0  501  0.00000000000E+00  0.00000000000E+00  0.60607419552E+03  0.60607419553E+03  0.25500000920E-02 0.  1.
        2   -1    0    0  501    0  0.00000000000E+00  0.00000000000E+00 -0.10421285109E+04  0.10421285109E+04  0.25500000920E-02 0. -1.
    10030    2    1    2    0    0  0.00000000000E+00  0.00000000000E+00 -0.43605431537E+03  0.16482027064E+04  0.15894743771E+04 0.  0.
        2    1    3    3  502    0 -0.24877405121E+03  0.57642085740E+03  0.28727387813E+03  0.69041713077E+03  0.25500000920E-02 0.  1.
       -2    1    3    3    0  502  0.24877405121E+03 -0.57642085740E+03 -0.72332819349E+03  0.95778557565E+03  0.25500000920E-02 0. -1.
</event>
<event>
 5   0  0.7770905E-04  0.1598391E+04  0.7818609E-02  0.8821537E-01
       -2   -1    0    0    0  501  0.00000000000E+00  0.00000000000E+00  0.73125111241E+03  0.73125111241E+03  0.25500000920E-02 0. -1.
        2   -1    0    0  501    0  0.00000000000E+00  0.00000000000E+00 -0.87345273009E+03  0.87345273010E+03  0.25500000920E-02 0.  1.
    10030    2    1    2    0    0  0.00000000000E+00  0.00000000000E+00 -0.14220161769E+03  0.16047038425E+04  0.15983907914E+04 0.  0.
        2    1    3    3  502    0  0.70863502976E+03  0.41065380883E+02  0.29758704500E+03  0.76968046634E+03  0.25500000920E-02 0. -1.
       -2    1    3    3    0  502 -0.70863502976E+03 -0.41065380883E+02 -0.43978866269E+03  0.83502337617E+03  0.25500000920E-02 0.  1.
</event>
<event>
 5   0  0.3837251E-04  0.1607678E+04  0.7818609E-02  0.8815845E-01
       -1   -1    0    0    0  501  0.00000000000E+00  0.00000000000E+00  0.65052021608E+03  0.65052021610E+03  0.50400001928E-02 0.  1.
        1   -1    0    0  501    0  0.00000000000E+00  0.00000000000E+00 -0.99329315591E+03  0.99329315592E+03  0.50400001928E-02 0. -1.
    10030    2    1    2    0    0  0.00000000000E+00  0.00000000000E+00 -0.34277293983E+03  0.16438133720E+04  0.16076781748E+04 0.  0.
        4    1    3    3  502    0  0.34143281636E+03 -0.44752088611E+03  0.41536222115E+03  0.69955607298E+03  0.12699999809E+01 0.  1.
       -4    1    3    3    0  502 -0.34143281636E+03  0.44752088611E+03 -0.75813516097E+03  0.94425729904E+03  0.12699999809E+01 0. -1.
</event>
<event>
 5   0  0.7395088E-04  0.1604800E+04  0.7818609E-02  0.8817604E-01
       -2   -1    0    0    0  501  0.00000000000E+00  0.00000000000E+00  0.35703318915E+03  0.35703318916E+03  0.25500000920E-02 0. -1.
        2   -1    0    0  501    0  0.00000000000E+00  0.00000000000E+00 -0.18033229058E+04  0.18033229058E+04  0.25500000920E-02 0.  1.
    10030    2    1    2    0    0  0.00000000000E+00  0.00000000000E+00 -0.14462897167E+04  0.21603560950E+04  0.16048004588E+04 0.  0.
        1    1    3    3  502    0 -0.43870881174E+03 -0.39421449038E+03 -0.14555177967E+04  0.15704784438E+04  0.50400001928E-02 0.  1.
       -1    1    3    3    0  502  0.43870881174E+03  0.39421449038E+03  0.92280799929E+01  0.58987765122E+03  0.50400001928E-02 0. -1.
</event>
<event>
 5   0  0.2781000E-04  0.1609688E+04  0.7818609E-02  0.8814618E-01
        3   -1    0    0  501    0  0.00000000000E+00  0.00000000000E+00  0.85715209441E+03  0.85715210036E+03  0.10100000352E+00 0.  1.
       -3   -1    0    0    0  501  0.00000000000E+00  0.00000000000E+00 -0.75572843636E+03  0.75572844311E+03  0.10100000352E+00 0. -1.
    10030    2    1    2    0    0  0.00000000000E+00  0.00000000000E+00  0.10142365804E+03  0.16128805435E+04  0.16096884447E+04 0.  0.
        3    1    3    3  502    0  0.56606326738E+03  0.24128000326E+03 -0.46909487397E+03  0.77375297973E+03  0.10100000352E+00 0. -1.
       -3    1    3    3    0  502 -0.56606326738E+03 -0.24128000326E+03  0.57051853201E+03  0.83912756374E+03  0.10100000352E+00 0.  1.
</event>
<event>
 5   0  0.7415102E-04  0.1681918E+04  0.7818609E-02  0.8771745E-01
       -2   -1    0    0    0  501  0.00000000000E+00  0.00000000000E+00  0.60924638513E+03  0.60924638513E+03  0.25500000920E-02 0. -1.
        2   -1    0    0  501    0  0.00000000000E+00  0.00000000000E+00 -0.11607986636E+04  0.11607986636E+04  0.25500000920E-02 0.  1.
    10030    2    1    2    0    0  0.00000000000E+00  0.00000000000E+00 -0.55155227845E+03  0.17700450487E+04  0.16819184162E+04 0.  0.
        5    1    3    3  502    0 -0.48503770469E+03  0.68635963533E+03 -0.24528976088E+03  0.87552286137E+03  0.46999998093E+01 0. -1.
       -5    1    3    3    0  502  0.48503770469E+03 -0.68635963533E+03 -0.30626251757E+03  0.89452218735E+03  0.46999998093E+01 0.  1.
</event>
<event>
 5   0  0.7415102E-04  0.1598875E+04  0.7818609E-02  0.8821239E-01
        2   -1    0    0  501    0  0.00000000000E+00  0.00000000000E+00  0.91209184173E+03  0.91209184173E+03  0.25500000920E-02 0. -1.
       -2   -1    0    0    0  501  0.00000000000E+00  0.00000000000E+00 -0.70069736820E+03  0.70069736820E+03  0.25500000920E-02 0.  1.
    10030    2    1    2    0    0  0.00000000000E+00  0.00000000000E+00  0.21139447353E+03  0.16127892099E+04  0.15988750458E+04 0.  0.
        5    1    3    3  502    0 -0.22803862859E+03  0.94113864877E+02 -0.66132746299E+03  0.70585773282E+03  0.46999998093E+01 0.  1.
       -5    1    3    3    0  502  0.22803862859E+03 -0.94113864877E+02  0.87272193652E+03  0.90693147710E+03  0.46999998093E+01 0. -1.
</event>
<event>
 5   0  0.7770905E-04  0.1609225E+04  0.7818609E-02  0.8814901E-01
        2   -1    0    0  501    0  0.00000000000E+00  0.00000000000E+00  0.10360154966E+04  0.10360154966E+04  0.25500000920E-02 0. -1.
       -2   -1    0    0    0  501  0.00000000000E+00  0.00000000000E+00 -0.62489529249E+03  0.62489529249E+03  0.25500000920E-02 0.  1.
    10030    2    1    2    0    0  0.00000000000E+00  0.00000000000E+00  0.41112020413E+03  0.16609107891E+04  0.16092249150E+04 0.  0.
        2    1    3    3  502    0 -0.64643144326E+03 -0.14529831429E+03  0.67674903582E+03  0.94708736052E+03  0.25500000920E-02 0. -1.
       -2    1    3    3    0  502  0.64643144326E+03  0.14529831429E+03 -0.26562883168E+03  0.71382342859E+03  0.25500000920E-02 0.  1.
</event>
<event>
 5   0  0.4110803E-04  0.1609424E+04  0.7818609E-02  0.8814779E-01
        1   -1    0    0  501    0  0.00000000000E+00  0.00000000000E+00  0.16544325673E+04  0.16544325673E+04  0.50400001928E-02 0. -1.
       -1   -1    0    0    0  501  0.00000000000E+00  0.00000000000E+00 -0.39141020103E+03  0.39141020106E+03  0.50400001928E-02 0.  1.
    10030    2    1    2    0    0  0.00000000000E+00  0.00000000000E+00  0.12630223663E+04  0.20458427684E+04  0.16094244733E+04 0.  0.
        5    1    3    3  502    0 -0.52406509708E+03  0.58391859990E+03  0.40435113031E+03  0.88268175684E+03  0.46999998093E+01 0. -1.
       -5    1    3    3    0  502  0.52406509708E+03 -0.58391859990E+03  0.85867123598E+03  0.11631610115E+04  0.46999998093E+01 0.  1.
</event>
<event>
 5   0  0.7488884E-04  0.1644453E+04  0.7818609E-02  0.8793695E-01
        2   -1    0    0  501    0  0.00000000000E+00  0.00000000000E+00  0.12629494611E+04  0.12629494611E+04  0.25500000920E-02 0.  1.
       -2   -1    0    0    0  501  0.00000000000E+00  0.00000000000E+00 -0.53529941306E+03  0.53529941307E+03  0.25500000920E-02 0. -1.
    10030    2    1    2    0    0  0.00000000000E+00  0.00000000000E+00  0.72765004803E+03  0.17982488742E+04  0.16444526205E+04 0.  0.
        3    1    3    3  502    0  0.34953411521E+03 -0.48971352923E+03 -0.24900012835E+03  0.65114861017E+03  0.10100000352E+00 0. -1.
       -3    1    3    3    0  502 -0.34953411521E+03  0.48971352923E+03  0.97665017638E+03  0.11471002640E+04  0.10100000352E+00 0.  1.
</event>
<event>
 5   0  0.3973227E-04  0.1603290E+04  0.7818609E-02  0.8818529E-01
       -1   -1    0    0    0  501  0.00000000000E+00  0.00000000000E+00  0.49244968249E+03  0.49244968251E+03  0.50400001928E-02 0. -1.
        1   -1    0    0  501    0  0.00000000000E+00  0.00000000000E+00 -0.13049756040E+04  0.13049756040E+04  0.50400001928E-02 0.  1.
    10030    2    1    2    0    0  0.00000000000E+00  0.00000000000E+00 -0.81252592149E+03  0.17974252865E+04  0.16032901445E+04 0.  0.
        3    1    3    3  502    0 -0.41730306941E+03 -0.68229523981E+03 -0.46732009615E+03  0.92631351522E+03  0.10100000352E+00 0. -1.
       -3    1    3    3    0  502  0.41730306941E+03  0.68229523981E+03 -0.34520582533E+03  0.87111177127E+03  0.10100000352E+00 0.  1.
</event>
<event>
 5   0  0.7553070E-04  0.1568568E+04  0.7818609E-02  0.8840094E-01
       -2   -1    0    0    0  501  0.00000000000E+00  0.00000000000E+00  0.39108250498E+03  0.39108250499E+03  0.25500000920E-02 0.  1.
        2   -1    0    0  501    0  0.00000000000E+00  0.00000000000E+00 -0.15728165575E+04  0.15728165575E+04  0.25500000920E-02 0. -1.
    10030    2    1    2    0    0  0.00000000000E+00  0.00000000000E+00 -0.11817340525E+04  0.19638990625E+04  0.15685675493E+04 0.  0.
        4    1    3    3  502    0 -0.40666017721E+03 -0.33582436718E+03 -0.13176386659E+04  0.14192687455E+04  0.12699999809E+01 0. -1.
       -4    1    3    3    0  502  0.40666017721E+03  0.33582436718E+03  0.13590461336E+03  0.54463031696E+03  0.12699999809E+01 0.  1.
</event>
<event>
 5   0  0.3950195E-04  0.1588595E+04  0.7818609E-02  0.8827585E-01
        1   -1    0    0  501    0  0.00000000000E+00  0.00000000000E+00  0.14920096625E+04  0.14920096625E+04  0.50400001928E-02 0.  1.
       -1   -1    0    0    0  501  0.00000000000E+00  0.00000000000E+00 -0.42285825332E+03  0.42285825335E+03  0.50400001928E-02 0. -1.
    10030    2    1    2    0    0  0.00000000000E+00  0.00000000000E+00  0.10691514092E+04  0.19148679159E+04  0.15885951024E+04 0.  0.
        2    1    3    3  502    0 -0.62780684122E+03 -0.88024934785E+02  0.11114233874E+04  0.12795123153E+04  0.25500000920E-02 0.  1.
       -2    1    3    3    0  502  0.62780684122E+03  0.88024934785E+02 -0.42271978185E+02  0.63535560056E+03  0.25500000920E-02 0. -1.
</event>
<event>
 5   0  0.3889847E-04  0.1615480E+04  0.7818609E-02  0.8811094E-01
       -1   -1    0    0    0  501  0.00000000000E+00  0.00000000000E+00  0.13107589567E+04  0.13107589567E+04  0.50400001928E-02 0.  1.
        1   -1    0    0  501    0  0.00000000000E+00  0.00000000000E+00 -0.49776055911E+03  0.49776055913E+03  0.50400001928E-02 0. -1.
    10030    2    1    2    0    0  0.00000000000E+00  0.00000000000E+00  0.81299839754E+03  0.18085195158E+04  0.16154802520E+04 0.  0.
        1    1    3    3  502    0  0.57710613164E+03  0.28742838583E+03  0.95124238237E+03  0.11491425648E+04  0.50400001928E-02 0.  1.
       -1    1    3    3    0  502 -0.57710613164E+03 -0.28742838583E+03 -0.13824398483E+03  0.65937695101E+03  0.50400001928E-02 0. -1.
</event>
<event>
 5   0  0.7415102E-04  0.1624853E+04  0.7818609E-02  0.8805424E-01
       -2   -1    0    0    0  501  0.00000000000E+00  0.00000000000E+00  0.68053706519E+03  0.68053706519E+03  0.25500000920E-02 0.  1.
        2   -1    0    0  501    0  0.00000000000E+00  0.00000000000E+00 -0.96987672980E+03  0.96987672980E+03  0.25500000920E-02 0. -1.
    10030    2    1    2    0    0  0.00000000000E+00  0.00000000000E+00 -0.28933966461E+03  0.16504137950E+04  0.16248533021E+04 0.  0.
        5    1    3    3  502    0  0.27679456121E+03  0.10712180730E+03  0.62348382037E+03  0.69053926389E+03  0.46999998093E+01 0.  1.
       -5    1    3    3    0  502 -0.27679456121E+03 -0.10712180730E+03 -0.91282348498E+03  0.95987453110E+03  0.46999998093E+01 0. -1.
</event>
<event>
 5   0  0.4110803E-04  0.1367101E+04  0.7818609E-02  0.8977983E-01
        1   -1    0    0  501    0  0.00000000000E+00  0.00000000000E+00  0.24980988666E+04  0.24980988666E+04  0.50400001928E-02 0. -1.
       -1   -1    0    0    0  501  0.00000000000E+00  0.00000000000E+00 -0.18703883365E+03  0.18703883372E+03  0.50400001928E-02 0.  1.
    10030    2    1    2    0    0  0.00000000000E+00  0.00000000000E+00  0.23110600329E+04  0.26851377003E+04  0.13671013107E+04 0.  0.
        5    1    3    3  502    0  0.31797916497E+03  0.56939049484E+03  0.15575883432E+04  0.16886147642E+04  0.46999998093E+01 0. -1.
       -5    1    3    3    0  502 -0.31797916497E+03 -0.56939049484E+03  0.75347168974E+03  0.99652293612E+03  0.46999998093E+01 0.  1.
</event>
<event>
 5   0  0.7488884E-04  0.1603129E+04  0.7818609E-02  0.8818628E-01
       -2   -1    0    0    0  501  0.00000000000E+00  0.00000000000E+00  0.32242280812E+03  0.32242280813E+03  0.25500000920E-02 0. -1.
        2   -1    0    0  501    0  0.00000000000E+00  0.00000000000E+00 -0.19927432690E+04  0.19927432690E+04  0.25500000920E-02 0.  1.
    10030    2    1    2    0    0  0.00000000000E+00  0.00000000000E+00 -0.16703204609E+04  0.23151660771E+04  0.16031292907E+04 0.  0.
        3    1    3    3  502    0 -0.62016213873E+02  0.49210372131E+03 -0.17445117449E+04  0.18136519296E+04  0.10100000352E+00 0.  1.
       -3    1    3    3    0  502  0.62016213873E+02 -0.49210372131E+03  0.74191284084E+02  0.50151414751E+03  0.10100000352E+00 0. -1.
</event>
<event>
 5   0  0.7395088E-04  0.1626373E+04  0.7818609E-02  0.8804508E-01
       -2   -1    0    0    0  501  0.00000000000E+00  0.00000000000E+00  0.56438699864E+03  0.56438699864E+03  0.25500000920E-02 0.  1.
        2   -1    0    0  501    0  0.00000000000E+00  0.00000000000E+00 -0.11716647458E+04  0.11716647458E+04  0.25500000920E-02 0. -1.
    10030    2    1    2    0    0  0.00000000000E+00  0.00000000000E+00 -0.60727774713E+03  0.17360517444E+04  0.16263730805E+04 0.  0.
        1    1    3    3  502    0 -0.60952637938E+03  0.51889020123E+03 -0.15079425684E+03  0.81456022246E+03  0.50400001928E-02 0. -1.
       -1    1    3    3    0  502  0.60952637938E+03 -0.51889020123E+03 -0.45648349029E+03  0.92149152195E+03  0.50400001928E-02 0.  1.
</event>
<event>
 5   0  0.3950195E-04  0.1592991E+04  0.7818609E-02  0.8824866E-01
       -1   -1    0    0    0  501  0.00000000000E+00  0.00000000000E+00  0.52615592636E+03  0.52615592638E+03  0.50400001928E-02 0.  1.
        1   -1    0    0  501    0  0.00000000000E+00  0.00000000000E+00 -0.12057356706E+04  0.12057356706E+04  0.50400001928E-02 0. -1.
    10030    2    1    2    0    0  0.00000000000E+00  0.00000000000E+00 -0.67957974422E+03  0.17318915970E+04  0.15929908584E+04 0.  0.
        2    1    3    3  502    0  0.11951635498E+02 -0.55020652820E+03  0.28620683682E+03  0.62030993762E+03  0.25500000920E-02 0.  1.
       -2    1    3    3    0  502 -0.11951635498E+02  0.55020652820E+03 -0.96578658104E+03  0.11115816593E+04  0.25500000920E-02 0. -1.
</event>
<event>
 5   0  0.3950195E-04  0.1565336E+04  0.7818609E-02  0.8842131E-01
       -1   -1    0    0    0  501  0.00000000000E+00  0.00000000000E+00  0.68913170434E+03  0.68913170436E+03  0.50400001928E-02 0.  1.
        1   -1    0    0  501    0  0.00000000000E+00  0.00000000000E+00 -0.88889968518E+03  0.88889968520E+03  0.50400001928E-02 0. -1.
    10030    2    1    2    0    0  0.00000000000E+00  0.00000000000E+00 -0.19976798084E+03  0.15780313896E+04  0.15653356893E+04 0.  0.
        2    1    3    3  502    0 -0.12584523785E+02 -0.15743555091E+03  0.67290005413E+03  0.69118652026E+03  0.25500000920E-02 0.  1.
       -2    1    3    3    0  502  0.12584523785E+02  0.15743555091E+03 -0.87266803497E+03  0.88684486930E+03  0.25500000920E-02 0. -1.
</event>
<event>
 5   0  0.7488884E-04  0.1579685E+04  0.7818609E-02  0.8833126E-01
       -2   -1    0    0    0  501  0.00000000000E+00  0.00000000000E+00  0.61512373875E+03  0.61512373876E+03  0.25500000920E-02 0. -1.
        2   -1    0    0  501    0  0.00000000000E+00  0.00000000000E+00 -0.10141884190E+04  0.10141884190E+04  0.25500000920E-02 0.  1.
    10030    2    1    2    0    0  0.00000000000E+00  0.00000000000E+00 -0.39906468022E+03  0.16293121577E+04  0.15796852498E+04 0.  0.
        3    1    3    3  502    0 -0.71275253136E+03  0.23664073531E+03 -0.45183178453E+03  0.87645135649E+03  0.10100000352E+00 0.  1.
       -3    1    3    3    0  502  0.71275253136E+03 -0.23664073531E+03  0.52767104308E+02  0.75286080126E+03  0.10100000352E+00 0. -1.
</event>
<event>
 5   0  0.7415102E-04  0.1606508E+04  0.7818609E-02  0.8816560E-01
        2   -1    0    0  501    0  0.00000000000E+00  0.00000000000E+00  0.14780424239E+04  0.14780424240E+04  0.25500000920E-02 0. -1.
       -2   -1    0    0    0  501  0.00000000000E+00  0.00000000000E+00 -0.43653496735E+03  0.43653496736E+03  0.25500000920E-02 0.  1.
    10030    2    1    2    0    0  0.00000000000E+00  0.00000000000E+00  0.10415074566E+04  0.19145773913E+04  0.16065082649E+04 0.  0.
        5    1    3    3  502    0 -0.51305484124E+03 -0.46999123157E+03  0.42445129215E+02  0.69709447485E+03  0.46999998093E+01 0.  1.
       -5    1    3    3    0  502  0.51305484124E+03  0.46999123157E+03  0.99906232739E+03  0.12174829165E+04  0.46999998093E+01 0. -1.
</event>
<event>
 5   0  0.3837251E-04  0.1634338E+04  0.7818609E-02  0.8799726E-01
        1   -1    0    0  501    0  0.00000000000E+00  0.00000000000E+00  0.89240661467E+03  0.89240661468E+03  0.50400001928E-02 0.  1.
       -1   -1    0    0    0  501  0.00000000000E+00  0.00000000000E+00 -0.74827419021E+03  0.74827419022E+03  0.50400001928E-02 0. -1.
    10030    2    1    2    0    0  0.00000000000E+00  0.00000000000E+00  0.14413242446E+03  0.16406808049E+04  0.16343375869E+04 0.  0.
        4    1    3    3  502    0 -0.55663960710E+02 -0.16551966063E+03 -0.72932279398E+03  0.74993905439E+03  0.12699999809E+01 0. -1.
       -4    1    3    3    0  502  0.55663960710E+02  0.16551966063E+03  0.87345521845E+03  0.89074175051E+03  0.12699999809E+01 0.  1.
</event>
<event>
 5   0  0.3837251E-04  0.1598526E+04  0.7818609E-02  0.8821454E-01
        1   -1    0    0  501    0  0.00000000000E+00  0.00000000000E+00  0.12677044259E+04  0.12677044259E+04  0.50400001928E-02 0. -1.
       -1   -1    0    0    0  501  0.00000000000E+00  0.00000000000E+00 -0.50391993041E+03  0.50391993043E+03  0.50400001928E-02 0.  1.
    10030    2    1    2    0    0  0.00000000000E+00  0.00000000000E+00  0.76378449547E+03  0.17716243563E+04  0.15985262289E+04 0.  0.
        4    1    3    3  502    0  0.35978156418E+03 -0.11388680463E+03  0.11627479673E+04  0.12224554907E+04  0.12699999809E+01 0. -1.
       -4    1    3    3    0  502 -0.35978156418E+03  0.11388680463E+03 -0.39896347188E+03  0.54916886565E+03  0.12699999809E+01 0.  1.
</event>
<event>
 5   0  0.3889847E-04  0.1636559E+04  0.7818609E-02  0.8798398E-01
       -1   -1    0    0    0  501  0.00000000000E+00  0.00000000000E+00  0.47262238383E+03  0.47262238386E+03  0.50400001928E-02 0.  1.
        1   -1    0    0  501    0  0.00000000000E+00  0.00000000000E+00 -0.14167360570E+04  0.14167360570E+04  0.50400001928E-02 0. -1.
    10030    2    1    2    0    0  0.00000000000E+00  0.00000000000E+00 -0.94411367319E+03  0.18893584409E+04  0.16365587952E+04 0.  0.
        1    1    3    3  502    0 -0.29152386595E+03 -0.58840151997E+03 -0.10357158190E+04  0.12263399900E+04  0.50400001928E-02 0. -1.
       -1    1    3    3    0  502  0.29152386595E+03  0.58840151997E+03  0.91602145852E+02  0.66301845093E+03  0.50400001928E-02 0.  1.
</event>
<event>
 5   0  0.3889847E-04  0.1623742E+04  0.7818609E-02  0.8806094E-01
        1   -1    0    0  501    0  0.00000000000E+00  0.00000000000E+00  0.19749763970E+04  0.19749763970E+04  0.50400001928E-02 0.  1.
       -1   -1    0    0    0  501  0.00000000000E+00  0.00000000000E+00 -0.33374303452E+03  0.33374303456E+03  0.50400001928E-02 0. -1.
    10030    2    1    2    0    0  0.00000000000E+00  0.00000000000E+00  0.16412333625E+04  0.23087194315E+04  0.16237421173E+04 0.  0.
        1    1    3    3  502    0  0.74209285844E+03  0.25149298987E+03  0.11228531253E+04  0.13692149852E+04  0.50400001928E-02 0.  1.
       -1    1    3    3    0  502 -0.74209285844E+03 -0.25149298987E+03  0.51838023713E+03  0.93950444639E+03  0.50400001928E-02 0. -1.
</event>
<event>
 5   0  0.3950195E-04  0.1616935E+04  0.7818609E-02  0.8810211E-01
       -1   -1    0    0    0  501  0.00000000000E+00  0.00000000000E+00  0.92135686776E+03  0.92135686777E+03  0.50400001928E-02 0.  1.
        1   -1    0    0  501    0  0.00000000000E+00  0.00000000000E+00 -0.70940977183E+03  0.70940977185E+03  0.50400001928E-02 0. -1.
    10030    2    1    2    0    0  0.00000000000E+00  0.00000000000E+00  0.21194709592E+03  0.16307666396E+04  0.16169348352E+04 0.  0.
        2    1    3    3  502    0  0.64878006250E+03  0.22866520707E+02  0.59194722942E+03  0.87854423320E+03  0.25500000920E-02 0.  1.
       -2    1    3    3    0  502 -0.64878006250E+03 -0.22866520707E+02 -0.38000013349E+03  0.75222240642E+03  0.25500000920E-02 0. -1.
</event>
<event>
 5   0  0.4110803E-04  0.1600157E+04  0.7818609E-02  0.8820451E-01
       -1   -1    0    0    0  501  0.00000000000E+00  0.00000000000E+00  0.33213165787E+03  0.33213165791E+03  0.50400001928E-02 0.  1.
        1   -1    0    0  501    0  0.00000000000E+00  0.00000000000E+00 -0.19273260153E+04  0.19273260153E+04  0.50400001928E-02 0. -1.
    10030    2    1    2    0    0  0.00000000000E+00  0.00000000000E+00 -0.15951943574E+04  0.22594576732E+04  0.16001574732E+04 0.  0.
        5    1    3    3  502    0  0.47571747496E+03  0.99480909071E+01 -0.17058005278E+04  0.17709273308E+04  0.46999998093E+01 0. -1.
       -5    1    3    3    0  502 -0.47571747496E+03 -0.99480909071E+01  0.11060617038E+03  0.48853034237E+03  0.46999998093E+01 0.  1.
</event>
<event>
 5   0  0.3950195E-04  0.1621892E+04  0.7818609E-02  0.8807211E-01
        1   -1    0    0  501    0  0.00000000000E+00  0.00000000000E+00  0.11146414428E+04  0.11146414428E+04  0.50400001928E-02 0. -1.
       -1   -1    0    0    0  501  0.00000000000E+00  0.00000000000E+00 -0.58999554689E+03  0.58999554691E+03  0.50400001928E-02 0.  1.
    10030    2    1    2    0    0  0.00000000000E+00  0.00000000000E+00  0.52464589587E+03  0.17046369897E+04  0.16218920897E+04 0.  0.
        2    1    3    3  502    0 -0.60586835408E+03 -0.42588805776E+03 -0.84952685642E+02  0.74543548280E+03  0.25500000920E-02 0.  1.
       -2    1    3    3    0  502  0.60586835408E+03  0.42588805776E+03  0.60959858151E+03  0.95920150688E+03  0.25500000920E-02 0. -1.
</event>
<event>
 5   0  0.7395088E-04  0.1584494E+04  0.7818609E-02  0.8830131E-01
       -2   -1    0    0    0  501  0.00000000000E+00  0.00000000000E+00  0.36358861269E+03  0.36358861270E+03  0.25500000920E-02 0.  1.
        2   -1    0    0  501    0  0.00000000000E+00  0.00000000000E+00 -0.17262783357E+04  0.17262783357E+04  0.25500000920E-02 0. -1.
    10030    2    1    2    0    0  0.00000000000E+00  0.00000000000E+00 -0.13626897230E+04  0.20898669484E+04  0.15844937932E+04 0.  0.
        1    1    3    3  502    0  0.36640286895E+03 -0.59742286092E+03 -0.11686247924E+04  0.13626624830E+04  0.50400001928E-02 0. -1.
       -1    1    3    3    0  502 -0.36640286895E+03  0.59742286092E+03 -0.19406493055E+03  0.72720446535E+03  0.50400001928E-02 0.  1.
</event>
<event>
 5   0  0.7395088E-04  0.1601190E+04  0.7818609E-02  0.8819817E-01
        2   -1    0    0  501    0  0.00000000000E+00  0.00000000000E+00  0.10863484832E+04  0.10863484832E+04  0.25500000920E-02 0. -1.
       -2   -1    0    0    0  501  0.00000000000E+00  0.00000000000E+00 -0.59000630870E+03  0.59000630871E+03  0.25500000920E-02 0.  1.
    10030    2    1    2    0    0  0.00000000000E+00  0.00000000000E+00  0.49634217455E+03  0.16763547920E+04  0.16011901306E+04 0.  0.
        1    1    3    3  502    0  0.10784827284E+03 -0.10628391456E+03 -0.57487856466E+03  0.59448539476E+03  0.50400001928E-02 0.  1.
       -1    1    3    3    0  502 -0.10784827284E+03  0.10628391456E+03  0.10712207392E+04  0.10818693972E+04  0.50400001928E-02 0. -1.
</event>
<event>
 5   0  0.7770905E-04  0.1620861E+04  0.7818609E-02  0.8807834E-01
       -2   -1    0    0    0  501  0.00000000000E+00  0.00000000000E+00  0.58575823201E+03  0.58575823201E+03  0.25500000920E-02 0.  1.
        2   -1    0    0  501    0  0.00000000000E+00  0.00000000000E+00 -0.11212775346E+04  0.11212775346E+04  0.25500000920E-02 0. -1.
    10030    2    1    2    0    0  0.00000000000E+00  0.00000000000E+00 -0.53551930263E+03  0.17070357667E+04  0.16208609395E+04 0.  0.
        2    1    3    3  502    0  0.18516255509E+02  0.73801278139E+03  0.84369431252E+02  0.74305041427E+03  0.25500000920E-02 0.  1.
       -2    1    3    3    0  502 -0.18516255509E+02 -0.73801278139E+03 -0.61988873388E+03  0.96398535238E+03  0.25500000920E-02 0. -1.
</event>
<event>
 5   0  0.3837251E-04  0.1565329E+04  0.7818609E-02  0.8842135E-01
        1   -1    0    0  501    0  0.00000000000E+00  0.00000000000E+00  0.86246394096E+03  0.86246394097E+03  0.50400001928E-02 0. -1.
       -1   -1    0    0    0  501  0.00000000000E+00  0.00000000000E+00 -0.71024844754E+03  0.71024844756E+03  0.50400001928E-02 0.  1.
    10030    2    1    2    0    0  0.00000000000E+00  0.00000000000E+00  0.15221549342E+03  0.15727123885E+04  0.15653289433E+04 0.  0.
        4    1    3    3  502    0  0.38438042055E+03  0.55766245436E+03 -0.31794925444E+03  0.74821725589E+03  0.12699999809E+01 0.  1.
       -4    1    3    3    0  502 -0.38438042055E+03 -0.55766245436E+03  0.47016474786E+03  0.82449513264E+03  0.12699999809E+01 0. -1.
</event>
<event>
 5   0  0.3837251E-04  0.1626079E+04  0.7818609E-02  0.8804685E-01
        1   -1    0    0  501    0  0.00000000000E+00  0.00000000000E+00  0.95093257887E+03  0.95093257888E+03  0.50400001928E-02 0. -1.
       -1   -1    0    0    0  501  0.00000000000E+00  0.00000000000E+00 -0.69514186061E+03  0.69514186063E+03  0.50400001928E-02 0.  1.
    10030    2    1    2    0    0  0.00000000000E+00  0.00000000000E+00  0.25579071826E+03  0.16460744395E+04  0.16260787708E+04 0.  0.
        4    1    3    3  502    0  0.16434450949E+03  0.35245732212E+03 -0.59488470605E+03  0.71072125908E+03  0.12699999809E+01 0.  1.
       -4    1    3    3    0  502 -0.16434450949E+03 -0.35245732212E+03  0.85067542431E+03  0.93535318043E+03  0.12699999809E+01 0. -1.
</event>
<event>
 5   0  0.3889847E-04  0.1600566E+04  0.7818609E-02  0.8820200E-01
       -1   -1    0    0    0  501  0.00000000000E+00  0.00000000000E+00  0.52518042111E+03  0.52518042113E+03  0.50400001928E-02 0.  1.
        1   -1    0    0  501    0  0.00000000000E+00  0.00000000000E+00 -0.12194910498E+04  0.12194910498E+04  0.50400001928E-02 0. -1.
    10030    2    1    2    0    0  0.00000000000E+00  0.00000000000E+00 -0.69431062872E+03  0.17446714710E+04  0.16005659288E+04 0.  0.
        1    1    3    3  502    0  0.11625276818E+03  0.55905247697E+03 -0.95835100898E+03  0.11155675840E+04  0.50400001928E-02 0. -1.
       -1    1    3    3    0  502 -0.11625276818E+03 -0.55905247697E+03  0.26404038026E+03  0.62910388693E+03  0.50400001928E-02 0.  1.
</event>
<event>
 5   0  0.3950195E-04  0.1650219E+04  0.7818609E-02  0.8790277E-01
       -1   -1    0    0    0  501  0.00000000000E+00  0.00000000000E+00  0.68048031479E+03  0.68048031481E+03  0.50400001928E-02 0. -1.
        1   -1    0    0  501    0  0.00000000000E+00  0.00000000000E+00 -0.10004785836E+04  0.10004785836E+04  0.50400001928E-02 0.  1.
    10030    2    1    2    0    0  0.00000000000E+00  0.00000000000E+00 -0.31999826878E+03  0.16809588984E+04  0.16502193570E+04 0.  0.
        2    1    3    3  502    0 -0.42361734304E+03  0.64283465033E+03  0.14237705288E+03  0.78291715155E+03  0.25500000920E-02 0. -1.
       -2    1    3    3    0  502  0.42361734304E+03 -0.64283465033E+03 -0.46237532167E+03  0.89804174685E+03  0.25500000920E-02 0.  1.
</event>
<event>
 5   0  0.3950195E-04  0.1578010E+04  0.7818609E-02  0.8834172E-01
        1   -1    0    0  501    0  0.00000000000E+00  0.00000000000E+00  0.87579274276E+03  0.87579274277E+03  0.50400001928E-02 0. -1.
       -1   -1    0    0    0  501  0.00000000000E+00  0.00000000000E+00 -0.71081793388E+03  0.71081793390E+03  0.50400001928E-02 0.  1.
    10030    2    1    2    0    0  0.00000000000E+00  0.00000000000E+00  0.16497480888E+03  0.15866106767E+04  0.15780103776E+04 0.  0.
        2    1    3    3  502    0  0.34730343518E+03  0.68925475550E+03 -0.82226661374E+02  0.77617847040E+03  0.25500000920E-02 0.  1.
       -2    1    3    3    0  502 -0.34730343518E+03 -0.68925475550E+03  0.24720147025E+03  0.81043220627E+03  0.25500000920E-02 0. -1.
</event>
<event>
 5   0  0.7488884E-04  0.1632046E+04  0.7818609E-02  0.8801099E-01
        2   -1    0    0  501    0  0.00000000000E+00  0.00000000000E+00  0.12436915275E+04  0.12436915275E+04  0.25500000920E-02 0. -1.
       -2   -1    0    0    0  501  0.00000000000E+00  0.00000000000E+00 -0.53541709823E+03  0.53541709823E+03  0.25500000920E-02 0.  1.
    10030    2    1    2    0    0  0.00000000000E+00  0.00000000000E+00  0.70827442932E+03  0.17791086258E+04  0.16320462111E+04 0.  0.
        3    1    3    3  502    0 -0.66187325426E+03 -0.47539419341E+03  0.40061544697E+03  0.90805759200E+03  0.10100000352E+00 0. -1.
       -3    1    3    3    0  502  0.66187325426E+03  0.47539419341E+03  0.30765898235E+03  0.87105103378E+03  0.10100000352E+00 0.  1.
</event>
<event>
 5   0  0.7395088E-04  0.1566980E+04  0.7818609E-02  0.8841094E-01
        2   -1    0    0  501    0  0.00000000000E+00  0.00000000000E+00  0.41425907534E+03  0.41425907535E+03  0.25500000920E-02 0. -1.
       -2   -1    0    0    0  501  0.00000000000E+00  0.00000000000E+00 -0.14818180911E+04  0.14818180912E+04  0.25500000920E-02 0.  1.
    10030    2    1    2    0    0  0.00000000000E+00  0.00000000000E+00 -0.10675590158E+04  0.18960771665E+04  0.15669800155E+04 0.  0.
        1    1    3    3  502    0 -0.18007180655E+03  0.49678638146E+03 -0.12337465649E+04  0.13421449813E+04  0.50400001928E-02 0.  1.
       -1    1    3    3    0  502  0.18007180655E+03 -0.49678638146E+03  0.16618754911E+03  0.55393218522E+03  0.50400001928E-02 0. -1.
</event>
<event>
 5   0  0.7488884E-04  0.1604193E+04  0.7818609E-02  0.8817976E-01
       -2   -1    0    0    0  501  0.00000000000E+00  0.00000000000E+00  0.62060782362E+03  0.62060782362E+03  0.25500000920E-02 0. -1.
        2   -1    0    0  501    0  0.00000000000E+00  0.00000000000E+00 -0.10366589757E+04  0.10366589757E+04  0.25500000920E-02 0.  1.
    10030    2    1    2    0    0  0.00000000000E+00  0.00000000000E+00 -0.41605115207E+03  0.16572667993E+04  0.16041928447E+04 0.  0.
        3    1    3    3  502    0 -0.52442808428E+02  0.37455093831E+03 -0.93876037565E+03  0.10120818676E+04  0.10100000352E+00 0.  1.
       -3    1    3    3    0  502  0.52442808428E+02 -0.37455093831E+03  0.52270922358E+03  0.64518493176E+03  0.10100000352E+00 0. -1.
</event>
<event>
 5   0  0.3889847E-04  0.1597459E+04  0.7818609E-02  0.8822110E-01
        1   -1    0    0  501    0  0.00000000000E+00  0.00000000000E+00  0.90083928629E+03  0.90083928631E+03  0.50400001928E-02 0. -1.
       -1   -1    0    0    0  501  0.00000000000E+00  0.00000000000E+00 -0.70819412601E+03  0.70819412603E+03  0.50400001928E-02 0.  1.
    10030    2    1    2    0    0  0.00000000000E+00  0.00000000000E+00  0.19264516028E+03  0.16090334123E+04  0.15974593467E+04 0.  0.
        1    1    3    3  502    0  0.28137956720E+03  0.50730228650E+03 -0.45668996397E+03  0.73830603001E+03  0.50400001928E-02 0.  1.
       -1    1    3    3    0  502 -0.28137956720E+03 -0.50730228650E+03  0.64933512425E+03  0.87072738233E+03  0.50400001928E-02 0. -1.
</event>
<event>
 5   0  0.7770905E-04  0.1622059E+04  0.7818609E-02  0.8807110E-01
        2   -1    0    0  501    0  0.00000000000E+00  0.00000000000E+00  0.15548687846E+04  0.15548687846E+04  0.25500000920E-02 0.  1.
       -2   -1    0    0    0  501  0.00000000000E+00  0.00000000000E+00 -0.42303814237E+03  0.42303814237E+03  0.25500000920E-02 0. -1.
    10030    2    1    2    0    0  0.00000000000E+00  0.00000000000E+00  0.11318306423E+04  0.19779069270E+04  0.16220589413E+04 0.  0.
        2    1    3    3  502    0 -0.21851667301E+03 -0.65508364656E+03  0.10845244001E+04  0.12857205352E+04  0.25500000920E-02 0.  1.
       -2    1    3    3    0  502  0.21851667301E+03  0.65508364656E+03  0.47306242174E+02  0.69218639175E+03  0.25500000920E-02 0. -1.
</event>
<event>
 5   0  0.7770905E-04  0.1622610E+04  0.7818609E-02  0.8806777E-01
        2   -1    0    0  501    0  0.00000000000E+00  0.00000000000E+00  0.53771369745E+03  0.53771369746E+03  0.25500000920E-02 0.  1.
       -2   -1    0    0    0  501  0.00000000000E+00  0.00000000000E+00 -0.12241010137E+04  0.12241010137E+04  0.25500000920E-02 0. -1.
    10030    2    1    2    0    0  0.00000000000E+00  0.00000000000E+00 -0.68638731620E+03  0.17618147111E+04  0.16226100975E+04 0.  0.
        2    1    3    3  502    0  0.14648330109E+03  0.15901586178E+03 -0.11922461009E+04  0.12116906234E+04  0.25500000920E-02 0. -1.
       -2    1    3    3    0  502 -0.14648330109E+03 -0.15901586178E+03  0.50585878469E+03  0.55012408769E+03  0.25500000920E-02 0.  1.
</event>
<event>
 5   0  0.3837251E-04  0.1596383E+04  0.7818609E-02  0.8822773E-01
        1   -1    0    0  501    0  0.00000000000E+00  0.00000000000E+00  0.20894363245E+04  0.20894363245E+04  0.50400001928E-02 0.  1.
       -1   -1    0    0    0  501  0.00000000000E+00  0.00000000000E+00 -0.30491924775E+03  0.30491924779E+03  0.50400001928E-02 0. -1.
    10030    2    1    2    0    0  0.00000000000E+00  0.00000000000E+00  0.17845170768E+04  0.23943555723E+04  0.15963826012E+04 0.  0.
        4    1    3    3  502    0 -0.43439703730E+03 -0.78016371960E+02  0.18897751670E+04  0.19406285412E+04  0.12699999809E+01 0.  1.
       -4    1    3    3    0  502  0.43439703730E+03  0.78016371960E+02 -0.10525809021E+03  0.45372703111E+03  0.12699999809E+01 0. -1.
</event>
<event>
 5   0  0.3837251E-04  0.1561966E+04  0.7818609E-02  0.8844261E-01
       -1   -1    0    0    0  501  0.00000000000E+00  0.00000000000E+00  0.11567370565E+04  0.11567370565E+04  0.50400001928E-02 0.  1.
        1   -1    0    0  501    0  0.00000000000E+00  0.00000000000E+00 -0.52728856322E+03  0.52728856324E+03  0.50400001928E-02 0. -1.
    10030    2    1    2    0    0  0.00000000000E+00  0.00000000000E+00  0.62944849325E+03  0.16840256197E+04  0.15619657110E+04 0.  0.
        4    1    3    3  502    0  0.75251918897E+03 -0.26394240729E+02  0.91283209702E+02  0.75849589517E+03  0.12699999809E+01 0. -1.
       -4    1    3    3    0  502 -0.75251918897E+03  0.26394240729E+02  0.53816528355E+03  0.92552972455E+03  0.12699999809E+01 0.  1.
</event>
<event>
 5   0  0.4110803E-04  0.1581059E+04  0.7818609E-02  0.8832269E-01
        1   -1    0    0  501    0  0.00000000000E+00  0.00000000000E+00  0.14312611902E+04  0.14312611902E+04  0.50400001928E-02 0. -1.
       -1   -1    0    0    0  501  0.00000000000E+00  0.00000000000E+00 -0.43663368029E+03  0.43663368032E+03  0.50400001928E-02 0.  1.
    10030    2    1    2    0    0  0.00000000000E+00  0.00000000000E+00  0.99462750990E+03  0.18678948705E+04  0.15810589375E+04 0.  0.
        5    1    3    3  502    0  0.53444268513E+03  0.10685279983E+03  0.11737923338E+04  0.12941626781E+04  0.46999998093E+01 0. -1.
       -5    1    3    3    0  502 -0.53444268513E+03 -0.10685279983E+03 -0.17916482388E+03  0.57373219243E+03  0.46999998093E+01 0.  1.
</event>
<event>
 5   0  0.7553070E-04  0.1631637E+04  0.7818609E-02  0.8801344E-01
       -2   -1    0    0    0  501  0.00000000000E+00  0.00000000000E+00  0.45471664175E+03  0.45471664176E+03  0.25500000920E-02 0. -1.
        2   -1    0    0  501    0  0.00000000000E+00  0.00000000000E+00 -0.14636809396E+04  0.14636809396E+04  0.25500000920E-02 0.  1.
    10030    2    1    2    0    0  0.00000000000E+00  0.00000000000E+00 -0.10089642979E+04  0.19183975814E+04  0.16316373145E+04 0.  0.
        4    1    3    3  502    0 -0.51249792975E+03  0.85783369199E+02  0.23497539366E+03  0.57028761425E+03  0.12699999809E+01 0. -1.
       -4    1    3    3    0  502  0.51249792975E+03 -0.85783369199E+02 -0.12439396916E+04  0.13481099672E+04  0.12699999809E+01 0.  1.
</event>
<event>
 5   0  0.4110803E-04  0.1602823E+04  0.7818609E-02  0.8818815E-01
        1   -1    0    0  501    0  0.00000000000E+00  0.00000000000E+00  0.12288448918E+04  0.12288448918E+04  0.50400001928E-02 0. -1.
       -1   -1    0    0    0  501  0.00000000000E+00  0.00000000000E+00 -0.52265396513E+03  0.52265396515E+03  0.50400001928E-02 0.  1.
    10030    2    1    2    0    0  0.00000000000E+00  0.00000000000E+00  0.70619092665E+03  0.17514988569E+04  0.16028233281E+04 0.  0.
        5    1    3    3  502    0 -0.11070997702E+02 -0.18984149433E+03  0.12038177699E+04  0.12187541479E+04  0.46999998093E+01 0. -1.
       -5    1    3    3    0  502  0.11070997702E+02  0.18984149433E+03 -0.49762684321E+03  0.53274470906E+03  0.46999998093E+01 0.  1.
</event>
<event>
 5   0  0.7395088E-04  0.1720317E+04  0.7818609E-02  0.8749861E-01
        2   -1    0    0  501    0  0.00000000000E+00  0.00000000000E+00  0.11793943618E+04  0.11793943618E+04  0.25500000920E-02 0. -1.
       -2   -1    0    0    0  501  0.00000000000E+00  0.00000000000E+00 -0.62733300542E+03  0.62733300543E+03  0.25500000920E-02 0.  1.
    10030    2    1    2    0    0  0.00000000000E+00  0.00000000000E+00  0.55206135639E+03  0.18067273672E+04  0.17203174237E+04 0.  0.
        1    1    3    3  502    0  0.65507395497E+03  0.54705580631E+03  0.16349890113E+03  0.86897861446E+03  0.50400001928E-02 0.  1.
       -1    1    3    3    0  502 -0.65507395497E+03 -0.54705580631E+03  0.38856245526E+03  0.93774875279E+03  0.50400001928E-02 0. -1.
</event>
<event>
 5   0  0.4110803E-04  0.1627250E+04  0.7818609E-02  0.8803980E-01
       -1   -1    0    0    0  501  0.00000000000E+00  0.00000000000E+00  0.65569585982E+03  0.65569585984E+03  0.50400001928E-02 0.  1.
        1   -1    0    0  501    0  0.00000000000E+00  0.00000000000E+00 -0.10095920684E+04  0.10095920684E+04  0.50400001928E-02 0. -1.
    10030    2    1    2    0    0  0.00000000000E+00  0.00000000000E+00 -0.35389620858E+03  0.16652879283E+04  0.16272496298E+04 0.  0.
        5    1    3    3  502    0  0.15938209989E+03 -0.66134687476E+03  0.27978133439E+03  0.73558278092E+03  0.46999998093E+01 0.  1.
       -5    1    3    3    0  502 -0.15938209989E+03  0.66134687476E+03 -0.63367754297E+03  0.92970514733E+03  0.46999998093E+01 0. -1.
</event>
<event>
 5   0  0.3973227E-04  0.1627423E+04  0.7818609E-02  0.8803876E-01
       -1   -1    0    0    0  501  0.00000000000E+00  0.00000000000E+00  0.36508800898E+03  0.36508800901E+03  0.50400001928E-02 0. -1.
        1   -1    0    0  501    0  0.00000000000E+00  0.00000000000E+00 -0.18136067369E+04  0.18136067369E+04  0.50400001928E-02 0.  1.
    10030    2    1    2    0    0  0.00000000000E+00  0.00000000000E+00 -0.14485187279E+04  0.21786947459E+04  0.16274225913E+04 0.  0.
        3    1    3    3  502    0 -0.26079129513E+03 -0.77469355905E+02 -0.17509184064E+04  0.17719280112E+04  0.10100000352E+00 0.  1.
       -3    1    3    3    0  502  0.26079129513E+03  0.77469355905E+02  0.30239967849E+03  0.40676673472E+03  0.10100000352E+00 0. -1.
</event>
<event>
 5   0  0.3973227E-04  0.1611496E+04  0.7818609E-02  0.8813516E-01
        1   -1    0    0  501    0  0.00000000000E+00  0.00000000000E+00  0.66798248472E+03  0.66798248474E+03  0.50400001928E-02 0.  1.
       -1   -1    0    0    0  501  0.00000000000E+00  0.00000000000E+00 -0.97192657444E+03  0.97192657446E+03  0.50400001928E-02 0. -1.
    10030    2    1    2    0    0  0.00000000000E+00  0.00000000000E+00 -0.30394408972E+03  0.16399090592E+04  0.16114961101E+04 0.  0.
        3    1    3    3  502    0  0.52089226401E+03 -0.61430187699E+03 -0.17549609130E+03  0.82431452434E+03  0.10100000352E+00 0. -1.
       -3    1    3    3    0  502 -0.52089226401E+03  0.61430187699E+03 -0.12844799843E+03  0.81559453485E+03  0.10100000352E+00 0.  1.
</event>
<event>
 5   0  0.4110803E-04  0.1594870E+04  0.7818609E-02  0.8823706E-01
       -1   -1    0    0    0  501  0.00000000000E+00  0.00000000000E+00  0.66434552951E+03  0.66434552953E+03  0.50400001928E-02 0.  1.
        1   -1    0    0  501    0  0.00000000000E+00  0.00000000000E+00 -0.95718660150E+03  0.95718660151E+03  0.50400001928E-02 0. -1.
    10030    2    1    2    0    0  0.00000000000E+00  0.00000000000E+00 -0.29284107199E+03  0.16215321310E+04  0.15948700758E+04 0.  0.
        5    1    3    3  502    0  0.51422600629E+03  0.68700582599E+02 -0.76212866288E+03  0.92196005573E+03  0.46999998093E+01 0. -1.
       -5    1    3    3    0  502 -0.51422600629E+03 -0.68700582599E+02  0.46928759088E+03  0.69957207531E+03  0.46999998093E+01 0.  1.
</event>
<event>
 5   0  0.7553070E-04  0.1601118E+04  0.7818609E-02  0.8819861E-01
        2   -1    0    0  501    0  0.00000000000E+00  0.00000000000E+00  0.14841054298E+04  0.14841054298E+04  0.25500000920E-02 0.  1.
       -2   -1    0    0    0  501  0.00000000000E+00  0.00000000000E+00 -0.43183928612E+03  0.43183928613E+03  0.25500000920E-02 0. -1.
    10030    2    1    2    0    0  0.00000000000E+00  0.00000000000E+00  0.10522661437E+04  0.19159447160E+04  0.16011183958E+04 0.  0.
        4    1    3    3  502    0  0.15399285235E+03  0.57809148567E+03  0.11627012979E+04  0.13075853645E+04  0.12699999809E+01 0.  1.
       -4    1    3    3    0  502 -0.15399285235E+03 -0.57809148567E+03 -0.11043515417E+03  0.60835935149E+03  0.12699999809E+01 0. -1.
</event>
<event>
 5   0  0.7488884E-04  0.1600640E+04  0.7818609E-02  0.8820155E-01
       -2   -1    0    0    0  501  0.00000000000E+00  0.00000000000E+00  0.55212335822E+03  0.55212335822E+03  0.25500000920E-02 0.  1.
        2   -1    0    0  501    0  0.00000000000E+00  0.00000000000E+00 -0.11600890422E+04  0.11600890422E+04  0.25500000920E-02 0. -1.
    10030    2    1    2    0    0  0.00000000000E+00  0.00000000000E+00 -0.60796568402E+03  0.17122124005E+04  0.16006401942E+04 0.  0.
        3    1    3    3  502    0 -0.15977214124E+03 -0.29855005618E+03 -0.10796869422E+04  0.11315401790E+04  0.10100000352E+00 0. -1.
       -3    1    3    3    0  502  0.15977214124E+03  0.29855005618E+03  0.47172125822E+03  0.58067222150E+03  0.10100000352E+00 0.  1.
</event>
<event>
 5   0  0.7770905E-04  0.1604558E+04  0.7818609E-02  0.8817753E-01
        2   -1    0    0  501    0  0.00000000000E+00  0.00000000000E+00  0.41047025967E+03  0.41047025968E+03  0.25500000920E-02 0. -1.
       -2   -1    0    0    0  501  0.00000000000E+00  0.00000000000E+00 -0.15680825151E+04  0.15680825151E+04  0.25500000920E-02 0.  1.
    10030    2    1    2    0    0  0.00000000000E+00  0.00000000000E+00 -0.11576122554E+04  0.19785527748E+04  0.16045575554E+04 0.  0.
        2    1    3    3  502    0  0.30726197210E+03  0.65328423302E+03 -0.14729570473E+03  0.73680813870E+03  0.25500000920E-02 0. -1.
       -2    1    3    3    0  502 -0.30726197210E+03 -0.65328423302E+03 -0.10103165507E+04  0.12417446361E+04  0.25500000920E-02 0.  1.
</event>
<event>
 5   0  0.7395088E-04  0.1584359E+04  0.7818609E-02  0.8830215E-01
       -2   -1    0    0    0  501  0.00000000000E+00  0.00000000000E+00  0.32078195133E+03  0.32078195134E+03  0.25500000920E-02 0.  1.
        2   -1    0    0  501    0  0.00000000000E+00  0.00000000000E+00 -0.19563082531E+04  0.19563082531E+04  0.25500000920E-02 0. -1.
    10030    2    1    2    0    0  0.00000000000E+00  0.00000000000E+00 -0.16355263018E+04  0.22770902045E+04  0.15843590235E+04 0.  0.
        1    1    3    3  502    0  0.20009728794E+03 -0.76481561293E+03 -0.89057465620E+03  0.11908421662E+04  0.50400001928E-02 0.  1.
       -1    1    3    3    0  502 -0.20009728794E+03  0.76481561293E+03 -0.74495164560E+03  0.10862480383E+04  0.50400001928E-02 0. -1.
</event>
<event>
 5   0  0.7415102E-04  0.1620951E+04  0.7818609E-02  0.8807779E-01
        2   -1    0    0  501    0  0.00000000000E+00  0.00000000000E+00  0.89172987242E+03  0.89172987242E+03  0.25500000920E-02 0.  1.
       -2   -1    0    0    0  501  0.00000000000E+00  0.00000000000E+00 -0.73662525624E+03  0.73662525624E+03  0.25500000920E-02 0. -1.
    10030    2    1    2    0    0  0.00000000000E+00  0.00000000000E+00  0.15510461618E+03  0.16283551287E+04  0.16209512587E+04 0.  0.
        5    1    3    3  502    0 -0.17146741747E+02  0.67213289144E+03 -0.37705423960E+03  0.77087523252E+03  0.46999998093E+01 0. -1.
       -5    1    3    3    0  502  0.17146741747E+02 -0.67213289144E+03  0.53215885578E+03  0.85747989615E+03  0.46999998093E+01 0.  1.
</event>
<event>
 5   0  0.7488884E-04  0.1600224E+04  0.7818609E-02  0.8820410E-01
        2   -1    0    0  501    0  0.00000000000E+00  0.00000000000E+00  0.10793721859E+04  0.10793721859E+04  0.25500000920E-02 0.  1.
       -2   -1    0    0    0  501  0.00000000000E+00  0.00000000000E+00 -0.59310345377E+03  0.59310345377E+03  0.25500000920E-02 0. -1.
    10030    2    1    2    0    0  0.00000000000E+00  0.00000000000E+00  0.48626873211E+03  0.16724756397E+04  0.16002241985E+04 0.  0.
        3    1    3    3  502    0  0.10604483276E+03  0.79167808017E+03  0.19433945425E+03  0.82205080309E+03  0.10100000352E+00 0. -1.
       -3    1    3    3    0  502 -0.10604483276E+03 -0.79167808017E+03  0.29192927786E+03  0.85042483657E+03  0.10100000352E+00 0.  1.
</event>
<event>
 5   0  0.3889847E-04  0.1627521E+04  0.7818609E-02  0.8803817E-01
        1   -1    0    0  501    0  0.00000000000E+00  0.00000000000E+00  0.84555858040E+03  0.84555858041E+03  0.50400001928E-02 0. -1.
       -1   -1    0    0    0  501  0.00000000000E+00  0.00000000000E+00 -0.78315776726E+03  0.78315776727E+03  0.50400001928E-02 0.  1.
    10030    2    1    2    0    0  0.00000000000E+00  0.00000000000E+00  0.62400813138E+02  0.16287163477E+04  0.16275205313E+04 0.  0.
        1    1    3    3  502    0  0.80627380910E+03  0.68039873729E+02 -0.55459352704E+02  0.81103798893E+03  0.50400001928E-02 0. -1.
       -1    1    3    3    0  502 -0.80627380910E+03 -0.68039873729E+02  0.11786016584E+03  0.81767835876E+03  0.50400001928E-02 0.  1.
</event>
<event>
 5   0  0.3973227E-04  0.1609230E+04  0.7818609E-02  0.8814898E-01
       -1   -1    0    0    0  501  0.00000000000E+00  0.00000000000E+00  0.55846938107E+03  0.55846938109E+03  0.50400001928E-02 0. -1.
        1   -1    0    0  501    0  0.00000000000E+00  0.00000000000E+00 -0.11592497658E+04  0.11592497658E+04  0.50400001928E-02 0.  1.
    10030    2    1    2    0    0  0.00000000000E+00  0.00000000000E+00 -0.60078038472E+03  0.17177191469E+04  0.16092302498E+04 0.  0.
        3    1    3    3  502    0  0.10646162601E+03  0.59343114635E+03  0.26836449807E+03  0.65993493414E+03  0.10100000352E+00 0. -1.
       -3    1    3    3    0  502 -0.10646162601E+03 -0.59343114635E+03 -0.86914488280E+03  0.10577842128E+04  0.10100000352E+00 0.  1.
</event>
<event>
 5   0  0.4110803E-04  0.1600722E+04  0.7818609E-02  0.8820104E-01
        1   -1    0    0  501    0  0.00000000000E+00  0.00000000000E+00  0.17520198774E+04  0.17520198774E+04  0.50400001928E-02 0.  1.
       -1   -1    0    0    0  501  0.00000000000E+00  0.00000000000E+00 -0.36562253431E+03  0.36562253434E+03  0.50400001928E-02 0. -1.
    10030    2    1    2    0    0  0.00000000000E+00  0.00000000000E+00  0.13863973431E+04  0.21176424117E+04  0.16007222717E+04 0.  0.
        5    1    3    3  502    0 -0.87547337419E+02  0.70893436095E+03  0.11707438908E+04  0.13714648418E+04  0.46999998093E+01 0.  1.
       -5    1    3    3    0  502  0.87547337419E+02 -0.70893436095E+03  0.21565345229E+03  0.74617756996E+03  0.46999998093E+01 0. -1.
</event>
<event>
 5   0  0.3973227E-04  0.1605273E+04  0.7818609E-02  0.8817315E-01
        1   -1    0    0  501    0  0.00000000000E+00  0.00000000000E+00  0.65405159029E+03  0.65405159031E+03  0.50400001928E-02 0. -1.
       -1   -1    0    0    0  501  0.00000000000E+00  0.00000000000E+00 -0.98497586168E+03  0.98497586169E+03  0.50400001928E-02 0.  1.
    10030    2    1    2    0    0  0.00000000000E+00  0.00000000000E+00 -0.33092427139E+03  0.16390274520E+04  0.16052725984E+04 0.  0.
        3    1    3    3  502    0 -0.27997561869E+03 -0.33375172035E+03  0.52284100862E+03  0.68054337730E+03  0.10100000352E+00 0. -1.
       -3    1    3    3    0  502  0.27997561869E+03  0.33375172035E+03 -0.85376528001E+03  0.95848407470E+03  0.10100000352E+00 0.  1.
</event>
<event>
 5   0  0.7770905E-04  0.1484195E+04  0.7818609E-02  0.8895032E-01
       -2   -1    0    0    0  501  0.00000000000E+00  0.00000000000E+00  0.50078288666E+03  0.50078288666E+03  0.25500000920E-02 0. -1.
        2   -1    0    0  501    0  0.00000000000E+00  0.00000000000E+00 -0.10996957139E+04  0.10996957139E+04  0.25500000920E-02 0.  1.
    10030    2    1    2    0    0  0.00000000000E+00  0.00000000000E+00 -0.59891282720E+03  0.16004786005E+04  0.14841951274E+04 0.  0.
        2    1    3    3  502    0 -0.27384123266E+03  0.38795153913E+03  0.31549820915E+03  0.57011800305E+03  0.25500000920E-02 0.  1.
       -2    1    3    3    0  502  0.27384123266E+03 -0.38795153913E+03 -0.91441103635E+03  0.10303605975E+04  0.25500000920E-02 0. -1.
</event>
<event>
 5   0  0.7488884E-04  0.1608174E+04  0.7818609E-02  0.8815542E-01
       -2   -1    0    0    0  501  0.00000000000E+00  0.00000000000E+00  0.78315760961E+03  0.78315760962E+03  0.25500000920E-02 0.  1.
        2   -1    0    0  501    0  0.00000000000E+00  0.00000000000E+00 -0.82557571582E+03  0.82557571582E+03  0.25500000920E-02 0. -1.
    10030    2    1    2    0    0  0.00000000000E+00  0.00000000000E+00 -0.42418106207E+02  0.16087333254E+04  0.16081740007E+04 0.  0.
        3    1    3    3  502    0  0.58720500317E+03  0.24671753215E+03  0.46975349231E+03  0.79142125961E+03  0.10100000352E+00 0.  1.
       -3    1    3    3    0  502 -0.58720500317E+03 -0.24671753215E+03 -0.51217159852E+03  0.81731206583E+03  0.10100000352E+00 0. -1.
</event>
<event>
 5   0  0.3973227E-04  0.1587329E+04  0.7818609E-02  0.8828370E-01
       -1   -1    0    0    0  501  0.00000000000E+00  0.00000000000E+00  0.56175886980E+03  0.56175886983E+03  0.50400001928E-02 0. -1.
        1   -1    0    0  501    0  0.00000000000E+00  0.00000000000E+00 -0.11213053038E+04  0.11213053038E+04  0.50400001928E-02 0.  1.
    10030    2    1    2    0    0  0.00000000000E+00  0.00000000000E+00 -0.55954643401E+03  0.16830641736E+04  0.15873288257E+04 0.  0.
        3    1    3    3  502    0 -0.64331745889E+03 -0.37903455506E+03 -0.56503197776E+03  0.93636835323E+03  0.10100000352E+00 0.  1.
       -3    1    3    3    0  502  0.64331745889E+03  0.37903455506E+03  0.54855437539E+01  0.74669582042E+03  0.10100000352E+00 0. -1.
</event>
<event>
 5   0  0.3950195E-04  0.1607831E+04  0.7818609E-02  0.8815752E-01
       -1   -1    0    0    0  501  0.00000000000E+00  0.00000000000E+00  0.66649953143E+03  0.66649953145E+03  0.50400001928E-02 0.  1.
        1   -1    0    0  501    0  0.00000000000E+00  0.00000000000E+00 -0.96966309668E+03  0.96966309670E+03  0.50400001928E-02 0. -1.
    10030    2    1    2    0    0  0.00000000000E+00  0.00000000000E+00 -0.30316356525E+03  0.16361626281E+04  0.16078308364E+04 0.  0.
        2    1    3    3  502    0  0.11012247274E+03 -0.79511259979E+03 -0.10665644026E+03  0.80975712507E+03  0.25500000920E-02 0.  1.
       -2    1    3    3    0  502 -0.11012247274E+03  0.79511259979E+03 -0.19650712499E+03  0.82640550308E+03  0.25500000920E-02 0. -1.
</event>
<event>
 5   0  0.7770905E-04  0.1603818E+04  0.7818609E-02  0.8818206E-01
       -2   -1    0    0    0  501  0.00000000000E+00  0.00000000000E+00  0.51966496572E+03  0.51966496573E+03  0.25500000920E-02 0. -1.
        2   -1    0    0  501    0  0.00000000000E+00  0.00000000000E+00 -0.12374466749E+04  0.12374466749E+04  0.25500000920E-02 0.  1.
    10030    2    1    2    0    0  0.00000000000E+00  0.00000000000E+00 -0.71778170919E+03  0.17571116406E+04  0.16038175506E+04 0.  0.
        2    1    3    3  502    0  0.59369984223E+03 -0.35640697247E+03 -0.80196117311E+03  0.10595504499E+04  0.25500000920E-02 0.  1.
       -2    1    3    3    0  502 -0.59369984223E+03  0.35640697247E+03  0.84179463922E+02  0.69756119075E+03  0.25500000920E-02 0. -1.
</event>
<event>
 5   0  0.3837251E-04  0.1583021E+04  0.7818609E-02  0.8831047E-01
        1   -1    0    0  501    0  0.00000000000E+00  0.00000000000E+00  0.67669117961E+03  0.67669117962E+03  0.50400001928E-02 0. -1.
       -1   -1    0    0    0  501  0.00000000000E+00  0.00000000000E+00 -0.92581202042E+03  0.92581202044E+03  0.50400001928E-02 0.  1.
    10030    2    1    2    0    0  0.00000000000E+00  0.00000000000E+00 -0.24912084082E+03  0.16025032001E+04  0.15830209452E+04 0.  0.
        4    1    3    3  502    0  0.34084998474E+03  0.64868037011E+03 -0.42744545332E+03  0.84833729326E+03  0.12699999809E+01 0.  1.
       -4    1    3    3    0  502 -0.34084998474E+03 -0.64868037011E+03  0.17832461251E+03  0.75416590681E+03  0.12699999809E+01 0. -1.
</event>
<event>
 5   0  0.2781000E-04  0.1605217E+04  0.7818609E-02  0.8817350E-01
       -3   -1    0    0    0  501  0.00000000000E+00  0.00000000000E+00  0.32055496801E+03  0.32055498392E+03  0.10100000352E+00 0. -1.
        3   -1    0    0  501    0  0.00000000000E+00  0.00000000000E+00 -0.20095776750E+04  0.20095776776E+04  0.10100000352E+00 0.  1.
    10030    2    1    2    0    0  0.00000000000E+00  0.00000000000E+00 -0.16890227070E+04  0.23301326615E+04  0.16052166568E+04 0.  0.
        5    1    3    3  502    0 -0.74276841078E+03  0.22626218687E+03 -0.54965942818E+03  0.95133961667E+03  0.46999998093E+01 0.  1.
       -5    1    3    3    0  502  0.74276841078E+03 -0.22626218687E+03 -0.11393632788E+04  0.13787930448E+04  0.46999998093E+01 0. -1.
</event>
<event>
 5   0  0.7395088E-04  0.1604385E+04  0.7818609E-02  0.8817859E-01
        2   -1    0    0  501    0  0.00000000000E+00  0.00000000000E+00  0.18063464372E+04  0.18063464372E+04  0.25500000920E-02 0. -1.
       -2   -1    0    0    0  501  0.00000000000E+00  0.00000000000E+00 -0.35625112116E+03  0.35625112117E+03  0.25500000920E-02 0.  1.
    10030    2    1    2    0    0  0.00000000000E+00  0.00000000000E+00  0.14500953160E+04  0.21625975584E+04  0.16043851701E+04 0.  0.
        1    1    3    3  502    0  0.28151790186E+03  0.71780473442E+03  0.42661913192E+03  0.88119228864E+03  0.50400001928E-02 0.  1.
       -1    1    3    3    0  502 -0.28151790186E+03 -0.71780473442E+03  0.10234761841E+04  0.12814052697E+04  0.50400001928E-02 0. -1.
</event>
<event>
 5   0  0.3837251E-04  0.1562766E+04  0.7818609E-02  0.8843754E-01
        1   -1    0    0  501    0  0.00000000000E+00  0.00000000000E+00  0.13653488666E+04  0.13653488666E+04  0.50400001928E-02 0. -1.
       -1   -1    0    0    0  501  0.00000000000E+00  0.00000000000E+00 -0.44718199941E+03  0.44718199943E+03  0.50400001928E-02 0.  1.
    10030    2    1    2    0    0  0.00000000000E+00  0.00000000000E+00  0.91816686718E+03  0.18125308660E+04  0.15627660555E+04 0.  0.
        4    1    3    3  502    0 -0.22484458768E+03 -0.17496993397E+03  0.13029593511E+04  0.13337444470E+04  0.12699999809E+01 0. -1.
       -4    1    3    3    0  502  0.22484458768E+03  0.17496993397E+03 -0.38479248395E+03  0.47878641899E+03  0.12699999809E+01 0.  1.
</event>
<event>
 5   0  0.3889847E-04  0.1506900E+04  0.7818609E-02  0.8879877E-01
        1   -1    0    0  501    0  0.00000000000E+00  0.00000000000E+00  0.18282084138E+04  0.18282084138E+04  0.50400001928E-02 0.  1.
       -1   -1    0    0    0  501  0.00000000000E+00  0.00000000000E+00 -0.31051540171E+03  0.31051540175E+03  0.50400001928E-02 0. -1.
    10030    2    1    2    0    0  0.00000000000E+00  0.00000000000E+00  0.15176930121E+04  0.21387238156E+04  0.15068999570E+04 0.  0.
        1    1    3    3  502    0  0.60890466302E+03 -0.38425272462E+03  0.10738893429E+04  0.12929243465E+04  0.50400001928E-02 0.  1.
       -1    1    3    3    0  502 -0.60890466302E+03  0.38425272462E+03  0.44380366923E+03  0.84579946907E+03  0.50400001928E-02 0. -1.
</event>
<event>
 5   0  0.3950195E-04  0.1583898E+04  0.7818609E-02  0.8830502E-01
       -1   -1    0    0    0  501  0.00000000000E+00  0.00000000000E+00  0.26330205369E+03  0.26330205373E+03  0.50400001928E-02 0.  1.
        1   -1    0    0  501    0  0.00000000000E+00  0.00000000000E+00 -0.23819904436E+04  0.23819904436E+04  0.50400001928E-02 0. -1.
    10030    2    1    2    0    0  0.00000000000E+00  0.00000000000E+00 -0.21186883899E+04  0.26452924973E+04  0.15838976933E+04 0.  0.
        2    1    3    3  502    0  0.32746289092E+03  0.63553817095E+03 -0.49041965025E+03  0.86697874543E+03  0.25500000920E-02 0.  1.
       -2    1    3    3    0  502 -0.32746289092E+03 -0.63553817095E+03 -0.16282687396E+04  0.17783137519E+04  0.25500000920E-02 0. -1.
</event>
<event>
 5   0  0.7395088E-04  0.1683163E+04  0.7818609E-02  0.8771026E-01
        2   -1    0    0  501    0  0.00000000000E+00  0.00000000000E+00  0.21311078541E+04  0.21311078541E+04  0.25500000920E-02 0.  1.
       -2   -1    0    0    0  501  0.00000000000E+00  0.00000000000E+00 -0.33234317263E+03  0.33234317264E+03  0.25500000920E-02 0. -1.
    10030    2    1    2    0    0  0.00000000000E+00  0.00000000000E+00  0.17987646815E+04  0.24634510267E+04  0.16831626724E+04 0.  0.
        1    1    3    3  502    0 -0.15957480650E+03 -0.16577044620E+03  0.20841766451E+04  0.20968395856E+04  0.50400001928E-02 0.  1.
       -1    1    3    3    0  502  0.15957480650E+03  0.16577044620E+03 -0.28541196368E+03  0.36661144109E+03  0.50400001928E-02 0. -1.
</event>
<event>
 5   0  0.7415102E-04  0.1599819E+04  0.7818609E-02  0.8820659E-01
       -2   -1    0    0    0  501  0.00000000000E+00  0.00000000000E+00  0.83087946057E+03  0.83087946058E+03  0.25500000920E-02 0.  1.
        2   -1    0    0  501    0  0.00000000000E+00  0.00000000000E+00 -0.77009436821E+03  0.77009436822E+03  0.25500000920E-02 0. -1.
    10030    2    1    2    0    0  0.00000000000E+00  0.00000000000E+00  0.60785092359E+02  0.16009738288E+04  0.15998194814E+04 0.  0.
        5    1    3    3  502    0 -0.26080614782E+03 -0.69369604319E+03  0.33160716596E+03  0.81192330277E+03  0.46999998093E+01 0.  1.
       -5    1    3    3    0  502  0.26080614782E+03  0.69369604319E+03 -0.27082207360E+03  0.78905052602E+03  0.46999998093E+01 0. -1.
</event>
<event>
 5   0  0.4110803E-04  0.1607818E+04  0.7818609E-02  0.8815760E-01
       -1   -1    0    0    0  501  0.00000000000E+00  0.00000000000E+00  0.78479315289E+03  0.78479315291E+03  0.50400001928E-02 0. -1.
        1   -1    0    0  501    0  0.00000000000E+00  0.00000000000E+00 -0.82349035349E+03  0.82349035350E+03  0.50400001928E-02 0.  1.
    10030    2    1    2    0    0  0.00000000000E+00  0.00000000000E+00 -0.38697200596E+02  0.16082835064E+04  0.16078178888E+04 0.  0.
        5    1    3    3  502    0 -0.70197119281E+03  0.33334859768E+03 -0.22523011348E+03  0.80909550556E+03  0.46999998093E+01 0. -1.
       -5    1    3    3    0  502  0.70197119281E+03 -0.33334859768E+03  0.18653291289E+03  0.79918800084E+03  0.46999998093E+01 0.  1.
</event>
<event>
 5   0  0.7553070E-04  0.1603911E+04  0.7818609E-02  0.8818149E-01
        2   -1    0    0  501    0  0.00000000000E+00  0.00000000000E+00  0.62313726824E+03  0.62313726824E+03  0.25500000920E-02 0.  1.
       -2   -1    0    0    0  501  0.00000000000E+00  0.00000000000E+00 -0.10320887878E+04  0.10320887878E+04  0.25500000920E-02 0. -1.
    10030    2    1    2    0    0  0.00000000000E+00  0.00000000000E+00 -0.40895151960E+03  0.16552260561E+04  0.16039114537E+04 0.  0.
        4    1    3    3  502    0 -0.72992166374E+03  0.22332329122E+03 -0.45825476931E+03  0.89031341341E+03  0.12699999809E+01 0. -1.
       -4    1    3    3    0  502  0.72992166374E+03 -0.22332329122E+03  0.49303249707E+02  0.76491264268E+03  0.12699999809E+01 0.  1.
</event>
<event>
 5   0  0.3889847E-04  0.1590459E+04  0.7818609E-02  0.8826431E-01
        1   -1    0    0  501    0  0.00000000000E+00  0.00000000000E+00  0.99187181376E+03  0.99187181377E+03  0.50400001928E-02 0. -1.
       -1   -1    0    0    0  501  0.00000000000E+00  0.00000000000E+00 -0.63757238317E+03  0.63757238319E+03  0.50400001928E-02 0.  1.
    10030    2    1    2    0    0  0.00000000000E+00  0.00000000000E+00  0.35429943059E+03  0.16294441970E+04  0.15904591490E+04 0.  0.
        1    1    3    3  502    0 -0.32200270228E+01  0.21895719647E+03 -0.60607429599E+03  0.64442119359E+03  0.50400001928E-02 0.  1.
       -1    1    3    3    0  502  0.32200270228E+01 -0.21895719647E+03  0.96037372658E+03  0.98502300338E+03  0.50400001928E-02 0. -1.
</event>
<event>
 5   0  0.4110803E-04  0.1600518E+04  0.7818609E-02  0.8820230E-01
        1   -1    0    0  501    0  0.00000000000E+00  0.00000000000E+00  0.64385695205E+03  0.64385695207E+03  0.50400001928E-02 0. -1.
       -1   -1    0    0    0  501  0.00000000000E+00  0.00000000000E+00 -0.99465350364E+03  0.99465350366E+03  0.50400001928E-02 0.  1.
    10030    2    1    2    0    0  0.00000000000E+00  0.00000000000E+00 -0.35079655159E+03  0.16385104557E+04  0.16005181326E+04 0.  0.
        5    1    3    3  502    0 -0.44117902346E+03 -0.17355165279E+03  0.48460155757E+03  0.67795270227E+03  0.46999998093E+01 0. -1.
       -5    1    3    3    0  502  0.44117902346E+03  0.17355165279E+03 -0.83539810916E+03  0.96055775345E+03  0.46999998093E+01 0.  1.
</event>
<event>
 5   0  0.3950195E-04  0.1448146E+04  0.7818609E-02  0.8919687E-01
        1   -1    0    0  501    0  0.00000000000E+00  0.00000000000E+00  0.16932640510E+04  0.16932640510E+04  0.50400001928E-02 0.  1.
       -1   -1    0    0    0  501  0.00000000000E+00  0.00000000000E+00 -0.30962789974E+03  0.30962789978E+03  0.50400001928E-02 0. -1.
    10030    2    1    2    0    0  0.00000000000E+00  0.00000000000E+00  0.13836361512E+04  0.20028919508E+04  0.14481461140E+04 0.  0.
        2    1    3    3  502    0  0.51287718030E+03 -0.50841595062E+03  0.76437355495E+03  0.10515686913E+04  0.25500000920E-02 0. -1.
       -2    1    3    3    0  502 -0.51287718030E+03  0.50841595062E+03  0.61926259629E+03  0.95132325951E+03  0.25500000920E-02 0.  1.
</event>
<event>
 5   0  0.3950195E-04  0.1601240E+04  0.7818609E-02  0.8819787E-01
        1   -1    0    0  501    0  0.00000000000E+00  0.00000000000E+00  0.60869297424E+03  0.60869297426E+03  0.50400001928E-02 0. -1.
       -1   -1    0    0    0  501  0.00000000000E+00  0.00000000000E+00 -0.10530636492E+04  0.10530636492E+04  0.50400001928E-02 0.  1.
    10030    2    1    2    0    0  0.00000000000E+00  0.00000000000E+00 -0.44437067499E+03  0.16617566235E+04  0.16012400754E+04 0.  0.
        2    1    3    3  502    0 -0.46910785500E+03 -0.62728256156E+03 -0.50253127253E+02  0.78490188461E+03  0.25500000920E-02 0. -1.
       -2    1    3    3    0  502  0.46910785500E+03  0.62728256156E+03 -0.39411754774E+03  0.87685473889E+03  0.25500000920E-02 0.  1.
</event>
<event>
 5   0  0.4110803E-04  0.1591909E+04  0.7818609E-02  0.8825534E-01
        1   -1    0    0  501    0  0.00000000000E+00  0.00000000000E+00  0.12008647672E+04  0.12008647672E+04  0.50400001928E-02 0. -1.
       -1   -1    0    0    0  501  0.00000000000E+00  0.00000000000E+00 -0.52757247383E+03  0.52757247385E+03  0.50400001928E-02 0.  1.
    10030    2    1    2    0    0  0.00000000000E+00  0.00000000000E+00  0.67329229337E+03  0.17284372411E+04  0.15919085351E+04 0.  0.
        5    1    3    3  502    0 -0.46668380095E+03  0.56236759605E+03  0.67908387922E+03  0.99761119088E+03  0.46999998093E+01 0. -1.
       -5    1    3    3    0  502  0.46668380095E+03 -0.56236759605E+03 -0.57915858498E+01  0.73082605018E+03  0.46999998093E+01 0.  1.
</event>
<event>
 5   0  0.4110803E-04  0.1585507E+04  0.7818609E-02  0.8829501E-01
        1   -1    0    0  501    0  0.00000000000E+00  0.00000000000E+00  0.10759729227E+04  0.10759729227E+04  0.50400001928E-02 0.  1.
       -1   -1    0    0    0  501  0.00000000000E+00  0.00000000000E+00 -0.58408354369E+03  0.58408354371E+03  0.50400001928E-02 0. -1.
    10030    2    1    2    0    0  0.00000000000E+00  0.00000000000E+00  0.49188937899E+03  0.16600564664E+04  0.15855069569E+04 0.  0.
        5    1    3    3  502    0 -0.13311414391E+03  0.24279364195E+03  0.10236819543E+04  0.10604786474E+04  0.46999998093E+01 0.  1.
       -5    1    3    3    0  502  0.13311414391E+03 -0.24279364195E+03 -0.53179257535E+03  0.59957781903E+03  0.46999998093E+01 0. -1.
</event>
<event>
 5   0  0.3950195E-04  0.1587741E+04  0.7818609E-02  0.8828115E-01
       -1   -1    0    0    0  501  0.00000000000E+00  0.00000000000E+00  0.17234818280E+04  0.17234818280E+04  0.50400001928E-02 0. -1.
        1   -1    0    0  501    0  0.00000000000E+00  0.00000000000E+00 -0.36567285922E+03  0.36567285925E+03  0.50400001928E-02 0.  1.
    10030    2    1    2    0    0  0.00000000000E+00  0.00000000000E+00  0.13578089688E+04  0.20891546872E+04  0.15877411979E+04 0.  0.
        2    1    3    3  502    0 -0.29818254340E+03  0.56529320302E+03  0.59272600602E+02  0.64185861041E+03  0.25500000920E-02 0. -1.
       -2    1    3    3    0  502  0.29818254340E+03 -0.56529320302E+03  0.12985363681E+04  0.14472960768E+04  0.25500000920E-02 0.  1.
</event>
<event>
 5   0  0.3950195E-04  0.1595459E+04  0.7818609E-02  0.8823343E-01
       -1   -1    0    0    0  501  0.00000000000E+00  0.00000000000E+00  0.96184109395E+03  0.96184109397E+03  0.50400001928E-02 0.  1.
        1   -1    0    0  501    0  0.00000000000E+00  0.00000000000E+00 -0.66161883552E+03  0.66161883554E+03  0.50400001928E-02 0. -1.
    10030    2    1    2    0    0  0.00000000000E+00  0.00000000000E+00  0.30022225843E+03  0.16234599295E+04  0.15954587861E+04 0.  0.
        2    1    3    3  502    0  0.79397663259E+03  0.83864570371E+01  0.71931994478E+02  0.79727249896E+03  0.25500000920E-02 0. -1.
       -2    1    3    3    0  502 -0.79397663259E+03 -0.83864570371E+01  0.22829026395E+03  0.82618743054E+03  0.25500000920E-02 0.  1.
</event>
<event>
 5   0  0.2781000E-04  0.1631216E+04  0.7818609E-02  0.8801597E-01
        4   -1    0    0  501    0  0.00000000000E+00  0.00000000000E+00  0.12175741377E+04  0.12175748000E+04  0.12699999809E+01 0.  1.
       -4   -1    0    0    0  501  0.00000000000E+00  0.00000000000E+00 -0.54634426002E+03  0.54634573610E+03  0.12699999809E+01 0. -1.
    10030    2    1    2    0    0  0.00000000000E+00  0.00000000000E+00  0.67122987763E+03  0.17639205361E+04  0.16312161442E+04 0.  0.
        3    1    3    3  502    0 -0.27781007783E+03  0.67301575023E+03  0.73305870974E+03  0.10332007170E+04  0.10100000352E+00 0.  1.
       -3    1    3    3    0  502  0.27781007783E+03 -0.67301575023E+03 -0.61828832104E+02  0.73071981914E+03  0.10100000352E+00 0. -1.
</event>
<event>
 5   0  0.7395088E-04  0.1714251E+04  0.7818609E-02  0.8753278E-01
        2   -1    0    0  501    0  0.00000000000E+00  0.00000000000E+00  0.14023225664E+04  0.14023225664E+04  0.25500000920E-02 0. -1.
       -2   -1    0    0    0  501  0.00000000000E+00  0.00000000000E+00 -0.52389071711E+03  0.52389071712E+03  0.25500000920E-02 0.  1.
    10030    2    1    2    0    0  0.00000000000E+00  0.00000000000E+00  0.87843184928E+03  0.19262132835E+04  0.17142505942E+04 0.  0.
        1    1    3    3  502    0 -0.62407389883E+03  0.58585605832E+03  0.38936569357E+03  0.94037290243E+03  0.50400001928E-02 0.  1.
       -1    1    3    3    0  502  0.62407389883E+03 -0.58585605832E+03  0.48906615571E+03  0.98584038108E+03  0.50400001928E-02 0. -1.
</event>
<event>
 5   0  0.4110803E-04  0.1699622E+04  0.7818609E-02  0.8761580E-01
       -1   -1    0    0    0  501  0.00000000000E+00  0.00000000000E+00  0.63214093314E+03  0.63214093316E+03  0.50400001928E-02 0.  1.
        1   -1    0    0  501    0  0.00000000000E+00  0.00000000000E+00 -0.11424332576E+04  0.11424332576E+04  0.50400001928E-02 0. -1.
    10030    2    1    2    0    0  0.00000000000E+00  0.00000000000E+00 -0.51029232447E+03  0.17745741908E+04  0.16996221057E+04 0.  0.
        5    1    3    3  502    0 -0.95944395579E+02  0.37483887811E+02 -0.11358773846E+04  0.11405480664E+04  0.46999998093E+01 0. -1.
       -5    1    3    3    0  502  0.95944395579E+02 -0.37483887811E+02  0.62558506016E+03  0.63402612437E+03  0.46999998093E+01 0.  1.
</event>
<event>
 5   0  0.3950195E-04  0.1429484E+04  0.7818609E-02  0.8932749E-01
       -1   -1    0    0    0  501  0.00000000000E+00  0.00000000000E+00  0.34498589671E+03  0.34498589675E+03  0.50400001928E-02 0.  1.
        1   -1    0    0  501    0  0.00000000000E+00  0.00000000000E+00 -0.14808030338E+04  0.14808030339E+04  0.50400001928E-02 0. -1.
    10030    2    1    2    0    0  0.00000000000E+00  0.00000000000E+00 -0.11358171371E+04  0.18257889306E+04  0.14294840503E+04 0.  0.
        2    1    3    3  502    0 -0.29863824758E+03  0.53352491961E+03 -0.10406974237E+04  0.12070148178E+04  0.25500000920E-02 0.  1.
       -2    1    3    3    0  502  0.29863824758E+03 -0.53352491961E+03 -0.95119713465E+02  0.61877411279E+03  0.25500000920E-02 0. -1.
</event>
<event>
 5   0  0.3889847E-04  0.1618126E+04  0.7818609E-02  0.8809489E-01
       -1   -1    0    0    0  501  0.00000000000E+00  0.00000000000E+00  0.62915842000E+03  0.62915842002E+03  0.50400001928E-02 0. -1.
        1   -1    0    0  501    0  0.00000000000E+00  0.00000000000E+00 -0.10404103256E+04  0.10404103256E+04  0.50400001928E-02 0.  1.
    10030    2    1    2    0    0  0.00000000000E+00  0.00000000000E+00 -0.41125190555E+03  0.16695687456E+04  0.16181259736E+04 0.  0.
        1    1    3    3  502    0  0.75309669062E+03  0.28273428928E+03 -0.11633207968E+03  0.81278930637E+03  0.50400001928E-02 0.  1.
       -1    1    3    3    0  502 -0.75309669062E+03 -0.28273428928E+03 -0.29491982587E+03  0.85677943922E+03  0.50400001928E-02 0. -1.
</event>
<event>
 5   0  0.7415102E-04  0.1593258E+04  0.7818609E-02  0.8824700E-01
        2   -1    0    0  501    0  0.00000000000E+00  0.00000000000E+00  0.15502921295E+04  0.15502921295E+04  0.25500000920E-02 0.  1.
       -2   -1    0    0    0  501  0.00000000000E+00  0.00000000000E+00 -0.40935391678E+03  0.40935391679E+03  0.25500000920E-02 0. -1.
    10030    2    1    2    0    0  0.00000000000E+00  0.00000000000E+00  0.11409382127E+04  0.19596460463E+04  0.15932584917E+04 0.  0.
        5    1    3    3  502    0 -0.15273073069E+03 -0.97283608922E+02  0.15246251243E+04  0.15353483762E+04  0.46999998093E+01 0.  1.
       -5    1    3    3    0  502  0.15273073069E+03  0.97283608922E+02 -0.38368691162E+03  0.42429767005E+03  0.46999998093E+01 0. -1.
</event>
<event>
 5   0  0.7415102E-04  0.1603310E+04  0.7818609E-02  0.8818517E-01
        2   -1    0    0  501    0  0.00000000000E+00  0.00000000000E+00  0.19988574292E+04  0.19988574292E+04  0.25500000920E-02 0. -1.
       -2   -1    0    0    0  501  0.00000000000E+00  0.00000000000E+00 -0.32150922738E+03  0.32150922739E+03  0.25500000920E-02 0.  1.
    10030    2    1    2    0    0  0.00000000000E+00  0.00000000000E+00  0.16773482019E+04  0.23203666566E+04  0.16033104599E+04 0.  0.
        5    1    3    3  502    0 -0.20063554274E+03  0.77534685762E+03  0.78829770862E+03  0.11237672081E+04  0.46999998093E+01 0.  1.
       -5    1    3    3    0  502  0.20063554274E+03 -0.77534685762E+03  0.88905049323E+03  0.11965994485E+04  0.46999998093E+01 0. -1.
</event>
<event>
 5   0  0.7553070E-04  0.1595641E+04  0.7818609E-02  0.8823231E-01
        2   -1    0    0  501    0  0.00000000000E+00  0.00000000000E+00  0.85557669894E+03  0.85557669894E+03  0.25500000920E-02 0.  1.
       -2   -1    0    0    0  501  0.00000000000E+00  0.00000000000E+00 -0.74396289180E+03  0.74396289181E+03  0.25500000920E-02 0. -1.
    10030    2    1    2    0    0  0.00000000000E+00  0.00000000000E+00  0.11161380714E+03  0.15995395907E+04  0.15956407053E+04 0.  0.
        4    1    3    3  502    0  0.36198794640E+03 -0.31475037027E+02 -0.65620304354E+03  0.75008666069E+03  0.12699999809E+01 0. -1.
       -4    1    3    3    0  502 -0.36198794640E+03  0.31475037027E+02  0.76781685068E+03  0.84945293006E+03  0.12699999809E+01 0.  1.
</event>
<event>
 5   0  0.4110803E-04  0.1596626E+04  0.7818609E-02  0.8822624E-01
        1   -1    0    0  501    0  0.00000000000E+00  0.00000000000E+00  0.75175532725E+03  0.75175532727E+03  0.50400001928E-02 0.  1.
       -1   -1    0    0    0  501  0.00000000000E+00  0.00000000000E+00 -0.84775395461E+03  0.84775395463E+03  0.50400001928E-02 0. -1.
    10030    2    1    2    0    0  0.00000000000E+00  0.00000000000E+00 -0.95998627363E+02  0.15995092819E+04  0.15966258818E+04 0.  0.
        5    1    3    3  502    0 -0.79180145924E+03 -0.61375283433E+02 -0.12917023583E+03  0.80462632078E+03  0.46999998093E+01 0.  1.
       -5    1    3    3    0  502  0.79180145924E+03  0.61375283433E+02  0.33171608469E+02  0.79488296112E+03  0.46999998093E+01 0. -1.
</event>
<event>
 5   0  0.7770905E-04  0.1447267E+04  0.7818609E-02  0.8920298E-01
        2   -1    0    0  501    0  0.00000000000E+00  0.00000000000E+00  0.23486415814E+04  0.23486415814E+04  0.25500000920E-02 0.  1.
       -2   -1    0    0    0  501  0.00000000000E+00  0.00000000000E+00 -0.22295663399E+03  0.22295663400E+03  0.25500000920E-02 0. -1.
    10030    2    1    2    0    0  0.00000000000E+00  0.00000000000E+00  0.21256849474E+04  0.25715982154E+04  0.14472666948E+04 0.  0.
        2    1    3    3  502    0 -0.34724019239E+03 -0.25090627859E+03  0.26584784753E+02  0.42922775147E+03  0.25500000920E-02 0. -1.
       -2    1    3    3    0  502  0.34724019239E+03  0.25090627859E+03  0.20991001626E+04  0.21423704639E+04  0.25500000920E-02 0.  1.
</event>
<event>
 5   0  0.3950195E-04  0.1227006E+04  0.7818609E-02  0.9089541E-01
        1   -1    0    0  501    0  0.00000000000E+00  0.00000000000E+00  0.83946383726E+03  0.83946383727E+03  0.50400001928E-02 0. -1.
       -1   -1    0    0    0  501  0.00000000000E+00  0.00000000000E+00 -0.44836468861E+03  0.44836468864E+03  0.50400001928E-02 0.  1.
    10030    2    1    2    0    0  0.00000000000E+00  0.00000000000E+00  0.39109914865E+03  0.12878285259E+04  0.12270060179E+04 0.  0.
        2    1    3    3  502    0 -0.18952812049E+03  0.33221475893E+03  0.69901324226E+03  0.79681055927E+03  0.25500000920E-02 0. -1.
       -2    1    3    3    0  502  0.18952812049E+03 -0.33221475893E+03 -0.30791409361E+03  0.49101796663E+03  0.25500000920E-02 0.  1.
</event>
<event>
 5   0  0.7770905E-04  0.1584881E+04  0.7818609E-02  0.8829891E-01
        2   -1    0    0  501    0  0.00000000000E+00  0.00000000000E+00  0.65722195213E+03  0.65722195214E+03  0.25500000920E-02 0. -1.
       -2   -1    0    0    0  501  0.00000000000E+00  0.00000000000E+00 -0.95547890369E+03  0.95547890369E+03  0.25500000920E-02 0.  1.
    10030    2    1    2    0    0  0.00000000000E+00  0.00000000000E+00 -0.29825695156E+03  0.16127008558E+04  0.15848807025E+04 0.  0.
        2    1    3    3  502    0 -0.69012986174E+03 -0.18850682866E+03 -0.49591520598E+03  0.87048603783E+03  0.25500000920E-02 0.  1.
       -2    1    3    3    0  502  0.69012986174E+03  0.18850682866E+03  0.19765825443E+03  0.74221481801E+03  0.25500000920E-02 0. -1.
</event>
<event>
 5   0  0.4110803E-04  0.1478716E+04  0.7818609E-02  0.8898731E-01
        1   -1    0    0  501    0  0.00000000000E+00  0.00000000000E+00  0.93497538220E+03  0.93497538221E+03  0.50400001928E-02 0.  1.
       -1   -1    0    0    0  501  0.00000000000E+00  0.00000000000E+00 -0.58466775568E+03  0.58466775570E+03  0.50400001928E-02 0. -1.
    10030    2    1    2    0    0  0.00000000000E+00  0.00000000000E+00  0.35030762652E+03  0.15196431379E+04  0.14787156026E+04 0.  0.
        5    1    3    3  502    0 -0.57506397764E+03  0.22130146426E+03  0.59506419328E+03  0.85661916894E+03  0.46999998093E+01 0.  1.
       -5    1    3    3    0  502  0.57506397764E+03 -0.22130146426E+03 -0.24475656675E+03  0.66302396898E+03  0.46999998093E+01 0. -1.
</event>
<event>
 5   0  0.7553070E-04  0.1576538E+04  0.7818609E-02  0.8835093E-01
       -2   -1    0    0    0  501  0.00000000000E+00  0.00000000000E+00  0.65498965054E+03  0.65498965055E+03  0.25500000920E-02 0. -1.
        2   -1    0    0  501    0  0.00000000000E+00  0.00000000000E+00 -0.94866809089E+03  0.94866809089E+03  0.25500000920E-02 0.  1.
    10030    2    1    2    0    0  0.00000000000E+00  0.00000000000E+00 -0.29367844035E+03  0.16036577414E+04  0.15765377019E+04 0.  0.
        4    1    3    3  502    0  0.41124112909E+03  0.67163945674E+03 -0.11238409501E+03  0.79551909080E+03  0.12699999809E+01 0.  1.
       -4    1    3    3    0  502 -0.41124112909E+03 -0.67163945674E+03 -0.18129434534E+03  0.80813865064E+03  0.12699999809E+01 0. -1.
</event>
<event>
 5   0  0.3889847E-04  0.1635581E+04  0.7818609E-02  0.8798982E-01
       -1   -1    0    0    0  501  0.00000000000E+00  0.00000000000E+00  0.12209396081E+04  0.12209396081E+04  0.50400001928E-02 0. -1.
        1   -1    0    0  501    0  0.00000000000E+00  0.00000000000E+00 -0.54775980872E+03  0.54775980874E+03  0.50400001928E-02 0.  1.
    10030    2    1    2    0    0  0.00000000000E+00  0.00000000000E+00  0.67317979935E+03  0.17686994168E+04  0.16355814210E+04 0.  0.
        1    1    3    3  502    0  0.57666501343E+03  0.35383332025E+03  0.83337135402E+03  0.10734283255E+04  0.50400001928E-02 0. -1.
       -1    1    3    3    0  502 -0.57666501343E+03 -0.35383332025E+03 -0.16019155466E+03  0.69527109134E+03  0.50400001928E-02 0.  1.
</event>
<event>
 5   0  0.4110803E-04  0.1591814E+04  0.7818609E-02  0.8825593E-01
       -1   -1    0    0    0  501  0.00000000000E+00  0.00000000000E+00  0.34532915435E+03  0.34532915439E+03  0.50400001928E-02 0.  1.
        1   -1    0    0  501    0  0.00000000000E+00  0.00000000000E+00 -0.18343892845E+04  0.18343892845E+04  0.50400001928E-02 0. -1.
    10030    2    1    2    0    0  0.00000000000E+00  0.00000000000E+00 -0.14890601301E+04  0.21797184389E+04  0.15918141856E+04 0.  0.
        5    1    3    3  502    0  0.11497874852E+03  0.74659811554E+03 -0.40133016914E+03  0.85540449695E+03  0.46999998093E+01 0.  1.
       -5    1    3    3    0  502 -0.11497874852E+03 -0.74659811554E+03 -0.10877299610E+04  0.13243139419E+04  0.46999998093E+01 0. -1.
</event>
<event>
 5   0  0.3837251E-04  0.1580369E+04  0.7818609E-02  0.8832700E-01
       -1   -1    0    0    0  501  0.00000000000E+00  0.00000000000E+00  0.99682321169E+03  0.99682321170E+03  0.50400001928E-02 0.  1.
        1   -1    0    0  501    0  0.00000000000E+00  0.00000000000E+00 -0.62638157402E+03  0.62638157404E+03  0.50400001928E-02 0. -1.
    10030    2    1    2    0    0  0.00000000000E+00  0.00000000000E+00  0.37044163767E+03  0.16232047857E+04  0.15803691877E+04 0.  0.
        4    1    3    3  502    0 -0.14776612091E+03  0.12666835712E+03 -0.60137677245E+03  0.63208807498E+03  0.12699999809E+01 0. -1.
       -4    1    3    3    0  502  0.14776612091E+03 -0.12666835712E+03  0.97181841013E+03  0.99111671076E+03  0.12699999809E+01 0.  1.
</event>
<event>
 5   0  0.7770905E-04  0.1595973E+04  0.7818609E-02  0.8823026E-01
        2   -1    0    0  501    0  0.00000000000E+00  0.00000000000E+00  0.21598559820E+04  0.21598559820E+04  0.25500000920E-02 0. -1.
       -2   -1    0    0    0  501  0.00000000000E+00  0.00000000000E+00 -0.29482636759E+03  0.29482636760E+03  0.25500000920E-02 0.  1.
    10030    2    1    2    0    0  0.00000000000E+00  0.00000000000E+00  0.18650296145E+04  0.24546823497E+04  0.15959730496E+04 0.  0.
        2    1    3    3  502    0 -0.49454465877E+03  0.53603871636E+03  0.14305918883E+04  0.16057724234E+04  0.25500000920E-02 0.  1.
       -2    1    3    3    0  502  0.49454465877E+03 -0.53603871636E+03  0.43443772619E+03  0.84890992626E+03  0.25500000920E-02 0. -1.
</event>
<event>
 5   0  0.7488884E-04  0.1459470E+04  0.7818609E-02  0.8911861E-01
        2   -1    0    0  501    0  0.00000000000E+00  0.00000000000E+00  0.12556847677E+04  0.12556847677E+04  0.25500000920E-02 0.  1.
       -2   -1    0    0    0  501  0.00000000000E+00  0.00000000000E+00 -0.42408217413E+03  0.42408217413E+03  0.25500000920E-02 0. -1.
    10030    2    1    2    0    0  0.00000000000E+00  0.00000000000E+00  0.83160259361E+03  0.16797669419E+04  0.14594704880E+04 0.  0.
        3    1    3    3  502    0 -0.43287765874E+03 -0.42973108044E+03  0.87684207063E+03  0.10681310294E+04  0.10100000352E+00 0.  1.
       -3    1    3    3    0  502  0.43287765874E+03  0.42973108044E+03 -0.45239477024E+02  0.61163591247E+03  0.10100000352E+00 0. -1.
</event>
<event>
 5   0  0.4110803E-04  0.1598643E+04  0.7818609E-02  0.8821382E-01
       -1   -1    0    0    0  501  0.00000000000E+00  0.00000000000E+00  0.92127362023E+03  0.92127362024E+03  0.50400001928E-02 0. -1.
        1   -1    0    0  501    0  0.00000000000E+00  0.00000000000E+00 -0.69351272431E+03  0.69351272433E+03  0.50400001928E-02 0.  1.
    10030    2    1    2    0    0  0.00000000000E+00  0.00000000000E+00  0.22776089592E+03  0.16147863446E+04  0.15986431475E+04 0.  0.
        5    1    3    3  502    0 -0.36462399083E+03  0.70426063529E+03  0.21468393856E+03  0.82161121012E+03  0.46999998093E+01 0.  1.
       -5    1    3    3    0  502  0.36462399083E+03 -0.70426063529E+03  0.13076957358E+02  0.79317513446E+03  0.46999998093E+01 0. -1.
</event>
<event>
 5   0  0.7415102E-04  0.1597947E+04  0.7818609E-02  0.8821810E-01
       -2   -1    0    0    0  501  0.00000000000E+00  0.00000000000E+00  0.60909282229E+03  0.60909282230E+03  0.25500000920E-02 0. -1.
        2   -1    0    0  501    0  0.00000000000E+00  0.00000000000E+00 -0.10480479406E+04  0.10480479406E+04  0.25500000920E-02 0.  1.
    10030    2    1    2    0    0  0.00000000000E+00  0.00000000000E+00 -0.43895511828E+03  0.16571407629E+04  0.15979467801E+04 0.  0.
        5    1    3    3  502    0  0.62872625021E+02 -0.67620584000E+03  0.21698000700E+03  0.71295842688E+03  0.46999998093E+01 0. -1.
       -5    1    3    3    0  502 -0.62872625021E+02  0.67620584000E+03 -0.65593512528E+03  0.94418233599E+03  0.46999998093E+01 0.  1.
</event>
<event>
 5   0  0.7415102E-04  0.1622753E+04  0.7818609E-02  0.8806691E-01
       -2   -1    0    0    0  501  0.00000000000E+00  0.00000000000E+00  0.48867045921E+03  0.48867045922E+03  0.25500000920E-02 0. -1.
        2   -1    0    0  501    0  0.00000000000E+00  0.00000000000E+00 -0.13471897862E+04  0.13471897862E+04  0.25500000920E-02 0.  1.
    10030    2    1    2    0    0  0.00000000000E+00  0.00000000000E+00 -0.85851932694E+03  0.18358602454E+04  0.16227530329E+04 0.  0.
        5    1    3    3  502    0 -0.22697986404E+03  0.37456895364E+03 -0.12019534626E+04  0.12792716583E+04  0.46999998093E+01 0.  1.
       -5    1    3    3    0  502  0.22697986404E+03 -0.37456895364E+03  0.34343413561E+03  0.55658858703E+03  0.46999998093E+01 0. -1.
</event>
<event>
 5   0  0.7415102E-04  0.1615784E+04  0.7818609E-02  0.8810910E-01
       -2   -1    0    0    0  501  0.00000000000E+00  0.00000000000E+00  0.66696222140E+03  0.66696222140E+03  0.25500000920E-02 0.  1.
        2   -1    0    0  501    0  0.00000000000E+00  0.00000000000E+00 -0.97860045067E+03  0.97860045068E+03  0.25500000920E-02 0. -1.
    10030    2    1    2    0    0  0.00000000000E+00  0.00000000000E+00 -0.31163822928E+03  0.16455626721E+04  0.16157840579E+04 0.  0.
        5    1    3    3  502    0  0.22883297025E+02  0.36147083355E+03  0.57962729591E+03  0.68350179294E+03  0.46999998093E+01 0.  1.
       -5    1    3    3    0  502 -0.22883297025E+02 -0.36147083355E+03 -0.89126552518E+03  0.96206087914E+03  0.46999998093E+01 0. -1.
</event>
<event>
 5   0  0.3889847E-04  0.1530914E+04  0.7818609E-02  0.8864152E-01
        1   -1    0    0  501    0  0.00000000000E+00  0.00000000000E+00  0.11579103737E+04  0.11579103737E+04  0.50400001928E-02 0. -1.
       -1   -1    0    0    0  501  0.00000000000E+00  0.00000000000E+00 -0.50601905994E+03  0.50601905997E+03  0.50400001928E-02 0.  1.
    10030    2    1    2    0    0  0.00000000000E+00  0.00000000000E+00  0.65189131371E+03  0.16639294336E+04  0.15309143919E+04 0.  0.
        1    1    3    3  502    0  0.18632151116E+03 -0.71910528362E+03  0.52664204804E+03  0.91059319195E+03  0.50400001928E-02 0. -1.
       -1    1    3    3    0  502 -0.18632151116E+03  0.71910528362E+03  0.12524926567E+03  0.75333624168E+03  0.50400001928E-02 0.  1.
</event>
<event>
 5   0  0.7553070E-04  0.1255917E+04  0.7818609E-02  0.9065273E-01
        2   -1    0    0  501    0  0.00000000000E+00  0.00000000000E+00  0.59722182947E+03  0.59722182947E+03  0.25500000920E-02 0. -1.
       -2   -1    0    0    0  501  0.00000000000E+00  0.00000000000E+00 -0.66027743082E+03  0.66027743083E+03  0.25500000920E-02 0.  1.
    10030    2    1    2    0    0  0.00000000000E+00  0.00000000000E+00 -0.63055601358E+02  0.12574992603E+04  0.12559173463E+04 0.  0.
        4    1    3    3  502    0  0.14650585620E+03 -0.35807610511E+03  0.46371427082E+03  0.60391638561E+03  0.12699999809E+01 0. -1.
       -4    1    3    3    0  502 -0.14650585620E+03  0.35807610511E+03 -0.52676987218E+03  0.65358287469E+03  0.12699999809E+01 0.  1.
</event>
<event>
 5   0  0.3889847E-04  0.1519726E+04  0.7818609E-02  0.8871440E-01
       -1   -1    0    0    0  501  0.00000000000E+00  0.00000000000E+00  0.56497978041E+03  0.56497978044E+03  0.50400001928E-02 0.  1.
        1   -1    0    0  501    0  0.00000000000E+00  0.00000000000E+00 -0.10219690776E+04  0.10219690776E+04  0.50400001928E-02 0. -1.
    10030    2    1    2    0    0  0.00000000000E+00  0.00000000000E+00 -0.45698929718E+03  0.15869488580E+04  0.15197261136E+04 0.  0.
        1    1    3    3  502    0  0.13677225130E+03  0.59845912946E+03 -0.69611060812E+03  0.92813251054E+03  0.50400001928E-02 0. -1.
       -1    1    3    3    0  502 -0.13677225130E+03 -0.59845912946E+03  0.23912131094E+03  0.65881634750E+03  0.50400001928E-02 0.  1.
</event>
<event>
 5   0  0.3889847E-04  0.1473597E+04  0.7818609E-02  0.8902203E-01
        1   -1    0    0  501    0  0.00000000000E+00  0.00000000000E+00  0.13367878657E+04  0.13367878657E+04  0.50400001928E-02 0. -1.
       -1   -1    0    0    0  501  0.00000000000E+00  0.00000000000E+00 -0.40610173407E+03  0.40610173411E+03  0.50400001928E-02 0.  1.
    10030    2    1    2    0    0  0.00000000000E+00  0.00000000000E+00  0.93068613164E+03  0.17428895998E+04  0.14735967839E+04 0.  0.
        1    1    3    3  502    0 -0.26810177686E+03 -0.28787421357E+03  0.12021864710E+04  0.12649120272E+04  0.50400001928E-02 0. -1.
       -1    1    3    3    0  502  0.26810177686E+03  0.28787421357E+03 -0.27150033935E+03  0.47797757258E+03  0.50400001928E-02 0.  1.
</event>
<event>
 5   0  0.3950195E-04  0.1597816E+04  0.7818609E-02  0.8821891E-01
       -1   -1    0    0    0  501  0.00000000000E+00  0.00000000000E+00  0.74089928980E+03  0.74089928981E+03  0.50400001928E-02 0. -1.
        1   -1    0    0  501    0  0.00000000000E+00  0.00000000000E+00 -0.86145831330E+03  0.86145831332E+03  0.50400001928E-02 0.  1.
    10030    2    1    2    0    0  0.00000000000E+00  0.00000000000E+00 -0.12055902351E+03  0.16023576031E+04  0.15978158249E+04 0.  0.
        2    1    3    3  502    0 -0.15313447295E+03  0.28804744369E+03 -0.79162082136E+03  0.85620384339E+03  0.25500000920E-02 0.  1.
       -2    1    3    3    0  502  0.15313447295E+03 -0.28804744369E+03  0.67106179785E+03  0.74615375974E+03  0.25500000920E-02 0. -1.
</event>
<event>
 5   0  0.7553070E-04  0.1595768E+04  0.7818609E-02  0.8823152E-01
        2   -1    0    0  501    0  0.00000000000E+00  0.00000000000E+00  0.93158905686E+03  0.93158905686E+03  0.25500000920E-02 0. -1.
       -2   -1    0    0    0  501  0.00000000000E+00  0.00000000000E+00 -0.68336879804E+03  0.68336879804E+03  0.25500000920E-02 0.  1.
    10030    2    1    2    0    0  0.00000000000E+00  0.00000000000E+00  0.24822025882E+03  0.16149578549E+04  0.15957680208E+04 0.  0.
        4    1    3    3  502    0 -0.47394254145E+03  0.34358795861E+01 -0.52546827880E+03  0.70763822875E+03  0.12699999809E+01 0.  1.
       -4    1    3    3    0  502  0.47394254145E+03 -0.34358795861E+01  0.77368853762E+03  0.90731962615E+03  0.12699999809E+01 0. -1.
</event>
<event>
 5   0  0.3837251E-04  0.1589622E+04  0.7818609E-02  0.8826949E-01
        1   -1    0    0  501    0  0.00000000000E+00  0.00000000000E+00  0.71966635528E+03  0.71966635530E+03  0.50400001928E-02 0.  1.
       -1   -1    0    0    0  501  0.00000000000E+00  0.00000000000E+00 -0.87780161873E+03  0.87780161874E+03  0.50400001928E-02 0. -1.
    10030    2    1    2    0    0  0.00000000000E+00  0.00000000000E+00 -0.15813526345E+03  0.15974679740E+04  0.15896217055E+04 0.  0.
        4    1    3    3  502    0  0.18555228342E+03 -0.35271465762E+03  0.61199327945E+03  0.73032504173E+03  0.12699999809E+01 0.  1.
       -4    1    3    3    0  502 -0.18555228342E+03  0.35271465762E+03 -0.77012854289E+03  0.86714293231E+03  0.12699999809E+01 0. -1.
</event>
<event>
 5   0  0.3973227E-04  0.1608581E+04  0.7818609E-02  0.8815294E-01
        1   -1    0    0  501    0  0.00000000000E+00  0.00000000000E+00  0.83369001089E+03  0.83369001091E+03  0.50400001928E-02 0.  1.
       -1   -1    0    0    0  501  0.00000000000E+00  0.00000000000E+00 -0.77592743771E+03  0.77592743772E+03  0.50400001928E-02 0. -1.
    10030    2    1    2    0    0  0.00000000000E+00  0.00000000000E+00  0.57762573188E+02  0.16096174486E+04  0.16085806837E+04 0.  0.
        3    1    3    3  502    0 -0.28980927201E+03 -0.68278620835E+03 -0.28227978024E+03  0.79364242893E+03  0.10100000352E+00 0. -1.
       -3    1    3    3    0  502  0.28980927201E+03  0.68278620835E+03  0.34004235342E+03  0.81597501971E+03  0.10100000352E+00 0.  1.
</event>
<event>
 5   0  0.7395088E-04  0.1568088E+04  0.7818609E-02  0.8840396E-01
        2   -1    0    0  501    0  0.00000000000E+00  0.00000000000E+00  0.81574007373E+03  0.81574007374E+03  0.25500000920E-02 0.  1.
       -2   -1    0    0    0  501  0.00000000000E+00  0.00000000000E+00 -0.75357961252E+03  0.75357961253E+03  0.25500000920E-02 0. -1.
    10030    2    1    2    0    0  0.00000000000E+00  0.00000000000E+00  0.62160461212E+02  0.15693196863E+04  0.15680881209E+04 0.  0.
        1    1    3    3  502    0  0.48263980571E+03 -0.52486608891E+03 -0.29521186958E+03  0.77173547367E+03  0.50400001928E-02 0. -1.
       -1    1    3    3    0  502 -0.48263980571E+03  0.52486608891E+03  0.35737233080E+03  0.79758421260E+03  0.50400001928E-02 0.  1.
</event>
<event>
 5   0  0.7415102E-04  0.1615917E+04  0.7818609E-02  0.8810829E-01
       -2   -1    0    0    0  501  0.00000000000E+00  0.00000000000E+00  0.10078613047E+04  0.10078613047E+04  0.25500000920E-02 0.  1.
        2   -1    0    0  501    0  0.00000000000E+00  0.00000000000E+00 -0.64770517605E+03  0.64770517605E+03  0.25500000920E-02 0. -1.
    10030    2    1    2    0    0  0.00000000000E+00  0.00000000000E+00  0.36015612867E+03  0.16555664808E+04  0.16159170570E+04 0.  0.
        5    1    3    3  502    0  0.21161478318E+03 -0.72440353147E+03 -0.11550319944E+03  0.76348174304E+03  0.46999998093E+01 0.  1.
       -5    1    3    3    0  502 -0.21161478318E+03  0.72440353147E+03  0.47565932811E+03  0.89208473773E+03  0.46999998093E+01 0. -1.
</event>
<event>
 5   0  0.3837251E-04  0.1598213E+04  0.7818609E-02  0.8821647E-01
       -1   -1    0    0    0  501  0.00000000000E+00  0.00000000000E+00  0.87326276315E+03  0.87326276317E+03  0.50400001928E-02 0. -1.
        1   -1    0    0  501    0  0.00000000000E+00  0.00000000000E+00 -0.73124716711E+03  0.73124716713E+03  0.50400001928E-02 0.  1.
    10030    2    1    2    0    0  0.00000000000E+00  0.00000000000E+00  0.14201559605E+03  0.16045099303E+04  0.15982126538E+04 0.  0.
        4    1    3    3  502    0 -0.15167487052E+03 -0.19230619139E+02  0.85844144763E+03  0.87195092463E+03  0.12699999809E+01 0. -1.
       -4    1    3    3    0  502  0.15167487052E+03  0.19230619139E+02 -0.71642585158E+03  0.73255900566E+03  0.12699999809E+01 0.  1.
</event>
<event>
 5   0  0.7553070E-04  0.1594202E+04  0.7818609E-02  0.8824118E-01
       -2   -1    0    0    0  501  0.00000000000E+00  0.00000000000E+00  0.98353686705E+03  0.98353686706E+03  0.25500000920E-02 0. -1.
        2   -1    0    0  501    0  0.00000000000E+00  0.00000000000E+00 -0.64600531048E+03  0.64600531048E+03  0.25500000920E-02 0.  1.
    10030    2    1    2    0    0  0.00000000000E+00  0.00000000000E+00  0.33753155658E+03  0.16295421775E+04  0.15942020439E+04 0.  0.
        4    1    3    3  502    0 -0.25635842648E+03  0.30673682953E+03 -0.53613095417E+03  0.66876388833E+03  0.12699999809E+01 0.  1.
       -4    1    3    3    0  502  0.25635842648E+03 -0.30673682953E+03  0.87366251075E+03  0.96077828920E+03  0.12699999809E+01 0. -1.
</event>
<event>
 5   0  0.7770905E-04  0.1560688E+04  0.7818609E-02  0.8845070E-01
        2   -1    0    0  501    0  0.00000000000E+00  0.00000000000E+00  0.31892141774E+03  0.31892141775E+03  0.25500000920E-02 0.  1.
       -2   -1    0    0    0  501  0.00000000000E+00  0.00000000000E+00 -0.19093632530E+04  0.19093632530E+04  0.25500000920E-02 0. -1.
    10030    2    1    2    0    0  0.00000000000E+00  0.00000000000E+00 -0.15904418352E+04  0.22282846707E+04  0.15606880990E+04 0.  0.
        2    1    3    3  502    0 -0.45484300469E+03  0.43835242738E+03 -0.14493488014E+04  0.15810271843E+04  0.25500000920E-02 0. -1.
       -2    1    3    3    0  502  0.45484300469E+03 -0.43835242738E+03 -0.14109303387E+03  0.64725748642E+03  0.25500000920E-02 0.  1.
</event>
<event>
 5   0  0.3889847E-04  0.1601879E+04  0.7818609E-02  0.8819395E-01
        1   -1    0    0  501    0  0.00000000000E+00  0.00000000000E+00  0.61258590629E+03  0.61258590631E+03  0.50400001928E-02 0. -1.
       -1   -1    0    0    0  501  0.00000000000E+00  0.00000000000E+00 -0.10472062251E+04  0.10472062251E+04  0.50400001928E-02 0.  1.
    10030    2    1    2    0    0  0.00000000000E+00  0.00000000000E+00 -0.43462031881E+03  0.16597921314E+04  0.16018786153E+04 0.  0.
        1    1    3    3  502    0  0.71454285272E+03  0.40111128133E+02  0.15530680806E+03  0.73232547110E+03  0.50400001928E-02 0. -1.
       -1    1    3    3    0  502 -0.71454285272E+03 -0.40111128133E+02 -0.58992712688E+03  0.92746666033E+03  0.50400001928E-02 0.  1.
</event>
<event>
 5   0  0.7770905E-04  0.1609679E+04  0.7818609E-02  0.8814624E-01
        2   -1    0    0  501    0  0.00000000000E+00  0.00000000000E+00  0.16605441786E+04  0.16605441787E+04  0.25500000920E-02 0.  1.
       -2   -1    0    0    0  501  0.00000000000E+00  0.00000000000E+00 -0.39009303694E+03  0.39009303695E+03  0.25500000920E-02 0. -1.
    10030    2    1    2    0    0  0.00000000000E+00  0.00000000000E+00  0.12704511417E+04  0.20506372156E+04  0.16096791253E+04 0.  0.
        2    1    3    3  502    0 -0.50778503390E+03  0.50790933602E+03  0.17246869258E+03  0.73862235560E+03  0.25500000920E-02 0. -1.
       -2    1    3    3    0  502  0.50778503390E+03 -0.50790933602E+03  0.10979824491E+04  0.13120148600E+04  0.25500000920E-02 0.  1.
</event>
<event>
 5   0  0.3950195E-04  0.1474531E+04  0.7818609E-02  0.8901568E-01
        1   -1    0    0  501    0  0.00000000000E+00  0.00000000000E+00  0.80543582456E+03  0.80543582457E+03  0.50400001928E-02 0. -1.
       -1   -1    0    0    0  501  0.00000000000E+00  0.00000000000E+00 -0.67486490286E+03  0.67486490287E+03  0.50400001928E-02 0.  1.
    10030    2    1    2    0    0  0.00000000000E+00  0.00000000000E+00  0.13057092170E+03  0.14803007274E+04  0.14745309349E+04 0.  0.
        2    1    3    3  502    0 -0.22145868086E+03  0.25468502487E+03 -0.59275782622E+03  0.68210721282E+03  0.25500000920E-02 0.  1.
       -2    1    3    3    0  502  0.22145868086E+03 -0.25468502487E+03  0.72332874792E+03  0.79819351463E+03  0.25500000920E-02 0. -1.
</event>
<event>
 5   0  0.3837251E-04  0.1686018E+04  0.7818609E-02  0.8769379E-01
        1   -1    0    0  501    0  0.00000000000E+00  0.00000000000E+00  0.12116823114E+04  0.12116823114E+04  0.50400001928E-02 0.  1.
       -1   -1    0    0    0  501  0.00000000000E+00  0.00000000000E+00 -0.58651062458E+03  0.58651062460E+03  0.50400001928E-02 0. -1.
    10030    2    1    2    0    0  0.00000000000E+00  0.00000000000E+00  0.62517168686E+03  0.17981929361E+04  0.16860184451E+04 0.  0.
        4    1    3    3  502    0  0.97157333512E+02 -0.76724275004E+03  0.67041009588E+03  0.10235000217E+04  0.12699999809E+01 0.  1.
       -4    1    3    3    0  502 -0.97157333512E+02  0.76724275004E+03 -0.45238409015E+02  0.77469291432E+03  0.12699999809E+01 0. -1.
</event>
<event>
 5   0  0.7395088E-04  0.1594711E+04  0.7818609E-02  0.8823804E-01
       -2   -1    0    0    0  501  0.00000000000E+00  0.00000000000E+00  0.10536294579E+04  0.10536294579E+04  0.25500000920E-02 0.  1.
        2   -1    0    0  501    0  0.00000000000E+00  0.00000000000E+00 -0.60341466570E+03  0.60341466571E+03  0.25500000920E-02 0. -1.
    10030    2    1    2    0    0  0.00000000000E+00  0.00000000000E+00  0.45021479222E+03  0.16570441236E+04  0.15947105908E+04 0.  0.
        1    1    3    3  502    0 -0.26924893535E+03 -0.98888955733E+02 -0.54794971032E+03  0.61848435697E+03  0.50400001928E-02 0. -1.
       -1    1    3    3    0  502  0.26924893535E+03  0.98888955733E+02  0.99816450254E+03  0.10385597667E+04  0.50400001928E-02 0.  1.
</event>
<event>
 5   0  0.7770905E-04  0.1600369E+04  0.7818609E-02  0.8820322E-01
        2   -1    0    0  501    0  0.00000000000E+00  0.00000000000E+00  0.11624805862E+04  0.11624805862E+04  0.25500000920E-02 0. -1.
       -2   -1    0    0    0  501  0.00000000000E+00  0.00000000000E+00 -0.55080047069E+03  0.55080047070E+03  0.25500000920E-02 0.  1.
    10030    2    1    2    0    0  0.00000000000E+00  0.00000000000E+00  0.61168011546E+03  0.17132810569E+04  0.16003685251E+04 0.  0.
        2    1    3    3  502    0  0.57814886011E+03  0.52178910586E+03  0.50258587577E+03  0.92688323858E+03  0.25500000920E-02 0. -1.
       -2    1    3    3    0  502 -0.57814886011E+03 -0.52178910586E+03  0.10909423969E+03  0.78639781827E+03  0.25500000920E-02 0.  1.
</event>
<event>
 5   0  0.3889847E-04  0.1545969E+04  0.7818609E-02  0.8854447E-01
       -1   -1    0    0    0  501  0.00000000000E+00  0.00000000000E+00  0.62810976240E+03  0.62810976242E+03  0.50400001928E-02 0. -1.
        1   -1    0    0  501    0  0.00000000000E+00  0.00000000000E+00 -0.95127506300E+03  0.95127506301E+03  0.50400001928E-02 0.  1.
    10030    2    1    2    0    0  0.00000000000E+00  0.00000000000E+00 -0.32316530060E+03  0.15793848254E+04  0.15459691508E+04 0.  0.
        1    1    3    3  502    0  0.48201414716E+03 -0.34186049264E+03  0.34748388924E+03  0.68552993209E+03  0.50400001928E-02 0. -1.
       -1    1    3    3    0  502 -0.48201414716E+03  0.34186049264E+03 -0.67064918984E+03  0.89385489334E+03  0.50400001928E-02 0.  1.
</event>
<event>
 5   0  0.3950195E-04  0.1595797E+04  0.7818609E-02  0.8823134E-01
        1   -1    0    0  501    0  0.00000000000E+00  0.00000000000E+00  0.19956702321E+04  0.19956702321E+04  0.50400001928E-02 0. -1.
       -1   -1    0    0    0  501  0.00000000000E+00  0.00000000000E+00 -0.31901159203E+03  0.31901159207E+03  0.50400001928E-02 0.  1.
    10030    2    1    2    0    0  0.00000000000E+00  0.00000000000E+00  0.16766586401E+04  0.23146818242E+04  0.15957969018E+04 0.  0.
        2    1    3    3  502    0 -0.32553532949E+03 -0.30631674218E+03 -0.12035198201E+03  0.46291229932E+03  0.25500000920E-02 0.  1.
       -2    1    3    3    0  502  0.32553532949E+03  0.30631674218E+03  0.17970106221E+04  0.18517695249E+04  0.25500000920E-02 0. -1.
</event>
<event>
 5   0  0.7395088E-04  0.1684921E+04  0.7818609E-02  0.8770012E-01
        2   -1    0    0  501    0  0.00000000000E+00  0.00000000000E+00  0.16035998546E+04  0.16035998546E+04  0.25500000920E-02 0.  1.
       -2   -1    0    0    0  501  0.00000000000E+00  0.00000000000E+00 -0.44259128769E+03  0.44259128770E+03  0.25500000920E-02 0. -1.
    10030    2    1    2    0    0  0.00000000000E+00  0.00000000000E+00  0.11610085669E+04  0.20461911423E+04  0.16849205615E+04 0.  0.
        1    1    3    3  502    0  0.31548238067E+03 -0.19730209081E+03  0.14983973085E+04  0.15439079447E+04  0.50400001928E-02 0.  1.
       -1    1    3    3    0  502 -0.31548238067E+03  0.19730209081E+03 -0.33738874163E+03  0.50228319757E+03  0.50400001928E-02 0. -1.
</event>
<event>
 5   0  0.3950195E-04  0.1611543E+04  0.7818609E-02  0.8813488E-01
        1   -1    0    0  501    0  0.00000000000E+00  0.00000000000E+00  0.16536804174E+04  0.16536804174E+04  0.50400001928E-02 0. -1.
       -1   -1    0    0    0  501  0.00000000000E+00  0.00000000000E+00 -0.39261972563E+03  0.39261972567E+03  0.50400001928E-02 0.  1.
    10030    2    1    2    0    0  0.00000000000E+00  0.00000000000E+00  0.12610606918E+04  0.20463001431E+04  0.16115428034E+04 0.  0.
        2    1    3    3  502    0 -0.75596678481E+03  0.59954591140E+01  0.98458151436E+03  0.12413389882E+04  0.25500000920E-02 0. -1.
       -2    1    3    3    0  502  0.75596678481E+03 -0.59954591140E+01  0.27647917740E+03  0.80496115484E+03  0.25500000920E-02 0.  1.
</event>
<event>
 5   0  0.3973227E-04  0.1604482E+04  0.7818609E-02  0.8817799E-01
       -1   -1    0    0    0  501  0.00000000000E+00  0.00000000000E+00  0.64195674881E+03  0.64195674883E+03  0.50400001928E-02 0.  1.
        1   -1    0    0  501    0  0.00000000000E+00  0.00000000000E+00 -0.10025455667E+04  0.10025455667E+04  0.50400001928E-02 0. -1.
    10030    2    1    2    0    0  0.00000000000E+00  0.00000000000E+00 -0.36058881785E+03  0.16445023155E+04  0.16044823371E+04 0.  0.
        3    1    3    3  502    0  0.22901627047E+03 -0.30263088861E+03  0.54412831098E+03  0.66340751872E+03  0.10100000352E+00 0.  1.
       -3    1    3    3    0  502 -0.22901627047E+03  0.30263088861E+03 -0.90471712883E+03  0.98109479679E+03  0.10100000352E+00 0. -1.
</event>
<event>
 5   0  0.7395088E-04  0.1602643E+04  0.7818609E-02  0.8818926E-01
        2   -1    0    0  501    0  0.00000000000E+00  0.00000000000E+00  0.19554295875E+04  0.19554295875E+04  0.25500000920E-02 0.  1.
       -2   -1    0    0    0  501  0.00000000000E+00  0.00000000000E+00 -0.32837580520E+03  0.32837580521E+03  0.25500000920E-02 0. -1.
    10030    2    1    2    0    0  0.00000000000E+00  0.00000000000E+00  0.16270537823E+04  0.22838053927E+04  0.16026425245E+04 0.  0.
        1    1    3    3  502    0 -0.41976026390E+03 -0.65512522149E+03  0.10866266087E+04  0.13364674039E+04  0.50400001928E-02 0.  1.
       -1    1    3    3    0  502  0.41976026390E+03  0.65512522149E+03  0.54042717358E+03  0.94733798876E+03  0.50400001928E-02 0. -1.
</event>
<event>
 5   0  0.7553070E-04  0.1561691E+04  0.7818609E-02  0.8844435E-01
       -2   -1    0    0    0  501  0.00000000000E+00  0.00000000000E+00  0.58169283861E+03  0.58169283862E+03  0.25500000920E-02 0. -1.
        2   -1    0    0  501    0  0.00000000000E+00  0.00000000000E+00 -0.10481810368E+04  0.10481810368E+04  0.25500000920E-02 0.  1.
    10030    2    1    2    0    0  0.00000000000E+00  0.00000000000E+00 -0.46648819815E+03  0.16298738754E+04  0.15616906258E+04 0.  0.
        4    1    3    3  502    0 -0.65523485676E+03  0.96660800526E+02 -0.66487256234E+03  0.93847384882E+03  0.12699999809E+01 0.  1.
       -4    1    3    3    0  502  0.65523485676E+03 -0.96660800526E+02  0.19838436419E+03  0.69140002656E+03  0.12699999809E+01 0. -1.
</event>
<event>
 5   0  0.7553070E-04  0.1693218E+04  0.7818609E-02  0.8765242E-01
       -2   -1    0    0    0  501  0.00000000000E+00  0.00000000000E+00  0.16822776009E+04  0.16822776009E+04  0.25500000920E-02 0.  1.
        2   -1    0    0  501    0  0.00000000000E+00  0.00000000000E+00 -0.42605749381E+03  0.42605749382E+03  0.25500000920E-02 0. -1.
    10030    2    1    2    0    0  0.00000000000E+00  0.00000000000E+00  0.12562201071E+04  0.21083350948E+04  0.16932182122E+04 0.  0.
        4    1    3    3  502    0  0.58244159581E+03 -0.23599710055E+03  0.13344734337E+04  0.14750436611E+04  0.12699999809E+01 0.  1.
       -4    1    3    3    0  502 -0.58244159581E+03  0.23599710055E+03 -0.78253326526E+02  0.63329143371E+03  0.12699999809E+01 0. -1.
</event>
<event>
 5   0  0.7488884E-04  0.1714535E+04  0.7818609E-02  0.8753118E-01
       -2   -1    0    0    0  501  0.00000000000E+00  0.00000000000E+00  0.83084295988E+03  0.83084295988E+03  0.25500000920E-02 0.  1.
        2   -1    0    0  501    0  0.00000000000E+00  0.00000000000E+00 -0.88453205917E+03  0.88453205917E+03  0.25500000920E-02 0. -1.
    10030    2    1    2    0    0  0.00000000000E+00  0.00000000000E+00 -0.53689099291E+02  0.17153750191E+04  0.17145346122E+04 0.  0.
        3    1    3    3  502    0 -0.19040007808E+03 -0.75995111659E+03 -0.37505154370E+03  0.86858595428E+03  0.10100000352E+00 0. -1.
       -3    1    3    3    0  502  0.19040007808E+03  0.75995111659E+03  0.32136244441E+03  0.84678906477E+03  0.10100000352E+00 0.  1.
</event>
<event>
 5   0  0.3889847E-04  0.1586435E+04  0.7818609E-02  0.8828925E-01
       -1   -1    0    0    0  501  0.00000000000E+00  0.00000000000E+00  0.72799838287E+03  0.72799838288E+03  0.50400001928E-02 0. -1.
        1   -1    0    0  501    0  0.00000000000E+00  0.00000000000E+00 -0.86427918965E+03  0.86427918967E+03  0.50400001928E-02 0.  1.
    10030    2    1    2    0    0  0.00000000000E+00  0.00000000000E+00 -0.13628080679E+03  0.15922775726E+04  0.15864348111E+04 0.  0.
        1    1    3    3  502    0 -0.68360673392E+03 -0.13575491406E+02 -0.47173003148E+03  0.83068145715E+03  0.50400001928E-02 0.  1.
       -1    1    3    3    0  502  0.68360673392E+03  0.13575491406E+02  0.33544922469E+03  0.76159611540E+03  0.50400001928E-02 0. -1.
</event>
<event>
 5   0  0.7770905E-04  0.1587915E+04  0.7818609E-02  0.8828007E-01
       -2   -1    0    0    0  501  0.00000000000E+00  0.00000000000E+00  0.95149671238E+03  0.95149671239E+03  0.25500000920E-02 0. -1.
        2   -1    0    0  501    0  0.00000000000E+00  0.00000000000E+00 -0.66250211684E+03  0.66250211684E+03  0.25500000920E-02 0.  1.
    10030    2    1    2    0    0  0.00000000000E+00  0.00000000000E+00  0.28899459554E+03  0.16139988292E+04  0.15879150936E+04 0.  0.
        2    1    3    3  502    0  0.30154933045E+03  0.38768062916E+03  0.77855539462E+03  0.92053070097E+03  0.25500000920E-02 0. -1.
       -2    1    3    3    0  502 -0.30154933045E+03 -0.38768062916E+03 -0.48956079908E+03  0.69346812826E+03  0.25500000920E-02 0.  1.
</event>
<event>
 5   0  0.7395088E-04  0.1611500E+04  0.7818609E-02  0.8813514E-01
        2   -1    0    0  501    0  0.00000000000E+00  0.00000000000E+00  0.84052769999E+03  0.84052769999E+03  0.25500000920E-02 0. -1.
       -2   -1    0    0    0  501  0.00000000000E+00  0.00000000000E+00 -0.77241125443E+03  0.77241125444E+03  0.25500000920E-02 0.  1.
    10030    2    1    2    0    0  0.00000000000E+00  0.00000000000E+00  0.68116445559E+02  0.16129389544E+04  0.16114999909E+04 0.  0.
        1    1    3    3  502    0  0.53403585181E+03  0.33126179281E+03 -0.47067809024E+03  0.78515382637E+03  0.50400001928E-02 0.  1.
       -1    1    3    3    0  502 -0.53403585181E+03 -0.33126179281E+03  0.53879453580E+03  0.82778512806E+03  0.50400001928E-02 0. -1.
</event>
<event>
 5   0  0.3950195E-04  0.1719745E+04  0.7818609E-02  0.8750183E-01
       -1   -1    0    0    0  501  0.00000000000E+00  0.00000000000E+00  0.87831245002E+03  0.87831245003E+03  0.50400001928E-02 0. -1.
        1   -1    0    0  501    0  0.00000000000E+00  0.00000000000E+00 -0.84181950382E+03  0.84181950384E+03  0.50400001928E-02 0.  1.
    10030    2    1    2    0    0  0.00000000000E+00  0.00000000000E+00  0.36492946195E+02  0.17201319539E+04  0.17197448077E+04 0.  0.
        2    1    3    3  502    0 -0.41084652322E+03  0.61752118646E+03 -0.41688395320E+03  0.85083459721E+03  0.25500000920E-02 0.  1.
       -2    1    3    3    0  502  0.41084652322E+03 -0.61752118646E+03  0.45337689940E+03  0.86929735665E+03  0.25500000920E-02 0. -1.
</event>
<event>
 5   0  0.3950195E-04  0.1652229E+04  0.7818609E-02  0.8789089E-01
        1   -1    0    0  501    0  0.00000000000E+00  0.00000000000E+00  0.85354647627E+03  0.85354647629E+03  0.50400001928E-02 0. -1.
       -1   -1    0    0    0  501  0.00000000000E+00  0.00000000000E+00 -0.79956453200E+03  0.79956453202E+03  0.50400001928E-02 0.  1.
    10030    2    1    2    0    0  0.00000000000E+00  0.00000000000E+00  0.53981944270E+02  0.16531110083E+04  0.16522293895E+04 0.  0.
        2    1    3    3  502    0  0.75495053702E+02 -0.81332250289E+03 -0.96656894712E+02  0.82251781266E+03  0.25500000920E-02 0.  1.
       -2    1    3    3    0  502 -0.75495053702E+02  0.81332250289E+03  0.15063883898E+03  0.83059319565E+03  0.25500000920E-02 0. -1.
</event>
<event>
 5   0  0.7395088E-04  0.1556652E+04  0.7818609E-02  0.8847630E-01
        2   -1    0    0  501    0  0.00000000000E+00  0.00000000000E+00  0.11146179121E+04  0.11146179122E+04  0.25500000920E-02 0. -1.
       -2   -1    0    0    0  501  0.00000000000E+00  0.00000000000E+00 -0.54349707416E+03  0.54349707416E+03  0.25500000920E-02 0.  1.
    10030    2    1    2    0    0  0.00000000000E+00  0.00000000000E+00  0.57112083799E+03  0.16581149863E+04  0.15566522721E+04 0.  0.
        1    1    3    3  502    0 -0.72097266604E+02  0.34005562060E+03  0.10273386494E+04  0.10845554581E+04  0.50400001928E-02 0. -1.
       -1    1    3    3    0  502  0.72097266604E+02 -0.34005562060E+03 -0.45621781144E+03  0.57355952826E+03  0.50400001928E-02 0.  1.
</event>
<event>
 5   0  0.7553070E-04  0.1616547E+04  0.7818609E-02  0.8810447E-01
        2   -1    0    0  501    0  0.00000000000E+00  0.00000000000E+00  0.22549561208E+04  0.22549561208E+04  0.25500000920E-02 0.  1.
       -2   -1    0    0    0  501  0.00000000000E+00  0.00000000000E+00 -0.28972005614E+03  0.28972005615E+03  0.25500000920E-02 0. -1.
    10030    2    1    2    0    0  0.00000000000E+00  0.00000000000E+00  0.19652360647E+04  0.25446761770E+04  0.16165469544E+04 0.  0.
        4    1    3    3  502    0 -0.33655394917E+03  0.35920277004E+03 -0.26565086828E+02  0.49295284505E+03  0.12699999809E+01 0. -1.
       -4    1    3    3    0  502  0.33655394917E+03 -0.35920277004E+03  0.19918011515E+04  0.20517233319E+04  0.12699999809E+01 0.  1.
</event>
<event>
 5   0  0.7553070E-04  0.1594865E+04  0.7818609E-02  0.8823709E-01
        2   -1    0    0  501    0  0.00000000000E+00  0.00000000000E+00  0.52379514048E+03  0.52379514048E+03  0.25500000920E-02 0.  1.
       -2   -1    0    0    0  501  0.00000000000E+00  0.00000000000E+00 -0.12140218224E+04  0.12140218224E+04  0.25500000920E-02 0. -1.
    10030    2    1    2    0    0  0.00000000000E+00  0.00000000000E+00 -0.69022668195E+03  0.17378169629E+04  0.15948651743E+04 0.  0.
        4    1    3    3  502    0  0.53212808694E+03 -0.55850838753E+03 -0.56522234236E+03  0.95633144310E+03  0.12699999809E+01 0. -1.
       -4    1    3    3    0  502 -0.53212808694E+03  0.55850838753E+03 -0.12500433959E+03  0.78148551981E+03  0.12699999809E+01 0.  1.
</event>
<event>
 5   0  0.3973227E-04  0.1572852E+04  0.7818609E-02  0.8837402E-01
       -1   -1    0    0    0  501  0.00000000000E+00  0.00000000000E+00  0.71432890025E+03  0.71432890027E+03  0.50400001928E-02 0.  1.
        1   -1    0    0  501    0  0.00000000000E+00  0.00000000000E+00 -0.86579962922E+03  0.86579962923E+03  0.50400001928E-02 0. -1.
    10030    2    1    2    0    0  0.00000000000E+00  0.00000000000E+00 -0.15147072897E+03  0.15801285295E+04  0.15728518010E+04 0.  0.
        3    1    3    3  502    0 -0.28431429708E+03  0.66861185246E+03  0.22663760274E+03  0.76107886710E+03  0.10100000352E+00 0.  1.
       -3    1    3    3    0  502  0.28431429708E+03 -0.66861185246E+03 -0.37810833171E+03  0.81904966240E+03  0.10100000352E+00 0. -1.
</event>
<event>
 5   0  0.4110803E-04  0.1704550E+04  0.7818609E-02  0.8758774E-01
       -1   -1    0    0    0  501  0.00000000000E+00  0.00000000000E+00  0.32989316077E+03  0.32989316081E+03  0.50400001928E-02 0.  1.
        1   -1    0    0  501    0  0.00000000000E+00  0.00000000000E+00 -0.22018411479E+04  0.22018411479E+04  0.50400001928E-02 0. -1.
    10030    2    1    2    0    0  0.00000000000E+00  0.00000000000E+00 -0.18719479871E+04  0.25317343087E+04  0.17045496013E+04 0.  0.
        5    1    3    3  502    0  0.63484696006E+03 -0.46015508406E+03 -0.14321041133E+04  0.16327025587E+04  0.46999998093E+01 0.  1.
       -5    1    3    3    0  502 -0.63484696006E+03  0.46015508406E+03 -0.43984387388E+03  0.89903174998E+03  0.46999998093E+01 0. -1.
</event>
<event>
 5   0  0.7770905E-04  0.1576953E+04  0.7818609E-02  0.8834833E-01
       -2   -1    0    0    0  501  0.00000000000E+00  0.00000000000E+00  0.21887353952E+04  0.21887353952E+04  0.25500000920E-02 0.  1.
        2   -1    0    0  501    0  0.00000000000E+00  0.00000000000E+00 -0.28404321958E+03  0.28404321959E+03  0.25500000920E-02 0. -1.
    10030    2    1    2    0    0  0.00000000000E+00  0.00000000000E+00  0.19046921756E+04  0.24727786148E+04  0.15769533265E+04 0.  0.
        2    1    3    3  502    0 -0.52479317655E+03 -0.44525926394E+03  0.34903147382E+03  0.77167782137E+03  0.25500000920E-02 0. -1.
       -2    1    3    3    0  502  0.52479317655E+03  0.44525926394E+03  0.15556607018E+04  0.17011007934E+04  0.25500000920E-02 0.  1.
</event>
<event>
 5   0  0.3950195E-04  0.1615376E+04  0.7818609E-02  0.8811157E-01
       -1   -1    0    0    0  501  0.00000000000E+00  0.00000000000E+00  0.87604577390E+03  0.87604577391E+03  0.50400001928E-02 0.  1.
        1   -1    0    0  501    0  0.00000000000E+00  0.00000000000E+00 -0.74466379570E+03  0.74466379571E+03  0.50400001928E-02 0. -1.
    10030    2    1    2    0    0  0.00000000000E+00  0.00000000000E+00  0.13138197820E+03  0.16207095696E+04  0.16153755863E+04 0.  0.
        2    1    3    3  502    0  0.84157717908E+02 -0.32480183061E+03  0.80281474210E+03  0.87010933841E+03  0.25500000920E-02 0.  1.
       -2    1    3    3    0  502 -0.84157717908E+02  0.32480183061E+03 -0.67143276390E+03  0.75060023121E+03  0.25500000920E-02 0. -1.
</event>
<event>
 5   0  0.3950195E-04  0.1591085E+04  0.7818609E-02  0.8826043E-01
        1   -1    0    0  501    0  0.00000000000E+00  0.00000000000E+00  0.97877808213E+03  0.97877808214E+03  0.50400001928E-02 0.  1.
       -1   -1    0    0    0  501  0.00000000000E+00  0.00000000000E+00 -0.64661035493E+03  0.64661035495E+03  0.50400001928E-02 0. -1.
    10030    2    1    2    0    0  0.00000000000E+00  0.00000000000E+00  0.33216772720E+03  0.16253884371E+04  0.15910852185E+04 0.  0.
        2    1    3    3  502    0 -0.51573122418E+02  0.29325916391E+03  0.91970642938E+03  0.96670607757E+03  0.25500000920E-02 0.  1.
       -2    1    3    3    0  502  0.51573122418E+02 -0.29325916391E+03 -0.58753870218E+03  0.65868235951E+03  0.25500000920E-02 0. -1.
</event>
<event>
 5   0  0.3889847E-04  0.1602453E+04  0.7818609E-02  0.8819042E-01
       -1   -1    0    0    0  501  0.00000000000E+00  0.00000000000E+00  0.57970759665E+03  0.57970759667E+03  0.50400001928E-02 0.  1.
        1   -1    0    0  501    0  0.00000000000E+00  0.00000000000E+00 -0.11073928793E+04  0.11073928793E+04  0.50400001928E-02 0. -1.
    10030    2    1    2    0    0  0.00000000000E+00  0.00000000000E+00 -0.52768528265E+03  0.16871004760E+04  0.16024532001E+04 0.  0.
        1    1    3    3  502    0  0.34251351807E+03 -0.55596204607E+03  0.22496096328E+03  0.69066398614E+03  0.50400001928E-02 0.  1.
       -1    1    3    3    0  502 -0.34251351807E+03  0.55596204607E+03 -0.75264624593E+03  0.99643648983E+03  0.50400001928E-02 0. -1.
</event>
<event>
 5   0  0.7770905E-04  0.1590505E+04  0.7818609E-02  0.8826402E-01
        2   -1    0    0  501    0  0.00000000000E+00  0.00000000000E+00  0.11025377920E+04  0.11025377920E+04  0.25500000920E-02 0.  1.
       -2   -1    0    0    0  501  0.00000000000E+00  0.00000000000E+00 -0.57361005786E+03  0.57361005786E+03  0.25500000920E-02 0. -1.
    10030    2    1    2    0    0  0.00000000000E+00  0.00000000000E+00  0.52892773414E+03  0.16761478499E+04  0.15905052866E+04 0.  0.
        2    1    3    3  502    0 -0.79615567774E+02 -0.14010324535E+03  0.10851517187E+04  0.10970514166E+04  0.25500000920E-02 0.  1.
       -2    1    3    3    0  502  0.79615567774E+02  0.14010324535E+03 -0.55622398458E+03  0.57909643327E+03  0.25500000920E-02 0. -1.
</event>
<event>
 5   0  0.7553070E-04  0.1593894E+04  0.7818609E-02  0.8824308E-01
       -2   -1    0    0    0  501  0.00000000000E+00  0.00000000000E+00  0.93018184757E+03  0.93018184758E+03  0.25500000920E-02 0. -1.
        2   -1    0    0  501    0  0.00000000000E+00  0.00000000000E+00 -0.68279574942E+03  0.68279574943E+03  0.25500000920E-02 0.  1.
    10030    2    1    2    0    0  0.00000000000E+00  0.00000000000E+00  0.24738609815E+03  0.16129775970E+04  0.15938936122E+04 0.  0.
        4    1    3    3  502    0  0.22905056420E+03 -0.34340623231E+03 -0.56618073054E+03  0.70068126412E+03  0.12699999809E+01 0.  1.
       -4    1    3    3    0  502 -0.22905056420E+03  0.34340623231E+03  0.81356682869E+03  0.91229633289E+03  0.12699999809E+01 0. -1.
</event>
<event>
 5   0  0.3889847E-04  0.1604176E+04  0.7818609E-02  0.8817987E-01
       -1   -1    0    0    0  501  0.00000000000E+00  0.00000000000E+00  0.70406411820E+03  0.70406411821E+03  0.50400001928E-02 0.  1.
        1   -1    0    0  501    0  0.00000000000E+00  0.00000000000E+00 -0.91375934791E+03  0.91375934792E+03  0.50400001928E-02 0. -1.
    10030    2    1    2    0    0  0.00000000000E+00  0.00000000000E+00 -0.20969522971E+03  0.16178234661E+04  0.16041760122E+04 0.  0.
        1    1    3    3  502    0  0.16671519801E+03  0.60306405822E+02  0.68405688168E+03  0.70665736905E+03  0.50400001928E-02 0.  1.
       -1    1    3    3    0  502 -0.16671519801E+03 -0.60306405822E+02 -0.89375211140E+03  0.91116609709E+03  0.50400001928E-02 0. -1.
</event>
<event>
 5   0  0.7395088E-04  0.1600719E+04  0.7818609E-02  0.8820106E-01
        2   -1    0    0  501    0  0.00000000000E+00  0.00000000000E+00  0.13133780521E+04  0.13133780521E+04  0.25500000920E-02 0. -1.
       -2   -1    0    0    0  501  0.00000000000E+00  0.00000000000E+00 -0.48773128179E+03  0.48773128180E+03  0.25500000920E-02 0.  1.
    10030    2    1    2    0    0  0.00000000000E+00  0.00000000000E+00  0.82564677034E+03  0.18011093339E+04  0.16007192894E+04 0.  0.
        1    1    3    3  502    0  0.29824235136E+03 -0.57791723307E+03  0.93774323070E+03  0.11411832435E+04  0.50400001928E-02 0. -1.
       -1    1    3    3    0  502 -0.29824235136E+03  0.57791723307E+03 -0.11209646036E+03  0.65992609046E+03  0.50400001928E-02 0.  1.
</event>
<event>
 5   0  0.3950195E-04  0.1585277E+04  0.7818609E-02  0.8829644E-01
       -1   -1    0    0    0  501  0.00000000000E+00  0.00000000000E+00  0.11555133758E+04  0.11555133758E+04  0.50400001928E-02 0. -1.
        1   -1    0    0  501    0  0.00000000000E+00  0.00000000000E+00 -0.54372001770E+03  0.54372001772E+03  0.50400001928E-02 0.  1.
    10030    2    1    2    0    0  0.00000000000E+00  0.00000000000E+00  0.61179335808E+03  0.16992333935E+04  0.15852769514E+04 0.  0.
        2    1    3    3  502    0  0.79042978617E+03  0.56841074253E+02  0.28842797260E+03  0.84332724964E+03  0.25500000920E-02 0.  1.
       -2    1    3    3    0  502 -0.79042978617E+03 -0.56841074253E+02  0.32336538548E+03  0.85590614388E+03  0.25500000920E-02 0. -1.
</event>
<event>
 5   0  0.3889847E-04  0.1620606E+04  0.7818609E-02  0.8807988E-01
        1   -1    0    0  501    0  0.00000000000E+00  0.00000000000E+00  0.11069577476E+04  0.11069577476E+04  0.50400001928E-02 0. -1.
       -1   -1    0    0    0  501  0.00000000000E+00  0.00000000000E+00 -0.59314875298E+03  0.59314875300E+03  0.50400001928E-02 0.  1.
    10030    2    1    2    0    0  0.00000000000E+00  0.00000000000E+00  0.51380899463E+03  0.17001065006E+04  0.16206055752E+04 0.  0.
        1    1    3    3  502    0 -0.40501234083E+03 -0.69415977018E+03  0.36540869509E+03  0.88284556817E+03  0.50400001928E-02 0. -1.
       -1    1    3    3    0  502  0.40501234083E+03  0.69415977018E+03  0.14840029954E+03  0.81726093244E+03  0.50400001928E-02 0.  1.
</event>
<event>
 5   0  0.3889847E-04  0.1588030E+04  0.7818609E-02  0.8827936E-01
       -1   -1    0    0    0  501  0.00000000000E+00  0.00000000000E+00  0.82666691726E+03  0.82666691727E+03  0.50400001928E-02 0.  1.
        1   -1    0    0  501    0  0.00000000000E+00  0.00000000000E+00 -0.76265263840E+03  0.76265263842E+03  0.50400001928E-02 0. -1.
    10030    2    1    2    0    0  0.00000000000E+00  0.00000000000E+00  0.64014278859E+02  0.15893195557E+04  0.15880298556E+04 0.  0.
        1    1    3    3  502    0 -0.51382558507E+03 -0.55837565488E+03 -0.20197666357E+03  0.78523542743E+03  0.50400001928E-02 0. -1.
       -1    1    3    3    0  502  0.51382558507E+03  0.55837565488E+03  0.26599094243E+03  0.80408412826E+03  0.50400001928E-02 0.  1.
</event>
<event>
 5   0  0.3889847E-04  0.1617014E+04  0.7818609E-02  0.8810163E-01
       -1   -1    0    0    0  501  0.00000000000E+00  0.00000000000E+00  0.51256995036E+03  0.51256995038E+03  0.50400001928E-02 0. -1.
        1   -1    0    0  501    0  0.00000000000E+00  0.00000000000E+00 -0.12753062953E+04  0.12753062953E+04  0.50400001928E-02 0.  1.
    10030    2    1    2    0    0  0.00000000000E+00  0.00000000000E+00 -0.76273634494E+03  0.17878762457E+04  0.16170141428E+04 0.  0.
        1    1    3    3  502    0 -0.32653965811E+03 -0.94321304053E+02 -0.11924766693E+04  0.12399698640E+04  0.50400001928E-02 0.  1.
       -1    1    3    3    0  502  0.32653965811E+03  0.94321304053E+02  0.42974032436E+03  0.54790638171E+03  0.50400001928E-02 0. -1.
</event>
<event>
 5   0  0.3889847E-04  0.1602369E+04  0.7818609E-02  0.8819094E-01
       -1   -1    0    0    0  501  0.00000000000E+00  0.00000000000E+00  0.72689010609E+03  0.72689010611E+03  0.50400001928E-02 0. -1.
        1   -1    0    0  501    0  0.00000000000E+00  0.00000000000E+00 -0.88307225271E+03  0.88307225272E+03  0.50400001928E-02 0.  1.
    10030    2    1    2    0    0  0.00000000000E+00  0.00000000000E+00 -0.15618214662E+03  0.16099623588E+04  0.16023688508E+04 0.  0.
        1    1    3    3  502    0  0.23031178879E+03  0.68420435828E+03 -0.42718162300E+03  0.83884638820E+03  0.50400001928E-02 0.  1.
       -1    1    3    3    0  502 -0.23031178879E+03 -0.68420435828E+03  0.27099947638E+03  0.77111597063E+03  0.50400001928E-02 0. -1.
</event>
<event>
 5   0  0.3950195E-04  0.1592818E+04  0.7818609E-02  0.8824973E-01
       -1   -1    0    0    0  501  0.00000000000E+00  0.00000000000E+00  0.57549259261E+03  0.57549259263E+03  0.50400001928E-02 0. -1.
        1   -1    0    0  501    0  0.00000000000E+00  0.00000000000E+00 -0.11021287550E+04  0.11021287550E+04  0.50400001928E-02 0.  1.
    10030    2    1    2    0    0  0.00000000000E+00  0.00000000000E+00 -0.52663616242E+03  0.16776213477E+04  0.15928175472E+04 0.  0.
        2    1    3    3  502    0  0.71519348034E+03 -0.12485398728E+03 -0.60812669559E+03  0.94705243274E+03  0.25500000920E-02 0.  1.
       -2    1    3    3    0  502 -0.71519348034E+03  0.12485398728E+03  0.81490533169E+02  0.73056891493E+03  0.25500000920E-02 0. -1.
</event>
<event>
 5   0  0.3837251E-04  0.1617981E+04  0.7818609E-02  0.8809577E-01
       -1   -1    0    0    0  501  0.00000000000E+00  0.00000000000E+00  0.95320304917E+03  0.95320304919E+03  0.50400001928E-02 0.  1.
        1   -1    0    0  501    0  0.00000000000E+00  0.00000000000E+00 -0.68659623548E+03  0.68659623549E+03  0.50400001928E-02 0. -1.
    10030    2    1    2    0    0  0.00000000000E+00  0.00000000000E+00  0.26660681370E+03  0.16397992847E+04  0.16179809952E+04 0.  0.
        4    1    3    3  502    0  0.47859474132E+03 -0.10005817879E+02 -0.52764957859E+03  0.71243858226E+03  0.12699999809E+01 0. -1.
       -4    1    3    3    0  502 -0.47859474132E+03  0.10005817879E+02  0.79425639229E+03  0.92736070242E+03  0.12699999809E+01 0.  1.
</event>
<event>
 5   0  0.7770905E-04  0.1621437E+04  0.7818609E-02  0.8807486E-01
        2   -1    0    0  501    0  0.00000000000E+00  0.00000000000E+00  0.10580929883E+04  0.10580929883E+04  0.25500000920E-02 0.  1.
       -2   -1    0    0    0  501  0.00000000000E+00  0.00000000000E+00 -0.62117814536E+03  0.62117814537E+03  0.25500000920E-02 0. -1.
    10030    2    1    2    0    0  0.00000000000E+00  0.00000000000E+00  0.43691484295E+03  0.16792711337E+04  0.16214366964E+04 0.  0.
        2    1    3    3  502    0  0.17361616779E+03 -0.12164706158E+03 -0.59196480766E+03  0.62877890774E+03  0.25500000920E-02 0. -1.
       -2    1    3    3    0  502 -0.17361616779E+03  0.12164706158E+03  0.10288796506E+04  0.10504922259E+04  0.25500000920E-02 0.  1.
</event>
<event>
 5   0  0.3950195E-04  0.1551129E+04  0.7818609E-02  0.8851147E-01
       -1   -1    0    0    0  501  0.00000000000E+00  0.00000000000E+00  0.59860984687E+03  0.59860984689E+03  0.50400001928E-02 0. -1.
        1   -1    0    0  501    0  0.00000000000E+00  0.00000000000E+00 -0.10048282834E+04  0.10048282834E+04  0.50400001928E-02 0.  1.
    10030    2    1    2    0    0  0.00000000000E+00  0.00000000000E+00 -0.40621843652E+03  0.16034381303E+04  0.15511287566E+04 0.  0.
        2    1    3    3  502    0 -0.51278033437E+02 -0.29853829978E+03 -0.94115122324E+03  0.98869620114E+03  0.25500000920E-02 0.  1.
       -2    1    3    3    0  502  0.51278033437E+02  0.29853829978E+03  0.53493278672E+03  0.61474192915E+03  0.25500000920E-02 0. -1.
</event>
<event>
 5   0  0.4110803E-04  0.1609801E+04  0.7818609E-02  0.8814549E-01
       -1   -1    0    0    0  501  0.00000000000E+00  0.00000000000E+00  0.95851817386E+03  0.95851817387E+03  0.50400001928E-02 0. -1.
        1   -1    0    0  501    0  0.00000000000E+00  0.00000000000E+00 -0.67590264061E+03  0.67590264063E+03  0.50400001928E-02 0.  1.
    10030    2    1    2    0    0  0.00000000000E+00  0.00000000000E+00  0.28261553325E+03  0.16344208145E+04  0.16098011862E+04 0.  0.
        5    1    3    3  502    0 -0.59196466543E+03 -0.38003131302E+03 -0.25582248629E+03  0.74854071264E+03  0.46999998093E+01 0.  1.
       -5    1    3    3    0  502  0.59196466543E+03  0.38003131302E+03  0.53843801954E+03  0.88588010186E+03  0.46999998093E+01 0. -1.
</event>
<event>
 5   0  0.7395088E-04  0.1618392E+04  0.7818609E-02  0.8809328E-01
       -2   -1    0    0    0  501  0.00000000000E+00  0.00000000000E+00  0.86637410263E+03  0.86637410263E+03  0.25500000920E-02 0.  1.
        2   -1    0    0  501    0  0.00000000000E+00  0.00000000000E+00 -0.75579177032E+03  0.75579177033E+03  0.25500000920E-02 0. -1.
    10030    2    1    2    0    0  0.00000000000E+00  0.00000000000E+00  0.11058233231E+03  0.16221658730E+04  0.16183923094E+04 0.  0.
        1    1    3    3  502    0 -0.69519226936E+03 -0.25861781911E+03  0.37950006654E+03  0.83318411427E+03  0.50400001928E-02 0.  1.
       -1    1    3    3    0  502  0.69519226936E+03  0.25861781911E+03 -0.26891773423E+03  0.78898175869E+03  0.50400001928E-02 0. -1.
</event>
<event>
 5   0  0.7395088E-04  0.1592811E+04  0.7818609E-02  0.8824977E-01
        2   -1    0    0  501    0  0.00000000000E+00  0.00000000000E+00  0.17544535118E+04  0.17544535118E+04  0.25500000920E-02 0. -1.
       -2   -1    0    0    0  501  0.00000000000E+00  0.00000000000E+00 -0.36151505829E+03  0.36151505830E+03  0.25500000920E-02 0.  1.
    10030    2    1    2    0    0  0.00000000000E+00  0.00000000000E+00  0.13929384535E+04  0.21159685701E+04  0.15928105520E+04 0.  0.
        1    1    3    3  502    0  0.74641921026E+03  0.16927540478E+03  0.40401242819E+03  0.86546047990E+03  0.50400001928E-02 0.  1.
       -1    1    3    3    0  502 -0.74641921026E+03 -0.16927540478E+03  0.98892602535E+03  0.12505080902E+04  0.50400001928E-02 0. -1.
</event>
<event>
 5   0  0.7770905E-04  0.1576347E+04  0.7818609E-02  0.8835212E-01
        2   -1    0    0  501    0  0.00000000000E+00  0.00000000000E+00  0.18861462451E+04  0.18861462451E+04  0.25500000920E-02 0. -1.
       -2   -1    0    0    0  501  0.00000000000E+00  0.00000000000E+00 -0.32935795277E+03  0.32935795278E+03  0.25500000920E-02 0.  1.
    10030    2    1    2    0    0  0.00000000000E+00  0.00000000000E+00  0.15567882923E+04  0.22155041979E+04  0.15763467460E+04 0.  0.
        2    1    3    3  502    0 -0.68770468611E+02 -0.26107584973E+03 -0.26234227424E+03  0.37644846331E+03  0.25500000920E-02 0.  1.
       -2    1    3    3    0  502  0.68770468611E+02  0.26107584973E+03  0.18191305666E+04  0.18390557346E+04  0.25500000920E-02 0. -1.
</event>
<event>
 5   0  0.7415102E-04  0.1634566E+04  0.7818609E-02  0.8799590E-01
       -2   -1    0    0    0  501  0.00000000000E+00  0.00000000000E+00  0.26348779853E+03  0.26348779855E+03  0.25500000920E-02 0. -1.
        2   -1    0    0  501    0  0.00000000000E+00  0.00000000000E+00 -0.25350381513E+04  0.25350381513E+04  0.25500000920E-02 0.  1.
    10030    2    1    2    0    0  0.00000000000E+00  0.00000000000E+00 -0.22715503528E+04  0.27985259499E+04  0.16345661464E+04 0.  0.
        5    1    3    3  502    0  0.15764886841E+03 -0.56776152392E+03 -0.21053739081E+04  0.21862817057E+04  0.46999998093E+01 0.  1.
       -5    1    3    3    0  502 -0.15764886841E+03  0.56776152392E+03 -0.16617644469E+03  0.61224424418E+03  0.46999998093E+01 0. -1.
</event>
<event>
 5   0  0.3837251E-04  0.1597626E+04  0.7818609E-02  0.8822008E-01
        1   -1    0    0  501    0  0.00000000000E+00  0.00000000000E+00  0.82874889202E+03  0.82874889203E+03  0.50400001928E-02 0. -1.
       -1   -1    0    0    0  501  0.00000000000E+00  0.00000000000E+00 -0.76995849685E+03  0.76995849686E+03  0.50400001928E-02 0.  1.
    10030    2    1    2    0    0  0.00000000000E+00  0.00000000000E+00  0.58790395170E+02  0.15987073889E+04  0.15976260528E+04 0.  0.
        4    1    3    3  502    0  0.33608155312E+03  0.68438032433E+03 -0.20903776688E+03  0.79058563076E+03  0.12699999809E+01 0.  1.
       -4    1    3    3    0  502 -0.33608155312E+03 -0.68438032433E+03  0.26782816205E+03  0.80812175813E+03  0.12699999809E+01 0. -1.
</event>
<event>
 5   0  0.7395088E-04  0.1609932E+04  0.7818609E-02  0.8814470E-01
       -2   -1    0    0    0  501  0.00000000000E+00  0.00000000000E+00  0.79988084504E+03  0.79988084504E+03  0.25500000920E-02 0.  1.
        2   -1    0    0  501    0  0.00000000000E+00  0.00000000000E+00 -0.81008347594E+03  0.81008347594E+03  0.25500000920E-02 0. -1.
    10030    2    1    2    0    0  0.00000000000E+00  0.00000000000E+00 -0.10202630902E+02  0.16099643210E+04  0.16099319927E+04 0.  0.
        1    1    3    3  502    0  0.42248698888E+03  0.16328431960E+03  0.66035417854E+03  0.80076505040E+03  0.50400001928E-02 0.  1.
       -1    1    3    3    0  502 -0.42248698888E+03 -0.16328431960E+03 -0.67055680944E+03  0.80919927059E+03  0.50400001928E-02 0. -1.
</event>
<event>
 5   0  0.3889847E-04  0.1599284E+04  0.7818609E-02  0.8820988E-01
        1   -1    0    0  501    0  0.00000000000E+00  0.00000000000E+00  0.12937398490E+04  0.12937398490E+04  0.50400001928E-02 0. -1.
       -1   -1    0    0    0  501  0.00000000000E+00  0.00000000000E+00 -0.49424718825E+03  0.49424718827E+03  0.50400001928E-02 0.  1.
    10030    2    1    2    0    0  0.00000000000E+00  0.00000000000E+00  0.79949266074E+03  0.17879870373E+04  0.15992839432E+04 0.  0.
        1    1    3    3  502    0 -0.32447461539E+03  0.13861763687E+03 -0.40250846205E+03  0.53526786503E+03  0.50400001928E-02 0.  1.
       -1    1    3    3    0  502  0.32447461539E+03 -0.13861763687E+03  0.12020011228E+04  0.12527191722E+04  0.50400001928E-02 0. -1.
</event>
<event>
 5   0  0.3950195E-04  0.1598252E+04  0.7818609E-02  0.8821623E-01
        1   -1    0    0  501    0  0.00000000000E+00  0.00000000000E+00  0.94445110067E+03  0.94445110068E+03  0.50400001928E-02 0.  1.
       -1   -1    0    0    0  501  0.00000000000E+00  0.00000000000E+00 -0.67616231454E+03  0.67616231456E+03  0.50400001928E-02 0. -1.
    10030    2    1    2    0    0  0.00000000000E+00  0.00000000000E+00  0.26828878613E+03  0.16206134152E+04  0.15982518478E+04 0.  0.
        2    1    3    3  502    0 -0.18392687631E+03  0.78946579724E+02  0.91862283965E+03  0.94017529207E+03  0.25500000920E-02 0.  1.
       -2    1    3    3    0  502  0.18392687631E+03 -0.78946579724E+02 -0.65033405352E+03  0.68043812317E+03  0.25500000920E-02 0. -1.
</event>
<event>
 5   0  0.3889847E-04  0.1660539E+04  0.7818609E-02  0.8784196E-01
        1   -1    0    0  501    0  0.00000000000E+00  0.00000000000E+00  0.11234342553E+04  0.11234342553E+04  0.50400001928E-02 0.  1.
       -1   -1    0    0    0  501  0.00000000000E+00  0.00000000000E+00 -0.61360709565E+03  0.61360709567E+03  0.50400001928E-02 0. -1.
    10030    2    1    2    0    0  0.00000000000E+00  0.00000000000E+00  0.50982715967E+03  0.17370413510E+04  0.16605387446E+04 0.  0.
        1    1    3    3  502    0 -0.10082740861E+02  0.82122755652E+03  0.12752090755E+03  0.83113052112E+03  0.50400001928E-02 0. -1.
       -1    1    3    3    0  502  0.10082740861E+02 -0.82122755652E+03  0.38230625212E+03  0.90591082987E+03  0.50400001928E-02 0.  1.
</event>
<event>
 5   0  0.4110803E-04  0.1613648E+04  0.7818609E-02  0.8812207E-01
       -1   -1    0    0    0  501  0.00000000000E+00  0.00000000000E+00  0.68986622044E+03  0.68986622046E+03  0.50400001928E-02 0. -1.
        1   -1    0    0  501    0  0.00000000000E+00  0.00000000000E+00 -0.94361049530E+03  0.94361049531E+03  0.50400001928E-02 0.  1.
    10030    2    1    2    0    0  0.00000000000E+00  0.00000000000E+00 -0.25374427486E+03  0.16334767158E+04  0.16136480483E+04 0.  0.
        5    1    3    3  502    0  0.36317717927E+03 -0.43980284220E+03 -0.70451419800E+03  0.90646927622E+03  0.46999998093E+01 0.  1.
       -5    1    3    3    0  502 -0.36317717927E+03  0.43980284220E+03  0.45076992314E+03  0.72700743955E+03  0.46999998093E+01 0. -1.
</event>
<event>
 5   0  0.3950195E-04  0.1568028E+04  0.7818609E-02  0.8840434E-01
       -1   -1    0    0    0  501  0.00000000000E+00  0.00000000000E+00  0.74222618981E+03  0.74222618983E+03  0.50400001928E-02 0. -1.
        1   -1    0    0  501    0  0.00000000000E+00  0.00000000000E+00 -0.82815476457E+03  0.82815476459E+03  0.50400001928E-02 0.  1.
    10030    2    1    2    0    0  0.00000000000E+00  0.00000000000E+00 -0.85928574761E+02  0.15703809544E+04  0.15680282593E+04 0.  0.
        2    1    3    3  502    0  0.77199884010E+03 -0.12232055132E+03 -0.10415939760E+03  0.78853896955E+03  0.25500000920E-02 0. -1.
       -2    1    3    3    0  502 -0.77199884010E+03  0.12232055132E+03  0.18230822841E+02  0.78184198486E+03  0.25500000920E-02 0.  1.
</event>
<event>
 5   0  0.7395088E-04  0.1593974E+04  0.7818609E-02  0.8824258E-01
       -2   -1    0    0    0  501  0.00000000000E+00  0.00000000000E+00  0.48208807593E+03  0.48208807594E+03  0.25500000920E-02 0. -1.
        2   -1    0    0  501    0  0.00000000000E+00  0.00000000000E+00 -0.13175777434E+04  0.13175777434E+04  0.25500000920E-02 0.  1.
    10030    2    1    2    0    0  0.00000000000E+00  0.00000000000E+00 -0.83548966743E+03  0.17996658193E+04  0.15939743024E+04 0.  0.
        1    1    3    3  502    0  0.23155815861E+03 -0.73769374422E+03 -0.19946461082E+03  0.79849694556E+03  0.50400001928E-02 0. -1.
       -1    1    3    3    0  502 -0.23155815861E+03  0.73769374422E+03 -0.63602505661E+03  0.10011688737E+04  0.50400001928E-02 0.  1.
</event>
<event>
 5   0  0.7488884E-04  0.1581306E+04  0.7818609E-02  0.8832115E-01
       -2   -1    0    0    0  501  0.00000000000E+00  0.00000000000E+00  0.27125078065E+03  0.27125078066E+03  0.25500000920E-02 0. -1.
        2   -1    0    0  501    0  0.00000000000E+00  0.00000000000E+00 -0.23046294928E+04  0.23046294928E+04  0.25500000920E-02 0.  1.
    10030    2    1    2    0    0  0.00000000000E+00  0.00000000000E+00 -0.20333787121E+04  0.25758802734E+04  0.15813064839E+04 0.  0.
        3    1    3    3  502    0  0.61966273244E+03 -0.32076234952E+03 -0.41098419023E+03  0.80980145818E+03  0.10100000352E+00 0. -1.
       -3    1    3    3    0  502 -0.61966273244E+03  0.32076234952E+03 -0.16223945219E+04  0.17660788152E+04  0.10100000352E+00 0.  1.
</event>
<event>
 5   0  0.3889847E-04  0.1610386E+04  0.7818609E-02  0.8814193E-01
        1   -1    0    0  501    0  0.00000000000E+00  0.00000000000E+00  0.98233287652E+03  0.98233287653E+03  0.50400001928E-02 0. -1.
       -1   -1    0    0    0  501  0.00000000000E+00  0.00000000000E+00 -0.65999568178E+03  0.65999568180E+03  0.50400001928E-02 0.  1.
    10030    2    1    2    0    0  0.00000000000E+00  0.00000000000E+00  0.32233719474E+03  0.16423285583E+04  0.16103856142E+04 0.  0.
        1    1    3    3  502    0 -0.20515188410E+03  0.25033318681E+03 -0.59073554791E+03  0.67358925731E+03  0.50400001928E-02 0.  1.
       -1    1    3    3    0  502  0.20515188410E+03 -0.25033318681E+03  0.91307274264E+03  0.96873930103E+03  0.50400001928E-02 0. -1.
</event>
<event>
 5   0  0.3950195E-04  0.1582214E+04  0.7818609E-02  0.8831550E-01
        1   -1    0    0  501    0  0.00000000000E+00  0.00000000000E+00  0.11308869442E+04  0.11308869442E+04  0.50400001928E-02 0.  1.
       -1   -1    0    0    0  501  0.00000000000E+00  0.00000000000E+00 -0.55341551530E+03  0.55341551532E+03  0.50400001928E-02 0. -1.
    10030    2    1    2    0    0  0.00000000000E+00  0.00000000000E+00  0.57747142894E+03  0.16843024596E+04  0.15822141208E+04 0.  0.
        2    1    3    3  502    0 -0.46688264153E+03 -0.59307279179E+03  0.36518816387E+02  0.75567741880E+03  0.25500000920E-02 0. -1.
       -2    1    3    3    0  502  0.46688264153E+03  0.59307279179E+03  0.54095261255E+03  0.92862504078E+03  0.25500000920E-02 0.  1.
</event>
<event>
 5   0  0.2781000E-04  0.1631458E+04  0.7818609E-02  0.8801452E-01
        3   -1    0    0  501    0  0.00000000000E+00  0.00000000000E+00  0.10316461536E+04  0.10316461586E+04  0.10100000352E+00 0.  1.
       -3   -1    0    0    0  501  0.00000000000E+00  0.00000000000E+00 -0.64500170176E+03  0.64500170967E+03  0.10100000352E+00 0. -1.
    10030    2    1    2    0    0  0.00000000000E+00  0.00000000000E+00  0.38664445185E+03  0.16766478682E+04  0.16314576739E+04 0.  0.
        5    1    3    3  502    0 -0.49435802575E+03  0.34701758201E+03  0.75676053063E+03  0.96825598401E+03  0.46999998093E+01 0.  1.
       -5    1    3    3    0  502  0.49435802575E+03 -0.34701758201E+03 -0.37011607879E+03  0.70839188422E+03  0.46999998093E+01 0. -1.
</event>
<event>
 5   0  0.3889847E-04  0.1542282E+04  0.7818609E-02  0.8856813E-01
        1   -1    0    0  501    0  0.00000000000E+00  0.00000000000E+00  0.50218810753E+03  0.50218810756E+03  0.50400001928E-02 0.  1.
       -1   -1    0    0    0  501  0.00000000000E+00  0.00000000000E+00 -0.11841350582E+04  0.11841350582E+04  0.50400001928E-02 0. -1.
    10030    2    1    2    0    0  0.00000000000E+00  0.00000000000E+00 -0.68194695070E+03  0.16863231658E+04  0.15422821324E+04 0.  0.
        1    1    3    3  502    0 -0.74002462452E+03 -0.20931557697E+03 -0.40291299217E+03  0.86820984499E+03  0.50400001928E-02 0.  1.
       -1    1    3    3    0  502  0.74002462452E+03  0.20931557697E+03 -0.27903395853E+03  0.81811332081E+03  0.50400001928E-02 0. -1.
</event>
<event>
 5   0  0.3950195E-04  0.1598557E+04  0.7818609E-02  0.8821435E-01
       -1   -1    0    0    0  501  0.00000000000E+00  0.00000000000E+00  0.10489447947E+04  0.10489447947E+04  0.50400001928E-02 0. -1.
        1   -1    0    0  501    0  0.00000000000E+00  0.00000000000E+00 -0.60903680936E+03  0.60903680938E+03  0.50400001928E-02 0.  1.
    10030    2    1    2    0    0  0.00000000000E+00  0.00000000000E+00  0.43990798531E+03  0.16579816041E+04  0.15985568379E+04 0.  0.
        2    1    3    3  502    0  0.42405813634E+03 -0.32298028501E+03  0.83766441250E+03  0.99288631549E+03  0.25500000920E-02 0. -1.
       -2    1    3    3    0  502 -0.42405813634E+03  0.32298028501E+03 -0.39775642719E+03  0.66509528857E+03  0.25500000920E-02 0.  1.
</event>
<event>
 5   0  0.3973227E-04  0.1594941E+04  0.7818609E-02  0.8823662E-01
       -1   -1    0    0    0  501  0.00000000000E+00  0.00000000000E+00  0.65429998398E+03  0.65429998400E+03  0.50400001928E-02 0.  1.
        1   -1    0    0  501    0  0.00000000000E+00  0.00000000000E+00 -0.97196893210E+03  0.97196893211E+03  0.50400001928E-02 0. -1.
    10030    2    1    2    0    0  0.00000000000E+00  0.00000000000E+00 -0.31766894812E+03  0.16262689161E+04  0.15949410732E+04 0.  0.
        3    1    3    3  502    0  0.17098406958E+03 -0.62600508994E+03  0.31377957431E+03  0.72081589615E+03  0.10100000352E+00 0.  1.
       -3    1    3    3    0  502 -0.17098406958E+03  0.62600508994E+03 -0.63144852243E+03  0.90545301996E+03  0.10100000352E+00 0. -1.
</event>
<event>
 5   0  0.7395088E-04  0.1263935E+04  0.7818609E-02  0.9058664E-01
       -2   -1    0    0    0  501  0.00000000000E+00  0.00000000000E+00  0.38609571100E+03  0.38609571100E+03  0.25500000920E-02 0. -1.
        2   -1    0    0  501    0  0.00000000000E+00  0.00000000000E+00 -0.10344144512E+04  0.10344144512E+04  0.25500000920E-02 0.  1.
    10030    2    1    2    0    0  0.00000000000E+00  0.00000000000E+00 -0.64831874023E+03  0.14205101622E+04  0.12639350980E+04 0.  0.
        1    1    3    3  502    0 -0.13503487429E+03  0.38421390954E+03  0.21895247139E+03  0.46237963872E+03  0.50400001928E-02 0. -1.
       -1    1    3    3    0  502  0.13503487429E+03 -0.38421390954E+03 -0.86727121161E+03  0.95813052351E+03  0.50400001928E-02 0.  1.
</event>
<event>
 5   0  0.4110803E-04  0.1612287E+04  0.7818609E-02  0.8813035E-01
       -1   -1    0    0    0  501  0.00000000000E+00  0.00000000000E+00  0.64347714437E+03  0.64347714439E+03  0.50400001928E-02 0. -1.
        1   -1    0    0  501    0  0.00000000000E+00  0.00000000000E+00 -0.10099302614E+04  0.10099302615E+04  0.50400001928E-02 0.  1.
    10030    2    1    2    0    0  0.00000000000E+00  0.00000000000E+00 -0.36645311707E+03  0.16534074058E+04  0.16122866255E+04 0.  0.
        5    1    3    3  502    0 -0.37532031531E+03  0.62201011389E+03 -0.54154179566E+03  0.90611893662E+03  0.46999998093E+01 0.  1.
       -5    1    3    3    0  502  0.37532031531E+03 -0.62201011389E+03  0.17508867859E+03  0.74728846922E+03  0.46999998093E+01 0. -1.
</event>
<event>
 5   0  0.7770905E-04  0.1598872E+04  0.7818609E-02  0.8821241E-01
        2   -1    0    0  501    0  0.00000000000E+00  0.00000000000E+00  0.10740434670E+04  0.10740434670E+04  0.25500000920E-02 0. -1.
       -2   -1    0    0    0  501  0.00000000000E+00  0.00000000000E+00 -0.59503913613E+03  0.59503913614E+03  0.25500000920E-02 0.  1.
    10030    2    1    2    0    0  0.00000000000E+00  0.00000000000E+00  0.47900433090E+03  0.16690826032E+04  0.15988719734E+04 0.  0.
        2    1    3    3  502    0  0.11727205929E+03  0.33753728938E+02 -0.58525872111E+03  0.59784598413E+03  0.25500000920E-02 0.  1.
       -2    1    3    3    0  502 -0.11727205929E+03 -0.33753728938E+02  0.10642630520E+04  0.10712366190E+04  0.25500000920E-02 0. -1.
</event>
<event>
 5   0  0.3950195E-04  0.1598943E+04  0.7818609E-02  0.8821197E-01
       -1   -1    0    0    0  501  0.00000000000E+00  0.00000000000E+00  0.13637658305E+04  0.13637658305E+04  0.50400001928E-02 0.  1.
        1   -1    0    0  501    0  0.00000000000E+00  0.00000000000E+00 -0.46866911688E+03  0.46866911690E+03  0.50400001928E-02 0. -1.
    10030    2    1    2    0    0  0.00000000000E+00  0.00000000000E+00  0.89509671358E+03  0.18324349474E+04  0.15989433103E+04 0.  0.
        2    1    3    3  502    0  0.29886254541E+03 -0.63348311147E+03  0.58657768824E+01  0.70046704484E+03  0.25500000920E-02 0. -1.
       -2    1    3    3    0  502 -0.29886254541E+03  0.63348311147E+03  0.88923093670E+03  0.11319679025E+04  0.25500000920E-02 0.  1.
</event>
<event>
 5   0  0.7488884E-04  0.1648133E+04  0.7818609E-02  0.8791512E-01
        2   -1    0    0  501    0  0.00000000000E+00  0.00000000000E+00  0.11610488502E+04  0.11610488502E+04  0.25500000920E-02 0. -1.
       -2   -1    0    0    0  501  0.00000000000E+00  0.00000000000E+00 -0.58488946318E+03  0.58488946318E+03  0.25500000920E-02 0.  1.
    10030    2    1    2    0    0  0.00000000000E+00  0.00000000000E+00  0.57615938702E+03  0.17459383134E+04  0.16481325659E+04 0.  0.
        3    1    3    3  502    0  0.53507234228E+03  0.61145574605E+03  0.14242599802E+03  0.82490345857E+03  0.10100000352E+00 0. -1.
       -3    1    3    3    0  502 -0.53507234228E+03 -0.61145574605E+03  0.43373338900E+03  0.92103485481E+03  0.10100000352E+00 0.  1.
</event>
<event>
 5   0  0.3889847E-04  0.1628701E+04  0.7818609E-02  0.8803107E-01
       -1   -1    0    0    0  501  0.00000000000E+00  0.00000000000E+00  0.53175268440E+03  0.53175268442E+03  0.50400001928E-02 0.  1.
        1   -1    0    0  501    0  0.00000000000E+00  0.00000000000E+00 -0.12471334675E+04  0.12471334675E+04  0.50400001928E-02 0. -1.
    10030    2    1    2    0    0  0.00000000000E+00  0.00000000000E+00 -0.71538078308E+03  0.17788861519E+04  0.16287007941E+04 0.  0.
        1    1    3    3  502    0 -0.56474045102E+03  0.21937078128E+03  0.23664870774E+03  0.65042903349E+03  0.50400001928E-02 0.  1.
       -1    1    3    3    0  502  0.56474045102E+03 -0.21937078128E+03 -0.95202949082E+03  0.11284571184E+04  0.50400001928E-02 0. -1.
</event>
<event>
 5   0  0.7488884E-04  0.1601589E+04  0.7818609E-02  0.8819573E-01
        2   -1    0    0  501    0  0.00000000000E+00  0.00000000000E+00  0.26584812247E+04  0.26584812247E+04  0.25500000920E-02 0.  1.
       -2   -1    0    0    0  501  0.00000000000E+00  0.00000000000E+00 -0.24121722048E+03  0.24121722049E+03  0.25500000920E-02 0. -1.
    10030    2    1    2    0    0  0.00000000000E+00  0.00000000000E+00  0.24172640042E+04  0.28996984452E+04  0.16015885261E+04 0.  0.
        3    1    3    3  502    0  0.59973041264E+03  0.47174817207E+03  0.16485851745E+04  0.18166056240E+04  0.10100000352E+00 0. -1.
       -3    1    3    3    0  502 -0.59973041264E+03 -0.47174817207E+03  0.76867882978E+03  0.10830928212E+04  0.10100000352E+00 0.  1.
</event>
<event>
 5   0  0.3973227E-04  0.1674533E+04  0.7818609E-02  0.8776024E-01
       -1   -1    0    0    0  501  0.00000000000E+00  0.00000000000E+00  0.10052825603E+04  0.10052825603E+04  0.50400001928E-02 0. -1.
        1   -1    0    0  501    0  0.00000000000E+00  0.00000000000E+00 -0.69733168912E+03  0.69733168914E+03  0.50400001928E-02 0.  1.
    10030    2    1    2    0    0  0.00000000000E+00  0.00000000000E+00  0.30795087115E+03  0.17026142494E+04  0.16745332315E+04 0.  0.
        3    1    3    3  502    0 -0.16034038425E+03  0.66789912176E+03 -0.33281944232E+03  0.76326081194E+03  0.10100000352E+00 0.  1.
       -3    1    3    3    0  502  0.16034038425E+03 -0.66789912176E+03  0.64077031347E+03  0.93935343747E+03  0.10100000352E+00 0. -1.
</event>
<event>
 5   0  0.4110803E-04  0.1555197E+04  0.7818609E-02  0.8848555E-01
        1   -1    0    0  501    0  0.00000000000E+00  0.00000000000E+00  0.79423973703E+03  0.79423973704E+03  0.50400001928E-02 0. -1.
       -1   -1    0    0    0  501  0.00000000000E+00  0.00000000000E+00 -0.76130583284E+03  0.76130583286E+03  0.50400001928E-02 0.  1.
    10030    2    1    2    0    0  0.00000000000E+00  0.00000000000E+00  0.32933904190E+02  0.15555455699E+04  0.15551968936E+04 0.  0.
        5    1    3    3  502    0 -0.45701011981E+03  0.47921123295E+03  0.42415568495E+03  0.78640434286E+03  0.46999998093E+01 0. -1.
       -5    1    3    3    0  502  0.45701011981E+03 -0.47921123295E+03 -0.39122178076E+03  0.76914122704E+03  0.46999998093E+01 0.  1.
</event>
<event>
 5   0  0.3973227E-04  0.1609885E+04  0.7818609E-02  0.8814498E-01
        1   -1    0    0  501    0  0.00000000000E+00  0.00000000000E+00  0.10042110863E+04  0.10042110863E+04  0.50400001928E-02 0. -1.
       -1   -1    0    0    0  501  0.00000000000E+00  0.00000000000E+00 -0.64521537280E+03  0.64521537282E+03  0.50400001928E-02 0.  1.
    10030    2    1    2    0    0  0.00000000000E+00  0.00000000000E+00  0.35899571349E+03  0.16494264591E+04  0.16098850026E+04 0.  0.
        3    1    3    3  502    0  0.17457191868E+03 -0.16733397103E+03 -0.60712026790E+03  0.65350672724E+03  0.10100000352E+00 0.  1.
       -3    1    3    3    0  502 -0.17457191868E+03  0.16733397103E+03  0.96611598139E+03  0.99591973188E+03  0.10100000352E+00 0. -1.
</event>
<event>
 5   0  0.7415102E-04  0.1589468E+04  0.7818609E-02  0.8827045E-01
       -2   -1    0    0    0  501  0.00000000000E+00  0.00000000000E+00  0.54750921862E+03  0.54750921863E+03  0.25500000920E-02 0.  1.
        2   -1    0    0  501    0  0.00000000000E+00  0.00000000000E+00 -0.11535911656E+04  0.11535911657E+04  0.25500000920E-02 0. -1.
    10030    2    1    2    0    0  0.00000000000E+00  0.00000000000E+00 -0.60608194703E+03  0.17011003843E+04  0.15894675809E+04 0.  0.
        5    1    3    3  502    0 -0.28590478337E+03  0.55944472432E+03  0.21782251279E+03  0.66497269252E+03  0.46999998093E+01 0.  1.
       -5    1    3    3    0  502  0.28590478337E+03 -0.55944472432E+03 -0.82390445981E+03  0.10361276918E+04  0.46999998093E+01 0. -1.
</event>
<event>
 5   0  0.7395088E-04  0.1614249E+04  0.7818609E-02  0.8811842E-01
       -2   -1    0    0    0  501  0.00000000000E+00  0.00000000000E+00  0.64057184979E+03  0.64057184980E+03  0.25500000920E-02 0.  1.
        2   -1    0    0  501    0  0.00000000000E+00  0.00000000000E+00 -0.10169813169E+04  0.10169813169E+04  0.25500000920E-02 0. -1.
    10030    2    1    2    0    0  0.00000000000E+00  0.00000000000E+00 -0.37640946707E+03  0.16575531667E+04  0.16142485600E+04 0.  0.
        1    1    3    3  502    0 -0.22097989797E+03 -0.38243518722E+03  0.50546258500E+03  0.67125346374E+03  0.50400001928E-02 0.  1.
       -1    1    3    3    0  502  0.22097989797E+03  0.38243518722E+03 -0.88187205207E+03  0.98629970292E+03  0.50400001928E-02 0. -1.
</event>
<event>
 5   0  0.7395088E-04  0.1593503E+04  0.7818609E-02  0.8824549E-01
       -2   -1    0    0    0  501  0.00000000000E+00  0.00000000000E+00  0.60351781465E+03  0.60351781465E+03  0.25500000920E-02 0. -1.
        2   -1    0    0  501    0  0.00000000000E+00  0.00000000000E+00 -0.10518547137E+04  0.10518547137E+04  0.25500000920E-02 0.  1.
    10030    2    1    2    0    0  0.00000000000E+00  0.00000000000E+00 -0.44833689907E+03  0.16553725284E+04  0.15935031323E+04 0.  0.
        1    1    3    3  502    0 -0.54184433807E+03  0.48070230085E+03 -0.56893205164E+03  0.92106116417E+03  0.50400001928E-02 0. -1.
       -1    1    3    3    0  502  0.54184433807E+03 -0.48070230085E+03  0.12059515258E+03  0.73431136420E+03  0.50400001928E-02 0.  1.
</event>
<event>
 5   0  0.3950195E-04  0.1600946E+04  0.7818609E-02  0.8819967E-01
       -1   -1    0    0    0  501  0.00000000000E+00  0.00000000000E+00  0.15692630841E+04  0.15692630841E+04  0.50400001928E-02 0.  1.
        1   -1    0    0  501    0  0.00000000000E+00  0.00000000000E+00 -0.40831717805E+03  0.40831717808E+03  0.50400001928E-02 0. -1.
    10030    2    1    2    0    0  0.00000000000E+00  0.00000000000E+00  0.11609459061E+04  0.19775802622E+04  0.16009460630E+04 0.  0.
        2    1    3    3  502    0 -0.22494170296E+03 -0.57920499165E+03 -0.42909736582E+02  0.62283098636E+03  0.25500000920E-02 0. -1.
       -2    1    3    3    0  502  0.22494170296E+03  0.57920499165E+03  0.12038556427E+04  0.13547492759E+04  0.25500000920E-02 0.  1.
</event>
<event>
 5   0  0.2781000E-04  0.1674464E+04  0.7818609E-02  0.8776064E-01
        4   -1    0    0  501    0  0.00000000000E+00  0.00000000000E+00  0.10917182350E+04  0.10917189737E+04  0.12699999809E+01 0. -1.
       -4   -1    0    0    0  501  0.00000000000E+00  0.00000000000E+00 -0.64206677750E+03  0.64206803352E+03  0.12699999809E+01 0.  1.
    10030    2    1    2    0    0  0.00000000000E+00  0.00000000000E+00  0.44965145751E+03  0.17337870072E+04  0.16744643780E+04 0.  0.
        1    1    3    3  502    0  0.73731043850E+03  0.19544683427E+03  0.58220824410E+03  0.95957938039E+03  0.50400001928E-02 0. -1.
       -1    1    3    3    0  502 -0.73731043850E+03 -0.19544683427E+03 -0.13255678659E+03  0.77420762683E+03  0.50400001928E-02 0.  1.
</event>
<event>
 5   0  0.7770905E-04  0.1621953E+04  0.7818609E-02  0.8807174E-01
        2   -1    0    0  501    0  0.00000000000E+00  0.00000000000E+00  0.90416875758E+03  0.90416875758E+03  0.25500000920E-02 0.  1.
       -2   -1    0    0    0  501  0.00000000000E+00  0.00000000000E+00 -0.72738915519E+03  0.72738915520E+03  0.25500000920E-02 0. -1.
    10030    2    1    2    0    0  0.00000000000E+00  0.00000000000E+00  0.17677960239E+03  0.16315579128E+04  0.16219525871E+04 0.  0.
        2    1    3    3  502    0 -0.64744497255E+03  0.48771903664E+03  0.63187537280E+02  0.81304828642E+03  0.25500000920E-02 0.  1.
       -2    1    3    3    0  502  0.64744497255E+03 -0.48771903664E+03  0.11359206511E+03  0.81850962636E+03  0.25500000920E-02 0. -1.
</event>
<event>
 5   0  0.4110803E-04  0.1591779E+04  0.7818609E-02  0.8825614E-01
       -1   -1    0    0    0  501  0.00000000000E+00  0.00000000000E+00  0.55547772511E+03  0.55547772513E+03  0.50400001928E-02 0.  1.
        1   -1    0    0  501    0  0.00000000000E+00  0.00000000000E+00 -0.11403525361E+04  0.11403525361E+04  0.50400001928E-02 0. -1.
    10030    2    1    2    0    0  0.00000000000E+00  0.00000000000E+00 -0.58487481095E+03  0.16958302612E+04  0.15917794226E+04 0.  0.
        5    1    3    3  502    0 -0.38791911261E+03  0.13085038473E+03 -0.10195578577E+04  0.10986916657E+04  0.46999998093E+01 0. -1.
       -5    1    3    3    0  502  0.38791911261E+03 -0.13085038473E+03  0.43468304674E+03  0.59713859550E+03  0.46999998093E+01 0.  1.
</event>
<event>
 5   0  0.3837251E-04  0.1610038E+04  0.7818609E-02  0.8814405E-01
       -1   -1    0    0    0  501  0.00000000000E+00  0.00000000000E+00  0.55396520768E+03  0.55396520770E+03  0.50400001928E-02 0. -1.
        1   -1    0    0  501    0  0.00000000000E+00  0.00000000000E+00 -0.11698488996E+04  0.11698488996E+04  0.50400001928E-02 0.  1.
    10030    2    1    2    0    0  0.00000000000E+00  0.00000000000E+00 -0.61588369188E+03  0.17238141073E+04  0.16100379978E+04 0.  0.
        4    1    3    3  502    0 -0.71732234926E+03  0.32996867637E+03 -0.13993483928E+03  0.80188156998E+03  0.12699999809E+01 0. -1.
       -4    1    3    3    0  502  0.71732234926E+03 -0.32996867637E+03 -0.47594885259E+03  0.92193253729E+03  0.12699999809E+01 0.  1.
</event>
<event>
 5   0  0.3973227E-04  0.1569842E+04  0.7818609E-02  0.8839293E-01
       -1   -1    0    0    0  501  0.00000000000E+00  0.00000000000E+00  0.38220563543E+03  0.38220563546E+03  0.50400001928E-02 0.  1.
        1   -1    0    0  501    0  0.00000000000E+00  0.00000000000E+00 -0.16119613370E+04  0.16119613370E+04  0.50400001928E-02 0. -1.
    10030    2    1    2    0    0  0.00000000000E+00  0.00000000000E+00 -0.12297557016E+04  0.19941669725E+04  0.15698416572E+04 0.  0.
        3    1    3    3  502    0 -0.59312184526E+03  0.49987056119E+03 -0.76750720494E+03  0.10912064063E+04  0.10100000352E+00 0. -1.
       -3    1    3    3    0  502  0.59312184526E+03 -0.49987056119E+03 -0.46224849665E+03  0.90296056621E+03  0.10100000352E+00 0.  1.
</event>
<event>
 5   0  0.4110803E-04  0.1603411E+04  0.7818609E-02  0.8818455E-01
       -1   -1    0    0    0  501  0.00000000000E+00  0.00000000000E+00  0.15598040462E+04  0.15598040462E+04  0.50400001928E-02 0. -1.
        1   -1    0    0  501    0  0.00000000000E+00  0.00000000000E+00 -0.41205924394E+03  0.41205924397E+03  0.50400001928E-02 0.  1.
    10030    2    1    2    0    0  0.00000000000E+00  0.00000000000E+00  0.11477448023E+04  0.19718632902E+04  0.16034109592E+04 0.  0.
        5    1    3    3  502    0  0.34775827795E+03  0.35642333835E+03 -0.19878223664E+03  0.53619948117E+03  0.46999998093E+01 0.  1.
       -5    1    3    3    0  502 -0.34775827795E+03 -0.35642333835E+03  0.13465270389E+04  0.14356638090E+04  0.46999998093E+01 0. -1.
</event>
<event>
 5   0  0.7770905E-04  0.1613779E+04  0.7818609E-02  0.8812128E-01
       -2   -1    0    0    0  501  0.00000000000E+00  0.00000000000E+00  0.52943689769E+03  0.52943689770E+03  0.25500000920E-02 0.  1.
        2   -1    0    0  501    0  0.00000000000E+00  0.00000000000E+00 -0.12297411238E+04  0.12297411238E+04  0.25500000920E-02 0. -1.
    10030    2    1    2    0    0  0.00000000000E+00  0.00000000000E+00 -0.70030422608E+03  0.17591780215E+04  0.16137785790E+04 0.  0.
        2    1    3    3  502    0  0.44466830407E+03  0.22232245990E+03  0.34265101456E+03  0.60379375171E+03  0.25500000920E-02 0.  1.
       -2    1    3    3    0  502 -0.44466830407E+03 -0.22232245990E+03 -0.10429552406E+04  0.11553842698E+04  0.25500000920E-02 0. -1.
</event>
<event>
 5   0  0.7770905E-04  0.1657144E+04  0.7818609E-02  0.8786191E-01
        2   -1    0    0  501    0  0.00000000000E+00  0.00000000000E+00  0.97654076322E+03  0.97654076323E+03  0.25500000920E-02 0. -1.
       -2   -1    0    0    0  501  0.00000000000E+00  0.00000000000E+00 -0.70302421028E+03  0.70302421028E+03  0.25500000920E-02 0.  1.
    10030    2    1    2    0    0  0.00000000000E+00  0.00000000000E+00  0.27351655295E+03  0.16795649735E+04  0.16571442893E+04 0.  0.
        2    1    3    3  502    0  0.43112879613E+03  0.55707718220E+03  0.57892305479E+03  0.91178886216E+03  0.25500000920E-02 0. -1.
       -2    1    3    3    0  502 -0.43112879613E+03 -0.55707718220E+03 -0.30540650185E+03  0.76777611135E+03  0.25500000920E-02 0.  1.
</event>
<event>
 5   0  0.3837251E-04  0.1580792E+04  0.7818609E-02  0.8832436E-01
        1   -1    0    0  501    0  0.00000000000E+00  0.00000000000E+00  0.10161398986E+04  0.10161398986E+04  0.50400001928E-02 0. -1.
       -1   -1    0    0    0  501  0.00000000000E+00  0.00000000000E+00 -0.61480297555E+03  0.61480297557E+03  0.50400001928E-02 0.  1.
    10030    2    1    2    0    0  0.00000000000E+00  0.00000000000E+00  0.40133692305E+03  0.16309428742E+04  0.15807919955E+04 0.  0.
        4    1    3    3  502    0  0.45460965707E+03  0.18679457961E+03 -0.43797030002E+03  0.65831736410E+03  0.12699999809E+01 0.  1.
       -4    1    3    3    0  502 -0.45460965707E+03 -0.18679457961E+03  0.83930722307E+03  0.97262551009E+03  0.12699999809E+01 0. -1.
</event>
<event>
 5   0  0.3889847E-04  0.1612019E+04  0.7818609E-02  0.8813198E-01
        1   -1    0    0  501    0  0.00000000000E+00  0.00000000000E+00  0.15173667923E+04  0.15173667923E+04  0.50400001928E-02 0.  1.
       -1   -1    0    0    0  501  0.00000000000E+00  0.00000000000E+00 -0.42814404542E+03  0.42814404545E+03  0.50400001928E-02 0. -1.
    10030    2    1    2    0    0  0.00000000000E+00  0.00000000000E+00  0.10892227469E+04  0.19455108378E+04  0.16120193012E+04 0.  0.
        1    1    3    3  502    0 -0.52334211568E+03 -0.33721662717E+03 -0.73198880590E+02  0.62686529640E+03  0.50400001928E-02 0. -1.
       -1    1    3    3    0  502  0.52334211568E+03  0.33721662717E+03  0.11624216275E+04  0.13186455414E+04  0.50400001928E-02 0.  1.
</event>
<event>
 5   0  0.3889847E-04  0.1598633E+04  0.7818609E-02  0.8821388E-01
        1   -1    0    0  501    0  0.00000000000E+00  0.00000000000E+00  0.73257773669E+03  0.73257773670E+03  0.50400001928E-02 0. -1.
       -1   -1    0    0    0  501  0.00000000000E+00  0.00000000000E+00 -0.87213565412E+03  0.87213565414E+03  0.50400001928E-02 0.  1.
    10030    2    1    2    0    0  0.00000000000E+00  0.00000000000E+00 -0.13955791744E+03  0.16047133908E+04  0.15986333709E+04 0.  0.
        1    1    3    3  502    0 -0.44874328547E+03  0.60971104552E+03  0.18769035191E+03  0.77996523225E+03  0.50400001928E-02 0. -1.
       -1    1    3    3    0  502  0.44874328547E+03 -0.60971104552E+03 -0.32724826935E+03  0.82474815860E+03  0.50400001928E-02 0.  1.
</event>
<event>
 5   0  0.4110803E-04  0.1551029E+04  0.7818609E-02  0.8851211E-01
       -1   -1    0    0    0  501  0.00000000000E+00  0.00000000000E+00  0.56862641782E+03  0.56862641784E+03  0.50400001928E-02 0.  1.
        1   -1    0    0  501    0  0.00000000000E+00  0.00000000000E+00 -0.10576762273E+04  0.10576762273E+04  0.50400001928E-02 0. -1.
    10030    2    1    2    0    0  0.00000000000E+00  0.00000000000E+00 -0.48904980946E+03  0.16263026451E+04  0.15510288771E+04 0.  0.
        5    1    3    3  502    0  0.22326825233E+03 -0.73252952021E+03 -0.11631070585E+03  0.77459568859E+03  0.46999998093E+01 0. -1.
       -5    1    3    3    0  502 -0.22326825233E+03  0.73252952021E+03 -0.37273910361E+03  0.85170695655E+03  0.46999998093E+01 0.  1.
</event>
<event>
 5   0  0.7395088E-04  0.1569644E+04  0.7818609E-02  0.8839417E-01
       -2   -1    0    0    0  501  0.00000000000E+00  0.00000000000E+00  0.59882581472E+03  0.59882581472E+03  0.25500000920E-02 0. -1.
        2   -1    0    0  501    0  0.00000000000E+00  0.00000000000E+00 -0.10285886504E+04  0.10285886504E+04  0.25500000920E-02 0.  1.
    10030    2    1    2    0    0  0.00000000000E+00  0.00000000000E+00 -0.42976283564E+03  0.16274144651E+04  0.15696438278E+04 0.  0.
        1    1    3    3  502    0  0.69336743313E+03  0.36707905618E+03 -0.23662976314E+03  0.81945047174E+03  0.50400001928E-02 0. -1.
       -1    1    3    3    0  502 -0.69336743313E+03 -0.36707905618E+03 -0.19313307250E+03  0.80796399334E+03  0.50400001928E-02 0.  1.
</event>
<event>
 5   0  0.7488884E-04  0.1594144E+04  0.7818609E-02  0.8824154E-01
        2   -1    0    0  501    0  0.00000000000E+00  0.00000000000E+00  0.86085460618E+03  0.86085460618E+03  0.25500000920E-02 0.  1.
       -2   -1    0    0    0  501  0.00000000000E+00  0.00000000000E+00 -0.73801514976E+03  0.73801514976E+03  0.25500000920E-02 0. -1.
    10030    2    1    2    0    0  0.00000000000E+00  0.00000000000E+00  0.12283945643E+03  0.15988697559E+04  0.15941439598E+04 0.  0.
        3    1    3    3  502    0 -0.54649255734E+03 -0.10541338255E+01  0.64337123162E+03  0.84414559070E+03  0.10100000352E+00 0.  1.
       -3    1    3    3    0  502  0.54649255734E+03  0.10541338255E+01 -0.52053177519E+03  0.75472416525E+03  0.10100000352E+00 0. -1.
</event>
<event>
 5   0  0.7395088E-04  0.1607505E+04  0.7818609E-02  0.8815951E-01
        2   -1    0    0  501    0  0.00000000000E+00  0.00000000000E+00  0.81633857624E+03  0.81633857624E+03  0.25500000920E-02 0.  1.
       -2   -1    0    0    0  501  0.00000000000E+00  0.00000000000E+00 -0.79136012096E+03  0.79136012096E+03  0.25500000920E-02 0. -1.
    10030    2    1    2    0    0  0.00000000000E+00  0.00000000000E+00  0.24978455279E+02  0.16076986972E+04  0.16075046432E+04 0.  0.
        1    1    3    3  502    0 -0.40440485208E+03 -0.50079635165E+03  0.49387624728E+03  0.81132855112E+03  0.50400001928E-02 0.  1.
       -1    1    3    3    0  502  0.40440485208E+03  0.50079635165E+03 -0.46889779200E+03  0.79637014609E+03  0.50400001928E-02 0. -1.
</event>
<event>
 5   0  0.7488884E-04  0.1572429E+04  0.7818609E-02  0.8837667E-01
        2   -1    0    0  501    0  0.00000000000E+00  0.00000000000E+00  0.84953118853E+03  0.84953118853E+03  0.25500000920E-02 0.  1.
       -2   -1    0    0    0  501  0.00000000000E+00  0.00000000000E+00 -0.72761704752E+03  0.72761704753E+03  0.25500000920E-02 0. -1.
    10030    2    1    2    0    0  0.00000000000E+00  0.00000000000E+00  0.12191414100E+03  0.15771482361E+04  0.15724291719E+04 0.  0.
        3    1    3    3  502    0 -0.56189285522E+03 -0.39490349735E+02  0.61110140412E+03  0.83110047816E+03  0.10100000352E+00 0.  1.
       -3    1    3    3    0  502  0.56189285522E+03  0.39490349735E+02 -0.48918726312E+03  0.74604775790E+03  0.10100000352E+00 0. -1.
</event>
<event>
 5   0  0.7415102E-04  0.1653401E+04  0.7818609E-02  0.8788397E-01
       -2   -1    0    0    0  501  0.00000000000E+00  0.00000000000E+00  0.88466297684E+03  0.88466297684E+03  0.25500000920E-02 0.  1.
        2   -1    0    0  501    0  0.00000000000E+00  0.00000000000E+00 -0.77253581384E+03  0.77253581384E+03  0.25500000920E-02 0. -1.
    10030    2    1    2    0    0  0.00000000000E+00  0.00000000000E+00  0.11212716300E+03  0.16571987907E+04  0.16534011404E+04 0.  0.
        5    1    3    3  502    0 -0.72922973122E+03 -0.21124072412E+02  0.44578763632E+03  0.85496838189E+03  0.46999998093E+01 0.  1.
       -5    1    3    3    0  502  0.72922973122E+03  0.21124072412E+02 -0.33366047332E+03  0.80223040879E+03  0.46999998093E+01 0. -1.
</event>
<event>
 5   0  0.2781000E-04  0.1600776E+04  0.7818609E-02  0.8820071E-01
       -4   -1    0    0    0  501  0.00000000000E+00  0.00000000000E+00  0.73855126153E+03  0.73855235346E+03  0.12699999809E+01 0.  1.
        4   -1    0    0  501    0  0.00000000000E+00  0.00000000000E+00 -0.86740034402E+03  0.86740127375E+03  0.12699999809E+01 0. -1.
    10030    2    1    2    0    0  0.00000000000E+00  0.00000000000E+00 -0.12884908249E+03  0.16059536272E+04  0.16007763637E+04 0.  0.
        4    1    3    3  502    0  0.63252360836E+03  0.15107733784E+03  0.40367765661E+03  0.76541997654E+03  0.12699999809E+01 0.  1.
       -4    1    3    3    0  502 -0.63252360836E+03 -0.15107733784E+03 -0.53252673911E+03  0.84053365067E+03  0.12699999809E+01 0. -1.
</event>
<event>
 5   0  0.3889847E-04  0.1611752E+04  0.7818609E-02  0.8813361E-01
        1   -1    0    0  501    0  0.00000000000E+00  0.00000000000E+00  0.87940460744E+03  0.87940460745E+03  0.50400001928E-02 0.  1.
       -1   -1    0    0    0  501  0.00000000000E+00  0.00000000000E+00 -0.73849545723E+03  0.73849545725E+03  0.50400001928E-02 0. -1.
    10030    2    1    2    0    0  0.00000000000E+00  0.00000000000E+00  0.14090915021E+03  0.16179000647E+04  0.16117522237E+04 0.  0.
        1    1    3    3  502    0 -0.78878600873E+03  0.45626738721E+02 -0.88804747372E+02  0.79507952435E+03  0.50400001928E-02 0. -1.
       -1    1    3    3    0  502  0.78878600873E+03 -0.45626738721E+02  0.22971389758E+03  0.82282054035E+03  0.50400001928E-02 0.  1.
</event>
<event>
 5   0  0.7395088E-04  0.1599916E+04  0.7818609E-02  0.8820600E-01
        2   -1    0    0  501    0  0.00000000000E+00  0.00000000000E+00  0.15998643101E+04  0.15998643101E+04  0.25500000920E-02 0.  1.
       -2   -1    0    0    0  501  0.00000000000E+00  0.00000000000E+00 -0.39999192999E+03  0.39999193000E+03  0.25500000920E-02 0. -1.
    10030    2    1    2    0    0  0.00000000000E+00  0.00000000000E+00  0.11998723801E+04  0.19998562401E+04  0.15999160142E+04 0.  0.
        1    1    3    3  502    0  0.68246319652E+03 -0.25898822943E+03  0.19086379776E+03  0.75449314571E+03  0.50400001928E-02 0. -1.
       -1    1    3    3    0  502 -0.68246319652E+03  0.25898822943E+03  0.10090085823E+04  0.12453630944E+04  0.50400001928E-02 0.  1.
</event>
<event>
 5   0  0.3973227E-04  0.1582096E+04  0.7818609E-02  0.8831624E-01
        1   -1    0    0  501    0  0.00000000000E+00  0.00000000000E+00  0.85903702416E+03  0.85903702418E+03  0.50400001928E-02 0. -1.
       -1   -1    0    0    0  501  0.00000000000E+00  0.00000000000E+00 -0.72843959747E+03  0.72843959749E+03  0.50400001928E-02 0.  1.
    10030    2    1    2    0    0  0.00000000000E+00  0.00000000000E+00  0.13059742669E+03  0.15874766217E+04  0.15820955523E+04 0.  0.
        3    1    3    3  502    0  0.24491593159E+03 -0.73409419967E+03 -0.99205441526E+02  0.78020499701E+03  0.10100000352E+00 0.  1.
       -3    1    3    3    0  502 -0.24491593159E+03  0.73409419967E+03  0.22980286822E+03  0.80727162466E+03  0.10100000352E+00 0. -1.
</event>
<event>
 5   0  0.3950195E-04  0.1606660E+04  0.7818609E-02  0.8816467E-01
        1   -1    0    0  501    0  0.00000000000E+00  0.00000000000E+00  0.94415791469E+03  0.94415791471E+03  0.50400001928E-02 0.  1.
       -1   -1    0    0    0  501  0.00000000000E+00  0.00000000000E+00 -0.68350726314E+03  0.68350726316E+03  0.50400001928E-02 0. -1.
    10030    2    1    2    0    0  0.00000000000E+00  0.00000000000E+00  0.26065065155E+03  0.16276651779E+04  0.16066596308E+04 0.  0.
        2    1    3    3  502    0  0.43124159971E+03 -0.12507233456E+03 -0.54451156845E+03  0.70576572201E+03  0.25500000920E-02 0. -1.
       -2    1    3    3    0  502 -0.43124159971E+03  0.12507233456E+03  0.80516221999E+03  0.92189945585E+03  0.25500000920E-02 0.  1.
</event>
<event>
 5   0  0.3837251E-04  0.1649974E+04  0.7818609E-02  0.8790422E-01
       -1   -1    0    0    0  501  0.00000000000E+00  0.00000000000E+00  0.53448867020E+03  0.53448867023E+03  0.50400001928E-02 0. -1.
        1   -1    0    0  501    0  0.00000000000E+00  0.00000000000E+00 -0.12733725332E+04  0.12733725332E+04  0.50400001928E-02 0.  1.
    10030    2    1    2    0    0  0.00000000000E+00  0.00000000000E+00 -0.73888386302E+03  0.18078612035E+04  0.16499735658E+04 0.  0.
        4    1    3    3  502    0 -0.51891085084E+03 -0.28643422417E+02 -0.10714649902E+04  0.11908516931E+04  0.12699999809E+01 0.  1.
       -4    1    3    3    0  502  0.51891085084E+03  0.28643422417E+02  0.33258112723E+03  0.61700951035E+03  0.12699999809E+01 0. -1.
</event>
<event>
 5   0  0.7553070E-04  0.1615151E+04  0.7818609E-02  0.8811294E-01
       -2   -1    0    0    0  501  0.00000000000E+00  0.00000000000E+00  0.15507807602E+04  0.15507807602E+04  0.25500000920E-02 0.  1.
        2   -1    0    0  501    0  0.00000000000E+00  0.00000000000E+00 -0.42054807050E+03  0.42054807051E+03  0.25500000920E-02 0. -1.
    10030    2    1    2    0    0  0.00000000000E+00  0.00000000000E+00  0.11302326897E+04  0.19713288307E+04  0.16151505893E+04 0.  0.
        4    1    3    3  502    0 -0.33664650272E+03  0.39877350916E+03  0.13173241982E+04  0.14169318387E+04  0.12699999809E+01 0.  1.
       -4    1    3    3    0  502  0.33664650272E+03 -0.39877350916E+03 -0.18709150844E+03  0.55439699208E+03  0.12699999809E+01 0. -1.
</event>
<event>
 5   0  0.4110803E-04  0.1590115E+04  0.7818609E-02  0.8826644E-01
       -1   -1    0    0    0  501  0.00000000000E+00  0.00000000000E+00  0.58447718772E+03  0.58447718774E+03  0.50400001928E-02 0. -1.
        1   -1    0    0  501    0  0.00000000000E+00  0.00000000000E+00 -0.10815074830E+04  0.10815074830E+04  0.50400001928E-02 0.  1.
    10030    2    1    2    0    0  0.00000000000E+00  0.00000000000E+00 -0.49703029527E+03  0.16659846707E+04  0.15901150300E+04 0.  0.
        5    1    3    3  502    0  0.51359147098E+03 -0.32592479110E+03  0.28786003174E+03  0.67297002637E+03  0.46999998093E+01 0. -1.
       -5    1    3    3    0  502 -0.51359147098E+03  0.32592479110E+03 -0.78489032701E+03  0.99301464438E+03  0.46999998093E+01 0.  1.
</event>
<event>
 5   0  0.4110803E-04  0.1667960E+04  0.7818609E-02  0.8779852E-01
       -1   -1    0    0    0  501  0.00000000000E+00  0.00000000000E+00  0.36761138946E+03  0.36761138950E+03  0.50400001928E-02 0.  1.
        1   -1    0    0  501    0  0.00000000000E+00  0.00000000000E+00 -0.18920049572E+04  0.18920049572E+04  0.50400001928E-02 0. -1.
    10030    2    1    2    0    0  0.00000000000E+00  0.00000000000E+00 -0.15243935677E+04  0.22596163467E+04  0.16679599171E+04 0.  0.
        5    1    3    3  502    0  0.73702203315E+03  0.33041897149E+02 -0.12889841936E+04  0.14851921039E+04  0.46999998093E+01 0.  1.
       -5    1    3    3    0  502 -0.73702203315E+03 -0.33041897149E+02 -0.23540937415E+03  0.77442424275E+03  0.46999998093E+01 0. -1.
</event>
<event>
 5   0  0.4110803E-04  0.1468858E+04  0.7818609E-02  0.8905430E-01
       -1   -1    0    0    0  501  0.00000000000E+00  0.00000000000E+00  0.45505555466E+03  0.45505555469E+03  0.50400001928E-02 0.  1.
        1   -1    0    0  501    0  0.00000000000E+00  0.00000000000E+00 -0.11853195308E+04  0.11853195308E+04  0.50400001928E-02 0. -1.
    10030    2    1    2    0    0  0.00000000000E+00  0.00000000000E+00 -0.73026397613E+03  0.16403750855E+04  0.14688583820E+04 0.  0.
        5    1    3    3  502    0 -0.56819371585E+03  0.45236081652E+03 -0.24335943577E+03  0.76597670462E+03  0.46999998093E+01 0.  1.
       -5    1    3    3    0  502  0.56819371585E+03 -0.45236081652E+03 -0.48690454036E+03  0.87439838087E+03  0.46999998093E+01 0. -1.
</event>
<event>
 5   0  0.7415102E-04  0.1569055E+04  0.7818609E-02  0.8839788E-01
       -2   -1    0    0    0  501  0.00000000000E+00  0.00000000000E+00  0.95211434374E+03  0.95211434374E+03  0.25500000920E-02 0. -1.
        2   -1    0    0  501    0  0.00000000000E+00  0.00000000000E+00 -0.64643841886E+03  0.64643841887E+03  0.25500000920E-02 0.  1.
    10030    2    1    2    0    0  0.00000000000E+00  0.00000000000E+00  0.30567592488E+03  0.15985527626E+04  0.15690548632E+04 0.  0.
        5    1    3    3  502    0  0.12358719932E+03  0.71912146813E+03 -0.14076684307E+03  0.74313314814E+03  0.46999998093E+01 0.  1.
       -5    1    3    3    0  502 -0.12358719932E+03 -0.71912146813E+03  0.44644276795E+03  0.85541961447E+03  0.46999998093E+01 0. -1.
</event>
<event>
 5   0  0.7395088E-04  0.1546292E+04  0.7818609E-02  0.8854240E-01
       -2   -1    0    0    0  501  0.00000000000E+00  0.00000000000E+00  0.70242779336E+03  0.70242779336E+03  0.25500000920E-02 0.  1.
        2   -1    0    0  501    0  0.00000000000E+00  0.00000000000E+00 -0.85098346745E+03  0.85098346745E+03  0.25500000920E-02 0. -1.
    10030    2    1    2    0    0  0.00000000000E+00  0.00000000000E+00 -0.14855567409E+03  0.15534112608E+04  0.15462916144E+04 0.  0.
        1    1    3    3  502    0  0.61409808792E+03 -0.46957210996E+03 -0.62390724278E+02  0.77556884320E+03  0.50400001928E-02 0. -1.
       -1    1    3    3    0  502 -0.61409808792E+03  0.46957210996E+03 -0.86164949815E+02  0.77784241761E+03  0.50400001928E-02 0.  1.
</event>
<event>
 5   0  0.3950195E-04  0.1576619E+04  0.7818609E-02  0.8835042E-01
        1   -1    0    0  501    0  0.00000000000E+00  0.00000000000E+00  0.10719938095E+04  0.10719938095E+04  0.50400001928E-02 0. -1.
       -1   -1    0    0    0  501  0.00000000000E+00  0.00000000000E+00 -0.57969733705E+03  0.57969733708E+03  0.50400001928E-02 0.  1.
    10030    2    1    2    0    0  0.00000000000E+00  0.00000000000E+00  0.49229647242E+03  0.16516911466E+04  0.15766191128E+04 0.  0.
        2    1    3    3  502    0 -0.52932959918E+03 -0.34958594014E+02 -0.36472950906E+03  0.64376979010E+03  0.25500000920E-02 0.  1.
       -2    1    3    3    0  502  0.52932959918E+03  0.34958594014E+02  0.85702598148E+03  0.10079213565E+04  0.25500000920E-02 0. -1.
</event>
<event>
 5   0  0.2781000E-04  0.1585314E+04  0.7818609E-02  0.8829622E-01
       -4   -1    0    0    0  501  0.00000000000E+00  0.00000000000E+00  0.10516831304E+04  0.10516838973E+04  0.12699999809E+01 0.  1.
        4   -1    0    0  501    0  0.00000000000E+00  0.00000000000E+00 -0.59742623861E+03  0.59742758848E+03  0.12699999809E+01 0. -1.
    10030    2    1    2    0    0  0.00000000000E+00  0.00000000000E+00  0.45425689183E+03  0.16491114857E+04  0.15853136499E+04 0.  0.
        4    1    3    3  502    0 -0.45290842120E+03 -0.62374717757E+03  0.41926854302E+03  0.87748179672E+03  0.12699999809E+01 0.  1.
       -4    1    3    3    0  502  0.45290842120E+03  0.62374717757E+03  0.34988348812E+02  0.77162968901E+03  0.12699999809E+01 0. -1.
</event>
<event>
 5   0  0.7395088E-04  0.1629445E+04  0.7818609E-02  0.8802660E-01
        2   -1    0    0  501    0  0.00000000000E+00  0.00000000000E+00  0.85200201597E+03  0.85200201597E+03  0.25500000920E-02 0. -1.
       -2   -1    0    0    0  501  0.00000000000E+00  0.00000000000E+00 -0.77907398129E+03  0.77907398129E+03  0.25500000920E-02 0.  1.
    10030    2    1    2    0    0  0.00000000000E+00  0.00000000000E+00  0.72928034675E+02  0.16310759973E+04  0.16294448167E+04 0.  0.
        1    1    3    3  502    0  0.10872944097E+03  0.37915452257E+03  0.75005377063E+03  0.84744374573E+03  0.50400001928E-02 0. -1.
       -1    1    3    3    0  502 -0.10872944097E+03 -0.37915452257E+03 -0.67712573596E+03  0.78363225153E+03  0.50400001928E-02 0.  1.
</event>
<event>
 5   0  0.2781000E-04  0.1611016E+04  0.7818609E-02  0.8813809E-01
        3   -1    0    0  501    0  0.00000000000E+00  0.00000000000E+00  0.75828631963E+03  0.75828632635E+03  0.10100000352E+00 0.  1.
       -3   -1    0    0    0  501  0.00000000000E+00  0.00000000000E+00 -0.85567000165E+03  0.85567000762E+03  0.10100000352E+00 0. -1.
    10030    2    1    2    0    0  0.00000000000E+00  0.00000000000E+00 -0.97383682027E+02  0.16139563340E+04  0.16110156630E+04 0.  0.
        3    1    3    3  502    0  0.53981475763E+03  0.57260035017E+03  0.12358636130E+03  0.79658316105E+03  0.10100000352E+00 0.  1.
       -3    1    3    3    0  502 -0.53981475763E+03 -0.57260035017E+03 -0.22097004332E+03  0.81737317292E+03  0.10100000352E+00 0. -1.
</event>
<event>
 5   0  0.7395088E-04  0.1596160E+04  0.7818609E-02  0.8822911E-01
       -2   -1    0    0    0  501  0.00000000000E+00  0.00000000000E+00  0.84742147616E+03  0.84742147617E+03  0.25500000920E-02 0.  1.
        2   -1    0    0  501    0  0.00000000000E+00  0.00000000000E+00 -0.75161147707E+03  0.75161147707E+03  0.25500000920E-02 0. -1.
    10030    2    1    2    0    0  0.00000000000E+00  0.00000000000E+00  0.95809999095E+02  0.15990329532E+04  0.15961600263E+04 0.  0.
        1    1    3    3  502    0 -0.31703185085E+03 -0.53072055779E+03  0.55354924788E+03  0.82981339757E+03  0.50400001928E-02 0.  1.
       -1    1    3    3    0  502  0.31703185085E+03  0.53072055779E+03 -0.45773924879E+03  0.76921955567E+03  0.50400001928E-02 0. -1.
</event>
<event>
 5   0  0.7488884E-04  0.1965258E+04  0.7818609E-02  0.8623038E-01
        2   -1    0    0  501    0  0.00000000000E+00  0.00000000000E+00  0.24148722414E+04  0.24148722414E+04  0.25500000920E-02 0. -1.
       -2   -1    0    0    0  501  0.00000000000E+00  0.00000000000E+00 -0.39983893510E+03  0.39983893511E+03  0.25500000920E-02 0.  1.
    10030    2    1    2    0    0  0.00000000000E+00  0.00000000000E+00  0.20150333063E+04  0.28147111766E+04  0.19652581972E+04 0.  0.
        3    1    3    3  502    0  0.80151579150E+03  0.21886230314E+03  0.17589032064E+04  0.19452683032E+04  0.10100000352E+00 0. -1.
       -3    1    3    3    0  502 -0.80151579150E+03 -0.21886230314E+03  0.25613009998E+03  0.86944287338E+03  0.10100000352E+00 0.  1.
</event>
<event>
 5   0  0.3837251E-04  0.1578726E+04  0.7818609E-02  0.8833725E-01
       -1   -1    0    0    0  501  0.00000000000E+00  0.00000000000E+00  0.30500235902E+03  0.30500235907E+03  0.50400001928E-02 0. -1.
        1   -1    0    0  501    0  0.00000000000E+00  0.00000000000E+00 -0.20429140021E+04  0.20429140021E+04  0.50400001928E-02 0.  1.
    10030    2    1    2    0    0  0.00000000000E+00  0.00000000000E+00 -0.17379116430E+04  0.23479163611E+04  0.15787255493E+04 0.  0.
        4    1    3    3  502    0 -0.21991330479E+03  0.72853735950E+03 -0.11807886077E+04  0.14047746776E+04  0.12699999809E+01 0.  1.
       -4    1    3    3    0  502  0.21991330479E+03 -0.72853735950E+03 -0.55712303528E+03  0.94314168350E+03  0.12699999809E+01 0. -1.
</event>
<event>
 5   0  0.3837251E-04  0.1553631E+04  0.7818609E-02  0.8849552E-01
        1   -1    0    0  501    0  0.00000000000E+00  0.00000000000E+00  0.10657521846E+04  0.10657521846E+04  0.50400001928E-02 0. -1.
       -1   -1    0    0    0  501  0.00000000000E+00  0.00000000000E+00 -0.56621273658E+03  0.56621273660E+03  0.50400001928E-02 0.  1.
    10030    2    1    2    0    0  0.00000000000E+00  0.00000000000E+00  0.49953944799E+03  0.16319649212E+04  0.15536311801E+04 0.  0.
        4    1    3    3  502    0 -0.72922363795E+03 -0.51832180571E+02  0.52566675119E+03  0.90043369290E+03  0.12699999809E+01 0. -1.
       -4    1    3    3    0  502  0.72922363795E+03  0.51832180571E+02 -0.26127303203E+02  0.73153122829E+03  0.12699999809E+01 0.  1.
</event>
<event>
 5   0  0.3889847E-04  0.1570052E+04  0.7818609E-02  0.8839161E-01
        1   -1    0    0  501    0  0.00000000000E+00  0.00000000000E+00  0.98313904468E+03  0.98313904469E+03  0.50400001928E-02 0.  1.
       -1   -1    0    0    0  501  0.00000000000E+00  0.00000000000E+00 -0.62683456476E+03  0.62683456478E+03  0.50400001928E-02 0. -1.
    10030    2    1    2    0    0  0.00000000000E+00  0.00000000000E+00  0.35630447992E+03  0.16099736095E+04  0.15700516363E+04 0.  0.
        1    1    3    3  502    0 -0.62782919470E+03 -0.66763479033E+02 -0.30022758796E+03  0.69911620239E+03  0.50400001928E-02 0. -1.
       -1    1    3    3    0  502  0.62782919470E+03  0.66763479033E+02  0.65653206788E+03  0.91085740708E+03  0.50400001928E-02 0.  1.
</event>
<event>
 5   0  0.7415102E-04  0.1574495E+04  0.7818609E-02  0.8836372E-01
        2   -1    0    0  501    0  0.00000000000E+00  0.00000000000E+00  0.16748850274E+04  0.16748850274E+04  0.25500000920E-02 0. -1.
       -2   -1    0    0    0  501  0.00000000000E+00  0.00000000000E+00 -0.37003031768E+03  0.37003031769E+03  0.25500000920E-02 0.  1.
    10030    2    1    2    0    0  0.00000000000E+00  0.00000000000E+00  0.13048547097E+04  0.20449153450E+04  0.15744945078E+04 0.  0.
        5    1    3    3  502    0 -0.58821492826E+03  0.31359886125E+03  0.11963572306E+04  0.13695377910E+04  0.46999998093E+01 0. -1.
       -5    1    3    3    0  502  0.58821492826E+03 -0.31359886125E+03  0.10849747905E+03  0.67537755409E+03  0.46999998093E+01 0.  1.
</event>
<event>
 5   0  0.3889847E-04  0.1607975E+04  0.7818609E-02  0.8815664E-01
       -1   -1    0    0    0  501  0.00000000000E+00  0.00000000000E+00  0.60845565891E+03  0.60845565893E+03  0.50400001928E-02 0.  1.
        1   -1    0    0  501    0  0.00000000000E+00  0.00000000000E+00 -0.10623544962E+04  0.10623544963E+04  0.50400001928E-02 0. -1.
    10030    2    1    2    0    0  0.00000000000E+00  0.00000000000E+00 -0.45389883734E+03  0.16708101552E+04  0.16079746329E+04 0.  0.
        1    1    3    3  502    0  0.11849903198E+03 -0.62578593776E+03 -0.73678136173E+03  0.97390802209E+03  0.50400001928E-02 0. -1.
       -1    1    3    3    0  502 -0.11849903198E+03  0.62578593776E+03  0.28288252439E+03  0.69690213310E+03  0.50400001928E-02 0.  1.
</event>
<event>
 5   0  0.7415102E-04  0.1599828E+04  0.7818609E-02  0.8820653E-01
        2   -1    0    0  501    0  0.00000000000E+00  0.00000000000E+00  0.10616936400E+04  0.10616936400E+04  0.25500000920E-02 0.  1.
       -2   -1    0    0    0  501  0.00000000000E+00  0.00000000000E+00 -0.60268116405E+03  0.60268116405E+03  0.25500000920E-02 0. -1.
    10030    2    1    2    0    0  0.00000000000E+00  0.00000000000E+00  0.45901247591E+03  0.16643748040E+04  0.15998284393E+04 0.  0.
        5    1    3    3  502    0  0.63274054429E+02  0.44275841184E+03  0.91943832814E+03  0.10224615134E+04  0.46999998093E+01 0.  1.
       -5    1    3    3    0  502 -0.63274054429E+02 -0.44275841184E+03 -0.46042585223E+03  0.64191329057E+03  0.46999998093E+01 0. -1.
</event>
<event>
 5   0  0.7395088E-04  0.1602338E+04  0.7818609E-02  0.8819113E-01
       -2   -1    0    0    0  501  0.00000000000E+00  0.00000000000E+00  0.70744422440E+03  0.70744422441E+03  0.25500000920E-02 0. -1.
        2   -1    0    0  501    0  0.00000000000E+00  0.00000000000E+00 -0.90731068639E+03  0.90731068639E+03  0.25500000920E-02 0.  1.
    10030    2    1    2    0    0  0.00000000000E+00  0.00000000000E+00 -0.19986646199E+03  0.16147549108E+04  0.16023379230E+04 0.  0.
        1    1    3    3  502    0  0.59018128304E+03 -0.47988174016E+03  0.15355382660E+03  0.77600206770E+03  0.50400001928E-02 0. -1.
       -1    1    3    3    0  502 -0.59018128304E+03  0.47988174016E+03 -0.35342028858E+03  0.83875284310E+03  0.50400001928E-02 0.  1.
</event>
<event>
 5   0  0.7553070E-04  0.1563797E+04  0.7818609E-02  0.8843103E-01
        2   -1    0    0  501    0  0.00000000000E+00  0.00000000000E+00  0.75392927729E+03  0.75392927730E+03  0.25500000920E-02 0. -1.
       -2   -1    0    0    0  501  0.00000000000E+00  0.00000000000E+00 -0.81090583053E+03  0.81090583053E+03  0.25500000920E-02 0.  1.
    10030    2    1    2    0    0  0.00000000000E+00  0.00000000000E+00 -0.56976553234E+02  0.15648351078E+04  0.15637974891E+04 0.  0.
        4    1    3    3  502    0  0.82558919981E+02 -0.40934094800E+02  0.74847553577E+03  0.75412785119E+03  0.12699999809E+01 0. -1.
       -4    1    3    3    0  502 -0.82558919981E+02  0.40934094800E+02 -0.80545208901E+03  0.81070725664E+03  0.12699999809E+01 0.  1.
</event>
<event>
 5   0  0.7415102E-04  0.1611015E+04  0.7818609E-02  0.8813809E-01
       -2   -1    0    0    0  501  0.00000000000E+00  0.00000000000E+00  0.85049940342E+03  0.85049940342E+03  0.25500000920E-02 0. -1.
        2   -1    0    0  501    0  0.00000000000E+00  0.00000000000E+00 -0.76289589231E+03  0.76289589232E+03  0.25500000920E-02 0.  1.
    10030    2    1    2    0    0  0.00000000000E+00  0.00000000000E+00  0.87603511106E+02  0.16133952957E+04  0.16110152095E+04 0.  0.
        5    1    3    3  502    0 -0.78221340744E+03  0.10898101990E+03  0.20242051556E+03  0.81531026769E+03  0.46999998093E+01 0.  1.
       -5    1    3    3    0  502  0.78221340744E+03 -0.10898101990E+03 -0.11481700445E+03  0.79808502805E+03  0.46999998093E+01 0. -1.
</event>
<event>
 5   0  0.3837251E-04  0.1604064E+04  0.7818609E-02  0.8818055E-01
        1   -1    0    0  501    0  0.00000000000E+00  0.00000000000E+00  0.42328323531E+03  0.42328323534E+03  0.50400001928E-02 0. -1.
       -1   -1    0    0    0  501  0.00000000000E+00  0.00000000000E+00 -0.15196802588E+04  0.15196802588E+04  0.50400001928E-02 0.  1.
    10030    2    1    2    0    0  0.00000000000E+00  0.00000000000E+00 -0.10963970235E+04  0.19429634941E+04  0.16040638100E+04 0.  0.
        4    1    3    3  502    0 -0.64377218982E+03  0.47677730589E+03 -0.50137472463E+03  0.94505950035E+03  0.12699999809E+01 0. -1.
       -4    1    3    3    0  502  0.64377218982E+03 -0.47677730589E+03 -0.59502229883E+03  0.99790399378E+03  0.12699999809E+01 0.  1.
</event>
<event>
 5   0  0.7395088E-04  0.1622647E+04  0.7818609E-02  0.8806755E-01
       -2   -1    0    0    0  501  0.00000000000E+00  0.00000000000E+00  0.13972356649E+04  0.13972356649E+04  0.25500000920E-02 0. -1.
        2   -1    0    0  501    0  0.00000000000E+00  0.00000000000E+00 -0.47110552351E+03  0.47110552352E+03  0.25500000920E-02 0.  1.
    10030    2    1    2    0    0  0.00000000000E+00  0.00000000000E+00  0.92613014135E+03  0.18683411884E+04  0.16226465288E+04 0.  0.
        1    1    3    3  502    0 -0.48895737135E+03 -0.39734309054E+03  0.10516229349E+04  0.12259166528E+04  0.50400001928E-02 0. -1.
       -1    1    3    3    0  502  0.48895737135E+03  0.39734309054E+03 -0.12549279351E+03  0.64242453553E+03  0.50400001928E-02 0.  1.
</event>
<event>
 5   0  0.3837251E-04  0.1603033E+04  0.7818609E-02  0.8818687E-01
       -1   -1    0    0    0  501  0.00000000000E+00  0.00000000000E+00  0.56056665395E+03  0.56056665397E+03  0.50400001928E-02 0. -1.
        1   -1    0    0  501    0  0.00000000000E+00  0.00000000000E+00 -0.11460345599E+04  0.11460345599E+04  0.50400001928E-02 0.  1.
    10030    2    1    2    0    0  0.00000000000E+00  0.00000000000E+00 -0.58546790598E+03  0.17066012139E+04  0.16030330734E+04 0.  0.
        4    1    3    3  502    0 -0.39379649932E+03 -0.44684897749E+03  0.27827442563E+03  0.65741003979E+03  0.12699999809E+01 0. -1.
       -4    1    3    3    0  502  0.39379649932E+03  0.44684897749E+03 -0.86374233160E+03  0.10491911741E+04  0.12699999809E+01 0.  1.
</event>
<event>
 5   0  0.3950195E-04  0.1587262E+04  0.7818609E-02  0.8828412E-01
        1   -1    0    0  501    0  0.00000000000E+00  0.00000000000E+00  0.61273587913E+03  0.61273587915E+03  0.50400001928E-02 0. -1.
       -1   -1    0    0    0  501  0.00000000000E+00  0.00000000000E+00 -0.10279310452E+04  0.10279310452E+04  0.50400001928E-02 0.  1.
    10030    2    1    2    0    0  0.00000000000E+00  0.00000000000E+00 -0.41519516608E+03  0.16406669244E+04  0.15872620864E+04 0.  0.
        2    1    3    3  502    0 -0.69002441316E+03  0.24336022641E+02  0.19687942356E+03  0.71797454007E+03  0.25500000920E-02 0. -1.
       -2    1    3    3    0  502  0.69002441316E+03 -0.24336022641E+02 -0.61207458964E+03  0.92269238430E+03  0.25500000920E-02 0.  1.
</event>
<event>
 5   0  0.3950195E-04  0.1585995E+04  0.7818609E-02  0.8829198E-01
       -1   -1    0    0    0  501  0.00000000000E+00  0.00000000000E+00  0.45925231372E+03  0.45925231375E+03  0.50400001928E-02 0. -1.
        1   -1    0    0  501    0  0.00000000000E+00  0.00000000000E+00 -0.13692806861E+04  0.13692806861E+04  0.50400001928E-02 0.  1.
    10030    2    1    2    0    0  0.00000000000E+00  0.00000000000E+00 -0.91002837239E+03  0.18285329999E+04  0.15859953635E+04 0.  0.
        2    1    3    3  502    0 -0.49596203308E+03 -0.35954462222E+03  0.12557766014E+03  0.62531625787E+03  0.25500000920E-02 0. -1.
       -2    1    3    3    0  502  0.49596203308E+03  0.35954462222E+03 -0.10356060325E+04  0.12032167420E+04  0.25500000920E-02 0.  1.
</event>
<event>
 5   0  0.3889847E-04  0.1599144E+04  0.7818609E-02  0.8821074E-01
       -1   -1    0    0    0  501  0.00000000000E+00  0.00000000000E+00  0.11259214856E+04  0.11259214856E+04  0.50400001928E-02 0. -1.
        1   -1    0    0  501    0  0.00000000000E+00  0.00000000000E+00 -0.56781503899E+03  0.56781503902E+03  0.50400001928E-02 0.  1.
    10030    2    1    2    0    0  0.00000000000E+00  0.00000000000E+00  0.55810644656E+03  0.16937365246E+04  0.15991437112E+04 0.  0.
        1    1    3    3  502    0 -0.58008541937E+03 -0.29449009906E+03  0.77140707667E+03  0.10091047469E+04  0.50400001928E-02 0. -1.
       -1    1    3    3    0  502  0.58008541937E+03  0.29449009906E+03 -0.21330063011E+03  0.68463177770E+03  0.50400001928E-02 0.  1.
</event>
<event>
 5   0  0.3837251E-04  0.1517162E+04  0.7818609E-02  0.8873120E-01
        1   -1    0    0  501    0  0.00000000000E+00  0.00000000000E+00  0.16065216499E+04  0.16065216499E+04  0.50400001928E-02 0.  1.
       -1   -1    0    0    0  501  0.00000000000E+00  0.00000000000E+00 -0.35819311700E+03  0.35819311704E+03  0.50400001928E-02 0. -1.
    10030    2    1    2    0    0  0.00000000000E+00  0.00000000000E+00  0.12483285329E+04  0.19647147669E+04  0.15171618204E+04 0.  0.
        4    1    3    3  502    0 -0.10764888194E+03 -0.55332358418E+03 -0.33213176279E+02  0.56467689751E+03  0.12699999809E+01 0. -1.
       -4    1    3    3    0  502  0.10764888194E+03  0.55332358418E+03  0.12815417092E+04  0.14000378694E+04  0.12699999809E+01 0.  1.
</event>
<event>
 5   0  0.7553070E-04  0.1605185E+04  0.7818609E-02  0.8817369E-01
        2   -1    0    0  501    0  0.00000000000E+00  0.00000000000E+00  0.14283750381E+04  0.14283750381E+04  0.25500000920E-02 0.  1.
       -2   -1    0    0    0  501  0.00000000000E+00  0.00000000000E+00 -0.45097008249E+03  0.45097008249E+03  0.25500000920E-02 0. -1.
    10030    2    1    2    0    0  0.00000000000E+00  0.00000000000E+00  0.97740495563E+03  0.18793451206E+04  0.16051846109E+04 0.  0.
        4    1    3    3  502    0  0.21285604248E+03 -0.15405207562E+03  0.13765904399E+04  0.14014430380E+04  0.12699999809E+01 0.  1.
       -4    1    3    3    0  502 -0.21285604248E+03  0.15405207562E+03 -0.39918548423E+03  0.47790208259E+03  0.12699999809E+01 0. -1.
</event>
<event>
 5   0  0.7553070E-04  0.1597026E+04  0.7818609E-02  0.8822377E-01
       -2   -1    0    0    0  501  0.00000000000E+00  0.00000000000E+00  0.12560672586E+04  0.12560672586E+04  0.25500000920E-02 0. -1.
        2   -1    0    0  501    0  0.00000000000E+00  0.00000000000E+00 -0.50763433038E+03  0.50763433039E+03  0.25500000920E-02 0.  1.
    10030    2    1    2    0    0  0.00000000000E+00  0.00000000000E+00  0.74843292825E+03  0.17637015890E+04  0.15970258129E+04 0.  0.
        4    1    3    3  502    0  0.60377579819E+03  0.17542060320E+03 -0.16940068081E+03  0.65116496071E+03  0.12699999809E+01 0.  1.
       -4    1    3    3    0  502 -0.60377579819E+03 -0.17542060320E+03  0.91783360905E+03  0.11125366283E+04  0.12699999809E+01 0. -1.
</event>
<event>
 5   0  0.4110803E-04  0.1583386E+04  0.7818609E-02  0.8830820E-01
       -1   -1    0    0    0  501  0.00000000000E+00  0.00000000000E+00  0.48077665715E+03  0.48077665718E+03  0.50400001928E-02 0.  1.
        1   -1    0    0  501    0  0.00000000000E+00  0.00000000000E+00 -0.13036776370E+04  0.13036776370E+04  0.50400001928E-02 0. -1.
    10030    2    1    2    0    0  0.00000000000E+00  0.00000000000E+00 -0.82290097988E+03  0.17844542942E+04  0.15833859623E+04 0.  0.
        5    1    3    3  502    0  0.36165825397E+03 -0.60794417539E+03 -0.10834402942E+02  0.70748306506E+03  0.46999998093E+01 0.  1.
       -5    1    3    3    0  502 -0.36165825397E+03  0.60794417539E+03 -0.81206657694E+03  0.10769712292E+04  0.46999998093E+01 0. -1.
</event>
<event>
 5   0  0.7770905E-04  0.1620062E+04  0.7818609E-02  0.8808317E-01
       -2   -1    0    0    0  501  0.00000000000E+00  0.00000000000E+00  0.29429429426E+03  0.29429429427E+03  0.25500000920E-02 0. -1.
        2   -1    0    0  501    0  0.00000000000E+00  0.00000000000E+00 -0.22295706054E+04  0.22295706054E+04  0.25500000920E-02 0.  1.
    10030    2    1    2    0    0  0.00000000000E+00  0.00000000000E+00 -0.19352763112E+04  0.25238648997E+04  0.16200616134E+04 0.  0.
        2    1    3    3  502    0 -0.76612301109E+03  0.17890831970E+03 -0.12681004681E+04  0.14923241780E+04  0.25500000920E-02 0. -1.
       -2    1    3    3    0  502  0.76612301109E+03 -0.17890831970E+03 -0.66717584309E+03  0.10315407217E+04  0.25500000920E-02 0.  1.
</event>
<event>
 5   0  0.4110803E-04  0.1591612E+04  0.7818609E-02  0.8825718E-01
        1   -1    0    0  501    0  0.00000000000E+00  0.00000000000E+00  0.11087554089E+04  0.11087554089E+04  0.50400001928E-02 0.  1.
       -1   -1    0    0    0  501  0.00000000000E+00  0.00000000000E+00 -0.57118746171E+03  0.57118746173E+03  0.50400001928E-02 0. -1.
    10030    2    1    2    0    0  0.00000000000E+00  0.00000000000E+00  0.53756794715E+03  0.16799428706E+04  0.15916119975E+04 0.  0.
        5    1    3    3  502    0 -0.31089574925E+03 -0.35744801686E+03 -0.40612396915E+03  0.62400642623E+03  0.46999998093E+01 0. -1.
       -5    1    3    3    0  502  0.31089574925E+03  0.35744801686E+03  0.94369191630E+03  0.10559364444E+04  0.46999998093E+01 0.  1.
</event>
<event>
 5   0  0.7395088E-04  0.1609737E+04  0.7818609E-02  0.8814589E-01
       -2   -1    0    0    0  501  0.00000000000E+00  0.00000000000E+00  0.40707682469E+03  0.40707682470E+03  0.25500000920E-02 0. -1.
        2   -1    0    0  501    0  0.00000000000E+00  0.00000000000E+00 -0.15913778777E+04  0.15913778777E+04  0.25500000920E-02 0.  1.
    10030    2    1    2    0    0  0.00000000000E+00  0.00000000000E+00 -0.11843010530E+04  0.19984547024E+04  0.16097366907E+04 0.  0.
        1    1    3    3  502    0  0.21756465596E+03  0.11308395853E+03  0.35957972081E+03  0.43522400766E+03  0.50400001928E-02 0. -1.
       -1    1    3    3    0  502 -0.21756465596E+03 -0.11308395853E+03 -0.15438807738E+04  0.15632306947E+04  0.50400001928E-02 0.  1.
</event>
<event>
 5   0  0.7553070E-04  0.1614249E+04  0.7818609E-02  0.8811842E-01
        2   -1    0    0  501    0  0.00000000000E+00  0.00000000000E+00  0.76722283288E+03  0.76722283288E+03  0.25500000920E-02 0.  1.
       -2   -1    0    0    0  501  0.00000000000E+00  0.00000000000E+00 -0.84910185990E+03  0.84910185990E+03  0.25500000920E-02 0. -1.
    10030    2    1    2    0    0  0.00000000000E+00  0.00000000000E+00 -0.81879027021E+02  0.16163246928E+04  0.16142494657E+04 0.  0.
        4    1    3    3  502    0 -0.95962877327E+02  0.72890502865E+03  0.29256119870E+03  0.79126802191E+03  0.12699999809E+01 0. -1.
       -4    1    3    3    0  502  0.95962877327E+02 -0.72890502865E+03 -0.37444022572E+03  0.82505667087E+03  0.12699999809E+01 0.  1.
</event>
<event>
 5   0  0.3973227E-04  0.1577425E+04  0.7818609E-02  0.8834538E-01
        1   -1    0    0  501    0  0.00000000000E+00  0.00000000000E+00  0.14752493485E+04  0.14752493485E+04  0.50400001928E-02 0. -1.
       -1   -1    0    0    0  501  0.00000000000E+00  0.00000000000E+00 -0.42166950645E+03  0.42166950648E+03  0.50400001928E-02 0.  1.
    10030    2    1    2    0    0  0.00000000000E+00  0.00000000000E+00  0.10535798421E+04  0.18969188550E+04  0.15774253259E+04 0.  0.
        3    1    3    3  502    0  0.64774345731E+03 -0.21134615193E+03  0.49048199091E+02  0.68311384004E+03  0.10100000352E+00 0.  1.
       -3    1    3    3    0  502 -0.64774345731E+03  0.21134615193E+03  0.10045316430E+04  0.12138050150E+04  0.10100000352E+00 0. -1.
</event>
<event>
 5   0  0.7553070E-04  0.1597125E+04  0.7818609E-02  0.8822316E-01
        2   -1    0    0  501    0  0.00000000000E+00  0.00000000000E+00  0.23742324026E+04  0.23742324026E+04  0.25500000920E-02 0. -1.
       -2   -1    0    0    0  501  0.00000000000E+00  0.00000000000E+00 -0.26859305151E+03  0.26859305152E+03  0.25500000920E-02 0.  1.
    10030    2    1    2    0    0  0.00000000000E+00  0.00000000000E+00  0.21056393511E+04  0.26428254541E+04  0.15971253251E+04 0.  0.
        4    1    3    3  502    0  0.10010391581E+03  0.64939314533E+02  0.23593959244E+04  0.23624116173E+04  0.12699999809E+01 0. -1.
       -4    1    3    3    0  502 -0.10010391581E+03 -0.64939314533E+02 -0.25375657327E+03  0.28041383687E+03  0.12699999809E+01 0.  1.
</event>
<event>
 5   0  0.7415102E-04  0.1561977E+04  0.7818609E-02  0.8844253E-01
       -2   -1    0    0    0  501  0.00000000000E+00  0.00000000000E+00  0.42304885994E+03  0.42304885994E+03  0.25500000920E-02 0. -1.
        2   -1    0    0  501    0  0.00000000000E+00  0.00000000000E+00 -0.14417798977E+04  0.14417798977E+04  0.25500000920E-02 0.  1.
    10030    2    1    2    0    0  0.00000000000E+00  0.00000000000E+00 -0.10187310378E+04  0.18648287577E+04  0.15619773904E+04 0.  0.
        5    1    3    3  502    0 -0.41282735207E+03  0.38389061057E+02 -0.12995195045E+04  0.13640649454E+04  0.46999998093E+01 0.  1.
       -5    1    3    3    0  502  0.41282735207E+03 -0.38389061057E+02  0.28078846674E+03  0.50076381227E+03  0.46999998093E+01 0. -1.
</event>
<event>
 5   0  0.7395088E-04  0.1587885E+04  0.7818609E-02  0.8828026E-01
        2   -1    0    0  501    0  0.00000000000E+00  0.00000000000E+00  0.93314203981E+03  0.93314203982E+03  0.25500000920E-02 0. -1.
       -2   -1    0    0    0  501  0.00000000000E+00  0.00000000000E+00 -0.67550753101E+03  0.67550753102E+03  0.25500000920E-02 0.  1.
    10030    2    1    2    0    0  0.00000000000E+00  0.00000000000E+00  0.25763450880E+03  0.16086495708E+04  0.15878847255E+04 0.  0.
        1    1    3    3  502    0 -0.17406115718E+03 -0.39182931834E+03 -0.54814033721E+03  0.69590612187E+03  0.50400001928E-02 0.  1.
       -1    1    3    3    0  502  0.17406115718E+03  0.39182931834E+03  0.80577484601E+03  0.91274344897E+03  0.50400001928E-02 0. -1.
</event>
<event>
 5   0  0.3837251E-04  0.1742644E+04  0.7818609E-02  0.8737410E-01
       -1   -1    0    0    0  501  0.00000000000E+00  0.00000000000E+00  0.75168066571E+03  0.75168066573E+03  0.50400001928E-02 0. -1.
        1   -1    0    0  501    0  0.00000000000E+00  0.00000000000E+00 -0.10100061025E+04  0.10100061025E+04  0.50400001928E-02 0.  1.
    10030    2    1    2    0    0  0.00000000000E+00  0.00000000000E+00 -0.25832543676E+03  0.17616867682E+04  0.17426440365E+04 0.  0.
        4    1    3    3  502    0 -0.51552280991E+03 -0.12418097661E+03 -0.82810468486E+03  0.98333293674E+03  0.12699999809E+01 0.  1.
       -4    1    3    3    0  502  0.51552280991E+03  0.12418097661E+03  0.56977924810E+03  0.77835383147E+03  0.12699999809E+01 0. -1.
</event>
<event>
 5   0  0.7395088E-04  0.1454878E+04  0.7818609E-02  0.8915026E-01
       -2   -1    0    0    0  501  0.00000000000E+00  0.00000000000E+00  0.47052647204E+03  0.47052647204E+03  0.25500000920E-02 0.  1.
        2   -1    0    0  501    0  0.00000000000E+00  0.00000000000E+00 -0.11246282696E+04  0.11246282696E+04  0.25500000920E-02 0. -1.
    10030    2    1    2    0    0  0.00000000000E+00  0.00000000000E+00 -0.65410179754E+03  0.15951547416E+04  0.14548778259E+04 0.  0.
        1    1    3    3  502    0 -0.51366940360E+03 -0.21169766533E+03  0.18779336503E+03  0.58646270612E+03  0.50400001928E-02 0.  1.
       -1    1    3    3    0  502  0.51366940360E+03  0.21169766533E+03 -0.84189516257E+03  0.10086920355E+04  0.50400001928E-02 0. -1.
</event>
<event>
 5   0  0.3950195E-04  0.1609025E+04  0.7818609E-02  0.8815023E-01
        1   -1    0    0  501    0  0.00000000000E+00  0.00000000000E+00  0.17553615823E+04  0.17553615824E+04  0.50400001928E-02 0.  1.
       -1   -1    0    0    0  501  0.00000000000E+00  0.00000000000E+00 -0.36872179098E+03  0.36872179102E+03  0.50400001928E-02 0. -1.
    10030    2    1    2    0    0  0.00000000000E+00  0.00000000000E+00  0.13866397914E+04  0.21240833734E+04  0.16090246319E+04 0.  0.
        2    1    3    3  502    0  0.43940565692E+03  0.28262371083E+03  0.15009471957E+04  0.15892752994E+04  0.25500000920E-02 0.  1.
       -2    1    3    3    0  502 -0.43940565692E+03 -0.28262371083E+03 -0.11430740430E+03  0.53480807393E+03  0.25500000920E-02 0. -1.
</event>
<event>
 5   0  0.7488884E-04  0.1578004E+04  0.7818609E-02  0.8834176E-01
       -2   -1    0    0    0  501  0.00000000000E+00  0.00000000000E+00  0.50971920660E+03  0.50971920661E+03  0.25500000920E-02 0.  1.
        2   -1    0    0  501    0  0.00000000000E+00  0.00000000000E+00 -0.12213081238E+04  0.12213081238E+04  0.25500000920E-02 0. -1.
    10030    2    1    2    0    0  0.00000000000E+00  0.00000000000E+00 -0.71158891719E+03  0.17310273304E+04  0.15780040657E+04 0.  0.
        3    1    3    3  502    0 -0.67049877112E+03 -0.11819100917E+03 -0.79319156466E+03  0.10453184133E+04  0.10100000352E+00 0. -1.
       -3    1    3    3    0  502  0.67049877112E+03  0.11819100917E+03  0.81602647468E+02  0.68570891711E+03  0.10100000352E+00 0.  1.
</event>
<event>
 5   0  0.3837251E-04  0.1538664E+04  0.7818609E-02  0.8859141E-01
       -1   -1    0    0    0  501  0.00000000000E+00  0.00000000000E+00  0.10995646205E+04  0.10995646205E+04  0.50400001928E-02 0. -1.
        1   -1    0    0  501    0  0.00000000000E+00  0.00000000000E+00 -0.53827814887E+03  0.53827814889E+03  0.50400001928E-02 0.  1.
    10030    2    1    2    0    0  0.00000000000E+00  0.00000000000E+00  0.56128647164E+03  0.16378427694E+04  0.15386638470E+04 0.  0.
        4    1    3    3  502    0 -0.83236990057E+02  0.40859546148E+02 -0.53230718174E+03  0.54032439114E+03  0.12699999809E+01 0.  1.
       -4    1    3    3    0  502  0.83236990057E+02 -0.40859546148E+02  0.10935936534E+04  0.10975183783E+04  0.12699999809E+01 0. -1.
</event>
<event>
 5   0  0.3837251E-04  0.1582349E+04  0.7818609E-02  0.8831466E-01
        1   -1    0    0  501    0  0.00000000000E+00  0.00000000000E+00  0.87125683584E+03  0.87125683585E+03  0.50400001928E-02 0.  1.
       -1   -1    0    0    0  501  0.00000000000E+00  0.00000000000E+00 -0.71845256728E+03  0.71845256730E+03  0.50400001928E-02 0. -1.
    10030    2    1    2    0    0  0.00000000000E+00  0.00000000000E+00  0.15280426855E+03  0.15897094032E+04  0.15823485210E+04 0.  0.
        4    1    3    3  502    0  0.28189509836E+03 -0.67322295331E+03 -0.23040530011E+03  0.76536410065E+03  0.12699999809E+01 0.  1.
       -4    1    3    3    0  502 -0.28189509836E+03  0.67322295331E+03  0.38320956866E+03  0.82434530250E+03  0.12699999809E+01 0. -1.
</event>
<event>
 5   0  0.7395088E-04  0.1599940E+04  0.7818609E-02  0.8820585E-01
        2   -1    0    0  501    0  0.00000000000E+00  0.00000000000E+00  0.63264795200E+03  0.63264795201E+03  0.25500000920E-02 0.  1.
       -2   -1    0    0    0  501  0.00000000000E+00  0.00000000000E+00 -0.10115448499E+04  0.10115448499E+04  0.25500000920E-02 0. -1.
    10030    2    1    2    0    0  0.00000000000E+00  0.00000000000E+00 -0.37889689791E+03  0.16441928019E+04  0.15999397209E+04 0.  0.
        1    1    3    3  502    0  0.14979781188E+03 -0.75445224167E+03  0.36436115731E+02  0.77004231050E+03  0.50400001928E-02 0.  1.
       -1    1    3    3    0  502 -0.14979781188E+03  0.75445224167E+03 -0.41533301364E+03  0.87415049142E+03  0.50400001928E-02 0. -1.
</event>
<event>
 5   0  0.7553070E-04  0.1555757E+04  0.7818609E-02  0.8848199E-01
        2   -1    0    0  501    0  0.00000000000E+00  0.00000000000E+00  0.65597070760E+03  0.65597070760E+03  0.25500000920E-02 0.  1.
       -2   -1    0    0    0  501  0.00000000000E+00  0.00000000000E+00 -0.92244242829E+03  0.92244242830E+03  0.25500000920E-02 0. -1.
    10030    2    1    2    0    0  0.00000000000E+00  0.00000000000E+00 -0.26647172069E+03  0.15784131359E+04  0.15557573235E+04 0.  0.
        4    1    3    3  502    0  0.68916021844E+03  0.34434323112E+03 -0.24241114583E+03  0.80763781736E+03  0.12699999809E+01 0. -1.
       -4    1    3    3    0  502 -0.68916021844E+03 -0.34434323112E+03 -0.24060574864E+02  0.77077531854E+03  0.12699999809E+01 0.  1.
</event>
<event>
 5   0  0.4110803E-04  0.1494046E+04  0.7818609E-02  0.8888422E-01
        1   -1    0    0  501    0  0.00000000000E+00  0.00000000000E+00  0.14530750658E+04  0.14530750658E+04  0.50400001928E-02 0. -1.
       -1   -1    0    0    0  501  0.00000000000E+00  0.00000000000E+00 -0.38404307644E+03  0.38404307648E+03  0.50400001928E-02 0.  1.
    10030    2    1    2    0    0  0.00000000000E+00  0.00000000000E+00  0.10690319893E+04  0.18371181423E+04  0.14940460751E+04 0.  0.
        5    1    3    3  502    0  0.22300896602E+03  0.35474138748E+03  0.12949449666E+04  0.13610580471E+04  0.46999998093E+01 0. -1.
       -5    1    3    3    0  502 -0.22300896602E+03 -0.35474138748E+03 -0.22591297730E+03  0.47606009518E+03  0.46999998093E+01 0.  1.
</event>
<event>
 5   0  0.7395088E-04  0.1611765E+04  0.7818609E-02  0.8813353E-01
       -2   -1    0    0    0  501  0.00000000000E+00  0.00000000000E+00  0.67834163677E+03  0.67834163678E+03  0.25500000920E-02 0.  1.
        2   -1    0    0  501    0  0.00000000000E+00  0.00000000000E+00 -0.95740329313E+03  0.95740329313E+03  0.25500000920E-02 0. -1.
    10030    2    1    2    0    0  0.00000000000E+00  0.00000000000E+00 -0.27906165635E+03  0.16357449299E+04  0.16117648922E+04 0.  0.
        1    1    3    3  502    0  0.30582835661E+03  0.64500124070E+03 -0.51911279301E+03  0.88262997689E+03  0.50400001928E-02 0.  1.
       -1    1    3    3    0  502 -0.30582835661E+03 -0.64500124070E+03  0.24005113666E+03  0.75311495301E+03  0.50400001928E-02 0. -1.
</event>
<event>
 5   0  0.7488884E-04  0.1544311E+04  0.7818609E-02  0.8855510E-01
        2   -1    0    0  501    0  0.00000000000E+00  0.00000000000E+00  0.49898554162E+03  0.49898554163E+03  0.25500000920E-02 0.  1.
       -2   -1    0    0    0  501  0.00000000000E+00  0.00000000000E+00 -0.11948730016E+04  0.11948730016E+04  0.25500000920E-02 0. -1.
    10030    2    1    2    0    0  0.00000000000E+00  0.00000000000E+00 -0.69588746001E+03  0.16938585433E+04  0.15443113053E+04 0.  0.
        3    1    3    3  502    0 -0.60452578101E+03 -0.20178128394E+03  0.13022865532E+03  0.65048183628E+03  0.10100000352E+00 0. -1.
       -3    1    3    3    0  502  0.60452578101E+03  0.20178128394E+03 -0.82611611533E+03  0.10433767070E+04  0.10100000352E+00 0.  1.
</event>
<event>
 5   0  0.3889847E-04  0.1502789E+04  0.7818609E-02  0.8882600E-01
        1   -1    0    0  501    0  0.00000000000E+00  0.00000000000E+00  0.76413419572E+03  0.76413419573E+03  0.50400001928E-02 0.  1.
       -1   -1    0    0    0  501  0.00000000000E+00  0.00000000000E+00 -0.73886708397E+03  0.73886708399E+03  0.50400001928E-02 0. -1.
    10030    2    1    2    0    0  0.00000000000E+00  0.00000000000E+00  0.25267111748E+02  0.15030012797E+04  0.15027888807E+04 0.  0.
        1    1    3    3  502    0 -0.17873186200E+03  0.36557417444E+03 -0.61912339513E+03  0.74088010767E+03  0.50400001928E-02 0. -1.
       -1    1    3    3    0  502  0.17873186200E+03 -0.36557417444E+03  0.64439050688E+03  0.76212117205E+03  0.50400001928E-02 0.  1.
</event>
<event>
 5   0  0.3837251E-04  0.1605540E+04  0.7818609E-02  0.8817152E-01
        1   -1    0    0  501    0  0.00000000000E+00  0.00000000000E+00  0.87591375561E+03  0.87591375563E+03  0.50400001928E-02 0. -1.
       -1   -1    0    0    0  501  0.00000000000E+00  0.00000000000E+00 -0.73573387831E+03  0.73573387833E+03  0.50400001928E-02 0.  1.
    10030    2    1    2    0    0  0.00000000000E+00  0.00000000000E+00  0.14017987731E+03  0.16116476340E+04  0.16055396906E+04 0.  0.
        4    1    3    3  502    0 -0.15669549515E+03 -0.32403118513E+03 -0.65019691172E+03  0.74317381819E+03  0.12699999809E+01 0.  1.
       -4    1    3    3    0  502  0.15669549515E+03  0.32403118513E+03  0.79037678903E+03  0.86847381576E+03  0.12699999809E+01 0. -1.
</event>
<event>
 5   0  0.3973227E-04  0.1590087E+04  0.7818609E-02  0.8826661E-01
       -1   -1    0    0    0  501  0.00000000000E+00  0.00000000000E+00  0.93242181207E+03  0.93242181209E+03  0.50400001928E-02 0.  1.
        1   -1    0    0  501    0  0.00000000000E+00  0.00000000000E+00 -0.67790559592E+03  0.67790559594E+03  0.50400001928E-02 0. -1.
    10030    2    1    2    0    0  0.00000000000E+00  0.00000000000E+00  0.25451621615E+03  0.16103274080E+04  0.15900867450E+04 0.  0.
        3    1    3    3  502    0 -0.14687472473E+03 -0.33684303779E+02  0.91782752341E+03  0.93011514879E+03  0.10100000352E+00 0.  1.
       -3    1    3    3    0  502  0.14687472473E+03  0.33684303779E+02 -0.66331130725E+03  0.68021225924E+03  0.10100000352E+00 0. -1.
</event>
<event>
 5   0  0.4110803E-04  0.1665539E+04  0.7818609E-02  0.8781266E-01
       -1   -1    0    0    0  501  0.00000000000E+00  0.00000000000E+00  0.14947308779E+04  0.14947308779E+04  0.50400001928E-02 0. -1.
        1   -1    0    0  501    0  0.00000000000E+00  0.00000000000E+00 -0.46396663865E+03  0.46396663868E+03  0.50400001928E-02 0.  1.
    10030    2    1    2    0    0  0.00000000000E+00  0.00000000000E+00  0.10307642393E+04  0.19586975166E+04  0.16655392654E+04 0.  0.
        5    1    3    3  502    0  0.45809063825E+03  0.64099897666E+03  0.19817111319E+03  0.81241651942E+03  0.46999998093E+01 0.  1.
       -5    1    3    3    0  502 -0.45809063825E+03 -0.64099897666E+03  0.83259312608E+03  0.11462809972E+04  0.46999998093E+01 0. -1.
</event>
<event>
 5   0  0.3973227E-04  0.1583273E+04  0.7818609E-02  0.8830890E-01
       -1   -1    0    0    0  501  0.00000000000E+00  0.00000000000E+00  0.32035325576E+03  0.32035325580E+03  0.50400001928E-02 0.  1.
        1   -1    0    0  501    0  0.00000000000E+00  0.00000000000E+00 -0.19562420520E+04  0.19562420520E+04  0.50400001928E-02 0. -1.
    10030    2    1    2    0    0  0.00000000000E+00  0.00000000000E+00 -0.16358887962E+04  0.22765953078E+04  0.15832732051E+04 0.  0.
        3    1    3    3  502    0  0.10365568834E+03 -0.10812480176E+03 -0.19356807906E+04  0.19414673852E+04  0.10100000352E+00 0. -1.
       -3    1    3    3    0  502 -0.10365568834E+03  0.10812480176E+03  0.29979199432E+03  0.33512792265E+03  0.10100000352E+00 0.  1.
</event>
<event>
 5   0  0.7553070E-04  0.1620114E+04  0.7818609E-02  0.8808286E-01
       -2   -1    0    0    0  501  0.00000000000E+00  0.00000000000E+00  0.56776169194E+03  0.56776169195E+03  0.25500000920E-02 0.  1.
        2   -1    0    0  501    0  0.00000000000E+00  0.00000000000E+00 -0.11557532054E+04  0.11557532054E+04  0.25500000920E-02 0. -1.
    10030    2    1    2    0    0  0.00000000000E+00  0.00000000000E+00 -0.58799151346E+03  0.17235148974E+04  0.16201140644E+04 0.  0.
        4    1    3    3  502    0  0.23638235287E+03  0.44051540579E+03 -0.97206128303E+03  0.10930851707E+04  0.12699999809E+01 0. -1.
       -4    1    3    3    0  502 -0.23638235287E+03 -0.44051540579E+03  0.38406976957E+03  0.63042972668E+03  0.12699999809E+01 0.  1.
</event>
<event>
 5   0  0.7395088E-04  0.1624965E+04  0.7818609E-02  0.8805356E-01
        2   -1    0    0  501    0  0.00000000000E+00  0.00000000000E+00  0.75520032815E+03  0.75520032816E+03  0.25500000920E-02 0. -1.
       -2   -1    0    0    0  501  0.00000000000E+00  0.00000000000E+00 -0.87410986457E+03  0.87410986458E+03  0.25500000920E-02 0.  1.
    10030    2    1    2    0    0  0.00000000000E+00  0.00000000000E+00 -0.11890953642E+03  0.16293101927E+04  0.16249653000E+04 0.  0.
        1    1    3    3  502    0  0.26322568799E+03 -0.51941351066E+03 -0.62758245134E+03  0.85611791893E+03  0.50400001928E-02 0.  1.
       -1    1    3    3    0  502 -0.26322568799E+03  0.51941351066E+03  0.50867291492E+03  0.77319227380E+03  0.50400001928E-02 0. -1.
</event>
<event>
 5   0  0.3950195E-04  0.1175551E+04  0.7818609E-02  0.9134530E-01
       -1   -1    0    0    0  501  0.00000000000E+00  0.00000000000E+00  0.65765047416E+03  0.65765047418E+03  0.50400001928E-02 0. -1.
        1   -1    0    0  501    0  0.00000000000E+00  0.00000000000E+00 -0.52532507066E+03  0.52532507069E+03  0.50400001928E-02 0.  1.
    10030    2    1    2    0    0  0.00000000000E+00  0.00000000000E+00  0.13232540350E+03  0.11829755449E+04  0.11755514142E+04 0.  0.
        2    1    3    3  502    0  0.26792167837E+03 -0.64124122845E+02  0.58865884635E+03  0.64993320139E+03  0.25500000920E-02 0. -1.
       -2    1    3    3    0  502 -0.26792167837E+03  0.64124122845E+02 -0.45633344285E+03  0.53304234348E+03  0.25500000920E-02 0.  1.
</event>
<event>
 5   0  0.7415102E-04  0.1582794E+04  0.7818609E-02  0.8831188E-01
       -2   -1    0    0    0  501  0.00000000000E+00  0.00000000000E+00  0.36857097636E+03  0.36857097637E+03  0.25500000920E-02 0. -1.
        2   -1    0    0  501    0  0.00000000000E+00  0.00000000000E+00 -0.16992917096E+04  0.16992917096E+04  0.25500000920E-02 0.  1.
    10030    2    1    2    0    0  0.00000000000E+00  0.00000000000E+00 -0.13307207332E+04  0.20678626860E+04  0.15827944965E+04 0.  0.
        5    1    3    3  502    0 -0.21420156626E+03  0.14049253378E+03 -0.16436099744E+04  0.16634591372E+04  0.46999998093E+01 0.  1.
       -5    1    3    3    0  502  0.21420156626E+03 -0.14049253378E+03  0.31288924118E+03  0.40440354880E+03  0.46999998093E+01 0. -1.
</event>
<event>
 5   0  0.3950195E-04  0.1538174E+04  0.7818609E-02  0.8859457E-01
       -1   -1    0    0    0  501  0.00000000000E+00  0.00000000000E+00  0.39515007624E+03  0.39515007627E+03  0.50400001928E-02 0. -1.
        1   -1    0    0  501    0  0.00000000000E+00  0.00000000000E+00 -0.14968859411E+04  0.14968859411E+04  0.50400001928E-02 0.  1.
    10030    2    1    2    0    0  0.00000000000E+00  0.00000000000E+00 -0.11017358649E+04  0.18920360174E+04  0.15381737142E+04 0.  0.
        2    1    3    3  502    0  0.67283509049E+03 -0.26558964592E+03 -0.87221497487E+03  0.11331389506E+04  0.25500000920E-02 0. -1.
       -2    1    3    3    0  502 -0.67283509049E+03  0.26558964592E+03 -0.22952089003E+03  0.75889706679E+03  0.25500000920E-02 0.  1.
</event>
<event>
 5   0  0.7770905E-04  0.1606602E+04  0.7818609E-02  0.8816502E-01
       -2   -1    0    0    0  501  0.00000000000E+00  0.00000000000E+00  0.33648345989E+03  0.33648345990E+03  0.25500000920E-02 0.  1.
        2   -1    0    0  501    0  0.00000000000E+00  0.00000000000E+00 -0.19177539668E+04  0.19177539668E+04  0.25500000920E-02 0. -1.
    10030    2    1    2    0    0  0.00000000000E+00  0.00000000000E+00 -0.15812705069E+04  0.22542374267E+04  0.16066019918E+04 0.  0.
        2    1    3    3  502    0 -0.60149484212E+03 -0.52256296961E+03 -0.64737799624E+03  0.10266286438E+04  0.25500000920E-02 0.  1.
       -2    1    3    3    0  502  0.60149484212E+03  0.52256296961E+03 -0.93389251067E+03  0.12276087829E+04  0.25500000920E-02 0. -1.
</event>
<event>
 5   0  0.7488884E-04  0.1675696E+04  0.7818609E-02  0.8775349E-01
       -2   -1    0    0    0  501  0.00000000000E+00  0.00000000000E+00  0.48231194091E+03  0.48231194092E+03  0.25500000920E-02 0.  1.
        2   -1    0    0  501    0  0.00000000000E+00  0.00000000000E+00 -0.14554668403E+04  0.14554668403E+04  0.25500000920E-02 0. -1.
    10030    2    1    2    0    0  0.00000000000E+00  0.00000000000E+00 -0.97315489944E+03  0.19377787813E+04  0.16756957202E+04 0.  0.
        3    1    3    3  502    0  0.78896065132E+03 -0.14768206836E+03 -0.20875159265E+03  0.82936490176E+03  0.10100000352E+00 0. -1.
       -3    1    3    3    0  502 -0.78896065132E+03  0.14768206836E+03 -0.76440330679E+03  0.11084138795E+04  0.10100000352E+00 0.  1.
</event>
<event>
 5   0  0.2781000E-04  0.1568941E+04  0.7818609E-02  0.8839859E-01
       -3   -1    0    0    0  501  0.00000000000E+00  0.00000000000E+00  0.20232932983E+04  0.20232933008E+04  0.10100000352E+00 0. -1.
        3   -1    0    0  501    0  0.00000000000E+00  0.00000000000E+00 -0.30415461744E+03  0.30415463421E+03  0.10100000352E+00 0.  1.
    10030    2    1    2    0    0  0.00000000000E+00  0.00000000000E+00  0.17191386808E+04  0.23274479350E+04  0.15689410716E+04 0.  0.
        3    1    3    3  502    0 -0.61328150403E+03  0.30837374250E+03  0.14228619466E+04  0.15797926122E+04  0.10100000352E+00 0. -1.
       -3    1    3    3    0  502  0.61328150403E+03 -0.30837374250E+03  0.29627673418E+03  0.74765532277E+03  0.10100000352E+00 0.  1.
</event>
<event>
 5   0  0.7395088E-04  0.1601145E+04  0.7818609E-02  0.8819845E-01
       -2   -1    0    0    0  501  0.00000000000E+00  0.00000000000E+00  0.80602215893E+03  0.80602215894E+03  0.25500000920E-02 0.  1.
        2   -1    0    0  501    0  0.00000000000E+00  0.00000000000E+00 -0.79515950217E+03  0.79515950218E+03  0.25500000920E-02 0. -1.
    10030    2    1    2    0    0  0.00000000000E+00  0.00000000000E+00  0.10862656758E+02  0.16011816611E+04  0.16011448137E+04 0.  0.
        1    1    3    3  502    0  0.18831172909E+03 -0.47102723950E+03 -0.61392791011E+03  0.79638900451E+03  0.50400001928E-02 0. -1.
       -1    1    3    3    0  502 -0.18831172909E+03  0.47102723950E+03  0.62479056687E+03  0.80479265661E+03  0.50400001928E-02 0.  1.
</event>
<event>
 5   0  0.7553070E-04  0.1566418E+04  0.7818609E-02  0.8841448E-01
        2   -1    0    0  501    0  0.00000000000E+00  0.00000000000E+00  0.11254730784E+04  0.11254730784E+04  0.25500000920E-02 0.  1.
       -2   -1    0    0    0  501  0.00000000000E+00  0.00000000000E+00 -0.54502988580E+03  0.54502988581E+03  0.25500000920E-02 0. -1.
    10030    2    1    2    0    0  0.00000000000E+00  0.00000000000E+00  0.58044319256E+03  0.16705029642E+04  0.15664181605E+04 0.  0.
        4    1    3    3  502    0  0.30847640659E+03  0.25659439781E+03  0.10075346685E+04  0.10844934761E+04  0.12699999809E+01 0.  1.
       -4    1    3    3    0  502 -0.30847640659E+03 -0.25659439781E+03 -0.42709147597E+03  0.58600948811E+03  0.12699999809E+01 0. -1.
</event>
<event>
 5   0  0.4110803E-04  0.1593595E+04  0.7818609E-02  0.8824493E-01
       -1   -1    0    0    0  501  0.00000000000E+00  0.00000000000E+00  0.67288286711E+03  0.67288286713E+03  0.50400001928E-02 0. -1.
        1   -1    0    0  501    0  0.00000000000E+00  0.00000000000E+00 -0.94353121771E+03  0.94353121772E+03  0.50400001928E-02 0.  1.
    10030    2    1    2    0    0  0.00000000000E+00  0.00000000000E+00 -0.27064835060E+03  0.16164140848E+04  0.15935946674E+04 0.  0.
        5    1    3    3  502    0 -0.54237943745E+03  0.51314987266E+03 -0.41745391080E+03  0.85544614303E+03  0.46999998093E+01 0.  1.
       -5    1    3    3    0  502  0.54237943745E+03 -0.51314987266E+03  0.14680556020E+03  0.76096794182E+03  0.46999998093E+01 0. -1.
</event>
<event>
 5   0  0.3837251E-04  0.1587584E+04  0.7818609E-02  0.8828212E-01
        1   -1    0    0  501    0  0.00000000000E+00  0.00000000000E+00  0.14040277100E+04  0.14040277100E+04  0.50400001928E-02 0. -1.
       -1   -1    0    0    0  501  0.00000000000E+00  0.00000000000E+00 -0.44878433786E+03  0.44878433789E+03  0.50400001928E-02 0.  1.
    10030    2    1    2    0    0  0.00000000000E+00  0.00000000000E+00  0.95524337214E+03  0.18528120479E+04  0.15875838828E+04 0.  0.
        4    1    3    3  502    0 -0.17926760480E+03 -0.18775172323E+03  0.13530881012E+04  0.13777650765E+04  0.12699999809E+01 0. -1.
       -4    1    3    3    0  502  0.17926760480E+03  0.18775172323E+03 -0.39784472901E+03  0.47504697137E+03  0.12699999809E+01 0.  1.
</event>
<event>
 5   0  0.4110803E-04  0.1543876E+04  0.7818609E-02  0.8855789E-01
        1   -1    0    0  501    0  0.00000000000E+00  0.00000000000E+00  0.58635928484E+03  0.58635928486E+03  0.50400001928E-02 0. -1.
       -1   -1    0    0    0  501  0.00000000000E+00  0.00000000000E+00 -0.10162505978E+04  0.10162505978E+04  0.50400001928E-02 0.  1.
    10030    2    1    2    0    0  0.00000000000E+00  0.00000000000E+00 -0.42989131300E+03  0.16026098827E+04  0.15438756087E+04 0.  0.
        5    1    3    3  502    0 -0.25654546428E+03  0.57998808842E+03 -0.67176038779E+03  0.92384298804E+03  0.46999998093E+01 0.  1.
       -5    1    3    3    0  502  0.25654546428E+03 -0.57998808842E+03  0.24186907479E+03  0.67876689466E+03  0.46999998093E+01 0. -1.
</event>
<event>
 5   0  0.7488884E-04  0.1639392E+04  0.7818609E-02  0.8796707E-01
       -2   -1    0    0    0  501  0.00000000000E+00  0.00000000000E+00  0.45425428946E+03  0.45425428947E+03  0.25500000920E-02 0.  1.
        2   -1    0    0  501    0  0.00000000000E+00  0.00000000000E+00 -0.14791305887E+04  0.14791305887E+04  0.25500000920E-02 0. -1.
    10030    2    1    2    0    0  0.00000000000E+00  0.00000000000E+00 -0.10248762993E+04  0.19333848782E+04  0.16393918563E+04 0.  0.
        3    1    3    3  502    0  0.54283401400E+03  0.51934807630E+03 -0.89912589225E+03  0.11716734065E+04  0.10100000352E+00 0. -1.
       -3    1    3    3    0  502 -0.54283401400E+03 -0.51934807630E+03 -0.12575040702E+03  0.76171147174E+03  0.10100000352E+00 0.  1.
</event>
<event>
 5   0  0.7770905E-04  0.1571818E+04  0.7818609E-02  0.8838051E-01
        2   -1    0    0  501    0  0.00000000000E+00  0.00000000000E+00  0.12295017455E+04  0.12295017455E+04  0.25500000920E-02 0. -1.
       -2   -1    0    0    0  501  0.00000000000E+00  0.00000000000E+00 -0.50236055158E+03  0.50236055159E+03  0.25500000920E-02 0.  1.
    10030    2    1    2    0    0  0.00000000000E+00  0.00000000000E+00  0.72714119388E+03  0.17318622970E+04  0.15718182783E+04 0.  0.
        2    1    3    3  502    0  0.47280944456E+03  0.34541334082E+03  0.94115395054E+03  0.11084357922E+04  0.25500000920E-02 0. -1.
       -2    1    3    3    0  502 -0.47280944456E+03 -0.34541334082E+03 -0.21401275666E+03  0.62342650481E+03  0.25500000920E-02 0.  1.
</event>
<event>
 5   0  0.7415102E-04  0.1615565E+04  0.7818609E-02  0.8811042E-01
       -2   -1    0    0    0  501  0.00000000000E+00  0.00000000000E+00  0.65106920434E+03  0.65106920435E+03  0.25500000920E-02 0.  1.
        2   -1    0    0  501    0  0.00000000000E+00  0.00000000000E+00 -0.10022171443E+04  0.10022171443E+04  0.25500000920E-02 0. -1.
    10030    2    1    2    0    0  0.00000000000E+00  0.00000000000E+00 -0.35114793995E+03  0.16532863486E+04  0.16155651874E+04 0.  0.
        5    1    3    3  502    0 -0.43445465948E+02  0.68817264688E+03  0.25498896055E+03  0.73519423313E+03  0.46999998093E+01 0.  1.
       -5    1    3    3    0  502  0.43445465948E+02 -0.68817264688E+03 -0.60613690049E+03  0.91809211551E+03  0.46999998093E+01 0. -1.
</event>
<event>
 5   0  0.3837251E-04  0.1599765E+04  0.7818609E-02  0.8820692E-01
       -1   -1    0    0    0  501  0.00000000000E+00  0.00000000000E+00  0.69935270540E+03  0.69935270542E+03  0.50400001928E-02 0. -1.
        1   -1    0    0  501    0  0.00000000000E+00  0.00000000000E+00 -0.91486336725E+03  0.91486336726E+03  0.50400001928E-02 0.  1.
    10030    2    1    2    0    0  0.00000000000E+00  0.00000000000E+00 -0.21551066184E+03  0.16142160727E+04  0.15997651965E+04 0.  0.
        4    1    3    3  502    0 -0.43582457752E+03  0.63261301658E+03  0.11712161081E+03  0.77708517920E+03  0.12699999809E+01 0.  1.
       -4    1    3    3    0  502  0.43582457752E+03 -0.63261301658E+03 -0.33263227265E+03  0.83713089348E+03  0.12699999809E+01 0. -1.
</event>
<event>
 5   0  0.3889847E-04  0.1479407E+04  0.7818609E-02  0.8898264E-01
       -1   -1    0    0    0  501  0.00000000000E+00  0.00000000000E+00  0.78905675911E+03  0.78905675912E+03  0.50400001928E-02 0.  1.
        1   -1    0    0  501    0  0.00000000000E+00  0.00000000000E+00 -0.69343705542E+03  0.69343705544E+03  0.50400001928E-02 0. -1.
    10030    2    1    2    0    0  0.00000000000E+00  0.00000000000E+00  0.95619703685E+02  0.14824938146E+04  0.14794069023E+04 0.  0.
        1    1    3    3  502    0 -0.22309590886E+03  0.54694366664E+03 -0.39836298293E+03  0.71246910475E+03  0.50400001928E-02 0. -1.
       -1    1    3    3    0  502  0.22309590886E+03 -0.54694366664E+03  0.49398268662E+03  0.77002470982E+03  0.50400001928E-02 0.  1.
</event>
<event>
 5   0  0.7770905E-04  0.1605981E+04  0.7818609E-02  0.8816882E-01
       -2   -1    0    0    0  501  0.00000000000E+00  0.00000000000E+00  0.57307697907E+03  0.57307697907E+03  0.25500000920E-02 0. -1.
        2   -1    0    0  501    0  0.00000000000E+00  0.00000000000E+00 -0.11251432749E+04  0.11251432749E+04  0.25500000920E-02 0.  1.
    10030    2    1    2    0    0  0.00000000000E+00  0.00000000000E+00 -0.55206629586E+03  0.16982202540E+04  0.16059809576E+04 0.  0.
        2    1    3    3  502    0  0.29783809176E+02  0.32676796002E+03  0.49895143011E+03  0.59717409907E+03  0.25500000920E-02 0. -1.
       -2    1    3    3    0  502 -0.29783809176E+02 -0.32676796002E+03 -0.10510177260E+04  0.11010461549E+04  0.25500000920E-02 0.  1.
</event>
<event>
 5   0  0.2781000E-04  0.1602401E+04  0.7818609E-02  0.8819074E-01
        3   -1    0    0  501    0  0.00000000000E+00  0.00000000000E+00  0.10373877089E+04  0.10373877139E+04  0.10100000352E+00 0.  1.
       -3   -1    0    0    0  501  0.00000000000E+00  0.00000000000E+00 -0.61878735212E+03  0.61878736036E+03  0.10100000352E+00 0. -1.
    10030    2    1    2    0    0  0.00000000000E+00  0.00000000000E+00  0.41860035683E+03  0.16561750742E+04  0.16024012037E+04 0.  0.
        1    1    3    3  502    0  0.39252927078E+03 -0.34959134052E+03 -0.41566431030E+03  0.67012696757E+03  0.50400001928E-02 0. -1.
       -1    1    3    3    0  502 -0.39252927078E+03  0.34959134052E+03  0.83426466712E+03  0.98604810665E+03  0.50400001928E-02 0.  1.
</event>
<event>
 5   0  0.3837251E-04  0.1581299E+04  0.7818609E-02  0.8832120E-01
       -1   -1    0    0    0  501  0.00000000000E+00  0.00000000000E+00  0.54583827553E+03  0.54583827555E+03  0.50400001928E-02 0.  1.
        1   -1    0    0  501    0  0.00000000000E+00  0.00000000000E+00 -0.11452599152E+04  0.11452599152E+04  0.50400001928E-02 0. -1.
    10030    2    1    2    0    0  0.00000000000E+00  0.00000000000E+00 -0.59942163970E+03  0.16910981908E+04  0.15812990826E+04 0.  0.
        4    1    3    3  502    0 -0.31481665001E+03 -0.67694550016E+03 -0.57809376771E+03  0.94422388789E+03  0.12699999809E+01 0. -1.
       -4    1    3    3    0  502  0.31481665001E+03  0.67694550016E+03 -0.21327871989E+02  0.74687430290E+03  0.12699999809E+01 0.  1.
</event>
<event>
 5   0  0.7553070E-04  0.1556277E+04  0.7818609E-02  0.8847868E-01
        2   -1    0    0  501    0  0.00000000000E+00  0.00000000000E+00  0.95445938298E+03  0.95445938299E+03  0.25500000920E-02 0. -1.
       -2   -1    0    0    0  501  0.00000000000E+00  0.00000000000E+00 -0.63438992031E+03  0.63438992031E+03  0.25500000920E-02 0.  1.
    10030    2    1    2    0    0  0.00000000000E+00  0.00000000000E+00  0.32006946267E+03  0.15888493033E+04  0.15562768544E+04 0.  0.
        4    1    3    3  502    0  0.41383709633E+03  0.57373693958E+03 -0.17088288085E+03  0.72776217957E+03  0.12699999809E+01 0.  1.
       -4    1    3    3    0  502 -0.41383709633E+03 -0.57373693958E+03  0.49095234353E+03  0.86108712373E+03  0.12699999809E+01 0. -1.
</event>
<event>
 5   0  0.4110803E-04  0.1567071E+04  0.7818609E-02  0.8841037E-01
       -1   -1    0    0    0  501  0.00000000000E+00  0.00000000000E+00  0.32238787282E+03  0.32238787286E+03  0.50400001928E-02 0. -1.
        1   -1    0    0  501    0  0.00000000000E+00  0.00000000000E+00 -0.19043136928E+04  0.19043136928E+04  0.50400001928E-02 0.  1.
    10030    2    1    2    0    0  0.00000000000E+00  0.00000000000E+00 -0.15819258200E+04  0.22267015657E+04  0.15670706949E+04 0.  0.
        5    1    3    3  502    0 -0.24977159937E+03 -0.73989897861E+03 -0.88160459239E+03  0.11777457696E+04  0.46999998093E+01 0.  1.
       -5    1    3    3    0  502  0.24977159937E+03  0.73989897861E+03 -0.70032122761E+03  0.10489557961E+04  0.46999998093E+01 0. -1.
</event>
<event>
 5   0  0.7415102E-04  0.1543018E+04  0.7818609E-02  0.8856340E-01
        2   -1    0    0  501    0  0.00000000000E+00  0.00000000000E+00  0.84586238051E+03  0.84586238051E+03  0.25500000920E-02 0.  1.
       -2   -1    0    0    0  501  0.00000000000E+00  0.00000000000E+00 -0.70369127247E+03  0.70369127247E+03  0.25500000920E-02 0. -1.
    10030    2    1    2    0    0  0.00000000000E+00  0.00000000000E+00  0.14217110804E+03  0.15495536530E+04  0.15430177898E+04 0.  0.
        5    1    3    3  502    0 -0.62898185904E+03 -0.16001973920E+03  0.48996069365E+03  0.81320850171E+03  0.46999998093E+01 0.  1.
       -5    1    3    3    0  502  0.62898185904E+03  0.16001973920E+03 -0.34778958561E+03  0.73634515127E+03  0.46999998093E+01 0. -1.
</event>
<event>
 5   0  0.7395088E-04  0.1585267E+04  0.7818609E-02  0.8829650E-01
        2   -1    0    0  501    0  0.00000000000E+00  0.00000000000E+00  0.22018008271E+04  0.22018008271E+04  0.25500000920E-02 0.  1.
       -2   -1    0    0    0  501  0.00000000000E+00  0.00000000000E+00 -0.28534279259E+03  0.28534279260E+03  0.25500000920E-02 0. -1.
    10030    2    1    2    0    0  0.00000000000E+00  0.00000000000E+00  0.19164580345E+04  0.24871436197E+04  0.15852671658E+04 0.  0.
        1    1    3    3  502    0  0.61251782676E+03  0.15789320363E+03  0.17076361387E+04  0.18210243090E+04  0.50400001928E-02 0.  1.
       -1    1    3    3    0  502 -0.61251782676E+03 -0.15789320363E+03  0.20882189579E+03  0.66611931066E+03  0.50400001928E-02 0. -1.
</event>
<event>
 5   0  0.3973227E-04  0.1607180E+04  0.7818609E-02  0.8816149E-01
       -1   -1    0    0    0  501  0.00000000000E+00  0.00000000000E+00  0.62622721663E+03  0.62622721665E+03  0.50400001928E-02 0.  1.
        1   -1    0    0  501    0  0.00000000000E+00  0.00000000000E+00 -0.10311866896E+04  0.10311866897E+04  0.50400001928E-02 0. -1.
    10030    2    1    2    0    0  0.00000000000E+00  0.00000000000E+00 -0.40495947302E+03  0.16574139063E+04  0.16071803514E+04 0.  0.
        3    1    3    3  502    0 -0.76799698380E+03 -0.18970308818E+03 -0.56818631783E+02  0.79311726492E+03  0.10100000352E+00 0. -1.
       -3    1    3    3    0  502  0.76799698380E+03  0.18970308818E+03 -0.34814084123E+03  0.86429664139E+03  0.10100000352E+00 0.  1.
</event>
<event>
 5   0  0.3837251E-04  0.1488435E+04  0.7818609E-02  0.8892180E-01
        1   -1    0    0  501    0  0.00000000000E+00  0.00000000000E+00  0.10173807691E+04  0.10173807691E+04  0.50400001928E-02 0. -1.
       -1   -1    0    0    0  501  0.00000000000E+00  0.00000000000E+00 -0.54439778805E+03  0.54439778807E+03  0.50400001928E-02 0.  1.
    10030    2    1    2    0    0  0.00000000000E+00  0.00000000000E+00  0.47298298109E+03  0.15617785572E+04  0.14884352056E+04 0.  0.
        4    1    3    3  502    0  0.15397386011E+03 -0.81166072968E+02 -0.52273914651E+03  0.55095708471E+03  0.12699999809E+01 0.  1.
       -4    1    3    3    0  502 -0.15397386011E+03  0.81166072968E+02  0.99572212760E+03  0.10108214725E+04  0.12699999809E+01 0. -1.
</event>
<event>
 5   0  0.3837251E-04  0.1567070E+04  0.7818609E-02  0.8841037E-01
       -1   -1    0    0    0  501  0.00000000000E+00  0.00000000000E+00  0.53306765133E+03  0.53306765136E+03  0.50400001928E-02 0.  1.
        1   -1    0    0  501    0  0.00000000000E+00  0.00000000000E+00 -0.11516876064E+04  0.11516876064E+04  0.50400001928E-02 0. -1.
    10030    2    1    2    0    0  0.00000000000E+00  0.00000000000E+00 -0.61861995508E+03  0.16847552578E+04  0.15670703972E+04 0.  0.
        4    1    3    3  502    0  0.13478509000E+03 -0.11221948640E+02  0.52042162499E+03  0.53771110577E+03  0.12699999809E+01 0.  1.
       -4    1    3    3    0  502 -0.13478509000E+03  0.11221948640E+02 -0.11390415801E+04  0.11470441520E+04  0.12699999809E+01 0. -1.
</event>
<event>
 5   0  0.3837251E-04  0.1614165E+04  0.7818609E-02  0.8811893E-01
       -1   -1    0    0    0  501  0.00000000000E+00  0.00000000000E+00  0.39707028285E+03  0.39707028288E+03  0.50400001928E-02 0. -1.
        1   -1    0    0  501    0  0.00000000000E+00  0.00000000000E+00 -0.16404705838E+04  0.16404705838E+04  0.50400001928E-02 0.  1.
    10030    2    1    2    0    0  0.00000000000E+00  0.00000000000E+00 -0.12434003010E+04  0.20375408667E+04  0.16141649467E+04 0.  0.
        4    1    3    3  502    0 -0.31930491798E+03  0.73873552464E+03 -0.69842711172E+03  0.10655927221E+04  0.12699999809E+01 0. -1.
       -4    1    3    3    0  502  0.31930491798E+03 -0.73873552464E+03 -0.54497318927E+03  0.97194814468E+03  0.12699999809E+01 0.  1.
</event>
<event>
 5   0  0.3889847E-04  0.1422619E+04  0.7818609E-02  0.8937607E-01
       -1   -1    0    0    0  501  0.00000000000E+00  0.00000000000E+00  0.53499718565E+03  0.53499718567E+03  0.50400001928E-02 0. -1.
        1   -1    0    0  501    0  0.00000000000E+00  0.00000000000E+00 -0.94572695473E+03  0.94572695474E+03  0.50400001928E-02 0.  1.
    10030    2    1    2    0    0  0.00000000000E+00  0.00000000000E+00 -0.41072976908E+03  0.14807241404E+04  0.14226190765E+04 0.  0.
        1    1    3    3  502    0 -0.57288377757E+03  0.30297821974E+03  0.99816521808E+02  0.65570951060E+03  0.50400001928E-02 0. -1.
       -1    1    3    3    0  502  0.57288377757E+03 -0.30297821974E+03 -0.51054629088E+03  0.82501462981E+03  0.50400001928E-02 0.  1.
</event>
<event>
 5   0  0.7415102E-04  0.1610529E+04  0.7818609E-02  0.8814105E-01
       -2   -1    0    0    0  501  0.00000000000E+00  0.00000000000E+00  0.17942613680E+04  0.17942613680E+04  0.25500000920E-02 0. -1.
        2   -1    0    0  501    0  0.00000000000E+00  0.00000000000E+00 -0.36140281586E+03  0.36140281587E+03  0.25500000920E-02 0.  1.
    10030    2    1    2    0    0  0.00000000000E+00  0.00000000000E+00  0.14328585522E+04  0.21556641839E+04  0.16105292432E+04 0.  0.
        5    1    3    3  502    0  0.15548906580E+03  0.43619445441E+03  0.15981897676E+04  0.16639336149E+04  0.46999998093E+01 0. -1.
       -5    1    3    3    0  502 -0.15548906580E+03 -0.43619445441E+03 -0.16533121545E+03  0.49173056895E+03  0.46999998093E+01 0.  1.
</event>
<event>
 5   0  0.7770905E-04  0.1603211E+04  0.7818609E-02  0.8818577E-01
        2   -1    0    0  501    0  0.00000000000E+00  0.00000000000E+00  0.88516446058E+03  0.88516446059E+03  0.25500000920E-02 0.  1.
       -2   -1    0    0    0  501  0.00000000000E+00  0.00000000000E+00 -0.72593490291E+03  0.72593490292E+03  0.25500000920E-02 0. -1.
    10030    2    1    2    0    0  0.00000000000E+00  0.00000000000E+00  0.15922955767E+03  0.16110993635E+04  0.16032114979E+04 0.  0.
        2    1    3    3  502    0  0.59656666529E+03 -0.33582314645E+03 -0.33945351185E+03  0.76413196409E+03  0.25500000920E-02 0. -1.
       -2    1    3    3    0  502 -0.59656666529E+03  0.33582314645E+03  0.49868306953E+03  0.84696739941E+03  0.25500000920E-02 0.  1.
</event>
<event>
 5   0  0.3950195E-04  0.1599840E+04  0.7818609E-02  0.8820646E-01
       -1   -1    0    0    0  501  0.00000000000E+00  0.00000000000E+00  0.52173058252E+03  0.52173058255E+03  0.50400001928E-02 0. -1.
        1   -1    0    0  501    0  0.00000000000E+00  0.00000000000E+00 -0.12264415009E+04  0.12264415009E+04  0.50400001928E-02 0.  1.
    10030    2    1    2    0    0  0.00000000000E+00  0.00000000000E+00 -0.70471091838E+03  0.17481720835E+04  0.15998400404E+04 0.  0.
        2    1    3    3  502    0 -0.36409865491E+03 -0.34508993790E+03  0.32848440009E+03  0.59963063368E+03  0.25500000920E-02 0. -1.
       -2    1    3    3    0  502  0.36409865491E+03  0.34508993790E+03 -0.10331953185E+04  0.11485414498E+04  0.25500000920E-02 0.  1.
</event>
<event>
 5   0  0.3889847E-04  0.1609130E+04  0.7818609E-02  0.8814959E-01
       -1   -1    0    0    0  501  0.00000000000E+00  0.00000000000E+00  0.52831843206E+03  0.52831843208E+03  0.50400001928E-02 0.  1.
        1   -1    0    0  501    0  0.00000000000E+00  0.00000000000E+00 -0.12252550367E+04  0.12252550367E+04  0.50400001928E-02 0. -1.
    10030    2    1    2    0    0  0.00000000000E+00  0.00000000000E+00 -0.69693660467E+03  0.17535734688E+04  0.16091299760E+04 0.  0.
        1    1    3    3  502    0 -0.58895295202E+03 -0.52131603354E+03 -0.16388632894E+03  0.80342685750E+03  0.50400001928E-02 0.  1.
       -1    1    3    3    0  502  0.58895295202E+03  0.52131603354E+03 -0.53305027574E+03  0.95014661132E+03  0.50400001928E-02 0. -1.
</event>
<event>
 5   0  0.3973227E-04  0.1562286E+04  0.7818609E-02  0.8844058E-01
       -1   -1    0    0    0  501  0.00000000000E+00  0.00000000000E+00  0.47262642793E+03  0.47262642796E+03  0.50400001928E-02 0.  1.
        1   -1    0    0  501    0  0.00000000000E+00  0.00000000000E+00 -0.12910497060E+04  0.12910497060E+04  0.50400001928E-02 0. -1.
    10030    2    1    2    0    0  0.00000000000E+00  0.00000000000E+00 -0.81842327807E+03  0.17636761340E+04  0.15622857752E+04 0.  0.
        3    1    3    3  502    0  0.29951470634E+03  0.30561896395E+03 -0.11469612782E+04  0.12241863397E+04  0.10100000352E+00 0. -1.
       -3    1    3    3    0  502 -0.29951470634E+03 -0.30561896395E+03  0.32853800009E+03  0.53948979429E+03  0.10100000352E+00 0.  1.
</event>
<event>
 5   0  0.3889847E-04  0.1620032E+04  0.7818609E-02  0.8808335E-01
       -1   -1    0    0    0  501  0.00000000000E+00  0.00000000000E+00  0.95279503018E+03  0.95279503020E+03  0.50400001928E-02 0. -1.
        1   -1    0    0  501    0  0.00000000000E+00  0.00000000000E+00 -0.68863272765E+03  0.68863272767E+03  0.50400001928E-02 0.  1.
    10030    2    1    2    0    0  0.00000000000E+00  0.00000000000E+00  0.26416230254E+03  0.16414277579E+04  0.16200319016E+04 0.  0.
        1    1    3    3  502    0  0.64648363568E+03 -0.47509054526E+03  0.24524201578E+03  0.83892536243E+03  0.50400001928E-02 0. -1.
       -1    1    3    3    0  502 -0.64648363568E+03  0.47509054526E+03  0.18920286758E+02  0.80250239543E+03  0.50400001928E-02 0.  1.
</event>
<event>
 5   0  0.3837251E-04  0.1598212E+04  0.7818609E-02  0.8821647E-01
        1   -1    0    0  501    0  0.00000000000E+00  0.00000000000E+00  0.67681850523E+03  0.67681850525E+03  0.50400001928E-02 0.  1.
       -1   -1    0    0    0  501  0.00000000000E+00  0.00000000000E+00 -0.94348809455E+03  0.94348809456E+03  0.50400001928E-02 0. -1.
    10030    2    1    2    0    0  0.00000000000E+00  0.00000000000E+00 -0.26666958932E+03  0.16203065998E+04  0.15982117530E+04 0.  0.
        4    1    3    3  502    0  0.42205100412E+03  0.65661960810E+03 -0.30685062085E+03  0.83871048416E+03  0.12699999809E+01 0.  1.
       -4    1    3    3    0  502 -0.42205100412E+03 -0.65661960810E+03  0.40181031525E+02  0.78159611566E+03  0.12699999809E+01 0. -1.
</event>
<event>
 5   0  0.3837251E-04  0.1607434E+04  0.7818609E-02  0.8815994E-01
       -1   -1    0    0    0  501  0.00000000000E+00  0.00000000000E+00  0.31422661693E+03  0.31422661697E+03  0.50400001928E-02 0.  1.
        1   -1    0    0  501    0  0.00000000000E+00  0.00000000000E+00 -0.20557164530E+04  0.20557164530E+04  0.50400001928E-02 0. -1.
    10030    2    1    2    0    0  0.00000000000E+00  0.00000000000E+00 -0.17414898360E+04  0.23699430699E+04  0.16074337640E+04 0.  0.
        4    1    3    3  502    0 -0.67967532106E+03 -0.47392780454E+02 -0.24218377795E+03  0.72309004480E+03  0.12699999809E+01 0.  1.
       -4    1    3    3    0  502  0.67967532106E+03  0.47392780454E+02 -0.14993060581E+04  0.16468530251E+04  0.12699999809E+01 0. -1.
</event>
<event>
 5   0  0.3973227E-04  0.1667761E+04  0.7818609E-02  0.8779968E-01
       -1   -1    0    0    0  501  0.00000000000E+00  0.00000000000E+00  0.53076652210E+03  0.53076652212E+03  0.50400001928E-02 0. -1.
        1   -1    0    0  501    0  0.00000000000E+00  0.00000000000E+00 -0.13100993012E+04  0.13100993012E+04  0.50400001928E-02 0.  1.
    10030    2    1    2    0    0  0.00000000000E+00  0.00000000000E+00 -0.77933277909E+03  0.18408658233E+04  0.16677611936E+04 0.  0.
        3    1    3    3  502    0  0.52153224716E+03 -0.53589276134E+03 -0.79699487367E+03  0.10928759195E+04  0.10100000352E+00 0.  1.
       -3    1    3    3    0  502 -0.52153224716E+03  0.53589276134E+03  0.17662094578E+02  0.74798990386E+03  0.10100000352E+00 0. -1.
</event>
<event>
 5   0  0.7770905E-04  0.1631488E+04  0.7818609E-02  0.8801434E-01
        2   -1    0    0  501    0  0.00000000000E+00  0.00000000000E+00  0.10679624911E+04  0.10679624911E+04  0.25500000920E-02 0.  1.
       -2   -1    0    0    0  501  0.00000000000E+00  0.00000000000E+00 -0.62309123180E+03  0.62309123181E+03  0.25500000920E-02 0. -1.
    10030    2    1    2    0    0  0.00000000000E+00  0.00000000000E+00  0.44487125929E+03  0.16910537229E+04  0.16314877433E+04 0.  0.
        2    1    3    3  502    0  0.52599667483E+03  0.59313537043E+03  0.42169375330E+03  0.89794637433E+03  0.25500000920E-02 0.  1.
       -2    1    3    3    0  502 -0.52599667483E+03 -0.59313537043E+03  0.23177505995E+02  0.79310734858E+03  0.25500000920E-02 0. -1.
</event>
<event>
 5   0  0.4110803E-04  0.1476728E+04  0.7818609E-02  0.8900078E-01
       -1   -1    0    0    0  501  0.00000000000E+00  0.00000000000E+00  0.51468565605E+03  0.51468565608E+03  0.50400001928E-02 0. -1.
        1   -1    0    0  501    0  0.00000000000E+00  0.00000000000E+00 -0.10592516186E+04  0.10592516186E+04  0.50400001928E-02 0.  1.
    10030    2    1    2    0    0  0.00000000000E+00  0.00000000000E+00 -0.54456596253E+03  0.15739372747E+04  0.14767282949E+04 0.  0.
        5    1    3    3  502    0 -0.38928426757E+03  0.46863999508E+03  0.17230094686E+03  0.63314721215E+03  0.46999998093E+01 0. -1.
       -5    1    3    3    0  502  0.38928426757E+03 -0.46863999508E+03 -0.71686690939E+03  0.94079006252E+03  0.46999998093E+01 0.  1.
</event>
<event>
 5   0  0.7395088E-04  0.1629949E+04  0.7818609E-02  0.8802358E-01
        2   -1    0    0  501    0  0.00000000000E+00  0.00000000000E+00  0.20879201755E+04  0.20879201755E+04  0.25500000920E-02 0. -1.
       -2   -1    0    0    0  501  0.00000000000E+00  0.00000000000E+00 -0.31810749490E+03  0.31810749491E+03  0.25500000920E-02 0.  1.
    10030    2    1    2    0    0  0.00000000000E+00  0.00000000000E+00  0.17698126806E+04  0.24060276704E+04  0.16299485349E+04 0.  0.
        1    1    3    3  502    0  0.93179977993E+02  0.41317988772E+02 -0.30866115344E+03  0.32505598312E+03  0.50400001928E-02 0.  1.
       -1    1    3    3    0  502 -0.93179977993E+02 -0.41317988772E+02  0.20784738340E+04  0.20809716873E+04  0.50400001928E-02 0. -1.
</event>
<event>
 5   0  0.3973227E-04  0.1604136E+04  0.7818609E-02  0.8818011E-01
       -1   -1    0    0    0  501  0.00000000000E+00  0.00000000000E+00  0.91498277759E+03  0.91498277760E+03  0.50400001928E-02 0.  1.
        1   -1    0    0  501    0  0.00000000000E+00  0.00000000000E+00 -0.70308795899E+03  0.70308795901E+03  0.50400001928E-02 0. -1.
    10030    2    1    2    0    0  0.00000000000E+00  0.00000000000E+00  0.21189481860E+03  0.16180707366E+04  0.16041363703E+04 0.  0.
        3    1    3    3  502    0 -0.42529939533E+03  0.22466950519E+03 -0.54146701748E+03  0.72425306589E+03  0.10100000352E+00 0. -1.
       -3    1    3    3    0  502  0.42529939533E+03 -0.22466950519E+03  0.75336183608E+03  0.89381767072E+03  0.10100000352E+00 0.  1.
</event>
<event>
 5   0  0.7395088E-04  0.1618014E+04  0.7818609E-02  0.8809557E-01
       -2   -1    0    0    0  501  0.00000000000E+00  0.00000000000E+00  0.69923974088E+03  0.69923974089E+03  0.25500000920E-02 0. -1.
        2   -1    0    0  501    0  0.00000000000E+00  0.00000000000E+00 -0.93600604055E+03  0.93600604056E+03  0.25500000920E-02 0.  1.
    10030    2    1    2    0    0  0.00000000000E+00  0.00000000000E+00 -0.23676629967E+03  0.16352457814E+04  0.16180143649E+04 0.  0.
        1    1    3    3  502    0  0.39159370837E+03  0.53672222833E+03  0.34813460306E+03  0.75007605260E+03  0.50400001928E-02 0. -1.
       -1    1    3    3    0  502 -0.39159370837E+03 -0.53672222833E+03 -0.58490090273E+03  0.88516972884E+03  0.50400001928E-02 0.  1.
</event>
<event>
 5   0  0.3889847E-04  0.1603483E+04  0.7818609E-02  0.8818411E-01
       -1   -1    0    0    0  501  0.00000000000E+00  0.00000000000E+00  0.76756492940E+03  0.76756492941E+03  0.50400001928E-02 0.  1.
        1   -1    0    0  501    0  0.00000000000E+00  0.00000000000E+00 -0.83743993134E+03  0.83743993135E+03  0.50400001928E-02 0. -1.
    10030    2    1    2    0    0  0.00000000000E+00  0.00000000000E+00 -0.69875001938E+02  0.16050048608E+04  0.16034831110E+04 0.  0.
        1    1    3    3  502    0 -0.76002305067E+03  0.17655854601E+03  0.14957833452E+03  0.79446940526E+03  0.50400001928E-02 0. -1.
       -1    1    3    3    0  502  0.76002305067E+03 -0.17655854601E+03 -0.21945333646E+03  0.81053545550E+03  0.50400001928E-02 0.  1.
</event>
<event>
 5   0  0.7415102E-04  0.1439110E+04  0.7818609E-02  0.8925985E-01
       -2   -1    0    0    0  501  0.00000000000E+00  0.00000000000E+00  0.63121585858E+03  0.63121585859E+03  0.25500000920E-02 0. -1.
        2   -1    0    0  501    0  0.00000000000E+00  0.00000000000E+00 -0.82025752184E+03  0.82025752185E+03  0.25500000920E-02 0.  1.
    10030    2    1    2    0    0  0.00000000000E+00  0.00000000000E+00 -0.18904166326E+03  0.14514733804E+04  0.14391102194E+04 0.  0.
        5    1    3    3  502    0  0.20943762944E+03 -0.22348017561E+03  0.56217169125E+03  0.64020825515E+03  0.46999998093E+01 0. -1.
       -5    1    3    3    0  502 -0.20943762944E+03  0.22348017561E+03 -0.75121335451E+03  0.81126512529E+03  0.46999998093E+01 0.  1.
</event>
<event>
 5   0  0.3950195E-04  0.1601262E+04  0.7818609E-02  0.8819773E-01
        1   -1    0    0  501    0  0.00000000000E+00  0.00000000000E+00  0.11246807287E+04  0.11246807287E+04  0.50400001928E-02 0. -1.
       -1   -1    0    0    0  501  0.00000000000E+00  0.00000000000E+00 -0.56994824561E+03  0.56994824564E+03  0.50400001928E-02 0.  1.
    10030    2    1    2    0    0  0.00000000000E+00  0.00000000000E+00  0.55473248312E+03  0.16946289744E+04  0.16012617628E+04 0.  0.
        2    1    3    3  502    0 -0.41238573703E+03  0.10615373975E+03  0.99489567193E+03  0.10821959206E+04  0.25500000920E-02 0. -1.
       -2    1    3    3    0  502  0.41238573703E+03 -0.10615373975E+03 -0.44016318880E+03  0.61243305377E+03  0.25500000920E-02 0.  1.
</event>
<event>
 5   0  0.7488884E-04  0.1607331E+04  0.7818609E-02  0.8816057E-01
        2   -1    0    0  501    0  0.00000000000E+00  0.00000000000E+00  0.22447933234E+04  0.22447933234E+04  0.25500000920E-02 0.  1.
       -2   -1    0    0    0  501  0.00000000000E+00  0.00000000000E+00 -0.28772264974E+03  0.28772264976E+03  0.25500000920E-02 0. -1.
    10030    2    1    2    0    0  0.00000000000E+00  0.00000000000E+00  0.19570706737E+04  0.25325159732E+04  0.16073305611E+04 0.  0.
        3    1    3    3  502    0 -0.50708354290E+03 -0.36778984504E+03  0.18527750016E+03  0.65324639445E+03  0.10100000352E+00 0. -1.
       -3    1    3    3    0  502  0.50708354290E+03  0.36778984504E+03  0.17717931735E+04  0.18792695787E+04  0.10100000352E+00 0.  1.
</event>
<event>
 5   0  0.7770905E-04  0.1278951E+04  0.7818609E-02  0.9046426E-01
        2   -1    0    0  501    0  0.00000000000E+00  0.00000000000E+00  0.51534442005E+03  0.51534442006E+03  0.25500000920E-02 0. -1.
       -2   -1    0    0    0  501  0.00000000000E+00  0.00000000000E+00 -0.79350554288E+03  0.79350554288E+03  0.25500000920E-02 0.  1.
    10030    2    1    2    0    0  0.00000000000E+00  0.00000000000E+00 -0.27816112283E+03  0.13088499629E+04  0.12789505914E+04 0.  0.
        2    1    3    3  502    0  0.28385993280E+02  0.25117373048E+03  0.46204812198E+03  0.52667112559E+03  0.25500000920E-02 0. -1.
       -2    1    3    3    0  502 -0.28385993280E+02 -0.25117373048E+03 -0.74020924481E+03  0.78217883735E+03  0.25500000920E-02 0.  1.
</event>
<event>
 5   0  0.3950195E-04  0.1806707E+04  0.7818609E-02  0.8702741E-01
       -1   -1    0    0    0  501  0.00000000000E+00  0.00000000000E+00  0.81742124406E+03  0.81742124408E+03  0.50400001928E-02 0. -1.
        1   -1    0    0  501    0  0.00000000000E+00  0.00000000000E+00 -0.99831927633E+03  0.99831927634E+03  0.50400001928E-02 0.  1.
    10030    2    1    2    0    0  0.00000000000E+00  0.00000000000E+00 -0.18089803227E+03  0.18157405204E+04  0.18067068217E+04 0.  0.
        2    1    3    3  502    0  0.37861852869E+03  0.81777233184E+03 -0.27335267524E+02  0.90158238328E+03  0.25500000920E-02 0. -1.
       -2    1    3    3    0  502 -0.37861852869E+03 -0.81777233184E+03 -0.15356276474E+03  0.91415813714E+03  0.25500000920E-02 0.  1.
</event>
<event>
 5   0  0.7415102E-04  0.1605192E+04  0.7818609E-02  0.8817365E-01
       -2   -1    0    0    0  501  0.00000000000E+00  0.00000000000E+00  0.41970942360E+03  0.41970942361E+03  0.25500000920E-02 0.  1.
        2   -1    0    0  501    0  0.00000000000E+00  0.00000000000E+00 -0.15347768983E+04  0.15347768983E+04  0.25500000920E-02 0. -1.
    10030    2    1    2    0    0  0.00000000000E+00  0.00000000000E+00 -0.11150674747E+04  0.19544863219E+04  0.16051919852E+04 0.  0.
        5    1    3    3  502    0  0.36368622354E+03  0.42744031377E+03 -0.12561082020E+04  0.13757916980E+04  0.46999998093E+01 0.  1.
       -5    1    3    3    0  502 -0.36368622354E+03 -0.42744031377E+03  0.14104072732E+03  0.57869462395E+03  0.46999998093E+01 0. -1.
</event>
<event>
 5   0  0.7415102E-04  0.1594413E+04  0.7818609E-02  0.8823988E-01
        2   -1    0    0  501    0  0.00000000000E+00  0.00000000000E+00  0.90203985517E+03  0.90203985518E+03  0.25500000920E-02 0.  1.
       -2   -1    0    0    0  501  0.00000000000E+00  0.00000000000E+00 -0.70455686095E+03  0.70455686096E+03  0.25500000920E-02 0. -1.
    10030    2    1    2    0    0  0.00000000000E+00  0.00000000000E+00  0.19748299422E+03  0.16065967161E+04  0.15944132072E+04 0.  0.
        5    1    3    3  502    0 -0.80782887986E+02 -0.16979321720E+00  0.89789092279E+03  0.90152986808E+03  0.46999998093E+01 0.  1.
       -5    1    3    3    0  502  0.80782887986E+02  0.16979321720E+00 -0.70040792857E+03  0.70506684805E+03  0.46999998093E+01 0. -1.
</event>
<event>
 5   0  0.7488884E-04  0.1563626E+04  0.7818609E-02  0.8843211E-01
        2   -1    0    0  501    0  0.00000000000E+00  0.00000000000E+00  0.22911723500E+04  0.22911723500E+04  0.25500000920E-02 0. -1.
       -2   -1    0    0    0  501  0.00000000000E+00  0.00000000000E+00 -0.26677679124E+03  0.26677679125E+03  0.25500000920E-02 0.  1.
    10030    2    1    2    0    0  0.00000000000E+00  0.00000000000E+00  0.20243955588E+04  0.25579491413E+04  0.15636260521E+04 0.  0.
        3    1    3    3  502    0 -0.68768876677E+03 -0.33590434896E+03  0.12733495813E+04  0.14856536400E+04  0.10100000352E+00 0. -1.
       -3    1    3    3    0  502  0.68768876677E+03  0.33590434896E+03  0.75104597749E+03  0.10722955013E+04  0.10100000352E+00 0.  1.
</event>
<event>
 5   0  0.7395088E-04  0.1630859E+04  0.7818609E-02  0.8801811E-01
       -2   -1    0    0    0  501  0.00000000000E+00  0.00000000000E+00  0.91206328099E+03  0.91206328099E+03  0.25500000920E-02 0.  1.
        2   -1    0    0  501    0  0.00000000000E+00  0.00000000000E+00 -0.72903419793E+03  0.72903419793E+03  0.25500000920E-02 0. -1.
    10030    2    1    2    0    0  0.00000000000E+00  0.00000000000E+00  0.18302908306E+03  0.16410974789E+04  0.16308590651E+04 0.  0.
        1    1    3    3  502    0 -0.61682591749E+03  0.11178981485E+03 -0.43325157983E+03  0.76202237936E+03  0.50400001928E-02 0. -1.
       -1    1    3    3    0  502  0.61682591749E+03 -0.11178981485E+03  0.61628066289E+03  0.87907509956E+03  0.50400001928E-02 0.  1.
</event>
<event>
 5   0  0.4110803E-04  0.1566903E+04  0.7818609E-02  0.8841143E-01
       -1   -1    0    0    0  501  0.00000000000E+00  0.00000000000E+00  0.37991683713E+03  0.37991683717E+03  0.50400001928E-02 0.  1.
        1   -1    0    0  501    0  0.00000000000E+00  0.00000000000E+00 -0.16156064177E+04  0.16156064177E+04  0.50400001928E-02 0. -1.
    10030    2    1    2    0    0  0.00000000000E+00  0.00000000000E+00 -0.12356895806E+04  0.19955232549E+04  0.15669027798E+04 0.  0.
        5    1    3    3  502    0 -0.56766199289E+03  0.26413465233E+01 -0.13054735636E+04  0.14235625839E+04  0.46999998093E+01 0. -1.
       -5    1    3    3    0  502  0.56766199289E+03 -0.26413465233E+01  0.69783983054E+02  0.57196067100E+03  0.46999998093E+01 0.  1.
</event>
<event>
 5   0  0.3889847E-04  0.1326734E+04  0.7818609E-02  0.9008629E-01
        1   -1    0    0  501    0  0.00000000000E+00  0.00000000000E+00  0.63927316335E+03  0.63927316337E+03  0.50400001928E-02 0. -1.
       -1   -1    0    0    0  501  0.00000000000E+00  0.00000000000E+00 -0.68836906894E+03  0.68836906896E+03  0.50400001928E-02 0.  1.
    10030    2    1    2    0    0  0.00000000000E+00  0.00000000000E+00 -0.49095905586E+02  0.13276422323E+04  0.13267341441E+04 0.  0.
        1    1    3    3  502    0 -0.92379601479E+02 -0.26359924326E+03  0.57755925169E+03  0.64155532969E+03  0.50400001928E-02 0. -1.
       -1    1    3    3    0  502  0.92379601479E+02  0.26359924326E+03 -0.62665515727E+03  0.68608690264E+03  0.50400001928E-02 0.  1.
</event>
<event>
 5   0  0.7770905E-04  0.1578352E+04  0.7818609E-02  0.8833959E-01
        2   -1    0    0  501    0  0.00000000000E+00  0.00000000000E+00  0.51181184381E+03  0.51181184382E+03  0.25500000920E-02 0. -1.
       -2   -1    0    0    0  501  0.00000000000E+00  0.00000000000E+00 -0.12168512022E+04  0.12168512022E+04  0.25500000920E-02 0.  1.
    10030    2    1    2    0    0  0.00000000000E+00  0.00000000000E+00 -0.70503935836E+03  0.17286630460E+04  0.15783521248E+04 0.  0.
        2    1    3    3  502    0  0.71357189671E+03  0.19396054769E+03 -0.50598114155E+02  0.74119209049E+03  0.25500000920E-02 0. -1.
       -2    1    3    3    0  502 -0.71357189671E+03 -0.19396054769E+03 -0.65444124421E+03  0.98747095551E+03  0.25500000920E-02 0.  1.
</event>
<event>
 5   0  0.3950195E-04  0.1547718E+04  0.7818609E-02  0.8853326E-01
        1   -1    0    0  501    0  0.00000000000E+00  0.00000000000E+00  0.11739491802E+04  0.11739491802E+04  0.50400001928E-02 0.  1.
       -1   -1    0    0    0  501  0.00000000000E+00  0.00000000000E+00 -0.51012260681E+03  0.51012260684E+03  0.50400001928E-02 0. -1.
    10030    2    1    2    0    0  0.00000000000E+00  0.00000000000E+00  0.66382657339E+03  0.16840717871E+04  0.15477183414E+04 0.  0.
        2    1    3    3  502    0 -0.73384395119E+03  0.22425311125E+03  0.22287715845E+03  0.79905608712E+03  0.25500000920E-02 0. -1.
       -2    1    3    3    0  502  0.73384395119E+03 -0.22425311125E+03  0.44094941494E+03  0.88501569994E+03  0.25500000920E-02 0.  1.
</event>
<event>
 5   0  0.7488884E-04  0.1608524E+04  0.7818609E-02  0.8815328E-01
       -2   -1    0    0    0  501  0.00000000000E+00  0.00000000000E+00  0.11537733680E+04  0.11537733680E+04  0.25500000920E-02 0. -1.
        2   -1    0    0  501    0  0.00000000000E+00  0.00000000000E+00 -0.56062771508E+03  0.56062771509E+03  0.25500000920E-02 0.  1.
    10030    2    1    2    0    0  0.00000000000E+00  0.00000000000E+00  0.59314565292E+03  0.17144010831E+04  0.16085239532E+04 0.  0.
        3    1    3    3  502    0 -0.29663022906E+03 -0.85799365285E+02  0.10880752722E+04  0.11310432494E+04  0.10100000352E+00 0. -1.
       -3    1    3    3    0  502  0.29663022906E+03  0.85799365285E+02 -0.49492961928E+03  0.58335783368E+03  0.10100000352E+00 0.  1.
</event>
<event>
 5   0  0.7415102E-04  0.1595842E+04  0.7818609E-02  0.8823107E-01
        2   -1    0    0  501    0  0.00000000000E+00  0.00000000000E+00  0.97777872357E+03  0.97777872357E+03  0.25500000920E-02 0. -1.
       -2   -1    0    0    0  501  0.00000000000E+00  0.00000000000E+00 -0.65114717641E+03  0.65114717641E+03  0.25500000920E-02 0.  1.
    10030    2    1    2    0    0  0.00000000000E+00  0.00000000000E+00  0.32663154716E+03  0.16289259000E+04  0.15958419157E+04 0.  0.
        5    1    3    3  502    0  0.59324840143E+03  0.51683668802E+03  0.29870007019E+03  0.84161015311E+03  0.46999998093E+01 0. -1.
       -5    1    3    3    0  502 -0.59324840143E+03 -0.51683668802E+03  0.27931476974E+02  0.78731574688E+03  0.46999998093E+01 0.  1.
</event>
<event>
 5   0  0.3973227E-04  0.1565807E+04  0.7818609E-02  0.8841834E-01
        1   -1    0    0  501    0  0.00000000000E+00  0.00000000000E+00  0.19093238429E+04  0.19093238429E+04  0.50400001928E-02 0.  1.
       -1   -1    0    0    0  501  0.00000000000E+00  0.00000000000E+00 -0.32102360787E+03  0.32102360791E+03  0.50400001928E-02 0. -1.
    10030    2    1    2    0    0  0.00000000000E+00  0.00000000000E+00  0.15883002350E+04  0.22303474508E+04  0.15658071767E+04 0.  0.
        3    1    3    3  502    0  0.82042297416E+01  0.78285906570E+03  0.79635328438E+03  0.11167426695E+04  0.10100000352E+00 0.  1.
       -3    1    3    3    0  502 -0.82042297416E+01 -0.78285906570E+03  0.79194695062E+03  0.11136047813E+04  0.10100000352E+00 0. -1.
</event>
<event>
 5   0  0.4110803E-04  0.1600905E+04  0.7818609E-02  0.8819992E-01
       -1   -1    0    0    0  501  0.00000000000E+00  0.00000000000E+00  0.10586845339E+04  0.10586845339E+04  0.50400001928E-02 0. -1.
        1   -1    0    0  501    0  0.00000000000E+00  0.00000000000E+00 -0.60520798105E+03  0.60520798108E+03  0.50400001928E-02 0.  1.
    10030    2    1    2    0    0  0.00000000000E+00  0.00000000000E+00  0.45347655288E+03  0.16638925150E+04  0.16009051557E+04 0.  0.
        5    1    3    3  502    0  0.68866704228E+03  0.30528295795E+03  0.50801936407E+03  0.90860648457E+03  0.46999998093E+01 0.  1.
       -5    1    3    3    0  502 -0.68866704228E+03 -0.30528295795E+03 -0.54542811190E+02  0.75528603045E+03  0.46999998093E+01 0. -1.
</event>
<event>
 5   0  0.7395088E-04  0.1686226E+04  0.7818609E-02  0.8769260E-01
        2   -1    0    0  501    0  0.00000000000E+00  0.00000000000E+00  0.73757289179E+03  0.73757289180E+03  0.25500000920E-02 0. -1.
       -2   -1    0    0    0  501  0.00000000000E+00  0.00000000000E+00 -0.96375453749E+03  0.96375453750E+03  0.25500000920E-02 0.  1.
    10030    2    1    2    0    0  0.00000000000E+00  0.00000000000E+00 -0.22618164570E+03  0.17013274293E+04  0.16862256328E+04 0.  0.
        1    1    3    3  502    0 -0.31311770422E+03  0.47992706855E+03 -0.73706833292E+03  0.93361791716E+03  0.50400001928E-02 0.  1.
       -1    1    3    3    0  502  0.31311770422E+03 -0.47992706855E+03  0.51088668722E+03  0.76770951213E+03  0.50400001928E-02 0. -1.
</event>
<event>
 5   0  0.7553070E-04  0.1583565E+04  0.7818609E-02  0.8830709E-01
       -2   -1    0    0    0  501  0.00000000000E+00  0.00000000000E+00  0.44275511949E+03  0.44275511950E+03  0.25500000920E-02 0. -1.
        2   -1    0    0  501    0  0.00000000000E+00  0.00000000000E+00 -0.14159501709E+04  0.14159501709E+04  0.25500000920E-02 0.  1.
    10030    2    1    2    0    0  0.00000000000E+00  0.00000000000E+00 -0.97319505145E+03  0.18587052904E+04  0.15835645704E+04 0.  0.
        4    1    3    3  502    0 -0.13339569048E+03 -0.54099597648E+03 -0.11468726244E+04  0.12750645028E+04  0.12699999809E+01 0.  1.
       -4    1    3    3    0  502  0.13339569048E+03  0.54099597648E+03  0.17367757291E+03  0.58364078767E+03  0.12699999809E+01 0. -1.
</event>
<event>
 5   0  0.2781000E-04  0.1622575E+04  0.7818609E-02  0.8806798E-01
        4   -1    0    0  501    0  0.00000000000E+00  0.00000000000E+00  0.88457587455E+03  0.88457678623E+03  0.12699999809E+01 0. -1.
       -4   -1    0    0    0  501  0.00000000000E+00  0.00000000000E+00 -0.74406961498E+03  0.74407069882E+03  0.12699999809E+01 0.  1.
    10030    2    1    2    0    0  0.00000000000E+00  0.00000000000E+00  0.14050625957E+03  0.16286474850E+04  0.16225753054E+04 0.  0.
        5    1    3    3  502    0 -0.71183037469E+02  0.13311605719E+03  0.87034257604E+03  0.88334885474E+03  0.46999998093E+01 0. -1.
       -5    1    3    3    0  502  0.71183037469E+02 -0.13311605719E+03 -0.72983631647E+03  0.74529863031E+03  0.46999998093E+01 0.  1.
</event>
<event>
 5   0  0.3837251E-04  0.1613554E+04  0.7818609E-02  0.8812264E-01
        1   -1    0    0  501    0  0.00000000000E+00  0.00000000000E+00  0.11579486215E+04  0.11579486215E+04  0.50400001928E-02 0.  1.
       -1   -1    0    0    0  501  0.00000000000E+00  0.00000000000E+00 -0.56210564812E+03  0.56210564815E+03  0.50400001928E-02 0. -1.
    10030    2    1    2    0    0  0.00000000000E+00  0.00000000000E+00  0.59584297338E+03  0.17200542697E+04  0.16135544124E+04 0.  0.
        4    1    3    3  502    0  0.69113303783E+03  0.40073340612E+03  0.41774949417E+03  0.90153668341E+03  0.12699999809E+01 0. -1.
       -4    1    3    3    0  502 -0.69113303783E+03 -0.40073340612E+03  0.17809347921E+03  0.81851758625E+03  0.12699999809E+01 0.  1.
</event>
<event>
 5   0  0.7488884E-04  0.1608913E+04  0.7818609E-02  0.8815091E-01
       -2   -1    0    0    0  501  0.00000000000E+00  0.00000000000E+00  0.31721689908E+03  0.31721689909E+03  0.25500000920E-02 0. -1.
        2   -1    0    0  501    0  0.00000000000E+00  0.00000000000E+00 -0.20400880020E+04  0.20400880020E+04  0.25500000920E-02 0.  1.
    10030    2    1    2    0    0  0.00000000000E+00  0.00000000000E+00 -0.17228711030E+04  0.23573049011E+04  0.16089131610E+04 0.  0.
        3    1    3    3  502    0  0.52586854929E+03  0.47962052354E+03 -0.14107739846E+04  0.15801445578E+04  0.10100000352E+00 0.  1.
       -3    1    3    3    0  502 -0.52586854929E+03 -0.47962052354E+03 -0.31209711833E+03  0.77716034330E+03  0.10100000352E+00 0. -1.
</event>
<event>
 5   0  0.3889847E-04  0.1603099E+04  0.7818609E-02  0.8818646E-01
       -1   -1    0    0    0  501  0.00000000000E+00  0.00000000000E+00  0.56170856852E+03  0.56170856854E+03  0.50400001928E-02 0.  1.
        1   -1    0    0  501    0  0.00000000000E+00  0.00000000000E+00 -0.11437989202E+04  0.11437989202E+04  0.50400001928E-02 0. -1.
    10030    2    1    2    0    0  0.00000000000E+00  0.00000000000E+00 -0.58209035168E+03  0.17055074887E+04  0.16030990664E+04 0.  0.
        1    1    3    3  502    0  0.15016548051E+03  0.71467423166E+03  0.60475071543E+02  0.73277975084E+03  0.50400001928E-02 0. -1.
       -1    1    3    3    0  502 -0.15016548051E+03 -0.71467423166E+03 -0.64256542322E+03  0.97272773790E+03  0.50400001928E-02 0.  1.
</event>
<event>
 5   0  0.7415102E-04  0.1604235E+04  0.7818609E-02  0.8817950E-01
        2   -1    0    0  501    0  0.00000000000E+00  0.00000000000E+00  0.58903295611E+03  0.58903295611E+03  0.25500000920E-02 0.  1.
       -2   -1    0    0    0  501  0.00000000000E+00  0.00000000000E+00 -0.10922862221E+04  0.10922862221E+04  0.25500000920E-02 0. -1.
    10030    2    1    2    0    0  0.00000000000E+00  0.00000000000E+00 -0.50325326600E+03  0.16813191782E+04  0.16042351228E+04 0.  0.
        5    1    3    3  502    0 -0.24246543086E+03 -0.62291440213E+02  0.54702678092E+03  0.60160626470E+03  0.46999998093E+01 0.  1.
       -5    1    3    3    0  502  0.24246543086E+03  0.62291440213E+02 -0.10502800469E+04  0.10797129135E+04  0.46999998093E+01 0. -1.
</event>
<event>
 5   0  0.3950195E-04  0.1667830E+04  0.7818609E-02  0.8779928E-01
       -1   -1    0    0    0  501  0.00000000000E+00  0.00000000000E+00  0.58831237798E+03  0.58831237800E+03  0.50400001928E-02 0. -1.
        1   -1    0    0  501    0  0.00000000000E+00  0.00000000000E+00 -0.11820492418E+04  0.11820492418E+04  0.50400001928E-02 0.  1.
    10030    2    1    2    0    0  0.00000000000E+00  0.00000000000E+00 -0.59373686385E+03  0.17703616198E+04  0.16678299678E+04 0.  0.
        2    1    3    3  502    0 -0.39393945060E+03 -0.80463520284E+02  0.47862795703E+03  0.62509790441E+03  0.25500000920E-02 0. -1.
       -2    1    3    3    0  502  0.39393945060E+03  0.80463520284E+02 -0.10723648209E+04  0.11452637154E+04  0.25500000920E-02 0.  1.
</event>
<event>
 5   0  0.7395088E-04  0.1619807E+04  0.7818609E-02  0.8808471E-01
       -2   -1    0    0    0  501  0.00000000000E+00  0.00000000000E+00  0.23319888762E+03  0.23319888764E+03  0.25500000920E-02 0. -1.
        2   -1    0    0  501    0  0.00000000000E+00  0.00000000000E+00 -0.28128096257E+04  0.28128096257E+04  0.25500000920E-02 0.  1.
    10030    2    1    2    0    0  0.00000000000E+00  0.00000000000E+00 -0.25796107381E+04  0.30460085134E+04  0.16198074896E+04 0.  0.
        1    1    3    3  502    0 -0.12951145488E+03  0.79578388501E+03 -0.14342335763E+04  0.16453179511E+04  0.50400001928E-02 0.  1.
       -1    1    3    3    0  502  0.12951145488E+03 -0.79578388501E+03 -0.11453771618E+04  0.14006905623E+04  0.50400001928E-02 0. -1.
</event>
<event>
 5   0  0.7770905E-04  0.1587572E+04  0.7818609E-02  0.8828219E-01
       -2   -1    0    0    0  501  0.00000000000E+00  0.00000000000E+00  0.39006062489E+03  0.39006062490E+03  0.25500000920E-02 0.  1.
        2   -1    0    0  501    0  0.00000000000E+00  0.00000000000E+00 -0.16153808290E+04  0.16153808290E+04  0.25500000920E-02 0. -1.
    10030    2    1    2    0    0  0.00000000000E+00  0.00000000000E+00 -0.12253202041E+04  0.20054414539E+04  0.15875723046E+04 0.  0.
        2    1    3    3  502    0 -0.61047369795E+03 -0.50701069144E+03 -0.63657717455E+03  0.10173340043E+04  0.25500000920E-02 0.  1.
       -2    1    3    3    0  502  0.61047369795E+03  0.50701069144E+03 -0.58874302959E+03  0.98810744964E+03  0.25500000920E-02 0. -1.
</event>
<event>
 5   0  0.2781000E-04  0.1621622E+04  0.7818609E-02  0.8807374E-01
       -3   -1    0    0    0  501  0.00000000000E+00  0.00000000000E+00  0.60623276963E+03  0.60623277805E+03  0.10100000352E+00 0.  1.
        3   -1    0    0  501    0  0.00000000000E+00  0.00000000000E+00 -0.10844253428E+04  0.10844253475E+04  0.10100000352E+00 0. -1.
    10030    2    1    2    0    0  0.00000000000E+00  0.00000000000E+00 -0.47819257320E+03  0.16906581256E+04  0.16216216453E+04 0.  0.
        4    1    3    3  502    0 -0.28059974557E+03 -0.32517531059E+03  0.47788543291E+03  0.64253505719E+03  0.12699999809E+01 0.  1.
       -4    1    3    3    0  502  0.28059974557E+03  0.32517531059E+03 -0.95607800611E+03  0.10481230684E+04  0.12699999809E+01 0. -1.
</event>
<event>
 5   0  0.3837251E-04  0.1430935E+04  0.7818609E-02  0.8931725E-01
       -1   -1    0    0    0  501  0.00000000000E+00  0.00000000000E+00  0.32793324678E+03  0.32793324682E+03  0.50400001928E-02 0. -1.
        1   -1    0    0  501    0  0.00000000000E+00  0.00000000000E+00 -0.15609699673E+04  0.15609699673E+04  0.50400001928E-02 0.  1.
    10030    2    1    2    0    0  0.00000000000E+00  0.00000000000E+00 -0.12330367205E+04  0.18889032141E+04  0.14309352879E+04 0.  0.
        4    1    3    3  502    0 -0.49960305633E+03  0.23228090408E+03 -0.12190370487E+04  0.13377632718E+04  0.12699999809E+01 0.  1.
       -4    1    3    3    0  502  0.49960305633E+03 -0.23228090408E+03 -0.13999671774E+02  0.55113994231E+03  0.12699999809E+01 0. -1.
</event>
<event>
 5   0  0.2781000E-04  0.1577442E+04  0.7818609E-02  0.8834528E-01
       -3   -1    0    0    0  501  0.00000000000E+00  0.00000000000E+00  0.52159147705E+03  0.52159148682E+03  0.10100000352E+00 0.  1.
        3   -1    0    0  501    0  0.00000000000E+00  0.00000000000E+00 -0.11926584221E+04  0.11926584264E+04  0.10100000352E+00 0. -1.
    10030    2    1    2    0    0  0.00000000000E+00  0.00000000000E+00 -0.67106694509E+03  0.17142499132E+04  0.15774415743E+04 0.  0.
        5    1    3    3  502    0  0.75921250718E+03 -0.60824718967E+02 -0.11293955199E+03  0.76998747386E+03  0.46999998093E+01 0.  1.
       -5    1    3    3    0  502 -0.75921250718E+03  0.60824718967E+02 -0.55812739310E+03  0.94426243938E+03  0.46999998093E+01 0. -1.
</event>
<event>
 5   0  0.7553070E-04  0.1568130E+04  0.7818609E-02  0.8840369E-01
        2   -1    0    0  501    0  0.00000000000E+00  0.00000000000E+00  0.16047926058E+04  0.16047926058E+04  0.25500000920E-02 0. -1.
       -2   -1    0    0    0  501  0.00000000000E+00  0.00000000000E+00 -0.38307647130E+03  0.38307647131E+03  0.25500000920E-02 0.  1.
    10030    2    1    2    0    0  0.00000000000E+00  0.00000000000E+00  0.12217161345E+04  0.19878690772E+04  0.15681304648E+04 0.  0.
        4    1    3    3  502    0 -0.31047091309E+03  0.71133532127E+03  0.46988704812E+03  0.90729575005E+03  0.12699999809E+01 0.  1.
       -4    1    3    3    0  502  0.31047091309E+03 -0.71133532127E+03  0.75182908642E+03  0.10805733271E+04  0.12699999809E+01 0. -1.
</event>
<event>
 5   0  0.7415102E-04  0.1582549E+04  0.7818609E-02  0.8831341E-01
       -2   -1    0    0    0  501  0.00000000000E+00  0.00000000000E+00  0.45462133729E+03  0.45462133729E+03  0.25500000920E-02 0.  1.
        2   -1    0    0  501    0  0.00000000000E+00  0.00000000000E+00 -0.13772241209E+04  0.13772241209E+04  0.25500000920E-02 0. -1.
    10030    2    1    2    0    0  0.00000000000E+00  0.00000000000E+00 -0.92260278361E+03  0.18318454582E+04  0.15825491734E+04 0.  0.
        5    1    3    3  502    0  0.27454577984E+03  0.12931892084E+02 -0.13201770668E+04  0.13484925646E+04  0.46999998093E+01 0. -1.
       -5    1    3    3    0  502 -0.27454577984E+03 -0.12931892084E+02  0.39757428321E+03  0.48335289358E+03  0.46999998093E+01 0.  1.
</event>
<event>
 5   0  0.3889847E-04  0.1534750E+04  0.7818609E-02  0.8861668E-01
       -1   -1    0    0    0  501  0.00000000000E+00  0.00000000000E+00  0.12352690915E+04  0.12352690915E+04  0.50400001928E-02 0. -1.
        1   -1    0    0  501    0  0.00000000000E+00  0.00000000000E+00 -0.47670954526E+03  0.47670954529E+03  0.50400001928E-02 0.  1.
    10030    2    1    2    0    0  0.00000000000E+00  0.00000000000E+00  0.75855954624E+03  0.17119786368E+04  0.15347502297E+04 0.  0.
        1    1    3    3  502    0 -0.43326606080E+03  0.10774140810E+03  0.10754812218E+04  0.11644687840E+04  0.50400001928E-02 0. -1.
       -1    1    3    3    0  502  0.43326606080E+03 -0.10774140810E+03 -0.31692167554E+03  0.54750985280E+03  0.50400001928E-02 0.  1.
</event>
<event>
 5   0  0.7553070E-04  0.1597817E+04  0.7818609E-02  0.8821890E-01
       -2   -1    0    0    0  501  0.00000000000E+00  0.00000000000E+00  0.14608756378E+04  0.14608756378E+04  0.25500000920E-02 0. -1.
        2   -1    0    0  501    0  0.00000000000E+00  0.00000000000E+00 -0.43689865649E+03  0.43689865649E+03  0.25500000920E-02 0.  1.
    10030    2    1    2    0    0  0.00000000000E+00  0.00000000000E+00  0.10239769813E+04  0.18977742943E+04  0.15978167648E+04 0.  0.
        4    1    3    3  502    0 -0.75042816633E+03  0.94538266384E+02  0.81752157259E+03  0.11137428120E+04  0.12699999809E+01 0. -1.
       -4    1    3    3    0  502  0.75042816633E+03 -0.94538266384E+02  0.20645540874E+03  0.78403148236E+03  0.12699999809E+01 0.  1.
</event>
<event>
 5   0  0.2781000E-04  0.1312483E+04  0.7818609E-02  0.9019724E-01
        3   -1    0    0  501    0  0.00000000000E+00  0.00000000000E+00  0.76587560117E+03  0.76587560783E+03  0.10100000352E+00 0.  1.
       -3   -1    0    0    0  501  0.00000000000E+00  0.00000000000E+00 -0.56230113967E+03  0.56230114874E+03  0.10100000352E+00 0. -1.
    10030    2    1    2    0    0  0.00000000000E+00  0.00000000000E+00  0.20357446150E+03  0.13281767566E+04  0.13124827372E+04 0.  0.
        3    1    3    3  502    0  0.78310664389E+02 -0.64010601871E+03 -0.21258014720E+02  0.64522878790E+03  0.10100000352E+00 0.  1.
       -3    1    3    3    0  502 -0.78310664389E+02  0.64010601871E+03  0.22483247622E+03  0.68294796867E+03  0.10100000352E+00 0. -1.
</event>
<event>
 5   0  0.3973227E-04  0.1602853E+04  0.7818609E-02  0.8818797E-01
       -1   -1    0    0    0  501  0.00000000000E+00  0.00000000000E+00  0.15674760352E+04  0.15674760352E+04  0.50400001928E-02 0. -1.
        1   -1    0    0  501    0  0.00000000000E+00  0.00000000000E+00 -0.40975692418E+03  0.40975692421E+03  0.50400001928E-02 0.  1.
    10030    2    1    2    0    0  0.00000000000E+00  0.00000000000E+00  0.11577191110E+04  0.19772329594E+04  0.16028526556E+04 0.  0.
        3    1    3    3  502    0  0.70219263652E+03 -0.74285924835E+02  0.11125427849E+03  0.71482195133E+03  0.10100000352E+00 0.  1.
       -3    1    3    3    0  502 -0.70219263652E+03  0.74285924835E+02  0.10464648325E+04  0.12624110081E+04  0.10100000352E+00 0. -1.
</event>
<event>
 5   0  0.3950195E-04  0.1714156E+04  0.7818609E-02  0.8753332E-01
       -1   -1    0    0    0  501  0.00000000000E+00  0.00000000000E+00  0.11283241770E+04  0.11283241770E+04  0.50400001928E-02 0.  1.
        1   -1    0    0  501    0  0.00000000000E+00  0.00000000000E+00 -0.65103846403E+03  0.65103846405E+03  0.50400001928E-02 0. -1.
    10030    2    1    2    0    0  0.00000000000E+00  0.00000000000E+00  0.47728571296E+03  0.17793626410E+04  0.17141556979E+04 0.  0.
        2    1    3    3  502    0  0.37390370130E+03  0.22453522909E+03 -0.52723278719E+03  0.68424736670E+03  0.25500000920E-02 0. -1.
       -2    1    3    3    0  502 -0.37390370130E+03 -0.22453522909E+03  0.10045185002E+04  0.10951152743E+04  0.25500000920E-02 0.  1.
</event>
<event>
 5   0  0.3950195E-04  0.1628700E+04  0.7818609E-02  0.8803108E-01
        1   -1    0    0  501    0  0.00000000000E+00  0.00000000000E+00  0.12410441879E+04  0.12410441879E+04  0.50400001928E-02 0. -1.
       -1   -1    0    0    0  501  0.00000000000E+00  0.00000000000E+00 -0.53436147013E+03  0.53436147016E+03  0.50400001928E-02 0.  1.
    10030    2    1    2    0    0  0.00000000000E+00  0.00000000000E+00  0.70668271777E+03  0.17754056581E+04  0.16287003368E+04 0.  0.
        2    1    3    3  502    0  0.31866297085E+03 -0.11072504725E+02  0.11701688196E+04  0.12128329464E+04  0.25500000920E-02 0. -1.
       -2    1    3    3    0  502 -0.31866297085E+03  0.11072504725E+02 -0.46348610185E+03  0.56257271171E+03  0.25500000920E-02 0.  1.
</event>
<event>
 5   0  0.3889847E-04  0.1590178E+04  0.7818609E-02  0.8826605E-01
       -1   -1    0    0    0  501  0.00000000000E+00  0.00000000000E+00  0.61266311879E+03  0.61266311881E+03  0.50400001928E-02 0. -1.
        1   -1    0    0  501    0  0.00000000000E+00  0.00000000000E+00 -0.10318340657E+04  0.10318340657E+04  0.50400001928E-02 0.  1.
    10030    2    1    2    0    0  0.00000000000E+00  0.00000000000E+00 -0.41917094691E+03  0.16444971845E+04  0.15901781998E+04 0.  0.
        1    1    3    3  502    0 -0.19472403237E+03 -0.36110152738E+03 -0.91391909542E+03  0.10017783562E+04  0.50400001928E-02 0.  1.
       -1    1    3    3    0  502  0.19472403237E+03  0.36110152738E+03  0.49474814851E+03  0.64271882837E+03  0.50400001928E-02 0. -1.
</event>
<event>
 5   0  0.4110803E-04  0.1654136E+04  0.7818609E-02  0.8787963E-01
        1   -1    0    0  501    0  0.00000000000E+00  0.00000000000E+00  0.23371390912E+04  0.23371390912E+04  0.50400001928E-02 0.  1.
       -1   -1    0    0    0  501  0.00000000000E+00  0.00000000000E+00 -0.29268324403E+03  0.29268324407E+03  0.50400001928E-02 0. -1.
    10030    2    1    2    0    0  0.00000000000E+00  0.00000000000E+00  0.20444558471E+04  0.26298223352E+04  0.16541359690E+04 0.  0.
        5    1    3    3  502    0  0.26531232033E+03  0.79300092539E+02 -0.21677185438E+03  0.35169768103E+03  0.46999998093E+01 0. -1.
       -5    1    3    3    0  502 -0.26531232033E+03 -0.79300092539E+02  0.22612277015E+04  0.22781246542E+04  0.46999998093E+01 0.  1.
</event>
<event>
 5   0  0.3950195E-04  0.1565703E+04  0.7818609E-02  0.8841899E-01
        1   -1    0    0  501    0  0.00000000000E+00  0.00000000000E+00  0.27444477170E+04  0.27444477170E+04  0.50400001928E-02 0.  1.
       -1   -1    0    0    0  501  0.00000000000E+00  0.00000000000E+00 -0.22330785017E+03  0.22330785022E+03  0.50400001928E-02 0. -1.
    10030    2    1    2    0    0  0.00000000000E+00  0.00000000000E+00  0.25211398669E+04  0.29677555673E+04  0.15657033176E+04 0.  0.
        2    1    3    3  502    0 -0.53028479801E+03  0.55879624386E+03  0.99655017568E+03  0.12595901960E+04  0.25500000920E-02 0. -1.
       -2    1    3    3    0  502  0.53028479801E+03 -0.55879624386E+03  0.15245896912E+04  0.17081653713E+04  0.25500000920E-02 0.  1.
</event>
<event>
 5   0  0.7553070E-04  0.1598487E+04  0.7818609E-02  0.8821478E-01
       -2   -1    0    0    0  501  0.00000000000E+00  0.00000000000E+00  0.29569974788E+03  0.29569974790E+03  0.25500000920E-02 0. -1.
        2   -1    0    0  501    0  0.00000000000E+00  0.00000000000E+00 -0.21602667863E+04  0.21602667863E+04  0.25500000920E-02 0.  1.
    10030    2    1    2    0    0  0.00000000000E+00  0.00000000000E+00 -0.18645670385E+04  0.24559665342E+04  0.15984872150E+04 0.  0.
        4    1    3    3  502    0  0.14341759106E+03 -0.76356323584E+03 -0.64405895017E+03  0.10091634975E+04  0.12699999809E+01 0.  1.
       -4    1    3    3    0  502 -0.14341759106E+03  0.76356323584E+03 -0.12205080883E+04  0.14468030367E+04  0.12699999809E+01 0. -1.
</event>
<event>
 5   0  0.7553070E-04  0.1541346E+04  0.7818609E-02  0.8857414E-01
        2   -1    0    0  501    0  0.00000000000E+00  0.00000000000E+00  0.12556582220E+04  0.12556582220E+04  0.25500000920E-02 0. -1.
       -2   -1    0    0    0  501  0.00000000000E+00  0.00000000000E+00 -0.47300853411E+03  0.47300853412E+03  0.25500000920E-02 0.  1.
    10030    2    1    2    0    0  0.00000000000E+00  0.00000000000E+00  0.78264968792E+03  0.17286667562E+04  0.15413462362E+04 0.  0.
        4    1    3    3  502    0  0.57149583457E+03  0.38199287630E+03  0.54044038147E+00  0.68740668563E+03  0.12699999809E+01 0.  1.
       -4    1    3    3    0  502 -0.57149583457E+03 -0.38199287630E+03  0.78210924754E+03  0.10412600705E+04  0.12699999809E+01 0. -1.
</event>
<event>
 5   0  0.7395088E-04  0.1646823E+04  0.7818609E-02  0.8792288E-01
        2   -1    0    0  501    0  0.00000000000E+00  0.00000000000E+00  0.14665358687E+04  0.14665358687E+04  0.25500000920E-02 0.  1.
       -2   -1    0    0    0  501  0.00000000000E+00  0.00000000000E+00 -0.46231860760E+03  0.46231860761E+03  0.25500000920E-02 0. -1.
    10030    2    1    2    0    0  0.00000000000E+00  0.00000000000E+00  0.10042172611E+04  0.19288544764E+04  0.16468233917E+04 0.  0.
        1    1    3    3  502    0 -0.77269476751E+03  0.25171567522E+03  0.65744422545E+03  0.10452994282E+04  0.50400001928E-02 0. -1.
       -1    1    3    3    0  502  0.77269476751E+03 -0.25171567522E+03  0.34677303570E+03  0.88355504820E+03  0.50400001928E-02 0.  1.
</event>
<event>
 5   0  0.3837251E-04  0.1611010E+04  0.7818609E-02  0.8813812E-01
       -1   -1    0    0    0  501  0.00000000000E+00  0.00000000000E+00  0.43209438713E+03  0.43209438715E+03  0.50400001928E-02 0.  1.
        1   -1    0    0  501    0  0.00000000000E+00  0.00000000000E+00 -0.15016132065E+04  0.15016132065E+04  0.50400001928E-02 0. -1.
    10030    2    1    2    0    0  0.00000000000E+00  0.00000000000E+00 -0.10695188194E+04  0.19337075937E+04  0.16110104136E+04 0.  0.
        4    1    3    3  502    0 -0.54262438708E+03 -0.59321535541E+03 -0.47484805682E+03  0.93371728768E+03  0.12699999809E+01 0.  1.
       -4    1    3    3    0  502  0.54262438708E+03  0.59321535541E+03 -0.59467076258E+03  0.99999030601E+03  0.12699999809E+01 0. -1.
</event>
<event>
 5   0  0.3837251E-04  0.1570638E+04  0.7818609E-02  0.8838792E-01
        1   -1    0    0  501    0  0.00000000000E+00  0.00000000000E+00  0.10894252839E+04  0.10894252840E+04  0.50400001928E-02 0. -1.
       -1   -1    0    0    0  501  0.00000000000E+00  0.00000000000E+00 -0.56610234712E+03  0.56610234715E+03  0.50400001928E-02 0.  1.
    10030    2    1    2    0    0  0.00000000000E+00  0.00000000000E+00  0.52332293682E+03  0.16555276311E+04  0.15706383547E+04 0.  0.
        4    1    3    3  502    0  0.33746160861E+03 -0.50237411068E+03 -0.26585173687E+03  0.66101349704E+03  0.12699999809E+01 0.  1.
       -4    1    3    3    0  502 -0.33746160861E+03  0.50237411068E+03  0.78917467368E+03  0.99451413406E+03  0.12699999809E+01 0. -1.
</event>
<event>
 5   0  0.7415102E-04  0.1614856E+04  0.7818609E-02  0.8811473E-01
        2   -1    0    0  501    0  0.00000000000E+00  0.00000000000E+00  0.88300765851E+03  0.88300765852E+03  0.25500000920E-02 0. -1.
       -2   -1    0    0    0  501  0.00000000000E+00  0.00000000000E+00 -0.73831779643E+03  0.73831779644E+03  0.25500000920E-02 0.  1.
    10030    2    1    2    0    0  0.00000000000E+00  0.00000000000E+00  0.14468986208E+03  0.16213254550E+04  0.16148563635E+04 0.  0.
        5    1    3    3  502    0  0.66051124251E+03 -0.13167796698E+03 -0.37475234972E+03  0.77076299995E+03  0.46999998093E+01 0.  1.
       -5    1    3    3    0  502 -0.66051124251E+03  0.13167796698E+03  0.51944221180E+03  0.85056245501E+03  0.46999998093E+01 0. -1.
</event>
<event>
 5   0  0.4110803E-04  0.1593312E+04  0.7818609E-02  0.8824667E-01
       -1   -1    0    0    0  501  0.00000000000E+00  0.00000000000E+00  0.10138432984E+04  0.10138432984E+04  0.50400001928E-02 0.  1.
        1   -1    0    0  501    0  0.00000000000E+00  0.00000000000E+00 -0.62599476424E+03  0.62599476426E+03  0.50400001928E-02 0. -1.
    10030    2    1    2    0    0  0.00000000000E+00  0.00000000000E+00  0.38784853417E+03  0.16398380627E+04  0.15933117668E+04 0.  0.
        5    1    3    3  502    0 -0.43095825381E+03  0.47675400408E+03  0.67843544637E+03  0.93451385320E+03  0.46999998093E+01 0.  1.
       -5    1    3    3    0  502  0.43095825381E+03 -0.47675400408E+03 -0.29058691220E+03  0.70532420948E+03  0.46999998093E+01 0. -1.
</event>
<event>
 5   0  0.4110803E-04  0.1560156E+04  0.7818609E-02  0.8845406E-01
       -1   -1    0    0    0  501  0.00000000000E+00  0.00000000000E+00  0.44883646245E+03  0.44883646248E+03  0.50400001928E-02 0. -1.
        1   -1    0    0  501    0  0.00000000000E+00  0.00000000000E+00 -0.13557765779E+04  0.13557765779E+04  0.50400001928E-02 0.  1.
    10030    2    1    2    0    0  0.00000000000E+00  0.00000000000E+00 -0.90694011543E+03  0.18046130404E+04  0.15601563552E+04 0.  0.
        5    1    3    3  502    0 -0.12751183384E+02 -0.77743754336E+03 -0.52596535116E+03  0.93874030867E+03  0.46999998093E+01 0. -1.
       -5    1    3    3    0  502  0.12751183384E+02  0.77743754336E+03 -0.38097476427E+03  0.86587273171E+03  0.46999998093E+01 0.  1.
</event>
<event>
 5   0  0.7770905E-04  0.1425689E+04  0.7818609E-02  0.8935430E-01
       -2   -1    0    0    0  501  0.00000000000E+00  0.00000000000E+00  0.91015766611E+03  0.91015766611E+03  0.25500000920E-02 0.  1.
        2   -1    0    0  501    0  0.00000000000E+00  0.00000000000E+00 -0.55830709794E+03  0.55830709795E+03  0.25500000920E-02 0. -1.
    10030    2    1    2    0    0  0.00000000000E+00  0.00000000000E+00  0.35185056817E+03  0.14684647641E+04  0.14256892863E+04 0.  0.
        2    1    3    3  502    0  0.98301590218E+02 -0.53480531711E+03  0.65069712703E+03  0.84798978826E+03  0.25500000920E-02 0.  1.
       -2    1    3    3    0  502 -0.98301590218E+02  0.53480531711E+03 -0.29884655887E+03  0.62047497581E+03  0.25500000920E-02 0. -1.
</event>
<event>
 5   0  0.3973227E-04  0.1597031E+04  0.7818609E-02  0.8822374E-01
        1   -1    0    0  501    0  0.00000000000E+00  0.00000000000E+00  0.11589872816E+04  0.11589872816E+04  0.50400001928E-02 0. -1.
       -1   -1    0    0    0  501  0.00000000000E+00  0.00000000000E+00 -0.55015897789E+03  0.55015897791E+03  0.50400001928E-02 0.  1.
    10030    2    1    2    0    0  0.00000000000E+00  0.00000000000E+00  0.60882830367E+03  0.17091462595E+04  0.15970313187E+04 0.  0.
        3    1    3    3  502    0  0.37409339188E+03 -0.49572847059E+03 -0.23275338748E+03  0.66322449592E+03  0.10100000352E+00 0.  1.
       -3    1    3    3    0  502 -0.37409339188E+03  0.49572847059E+03  0.84158169116E+03  0.10459217636E+04  0.10100000352E+00 0. -1.
</event>
<event>
 5   0  0.7488884E-04  0.1616310E+04  0.7818609E-02  0.8810590E-01
       -2   -1    0    0    0  501  0.00000000000E+00  0.00000000000E+00  0.47770168256E+03  0.47770168257E+03  0.25500000920E-02 0. -1.
        2   -1    0    0  501    0  0.00000000000E+00  0.00000000000E+00 -0.13672011993E+04  0.13672011993E+04  0.25500000920E-02 0.  1.
    10030    2    1    2    0    0  0.00000000000E+00  0.00000000000E+00 -0.88949951678E+03  0.18449028819E+04  0.16163097640E+04 0.  0.
        3    1    3    3  502    0  0.35549520477E+02 -0.15343617583E+03 -0.13495134506E+04  0.13586732469E+04  0.10100000352E+00 0.  1.
       -3    1    3    3    0  502 -0.35549520477E+02  0.15343617583E+03  0.46001393378E+03  0.48622963498E+03  0.10100000352E+00 0. -1.
</event>
<event>
 5   0  0.2781000E-04  0.1465356E+04  0.7818609E-02  0.8907823E-01
       -3   -1    0    0    0  501  0.00000000000E+00  0.00000000000E+00  0.82848061258E+03  0.82848061874E+03  0.10100000352E+00 0.  1.
        3   -1    0    0  501    0  0.00000000000E+00  0.00000000000E+00 -0.64795353172E+03  0.64795353959E+03  0.10100000352E+00 0. -1.
    10030    2    1    2    0    0  0.00000000000E+00  0.00000000000E+00  0.18052708086E+03  0.14764341583E+04  0.14653558602E+04 0.  0.
        5    1    3    3  502    0  0.96250023902E+02  0.34669033534E+03 -0.55279083530E+03  0.65958930655E+03  0.46999998093E+01 0. -1.
       -5    1    3    3    0  502 -0.96250023902E+02 -0.34669033534E+03  0.73331791617E+03  0.81684485178E+03  0.46999998093E+01 0.  1.
</event>
<event>
 5   0  0.7553070E-04  0.1682568E+04  0.7818609E-02  0.8771369E-01
        2   -1    0    0  501    0  0.00000000000E+00  0.00000000000E+00  0.80711396021E+03  0.80711396021E+03  0.25500000920E-02 0. -1.
       -2   -1    0    0    0  501  0.00000000000E+00  0.00000000000E+00 -0.87690088952E+03  0.87690088953E+03  0.25500000920E-02 0.  1.
    10030    2    1    2    0    0  0.00000000000E+00  0.00000000000E+00 -0.69786929317E+02  0.16840148497E+04  0.16825682152E+04 0.  0.
        4    1    3    3  502    0 -0.30812822015E+03 -0.70015730827E+03 -0.38532887713E+03  0.85652975011E+03  0.12699999809E+01 0.  1.
       -4    1    3    3    0  502  0.30812822015E+03  0.70015730827E+03  0.31554194781E+03  0.82748509963E+03  0.12699999809E+01 0. -1.
</event>
<event>
 5   0  0.7553070E-04  0.1599159E+04  0.7818609E-02  0.8821065E-01
       -2   -1    0    0    0  501  0.00000000000E+00  0.00000000000E+00  0.52169462881E+03  0.52169462882E+03  0.25500000920E-02 0. -1.
        2   -1    0    0  501    0  0.00000000000E+00  0.00000000000E+00 -0.12254816987E+04  0.12254816988E+04  0.25500000920E-02 0.  1.
    10030    2    1    2    0    0  0.00000000000E+00  0.00000000000E+00 -0.70378706993E+03  0.17471763276E+04  0.15991588038E+04 0.  0.
        4    1    3    3  502    0 -0.41594366803E+03 -0.68032547452E+03 -0.28749995091E+03  0.84764952718E+03  0.12699999809E+01 0.  1.
       -4    1    3    3    0  502  0.41594366803E+03  0.68032547452E+03 -0.41628711902E+03  0.89952680039E+03  0.12699999809E+01 0. -1.
</event>
<event>
 5   0  0.3950195E-04  0.1618973E+04  0.7818609E-02  0.8808976E-01
       -1   -1    0    0    0  501  0.00000000000E+00  0.00000000000E+00  0.85178032099E+03  0.85178032100E+03  0.50400001928E-02 0. -1.
        1   -1    0    0  501    0  0.00000000000E+00  0.00000000000E+00 -0.76929313704E+03  0.76929313706E+03  0.50400001928E-02 0.  1.
    10030    2    1    2    0    0  0.00000000000E+00  0.00000000000E+00  0.82487183949E+02  0.16210734581E+04  0.16189734466E+04 0.  0.
        2    1    3    3  502    0  0.36042808493E+03 -0.68441450017E+03 -0.19768097307E+03  0.79837922040E+03  0.25500000920E-02 0.  1.
       -2    1    3    3    0  502 -0.36042808493E+03  0.68441450017E+03  0.28016815702E+03  0.82269423765E+03  0.25500000920E-02 0. -1.
</event>
<event>
 5   0  0.7395088E-04  0.1614076E+04  0.7818609E-02  0.8811947E-01
       -2   -1    0    0    0  501  0.00000000000E+00  0.00000000000E+00  0.55618537146E+03  0.55618537146E+03  0.25500000920E-02 0. -1.
        2   -1    0    0  501    0  0.00000000000E+00  0.00000000000E+00 -0.11710316983E+04  0.11710316983E+04  0.25500000920E-02 0.  1.
    10030    2    1    2    0    0  0.00000000000E+00  0.00000000000E+00 -0.61484632685E+03  0.17272170698E+04  0.16140764543E+04 0.  0.
        1    1    3    3  502    0  0.72487981968E+03  0.29391447990E+03 -0.94815150425E+02  0.78792536909E+03  0.50400001928E-02 0.  1.
       -1    1    3    3    0  502 -0.72487981968E+03 -0.29391447990E+03 -0.52003117642E+03  0.93929170067E+03  0.50400001928E-02 0. -1.
</event>
<event>
 5   0  0.3889847E-04  0.1597124E+04  0.7818609E-02  0.8822317E-01
       -1   -1    0    0    0  501  0.00000000000E+00  0.00000000000E+00  0.51970034907E+03  0.51970034909E+03  0.50400001928E-02 0. -1.
        1   -1    0    0  501    0  0.00000000000E+00  0.00000000000E+00 -0.12270555772E+04  0.12270555772E+04  0.50400001928E-02 0.  1.
    10030    2    1    2    0    0  0.00000000000E+00  0.00000000000E+00 -0.70735522811E+03  0.17467559263E+04  0.15971239298E+04 0.  0.
        1    1    3    3  502    0  0.27952466879E+03 -0.96345258936E+02 -0.11649885914E+04  0.12019213233E+04  0.50400001928E-02 0.  1.
       -1    1    3    3    0  502 -0.27952466879E+03  0.96345258936E+02  0.45763336327E+03  0.54483460296E+03  0.50400001928E-02 0. -1.
</event>
<event>
 5   0  0.4110803E-04  0.1576856E+04  0.7818609E-02  0.8834894E-01
       -1   -1    0    0    0  501  0.00000000000E+00  0.00000000000E+00  0.78504383541E+03  0.78504383543E+03  0.50400001928E-02 0.  1.
        1   -1    0    0  501    0  0.00000000000E+00  0.00000000000E+00 -0.79182663551E+03  0.79182663553E+03  0.50400001928E-02 0. -1.
    10030    2    1    2    0    0  0.00000000000E+00  0.00000000000E+00 -0.67828000991E+01  0.15768704710E+04  0.15768558830E+04 0.  0.
        5    1    3    3  502    0 -0.16114322628E+03  0.43882590181E+03 -0.63826829770E+03  0.79116611488E+03  0.46999998093E+01 0. -1.
       -5    1    3    3    0  502  0.16114322628E+03 -0.43882590181E+03  0.63148549761E+03  0.78570435608E+03  0.46999998093E+01 0.  1.
</event>
<event>
 5   0  0.7395088E-04  0.1586765E+04  0.7818609E-02  0.8828720E-01
        2   -1    0    0  501    0  0.00000000000E+00  0.00000000000E+00  0.44137654456E+03  0.44137654457E+03  0.25500000920E-02 0.  1.
       -2   -1    0    0    0  501  0.00000000000E+00  0.00000000000E+00 -0.14261194497E+04  0.14261194497E+04  0.25500000920E-02 0. -1.
    10030    2    1    2    0    0  0.00000000000E+00  0.00000000000E+00 -0.98474290512E+03  0.18674959943E+04  0.15867648532E+04 0.  0.
        1    1    3    3  502    0 -0.71161338141E+02  0.29532096849E+03  0.37022152505E+03  0.47889705377E+03  0.50400001928E-02 0.  1.
       -1    1    3    3    0  502  0.71161338141E+02 -0.29532096849E+03 -0.13549644302E+04  0.13885989405E+04  0.50400001928E-02 0. -1.
</event>
<event>
 5   0  0.4110803E-04  0.1536586E+04  0.7818609E-02  0.8860482E-01
       -1   -1    0    0    0  501  0.00000000000E+00  0.00000000000E+00  0.79776559243E+03  0.79776559244E+03  0.50400001928E-02 0. -1.
        1   -1    0    0  501    0  0.00000000000E+00  0.00000000000E+00 -0.73990915876E+03  0.73990915878E+03  0.50400001928E-02 0.  1.
    10030    2    1    2    0    0  0.00000000000E+00  0.00000000000E+00  0.57856433668E+02  0.15376747512E+04  0.15365859148E+04 0.  0.
        5    1    3    3  502    0  0.35209702053E+03 -0.67923787139E+03 -0.41232666281E+02  0.76619750754E+03  0.46999998093E+01 0.  1.
       -5    1    3    3    0  502 -0.35209702053E+03  0.67923787139E+03  0.99089099949E+02  0.77147724368E+03  0.46999998093E+01 0. -1.
</event>
<event>
 5   0  0.3973227E-04  0.1851890E+04  0.7818609E-02  0.8679182E-01
        1   -1    0    0  501    0  0.00000000000E+00  0.00000000000E+00  0.12292332992E+04  0.12292332993E+04  0.50400001928E-02 0.  1.
       -1   -1    0    0    0  501  0.00000000000E+00  0.00000000000E+00 -0.69748673722E+03  0.69748673724E+03  0.50400001928E-02 0. -1.
    10030    2    1    2    0    0  0.00000000000E+00  0.00000000000E+00  0.53174656202E+03  0.19267200365E+04  0.18518897626E+04 0.  0.
        3    1    3    3  502    0  0.45667309644E+03 -0.96940653685E+02  0.10978260364E+04  0.11929668158E+04  0.10100000352E+00 0.  1.
       -3    1    3    3    0  502 -0.45667309644E+03  0.96940653685E+02 -0.56607947435E+03  0.73375322066E+03  0.10100000352E+00 0. -1.
</event>
<event>
 5   0  0.3837251E-04  0.1367410E+04  0.7818609E-02  0.8977752E-01
        1   -1    0    0  501    0  0.00000000000E+00  0.00000000000E+00  0.72241869337E+03  0.72241869339E+03  0.50400001928E-02 0.  1.
       -1   -1    0    0    0  501  0.00000000000E+00  0.00000000000E+00 -0.64706636749E+03  0.64706636751E+03  0.50400001928E-02 0. -1.
    10030    2    1    2    0    0  0.00000000000E+00  0.00000000000E+00  0.75352325879E+02  0.13694850609E+04  0.13674104574E+04 0.  0.
        4    1    3    3  502    0  0.44547933508E+03 -0.13460567056E+02 -0.48158726759E+03  0.65617142124E+03  0.12699999809E+01 0. -1.
       -4    1    3    3    0  502 -0.44547933508E+03  0.13460567056E+02  0.55693959347E+03  0.71331363966E+03  0.12699999809E+01 0.  1.
</event>
<event>
 5   0  0.7415102E-04  0.1603914E+04  0.7818609E-02  0.8818147E-01
        2   -1    0    0  501    0  0.00000000000E+00  0.00000000000E+00  0.14091867242E+04  0.14091867242E+04  0.25500000920E-02 0.  1.
       -2   -1    0    0    0  501  0.00000000000E+00  0.00000000000E+00 -0.45638712535E+03  0.45638712536E+03  0.25500000920E-02 0. -1.
    10030    2    1    2    0    0  0.00000000000E+00  0.00000000000E+00  0.95279959884E+03  0.18655738495E+04  0.16039135614E+04 0.  0.
        5    1    3    3  502    0 -0.66375669147E+03 -0.44943142672E+03  0.44909611755E+03  0.91884218754E+03  0.46999998093E+01 0. -1.
       -5    1    3    3    0  502  0.66375669147E+03  0.44943142672E+03  0.50370348128E+03  0.94673166201E+03  0.46999998093E+01 0.  1.
</event>
<event>
 5   0  0.7395088E-04  0.1753047E+04  0.7818609E-02  0.8731675E-01
        2   -1    0    0  501    0  0.00000000000E+00  0.00000000000E+00  0.13091160893E+04  0.13091160893E+04  0.25500000920E-02 0. -1.
       -2   -1    0    0    0  501  0.00000000000E+00  0.00000000000E+00 -0.58687922305E+03  0.58687922305E+03  0.25500000920E-02 0.  1.
    10030    2    1    2    0    0  0.00000000000E+00  0.00000000000E+00  0.72223686622E+03  0.18959953123E+04  0.17530465292E+04 0.  0.
        1    1    3    3  502    0  0.21515527391E+01  0.59202007206E+03 -0.33796396225E+03  0.68169790575E+03  0.50400001928E-02 0.  1.
       -1    1    3    3    0  502 -0.21515527391E+01 -0.59202007206E+03  0.10602008285E+04  0.12142974066E+04  0.50400001928E-02 0. -1.
</event>
<event>
 5   0  0.3950195E-04  0.1615921E+04  0.7818609E-02  0.8810827E-01
       -1   -1    0    0    0  501  0.00000000000E+00  0.00000000000E+00  0.44137873079E+03  0.44137873082E+03  0.50400001928E-02 0. -1.
        1   -1    0    0  501    0  0.00000000000E+00  0.00000000000E+00 -0.14790020031E+04  0.14790020031E+04  0.50400001928E-02 0.  1.
    10030    2    1    2    0    0  0.00000000000E+00  0.00000000000E+00 -0.10376232723E+04  0.19203807340E+04  0.16159208236E+04 0.  0.
        2    1    3    3  502    0  0.75536131053E+03  0.24485704687E+03 -0.34144590009E+03  0.86435582114E+03  0.25500000920E-02 0. -1.
       -2    1    3    3    0  502 -0.75536131053E+03 -0.24485704687E+03 -0.69617737226E+03  0.10560249128E+04  0.25500000920E-02 0.  1.
</event>
<event>
 5   0  0.4110803E-04  0.1571921E+04  0.7818609E-02  0.8837986E-01
        1   -1    0    0  501    0  0.00000000000E+00  0.00000000000E+00  0.89143975217E+03  0.89143975219E+03  0.50400001928E-02 0.  1.
       -1   -1    0    0    0  501  0.00000000000E+00  0.00000000000E+00 -0.69296174033E+03  0.69296174035E+03  0.50400001928E-02 0. -1.
    10030    2    1    2    0    0  0.00000000000E+00  0.00000000000E+00  0.19847801184E+03  0.15844014925E+04  0.15719206622E+04 0.  0.
        5    1    3    3  502    0 -0.74648901369E+03  0.12380406601E+03 -0.11490553932E+03  0.76537485410E+03  0.46999998093E+01 0.  1.
       -5    1    3    3    0  502  0.74648901369E+03 -0.12380406601E+03  0.31338355116E+03  0.81902663843E+03  0.46999998093E+01 0. -1.
</event>
<event>
 5   0  0.7488884E-04  0.1642639E+04  0.7818609E-02  0.8794773E-01
        2   -1    0    0  501    0  0.00000000000E+00  0.00000000000E+00  0.13146518914E+04  0.13146518914E+04  0.25500000920E-02 0. -1.
       -2   -1    0    0    0  501  0.00000000000E+00  0.00000000000E+00 -0.51311371632E+03  0.51311371633E+03  0.25500000920E-02 0.  1.
    10030    2    1    2    0    0  0.00000000000E+00  0.00000000000E+00  0.80153817511E+03  0.18277656078E+04  0.16426392394E+04 0.  0.
        3    1    3    3  502    0  0.46655521269E+03 -0.65028341695E+03  0.19552599068E+03  0.82387663645E+03  0.10100000352E+00 0.  1.
       -3    1    3    3    0  502 -0.46655521269E+03  0.65028341695E+03  0.60601218443E+03  0.10038889713E+04  0.10100000352E+00 0. -1.
</event>
<event>
 5   0  0.7395088E-04  0.1596780E+04  0.7818609E-02  0.8822529E-01
       -2   -1    0    0    0  501  0.00000000000E+00  0.00000000000E+00  0.58037557675E+03  0.58037557676E+03  0.25500000920E-02 0.  1.
        2   -1    0    0  501    0  0.00000000000E+00  0.00000000000E+00 -0.10983002582E+04  0.10983002582E+04  0.25500000920E-02 0. -1.
    10030    2    1    2    0    0  0.00000000000E+00  0.00000000000E+00 -0.51792468143E+03  0.16786758349E+04  0.15967800673E+04 0.  0.
        1    1    3    3  502    0  0.60613707950E+03  0.49833298839E+03 -0.10413819577E+03  0.79156976338E+03  0.50400001928E-02 0.  1.
       -1    1    3    3    0  502 -0.60613707950E+03 -0.49833298839E+03 -0.41378648566E+03  0.88710607156E+03  0.50400001928E-02 0. -1.
</event>
<event>
 5   0  0.2781000E-04  0.1642990E+04  0.7818609E-02  0.8794564E-01
        3   -1    0    0  501    0  0.00000000000E+00  0.00000000000E+00  0.67724191861E+03  0.67724192614E+03  0.10100000352E+00 0.  1.
       -3   -1    0    0    0  501  0.00000000000E+00  0.00000000000E+00 -0.99647400627E+03  0.99647401139E+03  0.10100000352E+00 0. -1.
    10030    2    1    2    0    0  0.00000000000E+00  0.00000000000E+00 -0.31923208766E+03  0.16737159375E+04  0.16429899311E+04 0.  0.
        2    1    3    3  502    0 -0.55393513417E+03 -0.39173465883E+03 -0.63147799344E+03  0.92685739572E+03  0.25500000920E-02 0. -1.
       -2    1    3    3    0  502  0.55393513417E+03  0.39173465883E+03  0.31224590578E+03  0.74685854181E+03  0.25500000920E-02 0.  1.
</event>
<event>
 5   0  0.3950195E-04  0.1591958E+04  0.7818609E-02  0.8825504E-01
        1   -1    0    0  501    0  0.00000000000E+00  0.00000000000E+00  0.11231067845E+04  0.11231067846E+04  0.50400001928E-02 0. -1.
       -1   -1    0    0    0  501  0.00000000000E+00  0.00000000000E+00 -0.56413358108E+03  0.56413358110E+03  0.50400001928E-02 0.  1.
    10030    2    1    2    0    0  0.00000000000E+00  0.00000000000E+00  0.55897320346E+03  0.16872403657E+04  0.15919576029E+04 0.  0.
        2    1    3    3  502    0  0.76287055735E+03  0.10540891524E+02  0.52000462059E+03  0.92330244401E+03  0.25500000920E-02 0. -1.
       -2    1    3    3    0  502 -0.76287055735E+03 -0.10540891524E+02  0.38968582875E+02  0.76393792164E+03  0.25500000920E-02 0.  1.
</event>
<event>
 5   0  0.4110803E-04  0.1643316E+04  0.7818609E-02  0.8794370E-01
       -1   -1    0    0    0  501  0.00000000000E+00  0.00000000000E+00  0.53695058188E+03  0.53695058190E+03  0.50400001928E-02 0.  1.
        1   -1    0    0  501    0  0.00000000000E+00  0.00000000000E+00 -0.12573260876E+04  0.12573260876E+04  0.50400001928E-02 0. -1.
    10030    2    1    2    0    0  0.00000000000E+00  0.00000000000E+00 -0.72037550575E+03  0.17942766695E+04  0.16433161283E+04 0.  0.
        5    1    3    3  502    0  0.61582291709E+03  0.24581818505E+03  0.16960280084E+03  0.68443527478E+03  0.46999998093E+01 0. -1.
       -5    1    3    3    0  502 -0.61582291709E+03 -0.24581818505E+03 -0.88997830659E+03  0.11098413948E+04  0.46999998093E+01 0.  1.
</event>
<event>
 5   0  0.3950195E-04  0.1606080E+04  0.7818609E-02  0.8816822E-01
        1   -1    0    0  501    0  0.00000000000E+00  0.00000000000E+00  0.57212521478E+03  0.57212521480E+03  0.50400001928E-02 0.  1.
       -1   -1    0    0    0  501  0.00000000000E+00  0.00000000000E+00 -0.11271536877E+04  0.11271536877E+04  0.50400001928E-02 0. -1.
    10030    2    1    2    0    0  0.00000000000E+00  0.00000000000E+00 -0.55502847289E+03  0.16992789025E+04  0.16060797560E+04 0.  0.
        2    1    3    3  502    0 -0.18053084515E+03  0.71897820466E+03  0.49195789923E+02  0.74292750022E+03  0.25500000920E-02 0.  1.
       -2    1    3    3    0  502  0.18053084515E+03 -0.71897820466E+03 -0.60422426281E+03  0.95635140226E+03  0.25500000920E-02 0. -1.
</event>
<event>
 5   0  0.4110803E-04  0.1611611E+04  0.7818609E-02  0.8813446E-01
        1   -1    0    0  501    0  0.00000000000E+00  0.00000000000E+00  0.20650579646E+04  0.20650579646E+04  0.50400001928E-02 0.  1.
       -1   -1    0    0    0  501  0.00000000000E+00  0.00000000000E+00 -0.31443320597E+03  0.31443320601E+03  0.50400001928E-02 0. -1.
    10030    2    1    2    0    0  0.00000000000E+00  0.00000000000E+00  0.17506247586E+04  0.23794911706E+04  0.16116113630E+04 0.  0.
        5    1    3    3  502    0  0.55197937512E+03  0.47641183299E+03  0.13817454215E+04  0.15623354201E+04  0.46999998093E+01 0.  1.
       -5    1    3    3    0  502 -0.55197937512E+03 -0.47641183299E+03  0.36887933713E+03  0.81715575048E+03  0.46999998093E+01 0. -1.
</event>
<event>
 5   0  0.3950195E-04  0.1629188E+04  0.7818609E-02  0.8802815E-01
        1   -1    0    0  501    0  0.00000000000E+00  0.00000000000E+00  0.33842343764E+03  0.33842343767E+03  0.50400001928E-02 0.  1.
       -1   -1    0    0    0  501  0.00000000000E+00  0.00000000000E+00 -0.19607478592E+04  0.19607478592E+04  0.50400001928E-02 0. -1.
    10030    2    1    2    0    0  0.00000000000E+00  0.00000000000E+00 -0.16223244216E+04  0.22991712969E+04  0.16291875655E+04 0.  0.
        2    1    3    3  502    0 -0.50955487410E+03 -0.21499321919E+03 -0.16551896031E+04  0.17451420791E+04  0.25500000920E-02 0. -1.
       -2    1    3    3    0  502  0.50955487410E+03  0.21499321919E+03  0.32865181514E+02  0.55402921780E+03  0.25500000920E-02 0.  1.
</event>
<event>
 5   0  0.7488884E-04  0.1584506E+04  0.7818609E-02  0.8830123E-01
        2   -1    0    0  501    0  0.00000000000E+00  0.00000000000E+00  0.88677959049E+03  0.88677959049E+03  0.25500000920E-02 0.  1.
       -2   -1    0    0    0  501  0.00000000000E+00  0.00000000000E+00 -0.70780256094E+03  0.70780256094E+03  0.25500000920E-02 0. -1.
    10030    2    1    2    0    0  0.00000000000E+00  0.00000000000E+00  0.17897702955E+03  0.15945821514E+04  0.15845060620E+04 0.  0.
        3    1    3    3  502    0 -0.32067415565E+03  0.65255792866E+03 -0.22715673914E+03  0.76175058825E+03  0.10100000352E+00 0. -1.
       -3    1    3    3    0  502  0.32067415565E+03 -0.65255792866E+03  0.40613376869E+03  0.83283156318E+03  0.10100000352E+00 0.  1.
</event>
<event>
 5   0  0.7770905E-04  0.1598150E+04  0.7818609E-02  0.8821685E-01
        2   -1    0    0  501    0  0.00000000000E+00  0.00000000000E+00  0.78201944136E+03  0.78201944137E+03  0.25500000920E-02 0. -1.
       -2   -1    0    0    0  501  0.00000000000E+00  0.00000000000E+00 -0.81650292544E+03  0.81650292544E+03  0.25500000920E-02 0.  1.
    10030    2    1    2    0    0  0.00000000000E+00  0.00000000000E+00 -0.34483484078E+02  0.15985223668E+04  0.15981503829E+04 0.  0.
        2    1    3    3  502    0  0.10929813847E+01 -0.21377183334E+03 -0.78737002453E+03  0.81587446760E+03  0.25500000920E-02 0.  1.
       -2    1    3    3    0  502 -0.10929813847E+01  0.21377183334E+03  0.75288654045E+03  0.78264789921E+03  0.25500000920E-02 0. -1.
</event>
<event>
 5   0  0.7395088E-04  0.1626207E+04  0.7818609E-02  0.8804608E-01
        2   -1    0    0  501    0  0.00000000000E+00  0.00000000000E+00  0.91286358293E+03  0.91286358293E+03  0.25500000920E-02 0. -1.
       -2   -1    0    0    0  501  0.00000000000E+00  0.00000000000E+00 -0.72424516397E+03  0.72424516398E+03  0.25500000920E-02 0.  1.
    10030    2    1    2    0    0  0.00000000000E+00  0.00000000000E+00  0.18861841895E+03  0.16371087469E+04  0.16262066724E+04 0.  0.
        1    1    3    3  502    0  0.47165564763E+03  0.47289732738E+03 -0.37253027280E+03  0.76476776629E+03  0.50400001928E-02 0.  1.
       -1    1    3    3    0  502 -0.47165564763E+03 -0.47289732738E+03  0.56114869175E+03  0.87234098062E+03  0.50400001928E-02 0. -1.
</event>
<event>
 5   0  0.3950195E-04  0.1589191E+04  0.7818609E-02  0.8827216E-01
        1   -1    0    0  501    0  0.00000000000E+00  0.00000000000E+00  0.11249565116E+04  0.11249565116E+04  0.50400001928E-02 0. -1.
       -1   -1    0    0    0  501  0.00000000000E+00  0.00000000000E+00 -0.56125036120E+03  0.56125036122E+03  0.50400001928E-02 0.  1.
    10030    2    1    2    0    0  0.00000000000E+00  0.00000000000E+00  0.56370615041E+03  0.16862068728E+04  0.15891913019E+04 0.  0.
        2    1    3    3  502    0  0.36291082593E+02 -0.13316403699E+03 -0.54843413296E+03  0.56553488099E+03  0.25500000920E-02 0.  1.
       -2    1    3    3    0  502 -0.36291082593E+02  0.13316403699E+03  0.11121402834E+04  0.11206719918E+04  0.25500000920E-02 0. -1.
</event>
<event>
 5   0  0.7553070E-04  0.1547625E+04  0.7818609E-02  0.8853386E-01
        2   -1    0    0  501    0  0.00000000000E+00  0.00000000000E+00  0.80322207974E+03  0.80322207975E+03  0.25500000920E-02 0. -1.
       -2   -1    0    0    0  501  0.00000000000E+00  0.00000000000E+00 -0.74548019616E+03  0.74548019616E+03  0.25500000920E-02 0.  1.
    10030    2    1    2    0    0  0.00000000000E+00  0.00000000000E+00  0.57741883583E+02  0.15487022759E+04  0.15476254761E+04 0.  0.
        4    1    3    3  502    0  0.24413454939E+03  0.54677451767E+01  0.76365219225E+03  0.80174675433E+03  0.12699999809E+01 0. -1.
       -4    1    3    3    0  502 -0.24413454939E+03 -0.54677451767E+01 -0.70591030867E+03  0.74695552159E+03  0.12699999809E+01 0.  1.
</event>
<event>
 5   0  0.3889847E-04  0.1606792E+04  0.7818609E-02  0.8816387E-01
        1   -1    0    0  501    0  0.00000000000E+00  0.00000000000E+00  0.12254914899E+04  0.12254914899E+04  0.50400001928E-02 0.  1.
       -1   -1    0    0    0  501  0.00000000000E+00  0.00000000000E+00 -0.52668237153E+03  0.52668237156E+03  0.50400001928E-02 0. -1.
    10030    2    1    2    0    0  0.00000000000E+00  0.00000000000E+00  0.69880911840E+03  0.17521738615E+04  0.16067915412E+04 0.  0.
        1    1    3    3  502    0  0.98590090380E+02 -0.62725649044E+03  0.88615339776E+03  0.10901552894E+04  0.50400001928E-02 0.  1.
       -1    1    3    3    0  502 -0.98590090380E+02  0.62725649044E+03 -0.18734427935E+03  0.66201857206E+03  0.50400001928E-02 0. -1.
</event>
<event>
 5   0  0.3837251E-04  0.1727138E+04  0.7818609E-02  0.8746036E-01
       -1   -1    0    0    0  501  0.00000000000E+00  0.00000000000E+00  0.42657217962E+03  0.42657217965E+03  0.50400001928E-02 0.  1.
        1   -1    0    0  501    0  0.00000000000E+00  0.00000000000E+00 -0.17482420762E+04  0.17482420762E+04  0.50400001928E-02 0. -1.
    10030    2    1    2    0    0  0.00000000000E+00  0.00000000000E+00 -0.13216698966E+04  0.21748142559E+04  0.17271380176E+04 0.  0.
        4    1    3    3  502    0 -0.43654398091E+03  0.73648621296E+03 -0.80311482633E+03  0.11738729175E+04  0.12699999809E+01 0. -1.
       -4    1    3    3    0  502  0.43654398091E+03 -0.73648621296E+03 -0.51855507025E+03  0.10009413384E+04  0.12699999809E+01 0.  1.
</event>
<event>
 5   0  0.7488884E-04  0.1592300E+04  0.7818609E-02  0.8825292E-01
        2   -1    0    0  501    0  0.00000000000E+00  0.00000000000E+00  0.98877611791E+03  0.98877611791E+03  0.25500000920E-02 0.  1.
       -2   -1    0    0    0  501  0.00000000000E+00  0.00000000000E+00 -0.64105020055E+03  0.64105020055E+03  0.25500000920E-02 0. -1.
    10030    2    1    2    0    0  0.00000000000E+00  0.00000000000E+00  0.34772591736E+03  0.16298263185E+04  0.15923003846E+04 0.  0.
        3    1    3    3  502    0 -0.70674768315E+02 -0.79285364588E+03  0.18982836922E+03  0.81831940379E+03  0.10100000352E+00 0.  1.
       -3    1    3    3    0  502  0.70674768315E+02  0.79285364588E+03  0.15789754814E+03  0.81150691468E+03  0.10100000352E+00 0. -1.
</event>
<event>
 5   0  0.4110803E-04  0.1549363E+04  0.7818609E-02  0.8852275E-01
        1   -1    0    0  501    0  0.00000000000E+00  0.00000000000E+00  0.12494503010E+04  0.12494503011E+04  0.50400001928E-02 0.  1.
       -1   -1    0    0    0  501  0.00000000000E+00  0.00000000000E+00 -0.48031614303E+03  0.48031614305E+03  0.50400001928E-02 0. -1.
    10030    2    1    2    0    0  0.00000000000E+00  0.00000000000E+00  0.76913415802E+03  0.17297664441E+04  0.15493626426E+04 0.  0.
        5    1    3    3  502    0  0.15864002426E+03  0.52651224832E+03  0.99374434022E+03  0.11357516052E+04  0.46999998093E+01 0.  1.
       -5    1    3    3    0  502 -0.15864002426E+03 -0.52651224832E+03 -0.22461018220E+03  0.59401483894E+03  0.46999998093E+01 0. -1.
</event>
<event>
 5   0  0.7488884E-04  0.1597388E+04  0.7818609E-02  0.8822155E-01
       -2   -1    0    0    0  501  0.00000000000E+00  0.00000000000E+00  0.49170731381E+03  0.49170731382E+03  0.25500000920E-02 0.  1.
        2   -1    0    0  501    0  0.00000000000E+00  0.00000000000E+00 -0.12973403032E+04  0.12973403032E+04  0.25500000920E-02 0. -1.
    10030    2    1    2    0    0  0.00000000000E+00  0.00000000000E+00 -0.80563298939E+03  0.17890476170E+04  0.15973875117E+04 0.  0.
        3    1    3    3  502    0  0.68184058521E+03  0.41250349668E+03 -0.46256514093E+03  0.92142945374E+03  0.10100000352E+00 0.  1.
       -3    1    3    3    0  502 -0.68184058521E+03 -0.41250349668E+03 -0.34306784847E+03  0.86761816329E+03  0.10100000352E+00 0. -1.
</event>
<event>
 5   0  0.3837251E-04  0.1629098E+04  0.7818609E-02  0.8802868E-01
       -1   -1    0    0    0  501  0.00000000000E+00  0.00000000000E+00  0.36340217771E+03  0.36340217774E+03  0.50400001928E-02 0.  1.
        1   -1    0    0  501    0  0.00000000000E+00  0.00000000000E+00 -0.18257745434E+04  0.18257745434E+04  0.50400001928E-02 0. -1.
    10030    2    1    2    0    0  0.00000000000E+00  0.00000000000E+00 -0.14623723657E+04  0.21891767211E+04  0.16290984563E+04 0.  0.
        4    1    3    3  502    0  0.73917564902E+02  0.78049169320E+03 -0.43415626983E+03  0.89617206445E+03  0.12699999809E+01 0.  1.
       -4    1    3    3    0  502 -0.73917564902E+02 -0.78049169320E+03 -0.10282160958E+04  0.12930046567E+04  0.12699999809E+01 0. -1.
</event>
<event>
 5   0  0.4110803E-04  0.1635115E+04  0.7818609E-02  0.8799261E-01
        1   -1    0    0  501    0  0.00000000000E+00  0.00000000000E+00  0.99040381309E+03  0.99040381310E+03  0.50400001928E-02 0. -1.
       -1   -1    0    0    0  501  0.00000000000E+00  0.00000000000E+00 -0.67487665286E+03  0.67487665288E+03  0.50400001928E-02 0.  1.
    10030    2    1    2    0    0  0.00000000000E+00  0.00000000000E+00  0.31552716022E+03  0.16652804660E+04  0.16351151768E+04 0.  0.
        5    1    3    3  502    0 -0.43915280002E+03  0.23800725004E+03 -0.50138241088E+03  0.70774928101E+03  0.46999998093E+01 0.  1.
       -5    1    3    3    0  502  0.43915280002E+03 -0.23800725004E+03  0.81690957110E+03  0.95753118497E+03  0.46999998093E+01 0. -1.
</event>
<event>
 5   0  0.7415102E-04  0.1563872E+04  0.7818609E-02  0.8843055E-01
        2   -1    0    0  501    0  0.00000000000E+00  0.00000000000E+00  0.93443614815E+03  0.93443614815E+03  0.25500000920E-02 0. -1.
       -2   -1    0    0    0  501  0.00000000000E+00  0.00000000000E+00 -0.65432411361E+03  0.65432411362E+03  0.25500000920E-02 0.  1.
    10030    2    1    2    0    0  0.00000000000E+00  0.00000000000E+00  0.28011203454E+03  0.15887602618E+04  0.15638722510E+04 0.  0.
        5    1    3    3  502    0  0.44978633149E+03  0.18639355264E+03  0.76163598257E+03  0.90396999973E+03  0.46999998093E+01 0. -1.
       -5    1    3    3    0  502 -0.44978633149E+03 -0.18639355264E+03 -0.48152394804E+03  0.68479026204E+03  0.46999998093E+01 0.  1.
</event>
<event>
 5   0  0.3889847E-04  0.1597668E+04  0.7818609E-02  0.8821982E-01
       -1   -1    0    0    0  501  0.00000000000E+00  0.00000000000E+00  0.33330860337E+03  0.33330860341E+03  0.50400001928E-02 0.  1.
        1   -1    0    0  501    0  0.00000000000E+00  0.00000000000E+00 -0.19145490044E+04  0.19145490044E+04  0.50400001928E-02 0. -1.
    10030    2    1    2    0    0  0.00000000000E+00  0.00000000000E+00 -0.15812404010E+04  0.22478576078E+04  0.15976678689E+04 0.  0.
        1    1    3    3  502    0 -0.27073861369E+03  0.41163687323E+03 -0.16753198880E+04  0.17462648824E+04  0.50400001928E-02 0. -1.
       -1    1    3    3    0  502  0.27073861369E+03 -0.41163687323E+03  0.94079486926E+02  0.50159272546E+03  0.50400001928E-02 0.  1.
</event>
<event>
 5   0  0.7415102E-04  0.1606233E+04  0.7818609E-02  0.8816728E-01
       -2   -1    0    0    0  501  0.00000000000E+00  0.00000000000E+00  0.80646054197E+03  0.80646054197E+03  0.25500000920E-02 0. -1.
        2   -1    0    0  501    0  0.00000000000E+00  0.00000000000E+00 -0.79978612210E+03  0.79978612210E+03  0.25500000920E-02 0.  1.
    10030    2    1    2    0    0  0.00000000000E+00  0.00000000000E+00  0.66744198718E+01  0.16062466641E+04  0.16062327969E+04 0.  0.
        5    1    3    3  502    0 -0.65521750233E+03  0.66469801777E+02  0.46295585306E+03  0.80503318055E+03  0.46999998093E+01 0. -1.
       -5    1    3    3    0  502  0.65521750233E+03 -0.66469801777E+02 -0.45628143319E+03  0.80121348352E+03  0.46999998093E+01 0.  1.
</event>
<event>
 5   0  0.3950195E-04  0.1536802E+04  0.7818609E-02  0.8860342E-01
       -1   -1    0    0    0  501  0.00000000000E+00  0.00000000000E+00  0.35004179856E+03  0.35004179860E+03  0.50400001928E-02 0. -1.
        1   -1    0    0  501    0  0.00000000000E+00  0.00000000000E+00 -0.16867697043E+04  0.16867697043E+04  0.50400001928E-02 0.  1.
    10030    2    1    2    0    0  0.00000000000E+00  0.00000000000E+00 -0.13367279057E+04  0.20368115029E+04  0.15368017453E+04 0.  0.
        2    1    3    3  502    0  0.66388316269E+03 -0.11665718783E+03 -0.11572935602E+04  0.13392826952E+04  0.25500000920E-02 0.  1.
       -2    1    3    3    0  502 -0.66388316269E+03  0.11665718783E+03 -0.17943434550E+03  0.69752880767E+03  0.25500000920E-02 0. -1.
</event>
<event>
 5   0  0.3973227E-04  0.1588952E+04  0.7818609E-02  0.8827364E-01
        1   -1    0    0  501    0  0.00000000000E+00  0.00000000000E+00  0.20190081089E+04  0.20190081089E+04  0.50400001928E-02 0. -1.
       -1   -1    0    0    0  501  0.00000000000E+00  0.00000000000E+00 -0.31262482349E+03  0.31262482353E+03  0.50400001928E-02 0.  1.
    10030    2    1    2    0    0  0.00000000000E+00  0.00000000000E+00  0.17063832855E+04  0.23316329325E+04  0.15889519234E+04 0.  0.
        3    1    3    3  502    0  0.60890068038E+03 -0.46143370414E+03  0.53334172547E+03  0.93173736010E+03  0.10100000352E+00 0. -1.
       -3    1    3    3    0  502 -0.60890068038E+03  0.46143370414E+03  0.11730415600E+04  0.13998955724E+04  0.10100000352E+00 0.  1.
</event>
<event>
 5   0  0.4110803E-04  0.1511040E+04  0.7818609E-02  0.8877144E-01
        1   -1    0    0  501    0  0.00000000000E+00  0.00000000000E+00  0.47698501137E+03  0.47698501140E+03  0.50400001928E-02 0.  1.
       -1   -1    0    0    0  501  0.00000000000E+00  0.00000000000E+00 -0.11967059780E+04  0.11967059780E+04  0.50400001928E-02 0. -1.
    10030    2    1    2    0    0  0.00000000000E+00  0.00000000000E+00 -0.71972096661E+03  0.16736909894E+04  0.15110404555E+04 0.  0.
        5    1    3    3  502    0  0.32863873481E+03  0.66169419954E+03 -0.18491591904E+03  0.76161579477E+03  0.46999998093E+01 0. -1.
       -5    1    3    3    0  502 -0.32863873481E+03 -0.66169419954E+03 -0.53480504757E+03  0.91207519462E+03  0.46999998093E+01 0.  1.
</event>
<event>
 5   0  0.7770905E-04  0.1381012E+04  0.7818609E-02  0.8967679E-01
        2   -1    0    0  501    0  0.00000000000E+00  0.00000000000E+00  0.59851276891E+03  0.59851276891E+03  0.25500000920E-02 0. -1.
       -2   -1    0    0    0  501  0.00000000000E+00  0.00000000000E+00 -0.79663885395E+03  0.79663885395E+03  0.25500000920E-02 0.  1.
    10030    2    1    2    0    0  0.00000000000E+00  0.00000000000E+00 -0.19812608504E+03  0.13951516229E+04  0.13810119859E+04 0.  0.
        2    1    3    3  502    0  0.58971777500E+03  0.32943815349E+03  0.45588081367E+02  0.67703384280E+03  0.25500000920E-02 0.  1.
       -2    1    3    3    0  502 -0.58971777500E+03 -0.32943815349E+03 -0.24371416640E+03  0.71811778006E+03  0.25500000920E-02 0. -1.
</event>
<event>
 5   0  0.7395088E-04  0.1668125E+04  0.7818609E-02  0.8779756E-01
       -2   -1    0    0    0  501  0.00000000000E+00  0.00000000000E+00  0.71046941859E+03  0.71046941860E+03  0.25500000920E-02 0. -1.
        2   -1    0    0  501    0  0.00000000000E+00  0.00000000000E+00 -0.97915573872E+03  0.97915573872E+03  0.25500000920E-02 0.  1.
    10030    2    1    2    0    0  0.00000000000E+00  0.00000000000E+00 -0.26868632013E+03  0.16896251573E+04  0.16681249454E+04 0.  0.
        1    1    3    3  502    0  0.66039700931E+03 -0.50399719585E+03 -0.20961671618E+03  0.85678267434E+03  0.50400001928E-02 0. -1.
       -1    1    3    3    0  502 -0.66039700931E+03  0.50399719585E+03 -0.59069603955E+02  0.83284248298E+03  0.50400001928E-02 0.  1.
</event>
<event>
 5   0  0.3889847E-04  0.1652951E+04  0.7818609E-02  0.8788663E-01
       -1   -1    0    0    0  501  0.00000000000E+00  0.00000000000E+00  0.13577055845E+04  0.13577055845E+04  0.50400001928E-02 0.  1.
        1   -1    0    0  501    0  0.00000000000E+00  0.00000000000E+00 -0.50309995755E+03  0.50309995758E+03  0.50400001928E-02 0. -1.
    10030    2    1    2    0    0  0.00000000000E+00  0.00000000000E+00  0.85460562698E+03  0.18608055421E+04  0.16529508426E+04 0.  0.
        1    1    3    3  502    0  0.70198585494E+02  0.90270718134E+02 -0.49415102885E+03  0.50720990063E+03  0.50400001928E-02 0. -1.
       -1    1    3    3    0  502 -0.70198585494E+02 -0.90270718134E+02  0.13487566558E+04  0.13535956415E+04  0.50400001928E-02 0.  1.
</event>
<event>
 5   0  0.3973227E-04  0.1608821E+04  0.7818609E-02  0.8815147E-01
        1   -1    0    0  501    0  0.00000000000E+00  0.00000000000E+00  0.30803009361E+03  0.30803009365E+03  0.50400001928E-02 0. -1.
       -1   -1    0    0    0  501  0.00000000000E+00  0.00000000000E+00 -0.21006916711E+04  0.21006916711E+04  0.50400001928E-02 0.  1.
    10030    2    1    2    0    0  0.00000000000E+00  0.00000000000E+00 -0.17926615775E+04  0.24087217647E+04  0.16088209995E+04 0.  0.
        3    1    3    3  502    0  0.52878345232E+03  0.41562592385E+03 -0.23566241886E+03  0.71266656571E+03  0.10100000352E+00 0. -1.
       -3    1    3    3    0  502 -0.52878345232E+03 -0.41562592385E+03 -0.15569991586E+04  0.16960551990E+04  0.10100000352E+00 0.  1.
</event>
<event>
 5   0  0.3973227E-04  0.1611750E+04  0.7818609E-02  0.8813362E-01
        1   -1    0    0  501    0  0.00000000000E+00  0.00000000000E+00  0.82619306820E+03  0.82619306821E+03  0.50400001928E-02 0. -1.
       -1   -1    0    0    0  501  0.00000000000E+00  0.00000000000E+00 -0.78605660622E+03  0.78605660624E+03  0.50400001928E-02 0.  1.
    10030    2    1    2    0    0  0.00000000000E+00  0.00000000000E+00  0.40136461972E+02  0.16122496745E+04  0.16117500046E+04 0.  0.
        3    1    3    3  502    0 -0.17982247920E+03  0.67037666242E+03  0.42969917141E+03  0.81632247406E+03  0.10100000352E+00 0. -1.
       -3    1    3    3    0  502  0.17982247920E+03 -0.67037666242E+03 -0.38956270944E+03  0.79592720039E+03  0.10100000352E+00 0.  1.
</event>
<event>
 5   0  0.3950195E-04  0.1595922E+04  0.7818609E-02  0.8823057E-01
       -1   -1    0    0    0  501  0.00000000000E+00  0.00000000000E+00  0.69661793006E+03  0.69661793008E+03  0.50400001928E-02 0. -1.
        1   -1    0    0  501    0  0.00000000000E+00  0.00000000000E+00 -0.91404745254E+03  0.91404745256E+03  0.50400001928E-02 0.  1.
    10030    2    1    2    0    0  0.00000000000E+00  0.00000000000E+00 -0.21742952248E+03  0.16106653826E+04  0.15959221089E+04 0.  0.
        2    1    3    3  502    0 -0.55591750894E+03 -0.56914610368E+02  0.46615977755E+03  0.72772830633E+03  0.25500000920E-02 0. -1.
       -2    1    3    3    0  502  0.55591750894E+03  0.56914610368E+02 -0.68358930002E+03  0.88293707632E+03  0.25500000920E-02 0.  1.
</event>
<event>
 5   0  0.7395088E-04  0.1586477E+04  0.7818609E-02  0.8828899E-01
        2   -1    0    0  501    0  0.00000000000E+00  0.00000000000E+00  0.13304974618E+04  0.13304974618E+04  0.25500000920E-02 0.  1.
       -2   -1    0    0    0  501  0.00000000000E+00  0.00000000000E+00 -0.47292633124E+03  0.47292633125E+03  0.25500000920E-02 0. -1.
    10030    2    1    2    0    0  0.00000000000E+00  0.00000000000E+00  0.85757113056E+03  0.18034237931E+04  0.15864769565E+04 0.  0.
        1    1    3    3  502    0 -0.63442044033E+03 -0.10310803719E+03  0.95722858251E+03  0.11529991854E+04  0.50400001928E-02 0.  1.
       -1    1    3    3    0  502  0.63442044033E+03  0.10310803719E+03 -0.99657451945E+02  0.65042460762E+03  0.50400001928E-02 0. -1.
</event>
<event>
 5   0  0.7488884E-04  0.1589135E+04  0.7818609E-02  0.8827251E-01
        2   -1    0    0  501    0  0.00000000000E+00  0.00000000000E+00  0.26405499087E+04  0.26405499087E+04  0.25500000920E-02 0.  1.
       -2   -1    0    0    0  501  0.00000000000E+00  0.00000000000E+00 -0.23909322453E+03  0.23909322454E+03  0.25500000920E-02 0. -1.
    10030    2    1    2    0    0  0.00000000000E+00  0.00000000000E+00  0.24014566842E+04  0.28796431332E+04  0.15891351009E+04 0.  0.
        3    1    3    3  502    0 -0.19359074060E+03  0.72906820101E+03  0.74836150992E+03  0.10625736569E+04  0.10100000352E+00 0.  1.
       -3    1    3    3    0  502  0.19359074060E+03 -0.72906820101E+03  0.16530951742E+04  0.18170694763E+04  0.10100000352E+00 0. -1.
</event>
<event>
 5   0  0.3973227E-04  0.1562374E+04  0.7818609E-02  0.8844002E-01
        1   -1    0    0  501    0  0.00000000000E+00  0.00000000000E+00  0.39642591416E+03  0.39642591419E+03  0.50400001928E-02 0.  1.
       -1   -1    0    0    0  501  0.00000000000E+00  0.00000000000E+00 -0.15393880053E+04  0.15393880053E+04  0.50400001928E-02 0. -1.
    10030    2    1    2    0    0  0.00000000000E+00  0.00000000000E+00 -0.11429620911E+04  0.19358139195E+04  0.15623742154E+04 0.  0.
        3    1    3    3  502    0  0.14747359467E+03  0.12679107966E+03  0.36594993360E+03  0.41441983919E+03  0.10100000352E+00 0.  1.
       -3    1    3    3    0  502 -0.14747359467E+03 -0.12679107966E+03 -0.15089120247E+04  0.15213940803E+04  0.10100000352E+00 0. -1.
</event>
<event>
 5   0  0.7553070E-04  0.1619042E+04  0.7818609E-02  0.8808934E-01
       -2   -1    0    0    0  501  0.00000000000E+00  0.00000000000E+00  0.41819616842E+03  0.41819616842E+03  0.25500000920E-02 0.  1.
        2   -1    0    0  501    0  0.00000000000E+00  0.00000000000E+00 -0.15670259214E+04  0.15670259214E+04  0.25500000920E-02 0. -1.
    10030    2    1    2    0    0  0.00000000000E+00  0.00000000000E+00 -0.11488297530E+04  0.19852220898E+04  0.16190419836E+04 0.  0.
        4    1    3    3  502    0 -0.54541332867E+03 -0.58891849564E+03 -0.70314488739E+03  0.10671059175E+04  0.12699999809E+01 0.  1.
       -4    1    3    3    0  502  0.54541332867E+03  0.58891849564E+03 -0.44568486561E+03  0.91811617235E+03  0.12699999809E+01 0. -1.
</event>
<event>
 5   0  0.3973227E-04  0.1601755E+04  0.7818609E-02  0.8819470E-01
        1   -1    0    0  501    0  0.00000000000E+00  0.00000000000E+00  0.88187771361E+03  0.88187771362E+03  0.50400001928E-02 0.  1.
       -1   -1    0    0    0  501  0.00000000000E+00  0.00000000000E+00 -0.72731738434E+03  0.72731738435E+03  0.50400001928E-02 0. -1.
    10030    2    1    2    0    0  0.00000000000E+00  0.00000000000E+00  0.15456032927E+03  0.16091950980E+04  0.16017552772E+04 0.  0.
        3    1    3    3  502    0 -0.76849912032E+03 -0.17740221106E+03 -0.62443279428E+02  0.79117736051E+03  0.10100000352E+00 0.  1.
       -3    1    3    3    0  502  0.76849912032E+03  0.17740221106E+03  0.21700360870E+03  0.81801773747E+03  0.10100000352E+00 0. -1.
</event>
<event>
 5   0  0.3973227E-04  0.1610188E+04  0.7818609E-02  0.8814313E-01
       -1   -1    0    0    0  501  0.00000000000E+00  0.00000000000E+00  0.11535389307E+04  0.11535389307E+04  0.50400001928E-02 0.  1.
        1   -1    0    0  501    0  0.00000000000E+00  0.00000000000E+00 -0.56190250819E+03  0.56190250821E+03  0.50400001928E-02 0. -1.
    10030    2    1    2    0    0  0.00000000000E+00  0.00000000000E+00  0.59163642249E+03  0.17154414389E+04  0.16101880865E+04 0.  0.
        3    1    3    3  502    0  0.79047800956E+03  0.14442369441E+03  0.24294850361E+03  0.83948655303E+03  0.10100000352E+00 0. -1.
       -3    1    3    3    0  502 -0.79047800956E+03 -0.14442369441E+03  0.34868791887E+03  0.87595488587E+03  0.10100000352E+00 0.  1.
</event>
<event>
 5   0  0.7415102E-04  0.1581428E+04  0.7818609E-02  0.8832039E-01
        2   -1    0    0  501    0  0.00000000000E+00  0.00000000000E+00  0.49351571397E+03  0.49351571398E+03  0.25500000920E-02 0. -1.
       -2   -1    0    0    0  501  0.00000000000E+00  0.00000000000E+00 -0.12668869738E+04  0.12668869738E+04  0.25500000920E-02 0.  1.
    10030    2    1    2    0    0  0.00000000000E+00  0.00000000000E+00 -0.77337125979E+03  0.17604026877E+04  0.15814279995E+04 0.  0.
        5    1    3    3  502    0  0.69381860856E+03 -0.43442101832E+02  0.32694108497E+02  0.69596154529E+03  0.46999998093E+01 0. -1.
       -5    1    3    3    0  502 -0.69381860856E+03  0.43442101832E+02 -0.80606536829E+03  0.10644411424E+04  0.46999998093E+01 0.  1.
</event>
<event>
 5   0  0.3837251E-04  0.1594121E+04  0.7818609E-02  0.8824168E-01
       -1   -1    0    0    0  501  0.00000000000E+00  0.00000000000E+00  0.52935085763E+03  0.52935085765E+03  0.50400001928E-02 0.  1.
        1   -1    0    0  501    0  0.00000000000E+00  0.00000000000E+00 -0.12001597115E+04  0.12001597115E+04  0.50400001928E-02 0. -1.
    10030    2    1    2    0    0  0.00000000000E+00  0.00000000000E+00 -0.67080885388E+03  0.17295105692E+04  0.15941211655E+04 0.  0.
        4    1    3    3  502    0  0.13902674178E+03  0.39635584371E+03 -0.10703417568E+04  0.11498084532E+04  0.12699999809E+01 0. -1.
       -4    1    3    3    0  502 -0.13902674178E+03 -0.39635584371E+03  0.39953290297E+03  0.57970211594E+03  0.12699999809E+01 0.  1.
</event>
<event>
 5   0  0.3973227E-04  0.1583518E+04  0.7818609E-02  0.8830738E-01
        1   -1    0    0  501    0  0.00000000000E+00  0.00000000000E+00  0.19588848853E+04  0.19588848853E+04  0.50400001928E-02 0. -1.
       -1   -1    0    0    0  501  0.00000000000E+00  0.00000000000E+00 -0.32002012486E+03  0.32002012489E+03  0.50400001928E-02 0.  1.
    10030    2    1    2    0    0  0.00000000000E+00  0.00000000000E+00  0.16388647604E+04  0.22789050102E+04  0.15835183430E+04 0.  0.
        3    1    3    3  502    0  0.36724423377E+03 -0.87798924796E+02 -0.18209509698E+03  0.41920831692E+03  0.10100000352E+00 0.  1.
       -3    1    3    3    0  502 -0.36724423377E+03  0.87798924796E+02  0.18209598574E+04  0.18596966933E+04  0.10100000352E+00 0. -1.
</event>
<event>
 5   0  0.7770905E-04  0.1591094E+04  0.7818609E-02  0.8826038E-01
        2   -1    0    0  501    0  0.00000000000E+00  0.00000000000E+00  0.13217104332E+04  0.13217104332E+04  0.25500000920E-02 0.  1.
       -2   -1    0    0    0  501  0.00000000000E+00  0.00000000000E+00 -0.47884555108E+03  0.47884555108E+03  0.25500000920E-02 0. -1.
    10030    2    1    2    0    0  0.00000000000E+00  0.00000000000E+00  0.84286488209E+03  0.18005559843E+04  0.15910941653E+04 0.  0.
        2    1    3    3  502    0  0.38743877047E+03  0.20400891752E+03  0.11730763087E+04  0.12521327667E+04  0.25500000920E-02 0.  1.
       -2    1    3    3    0  502 -0.38743877047E+03 -0.20400891752E+03 -0.33021142664E+03  0.54842321758E+03  0.25500000920E-02 0. -1.
</event>
<event>
 5   0  0.3837251E-04  0.1530393E+04  0.7818609E-02  0.8864490E-01
       -1   -1    0    0    0  501  0.00000000000E+00  0.00000000000E+00  0.66771151064E+03  0.66771151066E+03  0.50400001928E-02 0. -1.
        1   -1    0    0  501    0  0.00000000000E+00  0.00000000000E+00 -0.87691457082E+03  0.87691457083E+03  0.50400001928E-02 0.  1.
    10030    2    1    2    0    0  0.00000000000E+00  0.00000000000E+00 -0.20920306018E+03  0.15446260815E+04  0.15303933518E+04 0.  0.
        4    1    3    3  502    0 -0.38374600314E+03 -0.17706891402E+03  0.53922585491E+03  0.68511351668E+03  0.12699999809E+01 0. -1.
       -4    1    3    3    0  502  0.38374600314E+03  0.17706891402E+03 -0.74842891508E+03  0.85951256481E+03  0.12699999809E+01 0.  1.
</event>
<event>
 5   0  0.7395088E-04  0.1623418E+04  0.7818609E-02  0.8806289E-01
        2   -1    0    0  501    0  0.00000000000E+00  0.00000000000E+00  0.76327785151E+03  0.76327785151E+03  0.25500000920E-02 0.  1.
       -2   -1    0    0    0  501  0.00000000000E+00  0.00000000000E+00 -0.86321362641E+03  0.86321362642E+03  0.25500000920E-02 0. -1.
    10030    2    1    2    0    0  0.00000000000E+00  0.00000000000E+00 -0.99935774905E+02  0.16264914779E+04  0.16234184207E+04 0.  0.
        1    1    3    3  502    0 -0.35063145977E+03  0.57643877587E+02  0.68121260570E+03  0.76832014903E+03  0.50400001928E-02 0.  1.
       -1    1    3    3    0  502  0.35063145977E+03 -0.57643877587E+02 -0.78114838061E+03  0.85817132891E+03  0.50400001928E-02 0. -1.
</event>
<event>
 5   0  0.3950195E-04  0.1510832E+04  0.7818609E-02  0.8877282E-01
        1   -1    0    0  501    0  0.00000000000E+00  0.00000000000E+00  0.55655536417E+03  0.55655536419E+03  0.50400001928E-02 0.  1.
       -1   -1    0    0    0  501  0.00000000000E+00  0.00000000000E+00 -0.10253305545E+04  0.10253305545E+04  0.50400001928E-02 0. -1.
    10030    2    1    2    0    0  0.00000000000E+00  0.00000000000E+00 -0.46877519031E+03  0.15818859187E+04  0.15108318506E+04 0.  0.
        2    1    3    3  502    0 -0.69249148547E+03  0.27793100314E+03 -0.35766671439E+03  0.82747542474E+03  0.25500000920E-02 0. -1.
       -2    1    3    3    0  502  0.69249148547E+03 -0.27793100314E+03 -0.11110847592E+03  0.75441049395E+03  0.25500000920E-02 0.  1.
</event>
<event>
 5   0  0.3837251E-04  0.1585220E+04  0.7818609E-02  0.8829680E-01
       -1   -1    0    0    0  501  0.00000000000E+00  0.00000000000E+00  0.11110133028E+04  0.11110133028E+04  0.50400001928E-02 0.  1.
        1   -1    0    0  501    0  0.00000000000E+00  0.00000000000E+00 -0.56545755011E+03  0.56545755013E+03  0.50400001928E-02 0. -1.
    10030    2    1    2    0    0  0.00000000000E+00  0.00000000000E+00  0.54555575270E+03  0.16764708530E+04  0.15852203132E+04 0.  0.
        4    1    3    3  502    0 -0.46153706341E+03  0.13889131645E+03  0.93822137989E+03  0.10547834988E+04  0.12699999809E+01 0.  1.
       -4    1    3    3    0  502  0.46153706341E+03 -0.13889131645E+03 -0.39266562719E+03  0.62168735419E+03  0.12699999809E+01 0. -1.
</event>
<event>
 5   0  0.7488884E-04  0.1669560E+04  0.7818609E-02  0.8778918E-01
        2   -1    0    0  501    0  0.00000000000E+00  0.00000000000E+00  0.64942980993E+03  0.64942980993E+03  0.25500000920E-02 0.  1.
       -2   -1    0    0    0  501  0.00000000000E+00  0.00000000000E+00 -0.10730301284E+04  0.10730301284E+04  0.25500000920E-02 0. -1.
    10030    2    1    2    0    0  0.00000000000E+00  0.00000000000E+00 -0.42360031851E+03  0.17224599384E+04  0.16695601245E+04 0.  0.
        3    1    3    3  502    0 -0.56788539569E+02 -0.61813650396E+02  0.64506483301E+03  0.65050327793E+03  0.10100000352E+00 0.  1.
       -3    1    3    3    0  502  0.56788539569E+02  0.61813650396E+02 -0.10686651515E+04  0.10719566605E+04  0.10100000352E+00 0. -1.
</event>
<event>
 5   0  0.3973227E-04  0.1579249E+04  0.7818609E-02  0.8833399E-01
        1   -1    0    0  501    0  0.00000000000E+00  0.00000000000E+00  0.11951428509E+04  0.11951428509E+04  0.50400001928E-02 0. -1.
       -1   -1    0    0    0  501  0.00000000000E+00  0.00000000000E+00 -0.52170045006E+03  0.52170045008E+03  0.50400001928E-02 0.  1.
    10030    2    1    2    0    0  0.00000000000E+00  0.00000000000E+00  0.67344240081E+03  0.17168433010E+04  0.15792486355E+04 0.  0.
        3    1    3    3  502    0  0.72039601461E+03 -0.99725672077E+02  0.67107393935E+03  0.98957357978E+03  0.10100000352E+00 0. -1.
       -3    1    3    3    0  502 -0.72039601461E+03  0.99725672077E+02  0.23684614691E+01  0.72726972118E+03  0.10100000352E+00 0.  1.
</event>
<event>
 5   0  0.7770905E-04  0.1626841E+04  0.7818609E-02  0.8804226E-01
       -2   -1    0    0    0  501  0.00000000000E+00  0.00000000000E+00  0.70271279666E+03  0.70271279667E+03  0.25500000920E-02 0.  1.
        2   -1    0    0  501    0  0.00000000000E+00  0.00000000000E+00 -0.94156919571E+03  0.94156919571E+03  0.25500000920E-02 0. -1.
    10030    2    1    2    0    0  0.00000000000E+00  0.00000000000E+00 -0.23885639905E+03  0.16442819924E+04  0.16268407700E+04 0.  0.
        2    1    3    3  502    0 -0.82583899637E+02 -0.44913345056E+03 -0.79978060196E+03  0.92097229501E+03  0.25500000920E-02 0. -1.
       -2    1    3    3    0  502  0.82583899637E+02  0.44913345056E+03  0.56092420291E+03  0.72330969737E+03  0.25500000920E-02 0.  1.
</event>
<event>
 5   0  0.7488884E-04  0.1602557E+04  0.7818609E-02  0.8818979E-01
       -2   -1    0    0    0  501  0.00000000000E+00  0.00000000000E+00  0.40973263571E+03  0.40973263572E+03  0.25500000920E-02 0.  1.
        2   -1    0    0  501    0  0.00000000000E+00  0.00000000000E+00 -0.15669907531E+04  0.15669907531E+04  0.25500000920E-02 0. -1.
    10030    2    1    2    0    0  0.00000000000E+00  0.00000000000E+00 -0.11572581174E+04  0.19767233888E+04  0.16025570210E+04 0.  0.
        3    1    3    3  502    0  0.11656211912E+03  0.35343566217E+03 -0.14539171365E+04  0.15007926389E+04  0.10100000352E+00 0. -1.
       -3    1    3    3    0  502 -0.11656211912E+03 -0.35343566217E+03  0.29665901912E+03  0.47593074993E+03  0.10100000352E+00 0.  1.
</event>
<event>
 5   0  0.7770905E-04  0.1587899E+04  0.7818609E-02  0.8828016E-01
       -2   -1    0    0    0  501  0.00000000000E+00  0.00000000000E+00  0.35904587656E+03  0.35904587657E+03  0.25500000920E-02 0.  1.
        2   -1    0    0  501    0  0.00000000000E+00  0.00000000000E+00 -0.17556424879E+04  0.17556424880E+04  0.25500000920E-02 0. -1.
    10030    2    1    2    0    0  0.00000000000E+00  0.00000000000E+00 -0.13965966114E+04  0.21146883645E+04  0.15878994880E+04 0.  0.
        2    1    3    3  502    0  0.32683285244E+03 -0.52758294081E+02 -0.16593334639E+04  0.16920374392E+04  0.25500000920E-02 0. -1.
       -2    1    3    3    0  502 -0.32683285244E+03  0.52758294081E+02  0.26273685253E+03  0.42265092536E+03  0.25500000920E-02 0.  1.
</event>
<event>
 5   0  0.7553070E-04  0.1610272E+04  0.7818609E-02  0.8814262E-01
       -2   -1    0    0    0  501  0.00000000000E+00  0.00000000000E+00  0.58624723575E+03  0.58624723575E+03  0.25500000920E-02 0. -1.
        2   -1    0    0  501    0  0.00000000000E+00  0.00000000000E+00 -0.11057516502E+04  0.11057516502E+04  0.25500000920E-02 0.  1.
    10030    2    1    2    0    0  0.00000000000E+00  0.00000000000E+00 -0.51950441449E+03  0.16919988860E+04  0.16102718384E+04 0.  0.
        4    1    3    3  502    0  0.38582568978E+03  0.34705518908E+03  0.38706618043E+03  0.64740297195E+03  0.12699999809E+01 0. -1.
       -4    1    3    3    0  502 -0.38582568978E+03 -0.34705518908E+03 -0.90657059491E+03  0.10445959140E+04  0.12699999809E+01 0.  1.
</event>
<event>
 5   0  0.4110803E-04  0.1541811E+04  0.7818609E-02  0.8857115E-01
        1   -1    0    0  501    0  0.00000000000E+00  0.00000000000E+00  0.74504447921E+03  0.74504447923E+03  0.50400001928E-02 0. -1.
       -1   -1    0    0    0  501  0.00000000000E+00  0.00000000000E+00 -0.79766455528E+03  0.79766455529E+03  0.50400001928E-02 0.  1.
    10030    2    1    2    0    0  0.00000000000E+00  0.00000000000E+00 -0.52620076064E+02  0.15427090345E+04  0.15418113674E+04 0.  0.
        5    1    3    3  502    0  0.26048404122E+03  0.60822728707E+03  0.36949721222E+03  0.75785397558E+03  0.46999998093E+01 0. -1.
       -5    1    3    3    0  502 -0.26048404122E+03 -0.60822728707E+03 -0.42211728829E+03  0.78485505894E+03  0.46999998093E+01 0.  1.
</event>
<event>
 5   0  0.3837251E-04  0.1590646E+04  0.7818609E-02  0.8826315E-01
        1   -1    0    0  501    0  0.00000000000E+00  0.00000000000E+00  0.86415853619E+03  0.86415853620E+03  0.50400001928E-02 0. -1.
       -1   -1    0    0    0  501  0.00000000000E+00  0.00000000000E+00 -0.73197072419E+03  0.73197072420E+03  0.50400001928E-02 0.  1.
    10030    2    1    2    0    0  0.00000000000E+00  0.00000000000E+00  0.13218781200E+03  0.15961292604E+04  0.15906460946E+04 0.  0.
        4    1    3    3  502    0  0.67306543756E+03 -0.38736892539E+03 -0.10615260686E+03  0.78379956394E+03  0.12699999809E+01 0. -1.
       -4    1    3    3    0  502 -0.67306543756E+03  0.38736892539E+03  0.23834041887E+03  0.81232969646E+03  0.12699999809E+01 0.  1.
</event>
<event>
 5   0  0.7770905E-04  0.1600939E+04  0.7818609E-02  0.8819972E-01
       -2   -1    0    0    0  501  0.00000000000E+00  0.00000000000E+00  0.14071514287E+04  0.14071514287E+04  0.25500000920E-02 0.  1.
        2   -1    0    0  501    0  0.00000000000E+00  0.00000000000E+00 -0.45535336167E+03  0.45535336168E+03  0.25500000920E-02 0. -1.
    10030    2    1    2    0    0  0.00000000000E+00  0.00000000000E+00  0.95179806706E+03  0.18625047904E+04  0.16009386415E+04 0.  0.
        2    1    3    3  502    0  0.38026194428E+03 -0.10478426078E+03 -0.33444732681E+03  0.51714011834E+03  0.25500000920E-02 0. -1.
       -2    1    3    3    0  502 -0.38026194428E+03  0.10478426078E+03  0.12862453939E+04  0.13453646721E+04  0.25500000920E-02 0.  1.
</event>
<event>
 5   0  0.7770905E-04  0.1595179E+04  0.7818609E-02  0.8823515E-01
       -2   -1    0    0    0  501  0.00000000000E+00  0.00000000000E+00  0.11232024073E+04  0.11232024073E+04  0.25500000920E-02 0.  1.
        2   -1    0    0  501    0  0.00000000000E+00  0.00000000000E+00 -0.56637056382E+03  0.56637056383E+03  0.25500000920E-02 0. -1.
    10030    2    1    2    0    0  0.00000000000E+00  0.00000000000E+00  0.55683184343E+03  0.16895729711E+04  0.15951787119E+04 0.  0.
        2    1    3    3  502    0 -0.53435951830E+03 -0.33945887055E+03  0.79228091216E+03  0.10141407513E+04  0.25500000920E-02 0.  1.
       -2    1    3    3    0  502  0.53435951830E+03  0.33945887055E+03 -0.23544906873E+03  0.67543221982E+03  0.25500000920E-02 0. -1.
</event>
<event>
 5   0  0.2781000E-04  0.1626015E+04  0.7818609E-02  0.8804724E-01
        3   -1    0    0  501    0  0.00000000000E+00  0.00000000000E+00  0.12381091366E+04  0.12381091407E+04  0.10100000352E+00 0. -1.
       -3   -1    0    0    0  501  0.00000000000E+00  0.00000000000E+00 -0.53386335161E+03  0.53386336116E+03  0.10100000352E+00 0.  1.
    10030    2    1    2    0    0  0.00000000000E+00  0.00000000000E+00  0.70424578499E+03  0.17719725019E+04  0.16260148898E+04 0.  0.
        3    1    3    3  502    0 -0.10318780157E+03  0.52651363323E+03  0.10177865434E+04  0.11505449954E+04  0.10100000352E+00 0. -1.
       -3    1    3    3    0  502  0.10318780157E+03 -0.52651363323E+03 -0.31354075843E+03  0.62142750644E+03  0.10100000352E+00 0.  1.
</event>
<event>
 5   0  0.7488884E-04  0.1594441E+04  0.7818609E-02  0.8823971E-01
        2   -1    0    0  501    0  0.00000000000E+00  0.00000000000E+00  0.20160107354E+04  0.20160107354E+04  0.25500000920E-02 0.  1.
       -2   -1    0    0    0  501  0.00000000000E+00  0.00000000000E+00 -0.31525641588E+03  0.31525641589E+03  0.25500000920E-02 0. -1.
    10030    2    1    2    0    0  0.00000000000E+00  0.00000000000E+00  0.17007543195E+04  0.23312671513E+04  0.15944407406E+04 0.  0.
        3    1    3    3  502    0  0.50192601853E+03 -0.57944222437E+03  0.53045196886E+03  0.93223512106E+03  0.10100000352E+00 0.  1.
       -3    1    3    3    0  502 -0.50192601853E+03  0.57944222437E+03  0.11703023507E+04  0.13990320302E+04  0.10100000352E+00 0. -1.
</event>
<event>
 5   0  0.2781000E-04  0.1577839E+04  0.7818609E-02  0.8834279E-01
        4   -1    0    0  501    0  0.00000000000E+00  0.00000000000E+00  0.32927931407E+03  0.32928176319E+03  0.12699999809E+01 0.  1.
       -4   -1    0    0    0  501  0.00000000000E+00  0.00000000000E+00 -0.18901606611E+04  0.18901610878E+04  0.12699999809E+01 0. -1.
    10030    2    1    2    0    0  0.00000000000E+00  0.00000000000E+00 -0.15608813471E+04  0.22194428510E+04  0.15778390251E+04 0.  0.
        5    1    3    3  502    0  0.63650515017E+03  0.13309900759E+03 -0.15213345631E+03  0.66784790973E+03  0.46999998093E+01 0.  1.
       -5    1    3    3    0  502 -0.63650515017E+03 -0.13309900759E+03 -0.14087478907E+04  0.15515949412E+04  0.46999998093E+01 0. -1.
</event>
<event>
 5   0  0.3889847E-04  0.1605891E+04  0.7818609E-02  0.8816937E-01
       -1   -1    0    0    0  501  0.00000000000E+00  0.00000000000E+00  0.39323389015E+03  0.39323389018E+03  0.50400001928E-02 0. -1.
        1   -1    0    0  501    0  0.00000000000E+00  0.00000000000E+00 -0.16395362175E+04  0.16395362175E+04  0.50400001928E-02 0.  1.
    10030    2    1    2    0    0  0.00000000000E+00  0.00000000000E+00 -0.12463023274E+04  0.20327701077E+04  0.16058906624E+04 0.  0.
        1    1    3    3  502    0  0.68325637884E+03 -0.25189528233E+03 -0.10513481001E+04  0.12789149073E+04  0.50400001928E-02 0. -1.
       -1    1    3    3    0  502 -0.68325637884E+03  0.25189528233E+03 -0.19495422731E+03  0.75385520046E+03  0.50400001928E-02 0.  1.
</event>
<event>
 5   0  0.7770905E-04  0.1579688E+04  0.7818609E-02  0.8833125E-01
        2   -1    0    0  501    0  0.00000000000E+00  0.00000000000E+00  0.24756612541E+04  0.24756612541E+04  0.25500000920E-02 0. -1.
       -2   -1    0    0    0  501  0.00000000000E+00  0.00000000000E+00 -0.25199464380E+03  0.25199464381E+03  0.25500000920E-02 0.  1.
    10030    2    1    2    0    0  0.00000000000E+00  0.00000000000E+00  0.22236666103E+04  0.27276558979E+04  0.15796877868E+04 0.  0.
        2    1    3    3  502    0 -0.48508982164E+03 -0.60691755408E+03  0.86646895202E+03  0.11637995950E+04  0.25500000920E-02 0.  1.
       -2    1    3    3    0  502  0.48508982164E+03  0.60691755408E+03  0.13571976583E+04  0.15638563029E+04  0.25500000920E-02 0. -1.
</event>
<event>
 5   0  0.7415102E-04  0.1605434E+04  0.7818609E-02  0.8817217E-01
       -2   -1    0    0    0  501  0.00000000000E+00  0.00000000000E+00  0.36664107395E+03  0.36664107396E+03  0.25500000920E-02 0.  1.
        2   -1    0    0  501    0  0.00000000000E+00  0.00000000000E+00 -0.17574534787E+04  0.17574534787E+04  0.25500000920E-02 0. -1.
    10030    2    1    2    0    0  0.00000000000E+00  0.00000000000E+00 -0.13908124048E+04  0.21240945527E+04  0.16054340608E+04 0.  0.
        5    1    3    3  502    0  0.17393525740E+03 -0.77590213349E+03 -0.84067221422E+03  0.11571644033E+04  0.46999998093E+01 0. -1.
       -5    1    3    3    0  502 -0.17393525740E+03  0.77590213349E+03 -0.55014019056E+03  0.96693014939E+03  0.46999998093E+01 0.  1.
</event>
<event>
 5   0  0.2781000E-04  0.1606692E+04  0.7818609E-02  0.8816447E-01
        4   -1    0    0  501    0  0.00000000000E+00  0.00000000000E+00  0.12192120226E+04  0.12192126840E+04  0.12699999809E+01 0. -1.
       -4   -1    0    0    0  501  0.00000000000E+00  0.00000000000E+00 -0.52932780297E+03  0.52932932650E+03  0.12699999809E+01 0.  1.
    10030    2    1    2    0    0  0.00000000000E+00  0.00000000000E+00  0.68988421961E+03  0.17485420105E+04  0.16066919201E+04 0.  0.
        5    1    3    3  502    0 -0.62130282428E+03  0.49849994909E+03  0.45816185227E+03  0.91894165842E+03  0.46999998093E+01 0.  1.
       -5    1    3    3    0  502  0.62130282428E+03 -0.49849994909E+03  0.23172236733E+03  0.82960035211E+03  0.46999998093E+01 0. -1.
</event>
<event>
 5   0  0.4110803E-04  0.1604313E+04  0.7818609E-02  0.8817903E-01
        1   -1    0    0  501    0  0.00000000000E+00  0.00000000000E+00  0.10674226410E+04  0.10674226410E+04  0.50400001928E-02 0.  1.
       -1   -1    0    0    0  501  0.00000000000E+00  0.00000000000E+00 -0.60281176505E+03  0.60281176507E+03  0.50400001928E-02 0. -1.
    10030    2    1    2    0    0  0.00000000000E+00  0.00000000000E+00  0.46461087594E+03  0.16702344061E+04  0.16043128452E+04 0.  0.
        5    1    3    3  502    0  0.49234844200E+03  0.12202543725E+03  0.87923695508E+03  0.10150748292E+04  0.46999998093E+01 0.  1.
       -5    1    3    3    0  502 -0.49234844200E+03 -0.12202543725E+03 -0.41462607914E+03  0.65515957688E+03  0.46999998093E+01 0. -1.
</event>
<event>
 5   0  0.7553070E-04  0.1607265E+04  0.7818609E-02  0.8816097E-01
       -2   -1    0    0    0  501  0.00000000000E+00  0.00000000000E+00  0.38069489979E+03  0.38069489979E+03  0.25500000920E-02 0. -1.
        2   -1    0    0  501    0  0.00000000000E+00  0.00000000000E+00 -0.16964377173E+04  0.16964377173E+04  0.25500000920E-02 0.  1.
    10030    2    1    2    0    0  0.00000000000E+00  0.00000000000E+00 -0.13157428175E+04  0.20771326171E+04  0.16072649897E+04 0.  0.
        4    1    3    3  502    0 -0.27238133286E+03 -0.28361359719E+03 -0.15636120323E+04  0.16123003639E+04  0.12699999809E+01 0.  1.
       -4    1    3    3    0  502  0.27238133286E+03  0.28361359719E+03  0.24786921483E+03  0.46483225314E+03  0.12699999809E+01 0. -1.
</event>
<event>
 5   0  0.3973227E-04  0.1654979E+04  0.7818609E-02  0.8787467E-01
       -1   -1    0    0    0  501  0.00000000000E+00  0.00000000000E+00  0.43904741709E+03  0.43904741712E+03  0.50400001928E-02 0.  1.
        1   -1    0    0  501    0  0.00000000000E+00  0.00000000000E+00 -0.15596007805E+04  0.15596007805E+04  0.50400001928E-02 0. -1.
    10030    2    1    2    0    0  0.00000000000E+00  0.00000000000E+00 -0.11205533634E+04  0.19986481976E+04  0.16549787847E+04 0.  0.
        3    1    3    3  502    0  0.79210470155E+03 -0.15142381457E+03 -0.33635575719E+03  0.87378157192E+03  0.10100000352E+00 0.  1.
       -3    1    3    3    0  502 -0.79210470155E+03  0.15142381457E+03 -0.78419760624E+03  0.11248666257E+04  0.10100000352E+00 0. -1.
</event>
<event>
 5   0  0.3950195E-04  0.1382122E+04  0.7818609E-02  0.8966862E-01
       -1   -1    0    0    0  501  0.00000000000E+00  0.00000000000E+00  0.45942279365E+03  0.45942279368E+03  0.50400001928E-02 0. -1.
        1   -1    0    0  501    0  0.00000000000E+00  0.00000000000E+00 -0.10394900630E+04  0.10394900630E+04  0.50400001928E-02 0.  1.
    10030    2    1    2    0    0  0.00000000000E+00  0.00000000000E+00 -0.58006726931E+03  0.14989128566E+04  0.13821221780E+04 0.  0.
        2    1    3    3  502    0 -0.32243906204E+03  0.28188349306E+03  0.29814212633E+03  0.52183712008E+03  0.25500000920E-02 0. -1.
       -2    1    3    3    0  502  0.32243906204E+03 -0.28188349306E+03 -0.87820939564E+03  0.97707573657E+03  0.25500000920E-02 0.  1.
</event>
<event>
 5   0  0.7770905E-04  0.1608052E+04  0.7818609E-02  0.8815617E-01
       -2   -1    0    0    0  501  0.00000000000E+00  0.00000000000E+00  0.53468811829E+03  0.53468811830E+03  0.25500000920E-02 0.  1.
        2   -1    0    0  501    0  0.00000000000E+00  0.00000000000E+00 -0.12090371113E+04  0.12090371113E+04  0.25500000920E-02 0. -1.
    10030    2    1    2    0    0  0.00000000000E+00  0.00000000000E+00 -0.67434899299E+03  0.17437252296E+04  0.16080519618E+04 0.  0.
        2    1    3    3  502    0  0.26614903578E+03  0.75265373185E+03 -0.44081468064E+03  0.91194327236E+03  0.25500000920E-02 0.  1.
       -2    1    3    3    0  502 -0.26614903578E+03 -0.75265373185E+03 -0.23353431235E+03  0.83178195723E+03  0.25500000920E-02 0. -1.
</event>
<event>
 5   0  0.7415102E-04  0.1745411E+04  0.7818609E-02  0.8735880E-01
       -2   -1    0    0    0  501  0.00000000000E+00  0.00000000000E+00  0.69806627540E+03  0.69806627541E+03  0.25500000920E-02 0. -1.
        2   -1    0    0  501    0  0.00000000000E+00  0.00000000000E+00 -0.10910349026E+04  0.10910349026E+04  0.25500000920E-02 0.  1.
    10030    2    1    2    0    0  0.00000000000E+00  0.00000000000E+00 -0.39296862724E+03  0.17891011780E+04  0.17454107492E+04 0.  0.
        5    1    3    3  502    0  0.50014709442E+02  0.39391144392E+03 -0.99306306540E+03  0.10695157964E+04  0.46999998093E+01 0.  1.
       -5    1    3    3    0  502 -0.50014709442E+02 -0.39391144392E+03  0.60009443816E+03  0.71958538168E+03  0.46999998093E+01 0. -1.
</event>
<event>
 5   0  0.3837251E-04  0.1610625E+04  0.7818609E-02  0.8814047E-01
       -1   -1    0    0    0  501  0.00000000000E+00  0.00000000000E+00  0.48404797415E+03  0.48404797418E+03  0.50400001928E-02 0.  1.
        1   -1    0    0  501    0  0.00000000000E+00  0.00000000000E+00 -0.13398012086E+04  0.13398012086E+04  0.50400001928E-02 0. -1.
    10030    2    1    2    0    0  0.00000000000E+00  0.00000000000E+00 -0.85575323442E+03  0.18238491828E+04  0.16106247990E+04 0.  0.
        4    1    3    3  502    0 -0.28626019770E+03  0.50892666335E+03 -0.10558918786E+04  0.12065904532E+04  0.12699999809E+01 0. -1.
       -4    1    3    3    0  502  0.28626019770E+03 -0.50892666335E+03  0.20013864420E+03  0.61725872959E+03  0.12699999809E+01 0.  1.
</event>
<event>
 5   0  0.7415102E-04  0.1603899E+04  0.7818609E-02  0.8818156E-01
        2   -1    0    0  501    0  0.00000000000E+00  0.00000000000E+00  0.15246646323E+04  0.15246646323E+04  0.25500000920E-02 0.  1.
       -2   -1    0    0    0  501  0.00000000000E+00  0.00000000000E+00 -0.42181291732E+03  0.42181291733E+03  0.25500000920E-02 0. -1.
    10030    2    1    2    0    0  0.00000000000E+00  0.00000000000E+00  0.11028517150E+04  0.19464775497E+04  0.16038992942E+04 0.  0.
        5    1    3    3  502    0 -0.36531957648E+03 -0.65567099935E+03  0.89411928330E+03  0.11674049148E+04  0.46999998093E+01 0.  1.
       -5    1    3    3    0  502  0.36531957648E+03  0.65567099935E+03  0.20873243170E+03  0.77907263486E+03  0.46999998093E+01 0. -1.
</event>
<event>
 5   0  0.3973227E-04  0.1537347E+04  0.7818609E-02  0.8859990E-01
       -1   -1    0    0    0  501  0.00000000000E+00  0.00000000000E+00  0.21600747394E+04  0.21600747394E+04  0.50400001928E-02 0.  1.
        1   -1    0    0  501    0  0.00000000000E+00  0.00000000000E+00 -0.27353634568E+03  0.27353634572E+03  0.50400001928E-02 0. -1.
    10030    2    1    2    0    0  0.00000000000E+00  0.00000000000E+00  0.18865383937E+04  0.24336110851E+04  0.15373470014E+04 0.  0.
        3    1    3    3  502    0 -0.21135902825E+03 -0.67448805818E+03  0.46507880149E+03  0.84611174277E+03  0.10100000352E+00 0. -1.
       -3    1    3    3    0  502  0.21135902825E+03  0.67448805818E+03  0.14214595922E+04  0.15874993423E+04  0.10100000352E+00 0.  1.
</event>
<event>
 5   0  0.7770905E-04  0.1613843E+04  0.7818609E-02  0.8812088E-01
        2   -1    0    0  501    0  0.00000000000E+00  0.00000000000E+00  0.17516207703E+04  0.17516207703E+04  0.25500000920E-02 0. -1.
       -2   -1    0    0    0  501  0.00000000000E+00  0.00000000000E+00 -0.37172578220E+03  0.37172578221E+03  0.25500000920E-02 0.  1.
    10030    2    1    2    0    0  0.00000000000E+00  0.00000000000E+00  0.13798949881E+04  0.21233465526E+04  0.16138433641E+04 0.  0.
        2    1    3    3  502    0  0.67190516542E+03  0.17970825399E+03  0.12282167772E+04  0.14114772615E+04  0.25500000920E-02 0. -1.
       -2    1    3    3    0  502 -0.67190516542E+03 -0.17970825399E+03  0.15167821091E+03  0.71186929105E+03  0.25500000920E-02 0.  1.
</event>
<event>
 5   0  0.7488884E-04  0.1582601E+04  0.7818609E-02  0.8831309E-01
       -2   -1    0    0    0  501  0.00000000000E+00  0.00000000000E+00  0.58499529425E+03  0.58499529426E+03  0.25500000920E-02 0.  1.
        2   -1    0    0  501    0  0.00000000000E+00  0.00000000000E+00 -0.10703617370E+04  0.10703617370E+04  0.25500000920E-02 0. -1.
    10030    2    1    2    0    0  0.00000000000E+00  0.00000000000E+00 -0.48536644274E+03  0.16553570312E+04  0.15826011238E+04 0.  0.
        3    1    3    3  502    0 -0.15670310255E+03  0.77533964028E+03 -0.22051578840E+03  0.82117881322E+03  0.10100000352E+00 0.  1.
       -3    1    3    3    0  502  0.15670310255E+03 -0.77533964028E+03 -0.26485065434E+03  0.83417821803E+03  0.10100000352E+00 0. -1.
</event>
<event>
 5   0  0.7395088E-04  0.1578645E+04  0.7818609E-02  0.8833776E-01
       -2   -1    0    0    0  501  0.00000000000E+00  0.00000000000E+00  0.42495571249E+03  0.42495571250E+03  0.25500000920E-02 0. -1.
        2   -1    0    0  501    0  0.00000000000E+00  0.00000000000E+00 -0.14661057377E+04  0.14661057377E+04  0.25500000920E-02 0.  1.
    10030    2    1    2    0    0  0.00000000000E+00  0.00000000000E+00 -0.10411500252E+04  0.18910614502E+04  0.15786449992E+04 0.  0.
        1    1    3    3  502    0 -0.45414894876E+03 -0.59466377114E+03 -0.82161258326E+03  0.11112711214E+04  0.50400001928E-02 0.  1.
       -1    1    3    3    0  502  0.45414894876E+03  0.59466377114E+03 -0.21953744193E+03  0.77979032875E+03  0.50400001928E-02 0. -1.
</event>
<event>
 5   0  0.3889847E-04  0.1592809E+04  0.7818609E-02  0.8824978E-01
       -1   -1    0    0    0  501  0.00000000000E+00  0.00000000000E+00  0.72487383036E+03  0.72487383038E+03  0.50400001928E-02 0.  1.
        1   -1    0    0  501    0  0.00000000000E+00  0.00000000000E+00 -0.87499350147E+03  0.87499350148E+03  0.50400001928E-02 0. -1.
    10030    2    1    2    0    0  0.00000000000E+00  0.00000000000E+00 -0.15011967111E+03  0.15998673319E+04  0.15928087029E+04 0.  0.
        1    1    3    3  502    0  0.74617273749E+03  0.79625135809E+02  0.19285423126E+03  0.77479459921E+03  0.50400001928E-02 0.  1.
       -1    1    3    3    0  502 -0.74617273749E+03 -0.79625135809E+02 -0.34297390237E+03  0.82507273265E+03  0.50400001928E-02 0. -1.
</event>
<event>
 5   0  0.7488884E-04  0.1586428E+04  0.7818609E-02  0.8828929E-01
       -2   -1    0    0    0  501  0.00000000000E+00  0.00000000000E+00  0.64834923665E+03  0.64834923666E+03  0.25500000920E-02 0.  1.
        2   -1    0    0  501    0  0.00000000000E+00  0.00000000000E+00 -0.97044678654E+03  0.97044678654E+03  0.25500000920E-02 0. -1.
    10030    2    1    2    0    0  0.00000000000E+00  0.00000000000E+00 -0.32209754989E+03  0.16187960232E+04  0.15864279792E+04 0.  0.
        3    1    3    3  502    0 -0.18838970598E+03  0.55737130512E+03 -0.70391374297E+03  0.91741376751E+03  0.10100000352E+00 0. -1.
       -3    1    3    3    0  502  0.18838970598E+03 -0.55737130512E+03  0.38181619308E+03  0.70138225568E+03  0.10100000352E+00 0.  1.
</event>
<event>
 5   0  0.3837251E-04  0.1628073E+04  0.7818609E-02  0.8803485E-01
       -1   -1    0    0    0  501  0.00000000000E+00  0.00000000000E+00  0.43381388156E+03  0.43381388159E+03  0.50400001928E-02 0.  1.
        1   -1    0    0  501    0  0.00000000000E+00  0.00000000000E+00 -0.15275113268E+04  0.15275113268E+04  0.50400001928E-02 0. -1.
    10030    2    1    2    0    0  0.00000000000E+00  0.00000000000E+00 -0.10936974452E+04  0.19613252084E+04  0.16280732389E+04 0.  0.
        4    1    3    3  502    0 -0.71278642721E+03  0.38275329010E+03 -0.65520016938E+03  0.10410828242E+04  0.12699999809E+01 0. -1.
       -4    1    3    3    0  502  0.71278642721E+03 -0.38275329010E+03 -0.43849727583E+03  0.92024238421E+03  0.12699999809E+01 0.  1.
</event>
<event>
 5   0  0.7415102E-04  0.1604313E+04  0.7818609E-02  0.8817903E-01
        2   -1    0    0  501    0  0.00000000000E+00  0.00000000000E+00  0.85638606670E+03  0.85638606670E+03  0.25500000920E-02 0.  1.
       -2   -1    0    0    0  501  0.00000000000E+00  0.00000000000E+00 -0.75136056871E+03  0.75136056871E+03  0.25500000920E-02 0. -1.
    10030    2    1    2    0    0  0.00000000000E+00  0.00000000000E+00  0.10502549799E+03  0.16077466354E+04  0.16043125906E+04 0.  0.
        5    1    3    3  502    0  0.65686643477E+03 -0.43149941447E+03  0.21337854067E+03  0.81438182042E+03  0.46999998093E+01 0.  1.
       -5    1    3    3    0  502 -0.65686643477E+03  0.43149941447E+03 -0.10835304267E+03  0.79336481499E+03  0.46999998093E+01 0. -1.
</event>
<event>
 5   0  0.3837251E-04  0.1602006E+04  0.7818609E-02  0.8819317E-01
       -1   -1    0    0    0  501  0.00000000000E+00  0.00000000000E+00  0.73250009230E+03  0.73250009232E+03  0.50400001928E-02 0.  1.
        1   -1    0    0  501    0  0.00000000000E+00  0.00000000000E+00 -0.87591175251E+03  0.87591175252E+03  0.50400001928E-02 0. -1.
    10030    2    1    2    0    0  0.00000000000E+00  0.00000000000E+00 -0.14341166021E+03  0.16084118448E+04  0.16020055425E+04 0.  0.
        4    1    3    3  502    0  0.39634282058E+03 -0.67385493372E+03 -0.24686184831E+03  0.81982344939E+03  0.12699999809E+01 0.  1.
       -4    1    3    3    0  502 -0.39634282058E+03  0.67385493372E+03  0.10345018810E+03  0.78858839545E+03  0.12699999809E+01 0. -1.
</event>
<event>
 5   0  0.3973227E-04  0.1571087E+04  0.7818609E-02  0.8838510E-01
       -1   -1    0    0    0  501  0.00000000000E+00  0.00000000000E+00  0.36626630903E+03  0.36626630906E+03  0.50400001928E-02 0. -1.
        1   -1    0    0  501    0  0.00000000000E+00  0.00000000000E+00 -0.16847811386E+04  0.16847811386E+04  0.50400001928E-02 0.  1.
    10030    2    1    2    0    0  0.00000000000E+00  0.00000000000E+00 -0.13185148296E+04  0.20510474477E+04  0.15710869730E+04 0.  0.
        3    1    3    3  502    0  0.60211760040E+03 -0.43190099381E+03 -0.99967526646E+03  0.12443611701E+04  0.10100000352E+00 0.  1.
       -3    1    3    3    0  502 -0.60211760040E+03  0.43190099381E+03 -0.31883956313E+03  0.80668627755E+03  0.10100000352E+00 0. -1.
</event>
<event>
 5   0  0.7395088E-04  0.1608667E+04  0.7818609E-02  0.8815241E-01
       -2   -1    0    0    0  501  0.00000000000E+00  0.00000000000E+00  0.23690046389E+03  0.23690046391E+03  0.25500000920E-02 0.  1.
        2   -1    0    0  501    0  0.00000000000E+00  0.00000000000E+00 -0.27309039649E+04  0.27309039649E+04  0.25500000920E-02 0. -1.
    10030    2    1    2    0    0  0.00000000000E+00  0.00000000000E+00 -0.24940035010E+04  0.29678044288E+04  0.16086670459E+04 0.  0.
        1    1    3    3  502    0 -0.75346809708E+02  0.18224820021E+03 -0.26856103131E+04  0.26928413065E+04  0.50400001928E-02 0. -1.
       -1    1    3    3    0  502  0.75346809708E+02 -0.18224820021E+03  0.19160681203E+03  0.27496312235E+03  0.50400001928E-02 0.  1.
</event>
<event>
 5   0  0.7553070E-04  0.1548094E+04  0.7818609E-02  0.8853086E-01
        2   -1    0    0  501    0  0.00000000000E+00  0.00000000000E+00  0.97021490627E+03  0.97021490628E+03  0.25500000920E-02 0. -1.
       -2   -1    0    0    0  501  0.00000000000E+00  0.00000000000E+00 -0.61754235742E+03  0.61754235742E+03  0.25500000920E-02 0.  1.
    10030    2    1    2    0    0  0.00000000000E+00  0.00000000000E+00  0.35267254886E+03  0.15877572637E+04  0.15480940545E+04 0.  0.
        4    1    3    3  502    0 -0.26146483030E+03 -0.68850722386E+03  0.42064319312E+03  0.84814407008E+03  0.12699999809E+01 0.  1.
       -4    1    3    3    0  502  0.26146483030E+03  0.68850722386E+03 -0.67970644264E+02  0.73961319362E+03  0.12699999809E+01 0. -1.
</event>
<event>
 5   0  0.7488884E-04  0.1557567E+04  0.7818609E-02  0.8847049E-01
       -2   -1    0    0    0  501  0.00000000000E+00  0.00000000000E+00  0.11809365069E+04  0.11809365069E+04  0.25500000920E-02 0.  1.
        2   -1    0    0  501    0  0.00000000000E+00  0.00000000000E+00 -0.51357839527E+03  0.51357839527E+03  0.25500000920E-02 0. -1.
    10030    2    1    2    0    0  0.00000000000E+00  0.00000000000E+00  0.66735811164E+03  0.16945149022E+04  0.15575666614E+04 0.  0.
        3    1    3    3  502    0 -0.34745063782E+03  0.63786797355E+02  0.10887588122E+04  0.11446337679E+04  0.10100000352E+00 0.  1.
       -3    1    3    3    0  502  0.34745063782E+03 -0.63786797355E+02 -0.42140070056E+03  0.54988113431E+03  0.10100000352E+00 0. -1.
</event>
<event>
 5   0  0.3950195E-04  0.1601580E+04  0.7818609E-02  0.8819578E-01
        1   -1    0    0  501    0  0.00000000000E+00  0.00000000000E+00  0.11114962391E+04  0.11114962391E+04  0.50400001928E-02 0.  1.
       -1   -1    0    0    0  501  0.00000000000E+00  0.00000000000E+00 -0.57693790297E+03  0.57693790299E+03  0.50400001928E-02 0. -1.
    10030    2    1    2    0    0  0.00000000000E+00  0.00000000000E+00  0.53455833616E+03  0.16884341421E+04  0.16015796070E+04 0.  0.
        2    1    3    3  502    0  0.35529789558E+03 -0.50152038208E+03  0.80844459439E+03  0.10155500728E+04  0.25500000920E-02 0. -1.
       -2    1    3    3    0  502 -0.35529789558E+03  0.50152038208E+03 -0.27388625823E+03  0.67288406928E+03  0.25500000920E-02 0.  1.
</event>
<event>
 5   0  0.3950195E-04  0.1589023E+04  0.7818609E-02  0.8827320E-01
        1   -1    0    0  501    0  0.00000000000E+00  0.00000000000E+00  0.52757137042E+03  0.52757137044E+03  0.50400001928E-02 0.  1.
       -1   -1    0    0    0  501  0.00000000000E+00  0.00000000000E+00 -0.11965181560E+04  0.11965181560E+04  0.50400001928E-02 0. -1.
    10030    2    1    2    0    0  0.00000000000E+00  0.00000000000E+00 -0.66894678556E+03  0.17240895264E+04  0.15890232513E+04 0.  0.
        2    1    3    3  502    0 -0.29680436208E+03  0.30665915318E+03  0.39265123269E+03  0.57992038774E+03  0.25500000920E-02 0.  1.
       -2    1    3    3    0  502  0.29680436208E+03 -0.30665915318E+03 -0.10615980182E+04  0.11441691387E+04  0.25500000920E-02 0. -1.
</event>
<event>
 5   0  0.7415102E-04  0.1555887E+04  0.7818609E-02  0.8848116E-01
        2   -1    0    0  501    0  0.00000000000E+00  0.00000000000E+00  0.70621970726E+03  0.70621970727E+03  0.25500000920E-02 0.  1.
       -2   -1    0    0    0  501  0.00000000000E+00  0.00000000000E+00 -0.85695109938E+03  0.85695109938E+03  0.25500000920E-02 0. -1.
    10030    2    1    2    0    0  0.00000000000E+00  0.00000000000E+00 -0.15073139212E+03  0.15631708066E+04  0.15558865698E+04 0.  0.
        5    1    3    3  502    0  0.62753733211E+03 -0.36408046215E+03  0.20669049662E+03  0.75438765731E+03  0.46999998093E+01 0. -1.
       -5    1    3    3    0  502 -0.62753733211E+03  0.36408046215E+03 -0.35742188874E+03  0.80878314934E+03  0.46999998093E+01 0.  1.
</event>
<event>
 5   0  0.3889847E-04  0.1614949E+04  0.7818609E-02  0.8811417E-01
       -1   -1    0    0    0  501  0.00000000000E+00  0.00000000000E+00  0.85381699645E+03  0.85381699647E+03  0.50400001928E-02 0.  1.
        1   -1    0    0  501    0  0.00000000000E+00  0.00000000000E+00 -0.76364708054E+03  0.76364708056E+03  0.50400001928E-02 0. -1.
    10030    2    1    2    0    0  0.00000000000E+00  0.00000000000E+00  0.90169915912E+02  0.16174640770E+04  0.16149487381E+04 0.  0.
        1    1    3    3  502    0  0.58897958216E+03  0.43240967454E+01  0.59830313923E+03  0.83957268443E+03  0.50400001928E-02 0.  1.
       -1    1    3    3    0  502 -0.58897958216E+03 -0.43240967454E+01 -0.50813322332E+03  0.77789139259E+03  0.50400001928E-02 0. -1.
</event>
<event>
 5   0  0.7488884E-04  0.1586838E+04  0.7818609E-02  0.8828675E-01
       -2   -1    0    0    0  501  0.00000000000E+00  0.00000000000E+00  0.48548724762E+03  0.48548724763E+03  0.25500000920E-02 0. -1.
        2   -1    0    0  501    0  0.00000000000E+00  0.00000000000E+00 -0.12966636490E+04  0.12966636490E+04  0.25500000920E-02 0.  1.
    10030    2    1    2    0    0  0.00000000000E+00  0.00000000000E+00 -0.81117640142E+03  0.17821508967E+04  0.15868379452E+04 0.  0.
        3    1    3    3  502    0 -0.23830229770E+03 -0.67355704538E+03 -0.18089408307E+02  0.71469875848E+03  0.10100000352E+00 0. -1.
       -3    1    3    3    0  502  0.23830229770E+03  0.67355704538E+03 -0.79308699312E+03  0.10674521382E+04  0.10100000352E+00 0.  1.
</event>
<event>
 5   0  0.3950195E-04  0.1608537E+04  0.7818609E-02  0.8815321E-01
       -1   -1    0    0    0  501  0.00000000000E+00  0.00000000000E+00  0.36746339877E+03  0.36746339880E+03  0.50400001928E-02 0.  1.
        1   -1    0    0  501    0  0.00000000000E+00  0.00000000000E+00 -0.17603052220E+04  0.17603052220E+04  0.50400001928E-02 0. -1.
    10030    2    1    2    0    0  0.00000000000E+00  0.00000000000E+00 -0.13928418232E+04  0.21277686208E+04  0.16085369001E+04 0.  0.
        2    1    3    3  502    0  0.25783627533E+03 -0.17826907409E+03  0.28333220783E+03  0.42253585369E+03  0.25500000920E-02 0.  1.
       -2    1    3    3    0  502 -0.25783627533E+03  0.17826907409E+03 -0.16761740310E+04  0.17052327671E+04  0.25500000920E-02 0. -1.
</event>
<event>
 5   0  0.3837251E-04  0.1601907E+04  0.7818609E-02  0.8819378E-01
       -1   -1    0    0    0  501  0.00000000000E+00  0.00000000000E+00  0.94947791156E+03  0.94947791157E+03  0.50400001928E-02 0. -1.
        1   -1    0    0  501    0  0.00000000000E+00  0.00000000000E+00 -0.67566205139E+03  0.67566205141E+03  0.50400001928E-02 0.  1.
    10030    2    1    2    0    0  0.00000000000E+00  0.00000000000E+00  0.27381586017E+03  0.16251399630E+04  0.16019066059E+04 0.  0.
        4    1    3    3  502    0 -0.11229389738E+03 -0.23151139691E+03 -0.63258960305E+03  0.68291922295E+03  0.12699999809E+01 0.  1.
       -4    1    3    3    0  502  0.11229389738E+03  0.23151139691E+03  0.90640546322E+03  0.94222074003E+03  0.12699999809E+01 0. -1.
</event>
<event>
 5   0  0.2781000E-04  0.1610177E+04  0.7818609E-02  0.8814320E-01
        3   -1    0    0  501    0  0.00000000000E+00  0.00000000000E+00  0.12936509647E+04  0.12936509687E+04  0.10100000352E+00 0.  1.
       -3   -1    0    0    0  501  0.00000000000E+00  0.00000000000E+00 -0.50103716732E+03  0.50103717750E+03  0.10100000352E+00 0. -1.
    10030    2    1    2    0    0  0.00000000000E+00  0.00000000000E+00  0.79261379741E+03  0.17946881462E+04  0.16101766705E+04 0.  0.
        2    1    3    3  502    0 -0.33931287951E+03  0.29715598482E+03 -0.34699425936E+03  0.56906935039E+03  0.25500000920E-02 0. -1.
       -2    1    3    3    0  502  0.33931287951E+03 -0.29715598482E+03  0.11396080568E+04  0.12256187958E+04  0.25500000920E-02 0.  1.
</event>
<event>
 5   0  0.7553070E-04  0.1586121E+04  0.7818609E-02  0.8829120E-01
       -2   -1    0    0    0  501  0.00000000000E+00  0.00000000000E+00  0.10285221131E+04  0.10285221131E+04  0.25500000920E-02 0.  1.
        2   -1    0    0  501    0  0.00000000000E+00  0.00000000000E+00 -0.61150368113E+03  0.61150368114E+03  0.25500000920E-02 0. -1.
    10030    2    1    2    0    0  0.00000000000E+00  0.00000000000E+00  0.41701843195E+03  0.16400257942E+04  0.15861211281E+04 0.  0.
        4    1    3    3  502    0 -0.38138374966E+03 -0.51405731618E+03  0.69264728063E+03  0.94311736125E+03  0.12699999809E+01 0.  1.
       -4    1    3    3    0  502  0.38138374966E+03  0.51405731618E+03 -0.27562884868E+03  0.69690843297E+03  0.12699999809E+01 0. -1.
</event>
<event>
 5   0  0.4110803E-04  0.1594457E+04  0.7818609E-02  0.8823960E-01
       -1   -1    0    0    0  501  0.00000000000E+00  0.00000000000E+00  0.24827617389E+03  0.24827617394E+03  0.50400001928E-02 0. -1.
        1   -1    0    0  501    0  0.00000000000E+00  0.00000000000E+00 -0.25599459205E+04  0.25599459205E+04  0.50400001928E-02 0.  1.
    10030    2    1    2    0    0  0.00000000000E+00  0.00000000000E+00 -0.23116697466E+04  0.28082220945E+04  0.15944573730E+04 0.  0.
        5    1    3    3  502    0  0.39426704834E+03 -0.10492197170E+03  0.50449138741E+02  0.41112325542E+03  0.46999998093E+01 0. -1.
       -5    1    3    3    0  502 -0.39426704834E+03  0.10492197170E+03 -0.23621188854E+04  0.23970988390E+04  0.46999998093E+01 0.  1.
</event>
<event>
 5   0  0.7770905E-04  0.1600707E+04  0.7818609E-02  0.8820114E-01
        2   -1    0    0  501    0  0.00000000000E+00  0.00000000000E+00  0.14087156915E+04  0.14087156915E+04  0.25500000920E-02 0.  1.
       -2   -1    0    0    0  501  0.00000000000E+00  0.00000000000E+00 -0.45471594556E+03  0.45471594557E+03  0.25500000920E-02 0. -1.
    10030    2    1    2    0    0  0.00000000000E+00  0.00000000000E+00  0.95399974597E+03  0.18634316371E+04  0.16007067036E+04 0.  0.
        2    1    3    3  502    0  0.70300906335E+03 -0.31261103933E+03  0.73368494643E+03  0.10631279348E+04  0.25500000920E-02 0.  1.
       -2    1    3    3    0  502 -0.70300906335E+03  0.31261103933E+03  0.22031479954E+03  0.80030370233E+03  0.25500000920E-02 0. -1.
</event>
<event>
 5   0  0.3950195E-04  0.1521322E+04  0.7818609E-02  0.8870397E-01
       -1   -1    0    0    0  501  0.00000000000E+00  0.00000000000E+00  0.36806705868E+03  0.36806705872E+03  0.50400001928E-02 0. -1.
        1   -1    0    0  501    0  0.00000000000E+00  0.00000000000E+00 -0.15720098076E+04  0.15720098076E+04  0.50400001928E-02 0.  1.
    10030    2    1    2    0    0  0.00000000000E+00  0.00000000000E+00 -0.12039427489E+04  0.19400768663E+04  0.15213218281E+04 0.  0.
        2    1    3    3  502    0 -0.51173035988E+03  0.12550016599E+03  0.97663655607E+02  0.53586979997E+03  0.25500000920E-02 0. -1.
       -2    1    3    3    0  502  0.51173035988E+03 -0.12550016599E+03 -0.13016064045E+04  0.14042070664E+04  0.25500000920E-02 0.  1.
</event>
<event>
 5   0  0.3889847E-04  0.1604685E+04  0.7818609E-02  0.8817675E-01
       -1   -1    0    0    0  501  0.00000000000E+00  0.00000000000E+00  0.57230892418E+03  0.57230892421E+03  0.50400001928E-02 0. -1.
        1   -1    0    0  501    0  0.00000000000E+00  0.00000000000E+00 -0.11248350660E+04  0.11248350661E+04  0.50400001928E-02 0.  1.
    10030    2    1    2    0    0  0.00000000000E+00  0.00000000000E+00 -0.55252614186E+03  0.16971439903E+04  0.16046845753E+04 0.  0.
        1    1    3    3  502    0 -0.57367628221E+03 -0.41613672730E+03 -0.67407228725E+03  0.97808368816E+03  0.50400001928E-02 0.  1.
       -1    1    3    3    0  502  0.57367628221E+03  0.41613672730E+03  0.12154614539E+03  0.71906030210E+03  0.50400001928E-02 0. -1.
</event>
<event>
 5   0  0.7770905E-04  0.1573774E+04  0.7818609E-02  0.8836824E-01
        2   -1    0    0  501    0  0.00000000000E+00  0.00000000000E+00  0.58535234628E+03  0.58535234629E+03  0.25500000920E-02 0. -1.
       -2   -1    0    0    0  501  0.00000000000E+00  0.00000000000E+00 -0.10578094133E+04  0.10578094133E+04  0.25500000920E-02 0.  1.
    10030    2    1    2    0    0  0.00000000000E+00  0.00000000000E+00 -0.47245706704E+03  0.16431617596E+04  0.15737740905E+04 0.  0.
        2    1    3    3  502    0  0.26327711615E+03  0.31387182232E+03  0.46522656609E+03  0.61989202167E+03  0.25500000920E-02 0. -1.
       -2    1    3    3    0  502 -0.26327711615E+03 -0.31387182232E+03 -0.93768363313E+03  0.10232697379E+04  0.25500000920E-02 0.  1.
</event>
<event>
 5   0  0.7395088E-04  0.1417281E+04  0.7818609E-02  0.8941404E-01
       -2   -1    0    0    0  501  0.00000000000E+00  0.00000000000E+00  0.85680338940E+03  0.85680338941E+03  0.25500000920E-02 0.  1.
        2   -1    0    0  501    0  0.00000000000E+00  0.00000000000E+00 -0.58609866212E+03  0.58609866213E+03  0.25500000920E-02 0. -1.
    10030    2    1    2    0    0  0.00000000000E+00  0.00000000000E+00  0.27070472728E+03  0.14429020515E+04  0.14172809464E+04 0.  0.
        1    1    3    3  502    0 -0.30051898751E+03 -0.22359572685E+03  0.74777883982E+03  0.83634915211E+03  0.50400001928E-02 0.  1.
       -1    1    3    3    0  502  0.30051898751E+03  0.22359572685E+03 -0.47707411254E+03  0.60655289943E+03  0.50400001928E-02 0. -1.
</event>
<event>
 5   0  0.3950195E-04  0.1601629E+04  0.7818609E-02  0.8819548E-01
        1   -1    0    0  501    0  0.00000000000E+00  0.00000000000E+00  0.17813022146E+04  0.17813022146E+04  0.50400001928E-02 0.  1.
       -1   -1    0    0    0  501  0.00000000000E+00  0.00000000000E+00 -0.36001949017E+03  0.36001949020E+03  0.50400001928E-02 0. -1.
    10030    2    1    2    0    0  0.00000000000E+00  0.00000000000E+00  0.14212827244E+04  0.21413217048E+04  0.16016285652E+04 0.  0.
        2    1    3    3  502    0  0.10459132632E+03  0.35264579359E+03 -0.24039597237E+03  0.43941850760E+03  0.25500000920E-02 0. -1.
       -2    1    3    3    0  502 -0.10459132632E+03 -0.35264579359E+03  0.16616786968E+04  0.17019031972E+04  0.25500000920E-02 0.  1.
</event>
<event>
 5   0  0.3889847E-04  0.1639662E+04  0.7818609E-02  0.8796546E-01
        1   -1    0    0  501    0  0.00000000000E+00  0.00000000000E+00  0.10404449012E+04  0.10404449012E+04  0.50400001928E-02 0. -1.
       -1   -1    0    0    0  501  0.00000000000E+00  0.00000000000E+00 -0.64599570869E+03  0.64599570871E+03  0.50400001928E-02 0.  1.
    10030    2    1    2    0    0  0.00000000000E+00  0.00000000000E+00  0.39444919251E+03  0.16864406099E+04  0.16396620888E+04 0.  0.
        1    1    3    3  502    0  0.24096404493E+03  0.70474208079E+03  0.54963344510E+03  0.92564679840E+03  0.50400001928E-02 0. -1.
       -1    1    3    3    0  502 -0.24096404493E+03 -0.70474208079E+03 -0.15518425259E+03  0.76079381153E+03  0.50400001928E-02 0.  1.
</event>
<event>
 5   0  0.3837251E-04  0.1605343E+04  0.7818609E-02  0.8817273E-01
        1   -1    0    0  501    0  0.00000000000E+00  0.00000000000E+00  0.27152325353E+04  0.27152325353E+04  0.50400001928E-02 0.  1.
       -1   -1    0    0    0  501  0.00000000000E+00  0.00000000000E+00 -0.23728396990E+03  0.23728396996E+03  0.50400001928E-02 0. -1.
    10030    2    1    2    0    0  0.00000000000E+00  0.00000000000E+00  0.24779485654E+04  0.29525165053E+04  0.16053425245E+04 0.  0.
        4    1    3    3  502    0 -0.63477276057E+03 -0.46382725077E+03  0.15367136857E+04  0.17261409968E+04  0.12699999809E+01 0. -1.
       -4    1    3    3    0  502  0.63477276057E+03  0.46382725077E+03  0.94123487973E+03  0.12263755085E+04  0.12699999809E+01 0.  1.
</event>
<event>
 5   0  0.7553070E-04  0.1594529E+04  0.7818609E-02  0.8823916E-01
        2   -1    0    0  501    0  0.00000000000E+00  0.00000000000E+00  0.90969271979E+03  0.90969271979E+03  0.25500000920E-02 0. -1.
       -2   -1    0    0    0  501  0.00000000000E+00  0.00000000000E+00 -0.69873118822E+03  0.69873118823E+03  0.25500000920E-02 0.  1.
    10030    2    1    2    0    0  0.00000000000E+00  0.00000000000E+00  0.21096153156E+03  0.16084239080E+04  0.15945289900E+04 0.  0.
        4    1    3    3  502    0  0.33607665520E+03 -0.19327404799E+03  0.80820541358E+03  0.89638160358E+03  0.12699999809E+01 0. -1.
       -4    1    3    3    0  502 -0.33607665520E+03  0.19327404799E+03 -0.59724388202E+03  0.71204230444E+03  0.12699999809E+01 0.  1.
</event>
<event>
 5   0  0.3973227E-04  0.1650811E+04  0.7818609E-02  0.8789927E-01
       -1   -1    0    0    0  501  0.00000000000E+00  0.00000000000E+00  0.27580545144E+03  0.27580545149E+03  0.50400001928E-02 0. -1.
        1   -1    0    0  501    0  0.00000000000E+00  0.00000000000E+00 -0.24701994565E+04  0.24701994565E+04  0.50400001928E-02 0.  1.
    10030    2    1    2    0    0  0.00000000000E+00  0.00000000000E+00 -0.21943940051E+04  0.27460049080E+04  0.16508112870E+04 0.  0.
        3    1    3    3  502    0 -0.54842885867E+03 -0.45427266037E+03 -0.40301419710E+03  0.81826543142E+03  0.10100000352E+00 0. -1.
       -3    1    3    3    0  502  0.54842885867E+03  0.45427266037E+03 -0.17913798080E+04  0.19277394766E+04  0.10100000352E+00 0.  1.
</event>
<event>
 5   0  0.3889847E-04  0.1596633E+04  0.7818609E-02  0.8822619E-01
        1   -1    0    0  501    0  0.00000000000E+00  0.00000000000E+00  0.99545000234E+03  0.99545000235E+03  0.50400001928E-02 0. -1.
       -1   -1    0    0    0  501  0.00000000000E+00  0.00000000000E+00 -0.64022245247E+03  0.64022245249E+03  0.50400001928E-02 0.  1.
    10030    2    1    2    0    0  0.00000000000E+00  0.00000000000E+00  0.35522754987E+03  0.16356724548E+04  0.15966332601E+04 0.  0.
        1    1    3    3  502    0  0.79285855508E+03 -0.73144839888E+02  0.11845596072E+03  0.80498861521E+03  0.50400001928E-02 0. -1.
       -1    1    3    3    0  502 -0.79285855508E+03  0.73144839888E+02  0.23677158915E+03  0.83068383963E+03  0.50400001928E-02 0.  1.
</event>
<event>
 5   0  0.3889847E-04  0.1598092E+04  0.7818609E-02  0.8821721E-01
        1   -1    0    0  501    0  0.00000000000E+00  0.00000000000E+00  0.14525640296E+04  0.14525640296E+04  0.50400001928E-02 0.  1.
       -1   -1    0    0    0  501  0.00000000000E+00  0.00000000000E+00 -0.43955011747E+03  0.43955011750E+03  0.50400001928E-02 0. -1.
    10030    2    1    2    0    0  0.00000000000E+00  0.00000000000E+00  0.10130139121E+04  0.18921141471E+04  0.15980922250E+04 0.  0.
        1    1    3    3  502    0  0.31795580957E+03  0.72946071092E+03  0.59242419733E+03  0.99205607464E+03  0.50400001928E-02 0.  1.
       -1    1    3    3    0  502 -0.31795580957E+03 -0.72946071092E+03  0.42058971481E+03  0.90005807249E+03  0.50400001928E-02 0. -1.
</event>
<event>
 5   0  0.7553070E-04  0.1613582E+04  0.7818609E-02  0.8812247E-01
        2   -1    0    0  501    0  0.00000000000E+00  0.00000000000E+00  0.88893197837E+03  0.88893197838E+03  0.25500000920E-02 0.  1.
       -2   -1    0    0    0  501  0.00000000000E+00  0.00000000000E+00 -0.73224016898E+03  0.73224016898E+03  0.25500000920E-02 0. -1.
    10030    2    1    2    0    0  0.00000000000E+00  0.00000000000E+00  0.15669180939E+03  0.16211721474E+04  0.16135819806E+04 0.  0.
        4    1    3    3  502    0  0.49952657114E+03 -0.11436324628E+03 -0.54772600958E+03  0.75007409090E+03  0.12699999809E+01 0. -1.
       -4    1    3    3    0  502 -0.49952657114E+03  0.11436324628E+03  0.70441781897E+03  0.87109805646E+03  0.12699999809E+01 0.  1.
</event>
<event>
 5   0  0.7488884E-04  0.1568674E+04  0.7818609E-02  0.8840027E-01
        2   -1    0    0  501    0  0.00000000000E+00  0.00000000000E+00  0.56581049995E+03  0.56581049996E+03  0.25500000920E-02 0.  1.
       -2   -1    0    0    0  501  0.00000000000E+00  0.00000000000E+00 -0.10872627755E+04  0.10872627755E+04  0.25500000920E-02 0. -1.
    10030    2    1    2    0    0  0.00000000000E+00  0.00000000000E+00 -0.52145227553E+03  0.16530732754E+04  0.15686742104E+04 0.  0.
        3    1    3    3  502    0 -0.70267490696E+03 -0.14718909755E+03 -0.59358110674E+03  0.93153378671E+03  0.10100000352E+00 0. -1.
       -3    1    3    3    0  502  0.70267490696E+03  0.14718909755E+03  0.72128831208E+02  0.72153948873E+03  0.10100000352E+00 0.  1.
</event>
<event>
 5   0  0.7415102E-04  0.1605057E+04  0.7818609E-02  0.8817447E-01
       -2   -1    0    0    0  501  0.00000000000E+00  0.00000000000E+00  0.36441521567E+03  0.36441521568E+03  0.25500000920E-02 0.  1.
        2   -1    0    0  501    0  0.00000000000E+00  0.00000000000E+00 -0.17673586418E+04  0.17673586418E+04  0.25500000920E-02 0. -1.
    10030    2    1    2    0    0  0.00000000000E+00  0.00000000000E+00 -0.14029434261E+04  0.21317738575E+04  0.16050574826E+04 0.  0.
        5    1    3    3  502    0 -0.25902021535E+03  0.30366403633E+02  0.30654580323E+03  0.40249970175E+03  0.46999998093E+01 0.  1.
       -5    1    3    3    0  502  0.25902021535E+03 -0.30366403633E+02 -0.17094892293E+04  0.17292741557E+04  0.46999998093E+01 0. -1.
</event>
<event>
 5   0  0.7488884E-04  0.1587255E+04  0.7818609E-02  0.8828416E-01
        2   -1    0    0  501    0  0.00000000000E+00  0.00000000000E+00  0.12456947292E+04  0.12456947292E+04  0.25500000920E-02 0. -1.
       -2   -1    0    0    0  501  0.00000000000E+00  0.00000000000E+00 -0.50561735723E+03  0.50561735724E+03  0.25500000920E-02 0.  1.
    10030    2    1    2    0    0  0.00000000000E+00  0.00000000000E+00  0.74007737194E+03  0.17513120864E+04  0.15872553379E+04 0.  0.
        3    1    3    3  502    0  0.34070033335E+03 -0.66267423815E+03  0.68615684800E+02  0.74827934988E+03  0.10100000352E+00 0.  1.
       -3    1    3    3    0  502 -0.34070033335E+03  0.66267423815E+03  0.67146168714E+03  0.10030327365E+04  0.10100000352E+00 0. -1.
</event>
<event>
 5   0  0.4110803E-04  0.1619750E+04  0.7818609E-02  0.8808506E-01
        1   -1    0    0  501    0  0.00000000000E+00  0.00000000000E+00  0.13645692257E+04  0.13645692257E+04  0.50400001928E-02 0. -1.
       -1   -1    0    0    0  501  0.00000000000E+00  0.00000000000E+00 -0.48066267051E+03  0.48066267054E+03  0.50400001928E-02 0.  1.
    10030    2    1    2    0    0  0.00000000000E+00  0.00000000000E+00  0.88390655520E+03  0.18452318963E+04  0.16197499661E+04 0.  0.
        5    1    3    3  502    0  0.14952976809E+03  0.44219620222E+02  0.13472909271E+04  0.13562925417E+04  0.46999998093E+01 0. -1.
       -5    1    3    3    0  502 -0.14952976809E+03 -0.44219620222E+02 -0.46338437189E+03  0.48893935459E+03  0.46999998093E+01 0.  1.
</event>
<event>
 5   0  0.7415102E-04  0.1585733E+04  0.7818609E-02  0.8829361E-01
        2   -1    0    0  501    0  0.00000000000E+00  0.00000000000E+00  0.16497734648E+04  0.16497734648E+04  0.25500000920E-02 0.  1.
       -2   -1    0    0    0  501  0.00000000000E+00  0.00000000000E+00 -0.38104471392E+03  0.38104471393E+03  0.25500000920E-02 0. -1.
    10030    2    1    2    0    0  0.00000000000E+00  0.00000000000E+00  0.12687287509E+04  0.20308181787E+04  0.15857332158E+04 0.  0.
        5    1    3    3  502    0  0.20471367595E+03  0.68484696694E+03  0.19500999193E+03  0.74092782658E+03  0.46999998093E+01 0. -1.
       -5    1    3    3    0  502 -0.20471367595E+03 -0.68484696694E+03  0.10737187589E+04  0.12898903521E+04  0.46999998093E+01 0.  1.
</event>
<event>
 5   0  0.7770905E-04  0.1604815E+04  0.7818609E-02  0.8817595E-01
        2   -1    0    0  501    0  0.00000000000E+00  0.00000000000E+00  0.23368613710E+04  0.23368613710E+04  0.25500000920E-02 0.  1.
       -2   -1    0    0    0  501  0.00000000000E+00  0.00000000000E+00 -0.27552261960E+03  0.27552261961E+03  0.25500000920E-02 0. -1.
    10030    2    1    2    0    0  0.00000000000E+00  0.00000000000E+00  0.20613387514E+04  0.26123839906E+04  0.16048154618E+04 0.  0.
        2    1    3    3  502    0  0.71478962764E+03  0.24924852592E+02  0.16227934112E+04  0.17734158891E+04  0.25500000920E-02 0. -1.
       -2    1    3    3    0  502 -0.71478962764E+03 -0.24924852592E+02  0.43854534020E+03  0.83896810158E+03  0.25500000920E-02 0.  1.
</event>
<event>
 5   0  0.7415102E-04  0.1599733E+04  0.7818609E-02  0.8820712E-01
        2   -1    0    0  501    0  0.00000000000E+00  0.00000000000E+00  0.10056965352E+04  0.10056965353E+04  0.25500000920E-02 0. -1.
       -2   -1    0    0    0  501  0.00000000000E+00  0.00000000000E+00 -0.63616244286E+03  0.63616244287E+03  0.25500000920E-02 0.  1.
    10030    2    1    2    0    0  0.00000000000E+00  0.00000000000E+00  0.36953409238E+03  0.16418589781E+04  0.15997329335E+04 0.  0.
        5    1    3    3  502    0  0.19995368615E+03  0.71637740722E+03 -0.11723697653E+03  0.75295727956E+03  0.46999998093E+01 0.  1.
       -5    1    3    3    0  502 -0.19995368615E+03 -0.71637740722E+03  0.48677106891E+03  0.88890169856E+03  0.46999998093E+01 0. -1.
</event>
<event>
 5   0  0.3889847E-04  0.1616121E+04  0.7818609E-02  0.8810705E-01
        1   -1    0    0  501    0  0.00000000000E+00  0.00000000000E+00  0.64445728738E+03  0.64445728740E+03  0.50400001928E-02 0.  1.
       -1   -1    0    0    0  501  0.00000000000E+00  0.00000000000E+00 -0.10131964465E+04  0.10131964465E+04  0.50400001928E-02 0. -1.
    10030    2    1    2    0    0  0.00000000000E+00  0.00000000000E+00 -0.36873915910E+03  0.16576537339E+04  0.16161210765E+04 0.  0.
        1    1    3    3  502    0 -0.17836622702E+03  0.18005442762E+03  0.60263483165E+03  0.65376054346E+03  0.50400001928E-02 0.  1.
       -1    1    3    3    0  502  0.17836622702E+03 -0.18005442762E+03 -0.97137399075E+03  0.10038931904E+04  0.50400001928E-02 0. -1.
</event>
<event>
 5   0  0.7770905E-04  0.1615769E+04  0.7818609E-02  0.8810919E-01
        2   -1    0    0  501    0  0.00000000000E+00  0.00000000000E+00  0.17378775131E+04  0.17378775131E+04  0.25500000920E-02 0.  1.
       -2   -1    0    0    0  501  0.00000000000E+00  0.00000000000E+00 -0.37555997516E+03  0.37555997517E+03  0.25500000920E-02 0. -1.
    10030    2    1    2    0    0  0.00000000000E+00  0.00000000000E+00  0.13623175379E+04  0.21134374883E+04  0.16157688395E+04 0.  0.
        2    1    3    3  502    0  0.69652779214E+03  0.40097812371E+03  0.57375221275E+03  0.98748469485E+03  0.25500000920E-02 0.  1.
       -2    1    3    3    0  502 -0.69652779214E+03 -0.40097812371E+03  0.78856532516E+03  0.11259527934E+04  0.25500000920E-02 0. -1.
</event>
<event>
 5   0  0.4110803E-04  0.1590193E+04  0.7818609E-02  0.8826596E-01
        1   -1    0    0  501    0  0.00000000000E+00  0.00000000000E+00  0.86059016512E+03  0.86059016513E+03  0.50400001928E-02 0.  1.
       -1   -1    0    0    0  501  0.00000000000E+00  0.00000000000E+00 -0.73458707940E+03  0.73458707942E+03  0.50400001928E-02 0. -1.
    10030    2    1    2    0    0  0.00000000000E+00  0.00000000000E+00  0.12600308571E+03  0.15951772446E+04  0.15901929644E+04 0.  0.
        5    1    3    3  502    0  0.62862519774E+03  0.66267567913E+02  0.54679454471E+03  0.83580344216E+03  0.46999998093E+01 0.  1.
       -5    1    3    3    0  502 -0.62862519774E+03 -0.66267567913E+02 -0.42079145900E+03  0.75937380239E+03  0.46999998093E+01 0. -1.
</event>
<event>
 5   0  0.3973227E-04  0.1613258E+04  0.7818609E-02  0.8812444E-01
       -1   -1    0    0    0  501  0.00000000000E+00  0.00000000000E+00  0.74506110294E+03  0.74506110296E+03  0.50400001928E-02 0.  1.
        1   -1    0    0  501    0  0.00000000000E+00  0.00000000000E+00 -0.87328430403E+03  0.87328430405E+03  0.50400001928E-02 0. -1.
    10030    2    1    2    0    0  0.00000000000E+00  0.00000000000E+00 -0.12822320110E+03  0.16183454070E+04  0.16132577807E+04 0.  0.
        3    1    3    3  502    0 -0.17181132268E+03  0.73105879593E+03  0.23123847101E+03  0.78577180808E+03  0.10100000352E+00 0.  1.
       -3    1    3    3    0  502  0.17181132268E+03 -0.73105879593E+03 -0.35946167211E+03  0.83257359892E+03  0.10100000352E+00 0. -1.
</event>
<event>
 5   0  0.7553070E-04  0.1496394E+04  0.7818609E-02  0.8886855E-01
       -2   -1    0    0    0  501  0.00000000000E+00  0.00000000000E+00  0.42744354800E+03  0.42744354801E+03  0.25500000920E-02 0. -1.
        2   -1    0    0  501    0  0.00000000000E+00  0.00000000000E+00 -0.13096434196E+04  0.13096434196E+04  0.25500000920E-02 0.  1.
    10030    2    1    2    0    0  0.00000000000E+00  0.00000000000E+00 -0.88219987159E+03  0.17370869676E+04  0.14963938384E+04 0.  0.
        4    1    3    3  502    0  0.14691878659E+03  0.73332350991E+03 -0.46568464543E+03  0.88102911526E+03  0.12699999809E+01 0. -1.
       -4    1    3    3    0  502 -0.14691878659E+03 -0.73332350991E+03 -0.41651522616E+03  0.85605785235E+03  0.12699999809E+01 0.  1.
</event>
<event>
 5   0  0.3973227E-04  0.1601387E+04  0.7818609E-02  0.8819696E-01
        1   -1    0    0  501    0  0.00000000000E+00  0.00000000000E+00  0.19011560902E+04  0.19011560902E+04  0.50400001928E-02 0. -1.
       -1   -1    0    0    0  501  0.00000000000E+00  0.00000000000E+00 -0.33722130912E+03  0.33722130916E+03  0.50400001928E-02 0.  1.
    10030    2    1    2    0    0  0.00000000000E+00  0.00000000000E+00  0.15639347810E+04  0.22383773993E+04  0.16013873306E+04 0.  0.
        3    1    3    3  502    0  0.59610451016E+03 -0.28450200539E+03  0.14145714361E+04  0.15611836330E+04  0.10100000352E+00 0. -1.
       -3    1    3    3    0  502 -0.59610451016E+03  0.28450200539E+03  0.14936334499E+03  0.67719376631E+03  0.10100000352E+00 0.  1.
</event>
<event>
 5   0  0.3837251E-04  0.1420975E+04  0.7818609E-02  0.8938774E-01
       -1   -1    0    0    0  501  0.00000000000E+00  0.00000000000E+00  0.10978869413E+04  0.10978869413E+04  0.50400001928E-02 0.  1.
        1   -1    0    0  501    0  0.00000000000E+00  0.00000000000E+00 -0.45978533064E+03  0.45978533067E+03  0.50400001928E-02 0. -1.
    10030    2    1    2    0    0  0.00000000000E+00  0.00000000000E+00  0.63810161062E+03  0.15576722719E+04  0.14209747504E+04 0.  0.
        4    1    3    3  502    0  0.49152454856E+02  0.26688908405E+03  0.10388334656E+04  0.10736956408E+04  0.12699999809E+01 0.  1.
       -4    1    3    3    0  502 -0.49152454856E+02 -0.26688908405E+03 -0.40073185496E+03  0.48397663113E+03  0.12699999809E+01 0. -1.
</event>
<event>
 5   0  0.3973227E-04  0.1593733E+04  0.7818609E-02  0.8824407E-01
        1   -1    0    0  501    0  0.00000000000E+00  0.00000000000E+00  0.69810198662E+03  0.69810198663E+03  0.50400001928E-02 0.  1.
       -1   -1    0    0    0  501  0.00000000000E+00  0.00000000000E+00 -0.90960367590E+03  0.90960367592E+03  0.50400001928E-02 0. -1.
    10030    2    1    2    0    0  0.00000000000E+00  0.00000000000E+00 -0.21150168929E+03  0.16077056625E+04  0.15937328926E+04 0.  0.
        3    1    3    3  502    0  0.44220855227E+03  0.65557264589E+03 -0.20496056074E+03  0.81690436368E+03  0.10100000352E+00 0.  1.
       -3    1    3    3    0  502 -0.44220855227E+03 -0.65557264589E+03 -0.65411285451E+01  0.79080129887E+03  0.10100000352E+00 0. -1.
</event>
<event>
 5   0  0.7415102E-04  0.1604841E+04  0.7818609E-02  0.8817579E-01
        2   -1    0    0  501    0  0.00000000000E+00  0.00000000000E+00  0.11269729835E+04  0.11269729835E+04  0.25500000920E-02 0.  1.
       -2   -1    0    0    0  501  0.00000000000E+00  0.00000000000E+00 -0.57133493919E+03  0.57133493920E+03  0.25500000920E-02 0. -1.
    10030    2    1    2    0    0  0.00000000000E+00  0.00000000000E+00  0.55563804432E+03  0.16983079227E+04  0.16048414763E+04 0.  0.
        5    1    3    3  502    0 -0.48490032675E+03  0.34749844024E+03 -0.29006614660E+03  0.66335808750E+03  0.46999998093E+01 0. -1.
       -5    1    3    3    0  502  0.48490032675E+03 -0.34749844024E+03  0.84570419091E+03  0.10349498352E+04  0.46999998093E+01 0.  1.
</event>
<event>
 5   0  0.3837251E-04  0.1550412E+04  0.7818609E-02  0.8851605E-01
        1   -1    0    0  501    0  0.00000000000E+00  0.00000000000E+00  0.80525483428E+03  0.80525483430E+03  0.50400001928E-02 0.  1.
       -1   -1    0    0    0  501  0.00000000000E+00  0.00000000000E+00 -0.74627854966E+03  0.74627854968E+03  0.50400001928E-02 0. -1.
    10030    2    1    2    0    0  0.00000000000E+00  0.00000000000E+00  0.58976284621E+02  0.15515333840E+04  0.15504120870E+04 0.  0.
        4    1    3    3  502    0 -0.61648965444E+02 -0.70150801838E+03 -0.29482756174E+03  0.76343892936E+03  0.12699999809E+01 0. -1.
       -4    1    3    3    0  502  0.61648965444E+02  0.70150801838E+03  0.35380384636E+03  0.78809445462E+03  0.12699999809E+01 0.  1.
</event>
<event>
 5   0  0.4110803E-04  0.1620982E+04  0.7818609E-02  0.8807760E-01
        1   -1    0    0  501    0  0.00000000000E+00  0.00000000000E+00  0.45187268628E+03  0.45187268631E+03  0.50400001928E-02 0. -1.
       -1   -1    0    0    0  501  0.00000000000E+00  0.00000000000E+00 -0.14537191779E+04  0.14537191779E+04  0.50400001928E-02 0.  1.
    10030    2    1    2    0    0  0.00000000000E+00  0.00000000000E+00 -0.10018464917E+04  0.19055918643E+04  0.16209824059E+04 0.  0.
        5    1    3    3  502    0  0.36117508623E+03  0.53700127858E+03  0.72653098233E+02  0.65124371689E+03  0.46999998093E+01 0. -1.
       -5    1    3    3    0  502 -0.36117508623E+03 -0.53700127858E+03 -0.10744995899E+04  0.12543481474E+04  0.46999998093E+01 0.  1.
</event>
<event>
 5   0  0.7415102E-04  0.1614994E+04  0.7818609E-02  0.8811389E-01
       -2   -1    0    0    0  501  0.00000000000E+00  0.00000000000E+00  0.15010445309E+04  0.15010445309E+04  0.25500000920E-02 0. -1.
        2   -1    0    0  501    0  0.00000000000E+00  0.00000000000E+00 -0.43439827887E+03  0.43439827888E+03  0.25500000920E-02 0.  1.
    10030    2    1    2    0    0  0.00000000000E+00  0.00000000000E+00  0.10666462521E+04  0.19354428098E+04  0.16149936975E+04 0.  0.
        5    1    3    3  502    0  0.19978776063E+03  0.39284754430E+03 -0.27752620246E+03  0.52085240271E+03  0.46999998093E+01 0.  1.
       -5    1    3    3    0  502 -0.19978776063E+03 -0.39284754430E+03  0.13441724545E+04  0.14145904071E+04  0.46999998093E+01 0. -1.
</event>
<event>
 5   0  0.4110803E-04  0.1672916E+04  0.7818609E-02  0.8776964E-01
        1   -1    0    0  501    0  0.00000000000E+00  0.00000000000E+00  0.55731956635E+03  0.55731956637E+03  0.50400001928E-02 0. -1.
       -1   -1    0    0    0  501  0.00000000000E+00  0.00000000000E+00 -0.12554058610E+04  0.12554058610E+04  0.50400001928E-02 0.  1.
    10030    2    1    2    0    0  0.00000000000E+00  0.00000000000E+00 -0.69808629464E+03  0.18127254274E+04  0.16729163160E+04 0.  0.
        5    1    3    3  502    0 -0.34018610897E+03 -0.72684824550E+03 -0.93528670728E+02  0.80796328071E+03  0.46999998093E+01 0. -1.
       -5    1    3    3    0  502  0.34018610897E+03  0.72684824550E+03 -0.60455762391E+03  0.10047621467E+04  0.46999998093E+01 0.  1.
</event>
<event>
 5   0  0.7553070E-04  0.1591666E+04  0.7818609E-02  0.8825684E-01
       -2   -1    0    0    0  501  0.00000000000E+00  0.00000000000E+00  0.41133248510E+03  0.41133248511E+03  0.25500000920E-02 0.  1.
        2   -1    0    0  501    0  0.00000000000E+00  0.00000000000E+00 -0.15397528477E+04  0.15397528477E+04  0.25500000920E-02 0. -1.
    10030    2    1    2    0    0  0.00000000000E+00  0.00000000000E+00 -0.11284203626E+04  0.19510853328E+04  0.15916662531E+04 0.  0.
        4    1    3    3  502    0 -0.55641544214E+03  0.54361855723E+03 -0.35825361802E+03  0.85642661551E+03  0.12699999809E+01 0.  1.
       -4    1    3    3    0  502  0.55641544214E+03 -0.54361855723E+03 -0.77016674457E+03  0.10946587173E+04  0.12699999809E+01 0. -1.
</event>
<event>
 5   0  0.3837251E-04  0.1590169E+04  0.7818609E-02  0.8826610E-01
       -1   -1    0    0    0  501  0.00000000000E+00  0.00000000000E+00  0.10993166693E+04  0.10993166693E+04  0.50400001928E-02 0.  1.
        1   -1    0    0  501    0  0.00000000000E+00  0.00000000000E+00 -0.57504788812E+03  0.57504788814E+03  0.50400001928E-02 0. -1.
    10030    2    1    2    0    0  0.00000000000E+00  0.00000000000E+00  0.52426878116E+03  0.16743645574E+04  0.15901694615E+04 0.  0.
        4    1    3    3  502    0  0.29780276024E+03 -0.14154882650E+03  0.10239295805E+04  0.10757118354E+04  0.12699999809E+01 0.  1.
       -4    1    3    3    0  502 -0.29780276024E+03  0.14154882650E+03 -0.49966079930E+03  0.59865272199E+03  0.12699999809E+01 0. -1.
</event>
<event>
 5   0  0.3950195E-04  0.1565386E+04  0.7818609E-02  0.8842099E-01
        1   -1    0    0  501    0  0.00000000000E+00  0.00000000000E+00  0.69459547518E+03  0.69459547520E+03  0.50400001928E-02 0. -1.
       -1   -1    0    0    0  501  0.00000000000E+00  0.00000000000E+00 -0.88196458260E+03  0.88196458261E+03  0.50400001928E-02 0.  1.
    10030    2    1    2    0    0  0.00000000000E+00  0.00000000000E+00 -0.18736910742E+03  0.15765600578E+04  0.15653863528E+04 0.  0.
        2    1    3    3  502    0  0.84079777510E+02 -0.69454784486E+03 -0.44710603495E+03  0.83028303866E+03  0.25500000920E-02 0.  1.
       -2    1    3    3    0  502 -0.84079777510E+02  0.69454784486E+03  0.25973692753E+03  0.74627701915E+03  0.25500000920E-02 0. -1.
</event>
<event>
 5   0  0.3973227E-04  0.1616890E+04  0.7818609E-02  0.8810239E-01
       -1   -1    0    0    0  501  0.00000000000E+00  0.00000000000E+00  0.80119429718E+03  0.80119429720E+03  0.50400001928E-02 0.  1.
        1   -1    0    0  501    0  0.00000000000E+00  0.00000000000E+00 -0.81576125193E+03  0.81576125194E+03  0.50400001928E-02 0. -1.
    10030    2    1    2    0    0  0.00000000000E+00  0.00000000000E+00 -0.14566954747E+02  0.16169555491E+04  0.16168899319E+04 0.  0.
        3    1    3    3  502    0 -0.34678862987E+03 -0.27187296969E+03 -0.68510592878E+03  0.81458419412E+03  0.10100000352E+00 0. -1.
       -3    1    3    3    0  502  0.34678862987E+03  0.27187296969E+03  0.67053897403E+03  0.80237135502E+03  0.10100000352E+00 0.  1.
</event>
<event>
 5   0  0.7488884E-04  0.1595479E+04  0.7818609E-02  0.8823330E-01
        2   -1    0    0  501    0  0.00000000000E+00  0.00000000000E+00  0.11749053491E+04  0.11749053491E+04  0.25500000920E-02 0.  1.
       -2   -1    0    0    0  501  0.00000000000E+00  0.00000000000E+00 -0.54165103704E+03  0.54165103704E+03  0.25500000920E-02 0. -1.
    10030    2    1    2    0    0  0.00000000000E+00  0.00000000000E+00  0.63325431207E+03  0.17165563862E+04  0.15954794900E+04 0.  0.
        3    1    3    3  502    0 -0.71322861812E+03  0.25436429506E+03  0.46597760698E+02  0.75866172818E+03  0.10100000352E+00 0. -1.
       -3    1    3    3    0  502  0.71322861812E+03 -0.25436429506E+03  0.58665655137E+03  0.95789465797E+03  0.10100000352E+00 0.  1.
</event>
<event>
 5   0  0.3950195E-04  0.1596153E+04  0.7818609E-02  0.8822915E-01
       -1   -1    0    0    0  501  0.00000000000E+00  0.00000000000E+00  0.60474439327E+03  0.60474439329E+03  0.50400001928E-02 0. -1.
        1   -1    0    0  501    0  0.00000000000E+00  0.00000000000E+00 -0.10532159927E+04  0.10532159927E+04  0.50400001928E-02 0.  1.
    10030    2    1    2    0    0  0.00000000000E+00  0.00000000000E+00 -0.44847159944E+03  0.16579603860E+04  0.15961534594E+04 0.  0.
        2    1    3    3  502    0 -0.69050779141E+03  0.16174300009E+03 -0.60442049217E+03  0.93181861939E+03  0.25500000920E-02 0.  1.
       -2    1    3    3    0  502  0.69050779141E+03 -0.16174300009E+03  0.15594889274E+03  0.72614176662E+03  0.25500000920E-02 0. -1.
</event>
<event>
 5   0  0.3950195E-04  0.1584476E+04  0.7818609E-02  0.8830142E-01
       -1   -1    0    0    0  501  0.00000000000E+00  0.00000000000E+00  0.55927803529E+03  0.55927803531E+03  0.50400001928E-02 0. -1.
        1   -1    0    0  501    0  0.00000000000E+00  0.00000000000E+00 -0.11222345779E+04  0.11222345779E+04  0.50400001928E-02 0.  1.
    10030    2    1    2    0    0  0.00000000000E+00  0.00000000000E+00 -0.56295654258E+03  0.16815126132E+04  0.15844761278E+04 0.  0.
        2    1    3    3  502    0 -0.18937470397E+03 -0.17179472145E+03 -0.10772434530E+04  0.11071719207E+04  0.25500000920E-02 0.  1.
       -2    1    3    3    0  502  0.18937470397E+03  0.17179472145E+03  0.51428691044E+03  0.57434069252E+03  0.25500000920E-02 0. -1.
</event>
<event>
 5   0  0.7415102E-04  0.1599676E+04  0.7818609E-02  0.8820747E-01
        2   -1    0    0  501    0  0.00000000000E+00  0.00000000000E+00  0.53620065753E+03  0.53620065754E+03  0.25500000920E-02 0. -1.
       -2   -1    0    0    0  501  0.00000000000E+00  0.00000000000E+00 -0.11930997873E+04  0.11930997873E+04  0.25500000920E-02 0.  1.
    10030    2    1    2    0    0  0.00000000000E+00  0.00000000000E+00 -0.65689912981E+03  0.17293004449E+04  0.15996760803E+04 0.  0.
        5    1    3    3  502    0 -0.44426534948E+02  0.79885559359E+02  0.53052063436E+03  0.53835829434E+03  0.46999998093E+01 0. -1.
       -5    1    3    3    0  502  0.44426534948E+02 -0.79885559359E+02 -0.11874197642E+04  0.11909421505E+04  0.46999998093E+01 0.  1.
</event>
<event>
 5   0  0.7553070E-04  0.1588197E+04  0.7818609E-02  0.8827832E-01
        2   -1    0    0  501    0  0.00000000000E+00  0.00000000000E+00  0.15000525699E+04  0.15000525699E+04  0.25500000920E-02 0.  1.
       -2   -1    0    0    0  501  0.00000000000E+00  0.00000000000E+00 -0.42038009167E+03  0.42038009168E+03  0.25500000920E-02 0. -1.
    10030    2    1    2    0    0  0.00000000000E+00  0.00000000000E+00  0.10796724782E+04  0.19204326615E+04  0.15881967596E+04 0.  0.
        4    1    3    3  502    0 -0.22881717115E+03 -0.55140933058E+03 -0.93323827950E+02  0.60425201483E+03  0.12699999809E+01 0. -1.
       -4    1    3    3    0  502  0.22881717115E+03  0.55140933058E+03  0.11729963061E+04  0.13161806467E+04  0.12699999809E+01 0.  1.
</event>
<event>
 5   0  0.3950195E-04  0.1602777E+04  0.7818609E-02  0.8818844E-01
       -1   -1    0    0    0  501  0.00000000000E+00  0.00000000000E+00  0.12935164485E+04  0.12935164485E+04  0.50400001928E-02 0. -1.
        1   -1    0    0  501    0  0.00000000000E+00  0.00000000000E+00 -0.49649456727E+03  0.49649456730E+03  0.50400001928E-02 0.  1.
    10030    2    1    2    0    0  0.00000000000E+00  0.00000000000E+00  0.79702188124E+03  0.17900110158E+04  0.16027774510E+04 0.  0.
        2    1    3    3  502    0  0.78298376775E+03 -0.15471809356E+03  0.31780105935E+03  0.85906855510E+03  0.25500000920E-02 0.  1.
       -2    1    3    3    0  502 -0.78298376775E+03  0.15471809356E+03  0.47922082190E+03  0.93094246072E+03  0.25500000920E-02 0. -1.
</event>
<event>
 5   0  0.3889847E-04  0.1569104E+04  0.7818609E-02  0.8839757E-01
       -1   -1    0    0    0  501  0.00000000000E+00  0.00000000000E+00  0.94426503784E+03  0.94426503786E+03  0.50400001928E-02 0.  1.
        1   -1    0    0  501    0  0.00000000000E+00  0.00000000000E+00 -0.65185273266E+03  0.65185273268E+03  0.50400001928E-02 0. -1.
    10030    2    1    2    0    0  0.00000000000E+00  0.00000000000E+00  0.29241230518E+03  0.15961177705E+04  0.15691038784E+04 0.  0.
        1    1    3    3  502    0 -0.29955361589E+03 -0.36271279952E+03  0.78489217521E+03  0.91506757699E+03  0.50400001928E-02 0.  1.
       -1    1    3    3    0  502  0.29955361589E+03  0.36271279952E+03 -0.49247987003E+03  0.68105019355E+03  0.50400001928E-02 0. -1.
</event>
<event>
 5   0  0.3973227E-04  0.1569952E+04  0.7818609E-02  0.8839224E-01
        1   -1    0    0  501    0  0.00000000000E+00  0.00000000000E+00  0.74355702888E+03  0.74355702890E+03  0.50400001928E-02 0. -1.
       -1   -1    0    0    0  501  0.00000000000E+00  0.00000000000E+00 -0.82870170449E+03  0.82870170451E+03  0.50400001928E-02 0.  1.
    10030    2    1    2    0    0  0.00000000000E+00  0.00000000000E+00 -0.85144675612E+02  0.15722587334E+04  0.15699515626E+04 0.  0.
        3    1    3    3  502    0 -0.81203893653E+01 -0.42169334782E+03  0.62043966464E+03  0.75022437176E+03  0.10100000352E+00 0. -1.
       -3    1    3    3    0  502  0.81203893653E+01  0.42169334782E+03 -0.70558434025E+03  0.82203436165E+03  0.10100000352E+00 0.  1.
</event>
<event>
 5   0  0.7770905E-04  0.1601316E+04  0.7818609E-02  0.8819740E-01
       -2   -1    0    0    0  501  0.00000000000E+00  0.00000000000E+00  0.65495733718E+03  0.65495733718E+03  0.25500000920E-02 0. -1.
        2   -1    0    0  501    0  0.00000000000E+00  0.00000000000E+00 -0.97877153181E+03  0.97877153182E+03  0.25500000920E-02 0.  1.
    10030    2    1    2    0    0  0.00000000000E+00  0.00000000000E+00 -0.32381419464E+03  0.16337288690E+04  0.16013164537E+04 0.  0.
        2    1    3    3  502    0 -0.58389620216E+03 -0.54499574497E+03 -0.10511659472E+03  0.80560823942E+03  0.25500000920E-02 0. -1.
       -2    1    3    3    0  502  0.58389620216E+03  0.54499574497E+03 -0.21869759992E+03  0.82812062958E+03  0.25500000920E-02 0.  1.
</event>
<event>
 5   0  0.3889847E-04  0.1598523E+04  0.7818609E-02  0.8821456E-01
       -1   -1    0    0    0  501  0.00000000000E+00  0.00000000000E+00  0.52026067780E+03  0.52026067783E+03  0.50400001928E-02 0. -1.
        1   -1    0    0  501    0  0.00000000000E+00  0.00000000000E+00 -0.12278829672E+04  0.12278829672E+04  0.50400001928E-02 0.  1.
    10030    2    1    2    0    0  0.00000000000E+00  0.00000000000E+00 -0.70762228936E+03  0.17481436450E+04  0.15985233496E+04 0.  0.
        1    1    3    3  502    0  0.60403560308E+03 -0.51041653230E+03 -0.22705183883E+03  0.82276155949E+03  0.50400001928E-02 0.  1.
       -1    1    3    3    0  502 -0.60403560308E+03  0.51041653230E+03 -0.48057045053E+03  0.92538208551E+03  0.50400001928E-02 0. -1.
</event>
<event>
 5   0  0.7415102E-04  0.1605910E+04  0.7818609E-02  0.8816926E-01
       -2   -1    0    0    0  501  0.00000000000E+00  0.00000000000E+00  0.53329501734E+03  0.53329501735E+03  0.25500000920E-02 0.  1.
        2   -1    0    0  501    0  0.00000000000E+00  0.00000000000E+00 -0.12089680475E+04  0.12089680475E+04  0.25500000920E-02 0. -1.
    10030    2    1    2    0    0  0.00000000000E+00  0.00000000000E+00 -0.67567303012E+03  0.17422630648E+04  0.16059098802E+04 0.  0.
        5    1    3    3  502    0 -0.34464381446E+02 -0.63892921468E+03 -0.86409610934E+03  0.10752220753E+04  0.46999998093E+01 0. -1.
       -5    1    3    3    0  502  0.34464381446E+02  0.63892921468E+03  0.18842307922E+03  0.66704098955E+03  0.46999998093E+01 0.  1.
</event>
<event>
 5   0  0.3973227E-04  0.1603325E+04  0.7818609E-02  0.8818508E-01
       -1   -1    0    0    0  501  0.00000000000E+00  0.00000000000E+00  0.46495680708E+03  0.46495680711E+03  0.50400001928E-02 0.  1.
        1   -1    0    0  501    0  0.00000000000E+00  0.00000000000E+00 -0.13821995823E+04  0.13821995823E+04  0.50400001928E-02 0. -1.
    10030    2    1    2    0    0  0.00000000000E+00  0.00000000000E+00 -0.91724277523E+03  0.18471563894E+04  0.16033254250E+04 0.  0.
        3    1    3    3  502    0  0.15461188554E+03  0.78601352130E+03 -0.42328048649E+03  0.90602895719E+03  0.10100000352E+00 0. -1.
       -3    1    3    3    0  502 -0.15461188554E+03 -0.78601352130E+03 -0.49396228874E+03  0.94112743224E+03  0.10100000352E+00 0.  1.
</event>
<event>
 5   0  0.7770905E-04  0.1594891E+04  0.7818609E-02  0.8823693E-01
       -2   -1    0    0    0  501  0.00000000000E+00  0.00000000000E+00  0.43655387265E+03  0.43655387265E+03  0.25500000920E-02 0. -1.
        2   -1    0    0  501    0  0.00000000000E+00  0.00000000000E+00 -0.14566795682E+04  0.14566795682E+04  0.25500000920E-02 0.  1.
    10030    2    1    2    0    0  0.00000000000E+00  0.00000000000E+00 -0.10201256955E+04  0.18932334408E+04  0.15948907257E+04 0.  0.
        2    1    3    3  502    0  0.52844893508E+03  0.57054957887E+03 -0.30060783959E+03  0.83375666244E+03  0.25500000920E-02 0.  1.
       -2    1    3    3    0  502 -0.52844893508E+03 -0.57054957887E+03 -0.71951785593E+03  0.10594767784E+04  0.25500000920E-02 0. -1.
</event>
<event>
 5   0  0.2781000E-04  0.1634637E+04  0.7818609E-02  0.8799548E-01
        3   -1    0    0  501    0  0.00000000000E+00  0.00000000000E+00  0.55929252379E+03  0.55929253291E+03  0.10100000352E+00 0.  1.
       -3   -1    0    0    0  501  0.00000000000E+00  0.00000000000E+00 -0.11943824178E+04  0.11943824221E+04  0.10100000352E+00 0. -1.
    10030    2    1    2    0    0  0.00000000000E+00  0.00000000000E+00 -0.63508989402E+03  0.17536749550E+04  0.16346365573E+04 0.  0.
        1    1    3    3  502    0  0.48183321697E+03 -0.34163811701E+03  0.28850894343E+03  0.65735626751E+03  0.50400001928E-02 0.  1.
       -1    1    3    3    0  502 -0.48183321697E+03  0.34163811701E+03 -0.92359883745E+03  0.10963186875E+04  0.50400001928E-02 0. -1.
</event>
<event>
 5   0  0.7415102E-04  0.1169081E+04  0.7818609E-02  0.9140359E-01
        2   -1    0    0  501    0  0.00000000000E+00  0.00000000000E+00  0.18441757366E+04  0.18441757366E+04  0.25500000920E-02 0. -1.
       -2   -1    0    0    0  501  0.00000000000E+00  0.00000000000E+00 -0.18527929266E+03  0.18527929268E+03  0.25500000920E-02 0.  1.
    10030    2    1    2    0    0  0.00000000000E+00  0.00000000000E+00  0.16588964439E+04  0.20294550293E+04  0.11690809656E+04 0.  0.
        5    1    3    3  502    0 -0.23895204042E+03  0.24233595111E+03  0.44824239673E+01  0.34039238085E+03  0.46999998093E+01 0.  1.
       -5    1    3    3    0  502  0.23895204042E+03 -0.24233595111E+03  0.16544140200E+04  0.16890626484E+04  0.46999998093E+01 0. -1.
</event>
<event>
 5   0  0.3889847E-04  0.1587637E+04  0.7818609E-02  0.8828179E-01
        1   -1    0    0  501    0  0.00000000000E+00  0.00000000000E+00  0.12920449440E+04  0.12920449440E+04  0.50400001928E-02 0. -1.
       -1   -1    0    0    0  501  0.00000000000E+00  0.00000000000E+00 -0.48771330708E+03  0.48771330711E+03  0.50400001928E-02 0.  1.
    10030    2    1    2    0    0  0.00000000000E+00  0.00000000000E+00  0.80433163690E+03  0.17797582511E+04  0.15876366241E+04 0.  0.
        1    1    3    3  502    0 -0.28379642572E+03  0.43397712018E+03  0.10759587227E+04  0.11943884314E+04  0.50400001928E-02 0. -1.
       -1    1    3    3    0  502  0.28379642572E+03 -0.43397712018E+03 -0.27162708577E+03  0.58536981972E+03  0.50400001928E-02 0.  1.
</event>
<event>
 5   0  0.3837251E-04  0.1573843E+04  0.7818609E-02  0.8836781E-01
        1   -1    0    0  501    0  0.00000000000E+00  0.00000000000E+00  0.11325094380E+04  0.11325094381E+04  0.50400001928E-02 0.  1.
       -1   -1    0    0    0  501  0.00000000000E+00  0.00000000000E+00 -0.54679030491E+03  0.54679030494E+03  0.50400001928E-02 0. -1.
    10030    2    1    2    0    0  0.00000000000E+00  0.00000000000E+00  0.58571913313E+03  0.16792997430E+04  0.15738426617E+04 0.  0.
        4    1    3    3  502    0 -0.70311979694E+03 -0.20235374972E+03  0.60195832672E+03  0.94745972415E+03  0.12699999809E+01 0.  1.
       -4    1    3    3    0  502  0.70311979694E+03  0.20235374972E+03 -0.16239193587E+02  0.73184001884E+03  0.12699999809E+01 0. -1.
</event>
<event>
 5   0  0.7488884E-04  0.1610907E+04  0.7818609E-02  0.8813876E-01
        2   -1    0    0  501    0  0.00000000000E+00  0.00000000000E+00  0.62071592096E+03  0.62071592096E+03  0.25500000920E-02 0. -1.
       -2   -1    0    0    0  501  0.00000000000E+00  0.00000000000E+00 -0.10451721714E+04  0.10451721714E+04  0.25500000920E-02 0.  1.
    10030    2    1    2    0    0  0.00000000000E+00  0.00000000000E+00 -0.42445625047E+03  0.16658880924E+04  0.16109065857E+04 0.  0.
        3    1    3    3  502    0 -0.67345157525E+03  0.56115930566E+02  0.24098666701E+03  0.71746819145E+03  0.10100000352E+00 0. -1.
       -3    1    3    3    0  502  0.67345157525E+03 -0.56115930566E+02 -0.66544291748E+03  0.94841990094E+03  0.10100000352E+00 0.  1.
</event>
<event>
 5   0  0.4110803E-04  0.1614070E+04  0.7818609E-02  0.8811951E-01
        1   -1    0    0  501    0  0.00000000000E+00  0.00000000000E+00  0.88371728591E+03  0.88371728592E+03  0.50400001928E-02 0.  1.
       -1   -1    0    0    0  501  0.00000000000E+00  0.00000000000E+00 -0.73700641533E+03  0.73700641534E+03  0.50400001928E-02 0. -1.
    10030    2    1    2    0    0  0.00000000000E+00  0.00000000000E+00  0.14671087058E+03  0.16207237013E+04  0.16140697743E+04 0.  0.
        5    1    3    3  502    0 -0.39589778941E+03  0.33009570233E+03 -0.55015932127E+03  0.75392015568E+03  0.46999998093E+01 0. -1.
       -5    1    3    3    0  502  0.39589778941E+03 -0.33009570233E+03  0.69687019185E+03  0.86680354559E+03  0.46999998093E+01 0.  1.
</event>
<event>
 5   0  0.7395088E-04  0.1624956E+04  0.7818609E-02  0.8805362E-01
       -2   -1    0    0    0  501  0.00000000000E+00  0.00000000000E+00  0.58778170617E+03  0.58778170618E+03  0.25500000920E-02 0. -1.
        2   -1    0    0  501    0  0.00000000000E+00  0.00000000000E+00 -0.11230709165E+04  0.11230709165E+04  0.25500000920E-02 0.  1.
    10030    2    1    2    0    0  0.00000000000E+00  0.00000000000E+00 -0.53528921038E+03  0.17108526227E+04  0.16249560480E+04 0.  0.
        1    1    3    3  502    0  0.99468874882E+02  0.80414425070E+03 -0.33062739355E+03  0.87513227937E+03  0.50400001928E-02 0. -1.
       -1    1    3    3    0  502 -0.99468874882E+02 -0.80414425070E+03 -0.20466181683E+03  0.83572034336E+03  0.50400001928E-02 0.  1.
</event>
<event>
 5   0  0.3889847E-04  0.1592719E+04  0.7818609E-02  0.8825034E-01
        1   -1    0    0  501    0  0.00000000000E+00  0.00000000000E+00  0.62070810590E+03  0.62070810592E+03  0.50400001928E-02 0.  1.
       -1   -1    0    0    0  501  0.00000000000E+00  0.00000000000E+00 -0.10217173681E+04  0.10217173681E+04  0.50400001928E-02 0. -1.
    10030    2    1    2    0    0  0.00000000000E+00  0.00000000000E+00 -0.40100926217E+03  0.16424254740E+04  0.15927187477E+04 0.  0.
        1    1    3    3  502    0 -0.71672489414E+03  0.33044427577E+03 -0.90884383250E+02  0.79444821380E+03  0.50400001928E-02 0. -1.
       -1    1    3    3    0  502  0.71672489414E+03 -0.33044427577E+03 -0.31012487892E+03  0.84797726020E+03  0.50400001928E-02 0.  1.
</event>
<event>
 5   0  0.7770905E-04  0.1580888E+04  0.7818609E-02  0.8832376E-01
       -2   -1    0    0    0  501  0.00000000000E+00  0.00000000000E+00  0.36908670032E+03  0.36908670032E+03  0.25500000920E-02 0.  1.
        2   -1    0    0  501    0  0.00000000000E+00  0.00000000000E+00 -0.16928317105E+04  0.16928317105E+04  0.25500000920E-02 0. -1.
    10030    2    1    2    0    0  0.00000000000E+00  0.00000000000E+00 -0.13237450101E+04  0.20619184108E+04  0.15808879406E+04 0.  0.
        2    1    3    3  502    0  0.85590672951E+02 -0.60415532923E+03 -0.13172284009E+04  0.14516955897E+04  0.25500000920E-02 0. -1.
       -2    1    3    3    0  502 -0.85590672951E+02  0.60415532923E+03 -0.65166092570E+01  0.61022282106E+03  0.25500000920E-02 0.  1.
</event>
<event>
 5   0  0.3973227E-04  0.1596262E+04  0.7818609E-02  0.8822848E-01
        1   -1    0    0  501    0  0.00000000000E+00  0.00000000000E+00  0.96811110159E+03  0.96811110160E+03  0.50400001928E-02 0. -1.
       -1   -1    0    0    0  501  0.00000000000E+00  0.00000000000E+00 -0.65799597366E+03  0.65799597368E+03  0.50400001928E-02 0.  1.
    10030    2    1    2    0    0  0.00000000000E+00  0.00000000000E+00  0.31011512793E+03  0.16261070753E+04  0.15962621425E+04 0.  0.
        3    1    3    3  502    0 -0.59952581240E+03  0.51415632562E+03  0.27220888657E+03  0.83539548421E+03  0.10100000352E+00 0.  1.
       -3    1    3    3    0  502  0.59952581240E+03 -0.51415632562E+03  0.37906241362E+02  0.79071159107E+03  0.10100000352E+00 0. -1.
</event>
<event>
 5   0  0.7553070E-04  0.1583482E+04  0.7818609E-02  0.8830760E-01
       -2   -1    0    0    0  501  0.00000000000E+00  0.00000000000E+00  0.10994142043E+04  0.10994142043E+04  0.25500000920E-02 0. -1.
        2   -1    0    0  501    0  0.00000000000E+00  0.00000000000E+00 -0.57017081026E+03  0.57017081026E+03  0.25500000920E-02 0.  1.
    10030    2    1    2    0    0  0.00000000000E+00  0.00000000000E+00  0.52924339406E+03  0.16695850146E+04  0.15834820968E+04 0.  0.
        4    1    3    3  502    0 -0.63451267703E+03 -0.45038267650E+03  0.11037485121E+03  0.78589764810E+03  0.12699999809E+01 0.  1.
       -4    1    3    3    0  502  0.63451267703E+03  0.45038267650E+03  0.41886854285E+03  0.88368736649E+03  0.12699999809E+01 0. -1.
</event>
<event>
 5   0  0.7395088E-04  0.1617326E+04  0.7818609E-02  0.8809974E-01
        2   -1    0    0  501    0  0.00000000000E+00  0.00000000000E+00  0.11838705385E+04  0.11838705385E+04  0.25500000920E-02 0.  1.
       -2   -1    0    0    0  501  0.00000000000E+00  0.00000000000E+00 -0.55237094122E+03  0.55237094123E+03  0.25500000920E-02 0. -1.
    10030    2    1    2    0    0  0.00000000000E+00  0.00000000000E+00  0.63149959727E+03  0.17362414797E+04  0.16173257973E+04 0.  0.
        1    1    3    3  502    0 -0.46266419176E+03  0.15261508798E+03  0.10086409811E+04  0.11201366649E+04  0.50400001928E-02 0.  1.
       -1    1    3    3    0  502  0.46266419176E+03 -0.15261508798E+03 -0.37714138379E+03  0.61610481480E+03  0.50400001928E-02 0. -1.
</event>
<event>
 5   0  0.3973227E-04  0.1511173E+04  0.7818609E-02  0.8877057E-01
        1   -1    0    0  501    0  0.00000000000E+00  0.00000000000E+00  0.13775076387E+04  0.13775076387E+04  0.50400001928E-02 0.  1.
       -1   -1    0    0    0  501  0.00000000000E+00  0.00000000000E+00 -0.41445211957E+03  0.41445211960E+03  0.50400001928E-02 0. -1.
    10030    2    1    2    0    0  0.00000000000E+00  0.00000000000E+00  0.96305551911E+03  0.17919597583E+04  0.15111730022E+04 0.  0.
        3    1    3    3  502    0  0.35765550154E+03  0.21649504347E+03  0.12278550274E+04  0.12970796198E+04  0.10100000352E+00 0.  1.
       -3    1    3    3    0  502 -0.35765550154E+03 -0.21649504347E+03 -0.26479950832E+03  0.49488013846E+03  0.10100000352E+00 0. -1.
</event>
<event>
 5   0  0.4110803E-04  0.1596695E+04  0.7818609E-02  0.8822581E-01
       -1   -1    0    0    0  501  0.00000000000E+00  0.00000000000E+00  0.77031416329E+03  0.77031416330E+03  0.50400001928E-02 0.  1.
        1   -1    0    0  501    0  0.00000000000E+00  0.00000000000E+00 -0.82740054191E+03  0.82740054192E+03  0.50400001928E-02 0. -1.
    10030    2    1    2    0    0  0.00000000000E+00  0.00000000000E+00 -0.57086378619E+02  0.15977147052E+04  0.15966945308E+04 0.  0.
        5    1    3    3  502    0 -0.59293067071E+03  0.22640434851E+02 -0.56297890187E+03  0.81795275139E+03  0.46999998093E+01 0. -1.
       -5    1    3    3    0  502  0.59293067071E+03 -0.22640434851E+02  0.50589252326E+03  0.77976195383E+03  0.46999998093E+01 0.  1.
</event>
<event>
 5   0  0.3973227E-04  0.1510926E+04  0.7818609E-02  0.8877220E-01
        1   -1    0    0  501    0  0.00000000000E+00  0.00000000000E+00  0.56119783224E+03  0.56119783226E+03  0.50400001928E-02 0. -1.
       -1   -1    0    0    0  501  0.00000000000E+00  0.00000000000E+00 -0.10169754475E+04  0.10169754475E+04  0.50400001928E-02 0.  1.
    10030    2    1    2    0    0  0.00000000000E+00  0.00000000000E+00 -0.45577761528E+03  0.15781732798E+04  0.15109260956E+04 0.  0.
        3    1    3    3  502    0 -0.40268323045E+03 -0.31608181787E+01  0.43974715476E+03  0.59627287811E+03  0.10100000352E+00 0. -1.
       -3    1    3    3    0  502  0.40268323045E+03  0.31608181787E+01 -0.89552477004E+03  0.98190040168E+03  0.10100000352E+00 0.  1.
</event>
<event>
 5   0  0.4110803E-04  0.1690920E+04  0.7818609E-02  0.8766560E-01
       -1   -1    0    0    0  501  0.00000000000E+00  0.00000000000E+00  0.54458214625E+03  0.54458214627E+03  0.50400001928E-02 0.  1.
        1   -1    0    0  501    0  0.00000000000E+00  0.00000000000E+00 -0.13125702542E+04  0.13125702542E+04  0.50400001928E-02 0. -1.
    10030    2    1    2    0    0  0.00000000000E+00  0.00000000000E+00 -0.76798810792E+03  0.18571524005E+04  0.16909196624E+04 0.  0.
        5    1    3    3  502    0 -0.31858284247E+03  0.77711245937E+03 -0.49037385810E+03  0.97256743351E+03  0.46999998093E+01 0.  1.
       -5    1    3    3    0  502  0.31858284247E+03 -0.77711245937E+03 -0.27761424982E+03  0.88458496694E+03  0.46999998093E+01 0. -1.
</event>
<event>
 5   0  0.7770905E-04  0.1622039E+04  0.7818609E-02  0.8807122E-01
       -2   -1    0    0    0  501  0.00000000000E+00  0.00000000000E+00  0.10274848792E+04  0.10274848792E+04  0.25500000920E-02 0.  1.
        2   -1    0    0  501    0  0.00000000000E+00  0.00000000000E+00 -0.64015793332E+03  0.64015793333E+03  0.25500000920E-02 0. -1.
    10030    2    1    2    0    0  0.00000000000E+00  0.00000000000E+00  0.38732694591E+03  0.16676428126E+04  0.16220389598E+04 0.  0.
        2    1    3    3  502    0  0.20322797044E+03  0.16502385402E+03  0.98285025079E+03  0.10171180344E+04  0.25500000920E-02 0.  1.
       -2    1    3    3    0  502 -0.20322797044E+03 -0.16502385402E+03 -0.59552330489E+03  0.65052477818E+03  0.25500000920E-02 0. -1.
</event>
<event>
 5   0  0.3973227E-04  0.1618794E+04  0.7818609E-02  0.8809085E-01
        1   -1    0    0  501    0  0.00000000000E+00  0.00000000000E+00  0.14141698720E+04  0.14141698721E+04  0.50400001928E-02 0. -1.
       -1   -1    0    0    0  501  0.00000000000E+00  0.00000000000E+00 -0.46325663478E+03  0.46325663481E+03  0.50400001928E-02 0.  1.
    10030    2    1    2    0    0  0.00000000000E+00  0.00000000000E+00  0.95091323726E+03  0.18774265069E+04  0.16187940894E+04 0.  0.
        3    1    3    3  502    0 -0.77672894827E+02 -0.72551264047E+03  0.69170145804E+02  0.73292986659E+03  0.10100000352E+00 0.  1.
       -3    1    3    3    0  502  0.77672894827E+02  0.72551264047E+03  0.88174309146E+03  0.11444966403E+04  0.10100000352E+00 0. -1.
</event>
<event>
 5   0  0.7395088E-04  0.1664348E+04  0.7818609E-02  0.8781963E-01
       -2   -1    0    0    0  501  0.00000000000E+00  0.00000000000E+00  0.10978946203E+04  0.10978946203E+04  0.25500000920E-02 0.  1.
        2   -1    0    0  501    0  0.00000000000E+00  0.00000000000E+00 -0.63076532261E+03  0.63076532261E+03  0.25500000920E-02 0. -1.
    10030    2    1    2    0    0  0.00000000000E+00  0.00000000000E+00  0.46712929769E+03  0.17286599429E+04  0.16643483462E+04 0.  0.
        1    1    3    3  502    0 -0.80954208214E+03 -0.12924152739E+03  0.38210152457E+03  0.90446853470E+03  0.50400001928E-02 0.  1.
       -1    1    3    3    0  502  0.80954208214E+03  0.12924152739E+03  0.85027773120E+02  0.82419140822E+03  0.50400001928E-02 0. -1.
</event>
<event>
 5   0  0.7553070E-04  0.1647542E+04  0.7818609E-02  0.8791862E-01
        2   -1    0    0  501    0  0.00000000000E+00  0.00000000000E+00  0.89856665295E+03  0.89856665295E+03  0.25500000920E-02 0. -1.
       -2   -1    0    0    0  501  0.00000000000E+00  0.00000000000E+00 -0.75520090333E+03  0.75520090334E+03  0.25500000920E-02 0.  1.
    10030    2    1    2    0    0  0.00000000000E+00  0.00000000000E+00  0.14336574961E+03  0.16537675563E+04  0.16475416207E+04 0.  0.
        4    1    3    3  502    0 -0.65743920202E+03  0.42933116007E+03 -0.17834712328E+03  0.80520858083E+03  0.12699999809E+01 0. -1.
       -4    1    3    3    0  502  0.65743920202E+03 -0.42933116007E+03  0.32171287289E+03  0.84855897546E+03  0.12699999809E+01 0.  1.
</event>
<event>
 5   0  0.3973227E-04  0.1641820E+04  0.7818609E-02  0.8795261E-01
       -1   -1    0    0    0  501  0.00000000000E+00  0.00000000000E+00  0.54336913048E+03  0.54336913051E+03  0.50400001928E-02 0. -1.
        1   -1    0    0  501    0  0.00000000000E+00  0.00000000000E+00 -0.12402122700E+04  0.12402122700E+04  0.50400001928E-02 0.  1.
    10030    2    1    2    0    0  0.00000000000E+00  0.00000000000E+00 -0.69684313955E+03  0.17835814005E+04  0.16418197987E+04 0.  0.
        3    1    3    3  502    0 -0.77172762905E+02  0.44064257951E+03  0.39932069327E+03  0.59964868422E+03  0.10100000352E+00 0. -1.
       -3    1    3    3    0  502  0.77172762905E+02 -0.44064257951E+03 -0.10961638328E+04  0.11839327163E+04  0.10100000352E+00 0.  1.
</event>
<event>
 5   0  0.7488884E-04  0.1617245E+04  0.7818609E-02  0.8810023E-01
       -2   -1    0    0    0  501  0.00000000000E+00  0.00000000000E+00  0.44535241582E+03  0.44535241583E+03  0.25500000920E-02 0. -1.
        2   -1    0    0  501    0  0.00000000000E+00  0.00000000000E+00 -0.14682088385E+04  0.14682088385E+04  0.25500000920E-02 0.  1.
    10030    2    1    2    0    0  0.00000000000E+00  0.00000000000E+00 -0.10228564226E+04  0.19135612543E+04  0.16172450070E+04 0.  0.
        3    1    3    3  502    0 -0.19870981295E+03  0.63409104277E+03 -0.10566273397E+04  0.12482060669E+04  0.10100000352E+00 0.  1.
       -3    1    3    3    0  502  0.19870981295E+03 -0.63409104277E+03  0.33770917086E+02  0.66535518735E+03  0.10100000352E+00 0. -1.
</event>
<event>
 5   0  0.7488884E-04  0.1639473E+04  0.7818609E-02  0.8796659E-01
       -2   -1    0    0    0  501  0.00000000000E+00  0.00000000000E+00  0.68408785722E+03  0.68408785722E+03  0.25500000920E-02 0.  1.
        2   -1    0    0  501    0  0.00000000000E+00  0.00000000000E+00 -0.98228313289E+03  0.98228313289E+03  0.25500000920E-02 0. -1.
    10030    2    1    2    0    0  0.00000000000E+00  0.00000000000E+00 -0.29819527567E+03  0.16663709901E+04  0.16394730416E+04 0.  0.
        3    1    3    3  502    0 -0.14131426382E+03  0.11620756810E+03  0.66307029511E+03  0.68784892709E+03  0.10100000352E+00 0.  1.
       -3    1    3    3    0  502  0.14131426382E+03 -0.11620756810E+03 -0.96126557079E+03  0.97852206302E+03  0.10100000352E+00 0. -1.
</event>
<event>
 5   0  0.3950195E-04  0.1617626E+04  0.7818609E-02  0.8809792E-01
       -1   -1    0    0    0  501  0.00000000000E+00  0.00000000000E+00  0.65594525054E+03  0.65594525056E+03  0.50400001928E-02 0. -1.
        1   -1    0    0  501    0  0.00000000000E+00  0.00000000000E+00 -0.99730605529E+03  0.99730605530E+03  0.50400001928E-02 0.  1.
    10030    2    1    2    0    0  0.00000000000E+00  0.00000000000E+00 -0.34136080474E+03  0.16532513059E+04  0.16176256308E+04 0.  0.
        2    1    3    3  502    0  0.11071262895E+03 -0.77847185324E+03 -0.36433282978E+03  0.86661071039E+03  0.25500000920E-02 0.  1.
       -2    1    3    3    0  502 -0.11071262895E+03  0.77847185324E+03  0.22972025037E+02  0.78664059547E+03  0.25500000920E-02 0. -1.
</event>
<event>
 5   0  0.4110803E-04  0.1508036E+04  0.7818609E-02  0.8879127E-01
        1   -1    0    0  501    0  0.00000000000E+00  0.00000000000E+00  0.11363325227E+04  0.11363325227E+04  0.50400001928E-02 0. -1.
       -1   -1    0    0    0  501  0.00000000000E+00  0.00000000000E+00 -0.50033156405E+03  0.50033156407E+03  0.50400001928E-02 0.  1.
    10030    2    1    2    0    0  0.00000000000E+00  0.00000000000E+00  0.63600095865E+03  0.16366640868E+04  0.15080358462E+04 0.  0.
        5    1    3    3  502    0 -0.47769982041E+03 -0.50985181717E+03  0.10314128610E+02  0.69876638810E+03  0.46999998093E+01 0. -1.
       -5    1    3    3    0  502  0.47769982041E+03  0.50985181717E+03  0.62568683004E+03  0.93789769867E+03  0.46999998093E+01 0.  1.
</event>
<event>
 5   0  0.3889847E-04  0.1783005E+04  0.7818609E-02  0.8715390E-01
       -1   -1    0    0    0  501  0.00000000000E+00  0.00000000000E+00  0.10640944954E+04  0.10640944954E+04  0.50400001928E-02 0. -1.
        1   -1    0    0  501    0  0.00000000000E+00  0.00000000000E+00 -0.74690448058E+03  0.74690448060E+03  0.50400001928E-02 0.  1.
    10030    2    1    2    0    0  0.00000000000E+00  0.00000000000E+00  0.31719001478E+03  0.18109989760E+04  0.17830052679E+04 0.  0.
        1    1    3    3  502    0 -0.24600540648E+03 -0.72210462801E+03 -0.30997561370E+03  0.82343101406E+03  0.50400001928E-02 0.  1.
       -1    1    3    3    0  502  0.24600540648E+03  0.72210462801E+03  0.62716562848E+03  0.98756796191E+03  0.50400001928E-02 0. -1.
</event>
<event>
 5   0  0.7415102E-04  0.1614145E+04  0.7818609E-02  0.8811905E-01
        2   -1    0    0  501    0  0.00000000000E+00  0.00000000000E+00  0.17816644603E+04  0.17816644603E+04  0.25500000920E-02 0.  1.
       -2   -1    0    0    0  501  0.00000000000E+00  0.00000000000E+00 -0.36559415044E+03  0.36559415045E+03  0.25500000920E-02 0. -1.
    10030    2    1    2    0    0  0.00000000000E+00  0.00000000000E+00  0.14160703099E+04  0.21472586108E+04  0.16141451047E+04 0.  0.
        5    1    3    3  502    0  0.60365890931E+03  0.24928007830E+03  0.77311189926E+02  0.65768058076E+03  0.46999998093E+01 0. -1.
       -5    1    3    3    0  502 -0.60365890931E+03 -0.24928007830E+03  0.13387591200E+04  0.14895780300E+04  0.46999998093E+01 0.  1.
</event>
<event>
 5   0  0.7488884E-04  0.1634068E+04  0.7818609E-02  0.8799888E-01
        2   -1    0    0  501    0  0.00000000000E+00  0.00000000000E+00  0.18192013998E+04  0.18192013998E+04  0.25500000920E-02 0.  1.
       -2   -1    0    0    0  501  0.00000000000E+00  0.00000000000E+00 -0.36694375408E+03  0.36694375409E+03  0.25500000920E-02 0. -1.
    10030    2    1    2    0    0  0.00000000000E+00  0.00000000000E+00  0.14522576457E+04  0.21861451539E+04  0.16340680415E+04 0.  0.
        3    1    3    3  502    0 -0.79052441326E+03 -0.13848485840E+03  0.52131175719E+03  0.95701246719E+03  0.10100000352E+00 0. -1.
       -3    1    3    3    0  502  0.79052441326E+03  0.13848485840E+03  0.93094588852E+03  0.12291326867E+04  0.10100000352E+00 0.  1.
</event>
<event>
 5   0  0.7553070E-04  0.1584617E+04  0.7818609E-02  0.8830055E-01
        2   -1    0    0  501    0  0.00000000000E+00  0.00000000000E+00  0.13635712532E+04  0.13635712532E+04  0.25500000920E-02 0.  1.
       -2   -1    0    0    0  501  0.00000000000E+00  0.00000000000E+00 -0.46037391857E+03  0.46037391858E+03  0.25500000920E-02 0. -1.
    10030    2    1    2    0    0  0.00000000000E+00  0.00000000000E+00  0.90319733464E+03  0.18239451718E+04  0.15846168510E+04 0.  0.
        4    1    3    3  502    0  0.12242708645E+03 -0.15413779279E+03  0.13349769064E+04  0.13494116512E+04  0.12699999809E+01 0.  1.
       -4    1    3    3    0  502 -0.12242708645E+03  0.15413779279E+03 -0.43177957181E+03  0.47453352062E+03  0.12699999809E+01 0. -1.
</event>
<event>
 5   0  0.7488884E-04  0.1659944E+04  0.7818609E-02  0.8784545E-01
        2   -1    0    0  501    0  0.00000000000E+00  0.00000000000E+00  0.13076304747E+04  0.13076304747E+04  0.25500000920E-02 0.  1.
       -2   -1    0    0    0  501  0.00000000000E+00  0.00000000000E+00 -0.52679518894E+03  0.52679518895E+03  0.25500000920E-02 0. -1.
    10030    2    1    2    0    0  0.00000000000E+00  0.00000000000E+00  0.78083528573E+03  0.18344256636E+04  0.16599439063E+04 0.  0.
        3    1    3    3  502    0  0.35700063723E+03 -0.20017606919E+03  0.11883471576E+04  0.12568567503E+04  0.10100000352E+00 0.  1.
       -3    1    3    3    0  502 -0.35700063723E+03  0.20017606919E+03 -0.40751187188E+03  0.57756891328E+03  0.10100000352E+00 0. -1.
</event>
<event>
 5   0  0.4110803E-04  0.1716441E+04  0.7818609E-02  0.8752043E-01
       -1   -1    0    0    0  501  0.00000000000E+00  0.00000000000E+00  0.61414982934E+03  0.61414982937E+03  0.50400001928E-02 0. -1.
        1   -1    0    0  501    0  0.00000000000E+00  0.00000000000E+00 -0.11992874693E+04  0.11992874693E+04  0.50400001928E-02 0.  1.
    10030    2    1    2    0    0  0.00000000000E+00  0.00000000000E+00 -0.58513763998E+03  0.18134372987E+04  0.17164407297E+04 0.  0.
        5    1    3    3  502    0 -0.44703488187E+03  0.42710885117E+03 -0.92139922750E+03  0.11096219098E+04  0.46999998093E+01 0.  1.
       -5    1    3    3    0  502  0.44703488187E+03 -0.42710885117E+03  0.33626158753E+03  0.70381538886E+03  0.46999998093E+01 0. -1.
</event>
<event>
 5   0  0.3837251E-04  0.1593653E+04  0.7818609E-02  0.8824457E-01
        1   -1    0    0  501    0  0.00000000000E+00  0.00000000000E+00  0.20349625823E+04  0.20349625823E+04  0.50400001928E-02 0. -1.
       -1   -1    0    0    0  501  0.00000000000E+00  0.00000000000E+00 -0.31201194164E+03  0.31201194168E+03  0.50400001928E-02 0.  1.
    10030    2    1    2    0    0  0.00000000000E+00  0.00000000000E+00  0.17229506407E+04  0.23469745240E+04  0.15936531950E+04 0.  0.
        4    1    3    3  502    0  0.59594561402E+03  0.18981910710E+02  0.83003433638E+02  0.60199889593E+03  0.12699999809E+01 0.  1.
       -4    1    3    3    0  502 -0.59594561402E+03 -0.18981910710E+02  0.16399472070E+04  0.17449756281E+04  0.12699999809E+01 0. -1.
</event>
<event>
 5   0  0.4110803E-04  0.1587662E+04  0.7818609E-02  0.8828164E-01
        1   -1    0    0  501    0  0.00000000000E+00  0.00000000000E+00  0.68795655319E+03  0.68795655321E+03  0.50400001928E-02 0.  1.
       -1   -1    0    0    0  501  0.00000000000E+00  0.00000000000E+00 -0.91599912033E+03  0.91599912034E+03  0.50400001928E-02 0. -1.
    10030    2    1    2    0    0  0.00000000000E+00  0.00000000000E+00 -0.22804256714E+03  0.16039556735E+04  0.15876619257E+04 0.  0.
        5    1    3    3  502    0 -0.13019398759E+03 -0.28462177848E+03  0.62297592217E+03  0.69719518128E+03  0.46999998093E+01 0.  1.
       -5    1    3    3    0  502  0.13019398759E+03  0.28462177848E+03 -0.85101848931E+03  0.90676049227E+03  0.46999998093E+01 0. -1.
</event>
<event>
 5   0  0.3837251E-04  0.1595948E+04  0.7818609E-02  0.8823041E-01
       -1   -1    0    0    0  501  0.00000000000E+00  0.00000000000E+00  0.10791717708E+04  0.10791717708E+04  0.50400001928E-02 0. -1.
        1   -1    0    0  501    0  0.00000000000E+00  0.00000000000E+00 -0.59004763447E+03  0.59004763449E+03  0.50400001928E-02 0.  1.
    10030    2    1    2    0    0  0.00000000000E+00  0.00000000000E+00  0.48912413632E+03  0.16692194053E+04  0.15959483081E+04 0.  0.
        4    1    3    3  502    0 -0.40044434305E+03 -0.16224482436E+03  0.94624427918E+03  0.10402206034E+04  0.12699999809E+01 0. -1.
       -4    1    3    3    0  502  0.40044434305E+03  0.16224482436E+03 -0.45712014285E+03  0.62899880192E+03  0.12699999809E+01 0.  1.
</event>
<event>
 5   0  0.7488884E-04  0.1579895E+04  0.7818609E-02  0.8832996E-01
        2   -1    0    0  501    0  0.00000000000E+00  0.00000000000E+00  0.11200132211E+04  0.11200132211E+04  0.25500000920E-02 0. -1.
       -2   -1    0    0    0  501  0.00000000000E+00  0.00000000000E+00 -0.55715116660E+03  0.55715116661E+03  0.25500000920E-02 0.  1.
    10030    2    1    2    0    0  0.00000000000E+00  0.00000000000E+00  0.56286205446E+03  0.16771643877E+04  0.15798945189E+04 0.  0.
        3    1    3    3  502    0  0.40305627203E+03  0.30833239922E+03 -0.36122804087E+03  0.62290363182E+03  0.10100000352E+00 0.  1.
       -3    1    3    3    0  502 -0.40305627203E+03 -0.30833239922E+03  0.92409009533E+03  0.10542607558E+04  0.10100000352E+00 0. -1.
</event>
<event>
 5   0  0.3973227E-04  0.1598425E+04  0.7818609E-02  0.8821516E-01
       -1   -1    0    0    0  501  0.00000000000E+00  0.00000000000E+00  0.15103132576E+04  0.15103132577E+04  0.50400001928E-02 0. -1.
        1   -1    0    0  501    0  0.00000000000E+00  0.00000000000E+00 -0.42291933256E+03  0.42291933259E+03  0.50400001928E-02 0.  1.
    10030    2    1    2    0    0  0.00000000000E+00  0.00000000000E+00  0.10873939251E+04  0.19332325902E+04  0.15984250685E+04 0.  0.
        3    1    3    3  502    0 -0.71601724588E+03  0.24933141421E+02  0.11533892793E+03  0.72567584805E+03  0.10100000352E+00 0. -1.
       -3    1    3    3    0  502  0.71601724588E+03 -0.24933141421E+02  0.97205499715E+03  0.12075567422E+04  0.10100000352E+00 0.  1.
</event>
<event>
 5   0  0.7415102E-04  0.1610820E+04  0.7818609E-02  0.8813928E-01
        2   -1    0    0  501    0  0.00000000000E+00  0.00000000000E+00  0.75321647306E+03  0.75321647307E+03  0.25500000920E-02 0.  1.
       -2   -1    0    0    0  501  0.00000000000E+00  0.00000000000E+00 -0.86122016346E+03  0.86122016346E+03  0.25500000920E-02 0. -1.
    10030    2    1    2    0    0  0.00000000000E+00  0.00000000000E+00 -0.10800369040E+03  0.16144366365E+04  0.16108199329E+04 0.  0.
        5    1    3    3  502    0 -0.40693178801E+03  0.11085826140E+03  0.63367286502E+03  0.76121378342E+03  0.46999998093E+01 0.  1.
       -5    1    3    3    0  502  0.40693178801E+03 -0.11085826140E+03 -0.74167655542E+03  0.85322285311E+03  0.46999998093E+01 0. -1.
</event>
<event>
 5   0  0.7488884E-04  0.1621373E+04  0.7818609E-02  0.8807524E-01
       -2   -1    0    0    0  501  0.00000000000E+00  0.00000000000E+00  0.73745472076E+03  0.73745472076E+03  0.25500000920E-02 0. -1.
        2   -1    0    0  501    0  0.00000000000E+00  0.00000000000E+00 -0.89119095230E+03  0.89119095231E+03  0.25500000920E-02 0.  1.
    10030    2    1    2    0    0  0.00000000000E+00  0.00000000000E+00 -0.15373623154E+03  0.16286456731E+04  0.16213734608E+04 0.  0.
        3    1    3    3  502    0  0.76248707784E+03 -0.14941310058E+03  0.15547464825E+03  0.79239080948E+03  0.10100000352E+00 0. -1.
       -3    1    3    3    0  502 -0.76248707784E+03  0.14941310058E+03 -0.30921087979E+03  0.83625486359E+03  0.10100000352E+00 0.  1.
</event>
<event>
 5   0  0.3973227E-04  0.1605522E+04  0.7818609E-02  0.8817163E-01
       -1   -1    0    0    0  501  0.00000000000E+00  0.00000000000E+00  0.71069226524E+03  0.71069226525E+03  0.50400001928E-02 0. -1.
        1   -1    0    0  501    0  0.00000000000E+00  0.00000000000E+00 -0.90675745486E+03  0.90675745487E+03  0.50400001928E-02 0.  1.
    10030    2    1    2    0    0  0.00000000000E+00  0.00000000000E+00 -0.19606518962E+03  0.16174497201E+04  0.16055223569E+04 0.  0.
        3    1    3    3  502    0  0.42218020758E+03  0.36529759948E+03 -0.67916023080E+03  0.87916841001E+03  0.10100000352E+00 0.  1.
       -3    1    3    3    0  502 -0.42218020758E+03 -0.36529759948E+03  0.48309504118E+03  0.73828131012E+03  0.10100000352E+00 0. -1.
</event>
<event>
 5   0  0.7553070E-04  0.1558321E+04  0.7818609E-02  0.8846570E-01
       -2   -1    0    0    0  501  0.00000000000E+00  0.00000000000E+00  0.56901068984E+03  0.56901068985E+03  0.25500000920E-02 0.  1.
        2   -1    0    0  501    0  0.00000000000E+00  0.00000000000E+00 -0.10669242159E+04  0.10669242159E+04  0.25500000920E-02 0. -1.
    10030    2    1    2    0    0  0.00000000000E+00  0.00000000000E+00 -0.49791352605E+03  0.16359349057E+04  0.15583212558E+04 0.  0.
        4    1    3    3  502    0 -0.52392925109E+03  0.19844073766E+03  0.31950038979E+03  0.64495170244E+03  0.12699999809E+01 0.  1.
       -4    1    3    3    0  502  0.52392925109E+03 -0.19844073766E+03 -0.81741391585E+03  0.99098320330E+03  0.12699999809E+01 0. -1.
</event>
<event>
 5   0  0.2781000E-04  0.1656576E+04  0.7818609E-02  0.8786526E-01
        4   -1    0    0  501    0  0.00000000000E+00  0.00000000000E+00  0.91705325922E+03  0.91705413861E+03  0.12699999809E+01 0. -1.
       -4   -1    0    0    0  501  0.00000000000E+00  0.00000000000E+00 -0.74811270984E+03  0.74811378782E+03  0.12699999809E+01 0.  1.
    10030    2    1    2    0    0  0.00000000000E+00  0.00000000000E+00  0.16894054937E+03  0.16651679264E+04  0.16565757797E+04 0.  0.
        2    1    3    3  502    0  0.15007684768E+03  0.49547474328E+03  0.73438589088E+03  0.89852151792E+03  0.25500000920E-02 0. -1.
       -2    1    3    3    0  502 -0.15007684768E+03 -0.49547474328E+03 -0.56544534151E+03  0.76664640851E+03  0.25500000920E-02 0.  1.
</event>
<event>
 5   0  0.3950195E-04  0.1518780E+04  0.7818609E-02  0.8872060E-01
       -1   -1    0    0    0  501  0.00000000000E+00  0.00000000000E+00  0.93277181050E+03  0.93277181052E+03  0.50400001928E-02 0. -1.
        1   -1    0    0  501    0  0.00000000000E+00  0.00000000000E+00 -0.61823594775E+03  0.61823594777E+03  0.50400001928E-02 0.  1.
    10030    2    1    2    0    0  0.00000000000E+00  0.00000000000E+00  0.31453586275E+03  0.15510077583E+04  0.15187798581E+04 0.  0.
        2    1    3    3  502    0 -0.50033104708E+03 -0.48185079788E+03 -0.15610127956E+03  0.71195432267E+03  0.25500000920E-02 0.  1.
       -2    1    3    3    0  502  0.50033104708E+03  0.48185079788E+03  0.47063714231E+03  0.83905343562E+03  0.25500000920E-02 0. -1.
</event>
<event>
 5   0  0.3837251E-04  0.1622422E+04  0.7818609E-02  0.8806891E-01
        1   -1    0    0  501    0  0.00000000000E+00  0.00000000000E+00  0.76856480072E+03  0.76856480074E+03  0.50400001928E-02 0.  1.
       -1   -1    0    0    0  501  0.00000000000E+00  0.00000000000E+00 -0.85622321146E+03  0.85622321148E+03  0.50400001928E-02 0. -1.
    10030    2    1    2    0    0  0.00000000000E+00  0.00000000000E+00 -0.87658410740E+02  0.16247880122E+04  0.16224216738E+04 0.  0.
        4    1    3    3  502    0  0.27079055311E+03 -0.17382541978E+03  0.70191696061E+03  0.77216049673E+03  0.12699999809E+01 0.  1.
       -4    1    3    3    0  502 -0.27079055311E+03  0.17382541978E+03 -0.78957537135E+03  0.85262751549E+03  0.12699999809E+01 0. -1.
</event>
<event>
 5   0  0.3973227E-04  0.1576040E+04  0.7818609E-02  0.8835404E-01
       -1   -1    0    0    0  501  0.00000000000E+00  0.00000000000E+00  0.64787788069E+03  0.64787788071E+03  0.50400001928E-02 0.  1.
        1   -1    0    0  501    0  0.00000000000E+00  0.00000000000E+00 -0.95847664047E+03  0.95847664049E+03  0.50400001928E-02 0. -1.
    10030    2    1    2    0    0  0.00000000000E+00  0.00000000000E+00 -0.31059875978E+03  0.16063545212E+04  0.15760403733E+04 0.  0.
        3    1    3    3  502    0  0.66851587021E+03 -0.36578863506E+03  0.49211489360E+02  0.76363379649E+03  0.10100000352E+00 0.  1.
       -3    1    3    3    0  502 -0.66851587021E+03  0.36578863506E+03 -0.35981024914E+03  0.84272072470E+03  0.10100000352E+00 0. -1.
</event>
<event>
 5   0  0.4110803E-04  0.1581691E+04  0.7818609E-02  0.8831876E-01
       -1   -1    0    0    0  501  0.00000000000E+00  0.00000000000E+00  0.42778051642E+03  0.42778051645E+03  0.50400001928E-02 0. -1.
        1   -1    0    0  501    0  0.00000000000E+00  0.00000000000E+00 -0.14620498112E+04  0.14620498112E+04  0.50400001928E-02 0.  1.
    10030    2    1    2    0    0  0.00000000000E+00  0.00000000000E+00 -0.10342692948E+04  0.18898303276E+04  0.15816907704E+04 0.  0.
        5    1    3    3  502    0 -0.23163821341E+02 -0.67124906670E+03 -0.18304154539E+02  0.67191443223E+03  0.46999998093E+01 0. -1.
       -5    1    3    3    0  502  0.23163821341E+02  0.67124906670E+03 -0.10159651402E+04  0.12179158954E+04  0.46999998093E+01 0.  1.
</event>
<event>
 5   0  0.7488884E-04  0.1604404E+04  0.7818609E-02  0.8817847E-01
        2   -1    0    0  501    0  0.00000000000E+00  0.00000000000E+00  0.84101293254E+03  0.84101293254E+03  0.25500000920E-02 0.  1.
       -2   -1    0    0    0  501  0.00000000000E+00  0.00000000000E+00 -0.76518208827E+03  0.76518208828E+03  0.25500000920E-02 0. -1.
    10030    2    1    2    0    0  0.00000000000E+00  0.00000000000E+00  0.75830844264E+02  0.16061950208E+04  0.16044039790E+04 0.  0.
        3    1    3    3  502    0 -0.87972134969E+02 -0.75150579720E+03  0.30472365217E+03  0.81569392185E+03  0.10100000352E+00 0.  1.
       -3    1    3    3    0  502  0.87972134969E+02  0.75150579720E+03 -0.22889280791E+03  0.79050109897E+03  0.10100000352E+00 0. -1.
</event>
<event>
 5   0  0.3889847E-04  0.1622694E+04  0.7818609E-02  0.8806726E-01
        1   -1    0    0  501    0  0.00000000000E+00  0.00000000000E+00  0.92410364615E+03  0.92410364617E+03  0.50400001928E-02 0.  1.
       -1   -1    0    0    0  501  0.00000000000E+00  0.00000000000E+00 -0.71234891312E+03  0.71234891313E+03  0.50400001928E-02 0. -1.
    10030    2    1    2    0    0  0.00000000000E+00  0.00000000000E+00  0.21175473304E+03  0.16364525593E+04  0.16226943372E+04 0.  0.
        1    1    3    3  502    0  0.51452807747E+03  0.27290677779E+03 -0.46377201114E+03  0.74451442580E+03  0.50400001928E-02 0. -1.
       -1    1    3    3    0  502 -0.51452807747E+03 -0.27290677779E+03  0.67552674418E+03  0.89193813351E+03  0.50400001928E-02 0.  1.
</event>
<event>
 5   0  0.7395088E-04  0.1600514E+04  0.7818609E-02  0.8820232E-01
        2   -1    0    0  501    0  0.00000000000E+00  0.00000000000E+00  0.96062923904E+03  0.96062923904E+03  0.25500000920E-02 0.  1.
       -2   -1    0    0    0  501  0.00000000000E+00  0.00000000000E+00 -0.66665787475E+03  0.66665787476E+03  0.25500000920E-02 0. -1.
    10030    2    1    2    0    0  0.00000000000E+00  0.00000000000E+00  0.29397136428E+03  0.16272871138E+04  0.16005137262E+04 0.  0.
        1    1    3    3  502    0  0.29865084322E+03 -0.58825900169E+03  0.60751977188E+03  0.89683959127E+03  0.50400001928E-02 0. -1.
       -1    1    3    3    0  502 -0.29865084322E+03  0.58825900169E+03 -0.31354840759E+03  0.73044752252E+03  0.50400001928E-02 0.  1.
</event>
<event>
 5   0  0.3973227E-04  0.1585424E+04  0.7818609E-02  0.8829553E-01
        1   -1    0    0  501    0  0.00000000000E+00  0.00000000000E+00  0.13982508227E+04  0.13982508227E+04  0.50400001928E-02 0. -1.
       -1   -1    0    0    0  501  0.00000000000E+00  0.00000000000E+00 -0.44941313350E+03  0.44941313353E+03  0.50400001928E-02 0.  1.
    10030    2    1    2    0    0  0.00000000000E+00  0.00000000000E+00  0.94883768917E+03  0.18476639562E+04  0.15854239606E+04 0.  0.
        3    1    3    3  502    0  0.17447786860E+03 -0.65446835867E+03  0.95439235487E+03  0.11703145459E+04  0.10100000352E+00 0. -1.
       -3    1    3    3    0  502 -0.17447786860E+03  0.65446835867E+03 -0.55546656935E+01  0.67734941031E+03  0.10100000352E+00 0.  1.
</event>
<event>
 5   0  0.3950195E-04  0.1585808E+04  0.7818609E-02  0.8829315E-01
       -1   -1    0    0    0  501  0.00000000000E+00  0.00000000000E+00  0.79324288936E+03  0.79324288937E+03  0.50400001928E-02 0. -1.
        1   -1    0    0  501    0  0.00000000000E+00  0.00000000000E+00 -0.79256503983E+03  0.79256503984E+03  0.50400001928E-02 0.  1.
    10030    2    1    2    0    0  0.00000000000E+00  0.00000000000E+00  0.67784952939E+00  0.15858079292E+04  0.15858077843E+04 0.  0.
        2    1    3    3  502    0  0.64092216709E+03 -0.20449885763E+03 -0.41929854657E+03  0.79272459165E+03  0.25500000920E-02 0. -1.
       -2    1    3    3    0  502 -0.64092216709E+03  0.20449885763E+03  0.41997639610E+03  0.79308333757E+03  0.25500000920E-02 0.  1.
</event>
<event>
 5   0  0.4110803E-04  0.1601886E+04  0.7818609E-02  0.8819390E-01
        1   -1    0    0  501    0  0.00000000000E+00  0.00000000000E+00  0.74609394322E+03  0.74609394323E+03  0.50400001928E-02 0.  1.
       -1   -1    0    0    0  501  0.00000000000E+00  0.00000000000E+00 -0.85982411472E+03  0.85982411474E+03  0.50400001928E-02 0. -1.
    10030    2    1    2    0    0  0.00000000000E+00  0.00000000000E+00 -0.11373017150E+03  0.16059180580E+04  0.16018858439E+04 0.  0.
        5    1    3    3  502    0  0.25967962189E+03 -0.50776029465E+03 -0.62062698573E+03  0.84288431487E+03  0.46999998093E+01 0. -1.
       -5    1    3    3    0  502 -0.25967962189E+03  0.50776029465E+03  0.50689681422E+03  0.76303374310E+03  0.46999998093E+01 0.  1.
</event>
<event>
 5   0  0.7415102E-04  0.1598200E+04  0.7818609E-02  0.8821655E-01
       -2   -1    0    0    0  501  0.00000000000E+00  0.00000000000E+00  0.11407150098E+04  0.11407150098E+04  0.25500000920E-02 0. -1.
        2   -1    0    0  501    0  0.00000000000E+00  0.00000000000E+00 -0.55978997409E+03  0.55978997409E+03  0.25500000920E-02 0.  1.
    10030    2    1    2    0    0  0.00000000000E+00  0.00000000000E+00  0.58092503567E+03  0.17005049839E+04  0.15982000197E+04 0.  0.
        5    1    3    3  502    0  0.51401249938E+03 -0.16285758684E+03  0.91796596990E+03  0.10646196762E+04  0.46999998093E+01 0. -1.
       -5    1    3    3    0  502 -0.51401249938E+03  0.16285758684E+03 -0.33704093423E+03  0.63588530763E+03  0.46999998093E+01 0.  1.
</event>
<event>
 5   0  0.7415102E-04  0.1624520E+04  0.7818609E-02  0.8805624E-01
        2   -1    0    0  501    0  0.00000000000E+00  0.00000000000E+00  0.14298454875E+04  0.14298454875E+04  0.25500000920E-02 0.  1.
       -2   -1    0    0    0  501  0.00000000000E+00  0.00000000000E+00 -0.46142491485E+03  0.46142491486E+03  0.25500000920E-02 0. -1.
    10030    2    1    2    0    0  0.00000000000E+00  0.00000000000E+00  0.96842057262E+03  0.18912704023E+04  0.16245200304E+04 0.  0.
        5    1    3    3  502    0 -0.37300265108E+03 -0.70756389771E+03  0.31970473314E+03  0.86140051860E+03  0.46999998093E+01 0. -1.
       -5    1    3    3    0  502  0.37300265108E+03  0.70756389771E+03  0.64871583948E+03  0.10298698837E+04  0.46999998093E+01 0.  1.
</event>
<event>
 5   0  0.7415102E-04  0.1600523E+04  0.7818609E-02  0.8820227E-01
        2   -1    0    0  501    0  0.00000000000E+00  0.00000000000E+00  0.19731466894E+04  0.19731466894E+04  0.25500000920E-02 0.  1.
       -2   -1    0    0    0  501  0.00000000000E+00  0.00000000000E+00 -0.32456688966E+03  0.32456688967E+03  0.25500000920E-02 0. -1.
    10030    2    1    2    0    0  0.00000000000E+00  0.00000000000E+00  0.16485797998E+04  0.22977135791E+04  0.16005225195E+04 0.  0.
        5    1    3    3  502    0  0.68884167152E+03  0.33054848421E+02  0.24149815185E+03  0.73071124172E+03  0.46999998093E+01 0. -1.
       -5    1    3    3    0  502 -0.68884167152E+03 -0.33054848421E+02  0.14070816479E+04  0.15670023374E+04  0.46999998093E+01 0.  1.
</event>
<event>
 5   0  0.3837251E-04  0.1592534E+04  0.7818609E-02  0.8825148E-01
        1   -1    0    0  501    0  0.00000000000E+00  0.00000000000E+00  0.30207039475E+03  0.30207039479E+03  0.50400001928E-02 0. -1.
       -1   -1    0    0    0  501  0.00000000000E+00  0.00000000000E+00 -0.20989850504E+04  0.20989850504E+04  0.50400001928E-02 0.  1.
    10030    2    1    2    0    0  0.00000000000E+00  0.00000000000E+00 -0.17969146557E+04  0.24010554452E+04  0.15925341350E+04 0.  0.
        4    1    3    3  502    0 -0.31498433719E+03  0.44829870665E+03 -0.27311363842E+02  0.54857486869E+03  0.12699999809E+01 0. -1.
       -4    1    3    3    0  502  0.31498433719E+03 -0.44829870665E+03 -0.17696032918E+04  0.18524805765E+04  0.12699999809E+01 0.  1.
</event>
<event>
 5   0  0.7770905E-04  0.1583170E+04  0.7818609E-02  0.8830954E-01
        2   -1    0    0  501    0  0.00000000000E+00  0.00000000000E+00  0.83521423313E+03  0.83521423313E+03  0.25500000920E-02 0. -1.
       -2   -1    0    0    0  501  0.00000000000E+00  0.00000000000E+00 -0.75023521214E+03  0.75023521214E+03  0.25500000920E-02 0.  1.
    10030    2    1    2    0    0  0.00000000000E+00  0.00000000000E+00  0.84979020994E+02  0.15854494453E+04  0.15831703981E+04 0.  0.
        2    1    3    3  502    0  0.54170638131E+03  0.73541345428E+02 -0.53083178231E+03  0.76199508801E+03  0.25500000920E-02 0.  1.
       -2    1    3    3    0  502 -0.54170638131E+03 -0.73541345428E+02  0.61581080330E+03  0.82345435727E+03  0.25500000920E-02 0. -1.
</event>
<event>
 5   0  0.7488884E-04  0.1538757E+04  0.7818609E-02  0.8859081E-01
       -2   -1    0    0    0  501  0.00000000000E+00  0.00000000000E+00  0.37207547655E+03  0.37207547656E+03  0.25500000920E-02 0.  1.
        2   -1    0    0  501    0  0.00000000000E+00  0.00000000000E+00 -0.15909231924E+04  0.15909231924E+04  0.25500000920E-02 0. -1.
    10030    2    1    2    0    0  0.00000000000E+00  0.00000000000E+00 -0.12188477159E+04  0.19629986690E+04  0.15387572973E+04 0.  0.
        3    1    3    3  502    0  0.76086145486E+03 -0.10889057199E+03 -0.65317482244E+03  0.10086647952E+04  0.10100000352E+00 0.  1.
       -3    1    3    3    0  502 -0.76086145486E+03  0.10889057199E+03 -0.56567289344E+03  0.95433387383E+03  0.10100000352E+00 0. -1.
</event>
<event>
 5   0  0.3889847E-04  0.1603031E+04  0.7818609E-02  0.8818688E-01
        1   -1    0    0  501    0  0.00000000000E+00  0.00000000000E+00  0.14634576631E+04  0.14634576631E+04  0.50400001928E-02 0. -1.
       -1   -1    0    0    0  501  0.00000000000E+00  0.00000000000E+00 -0.43897892416E+03  0.43897892419E+03  0.50400001928E-02 0.  1.
    10030    2    1    2    0    0  0.00000000000E+00  0.00000000000E+00  0.10244787389E+04  0.19024365873E+04  0.16030309673E+04 0.  0.
        1    1    3    3  502    0 -0.49924792670E+03 -0.62670689352E+03  0.53647538367E+03  0.96426959923E+03  0.50400001928E-02 0.  1.
       -1    1    3    3    0  502  0.49924792670E+03  0.62670689352E+03  0.48800335524E+03  0.93816698804E+03  0.50400001928E-02 0. -1.
</event>
<event>
 5   0  0.7488884E-04  0.1434236E+04  0.7818609E-02  0.8929403E-01
        2   -1    0    0  501    0  0.00000000000E+00  0.00000000000E+00  0.64416774489E+03  0.64416774489E+03  0.25500000920E-02 0. -1.
       -2   -1    0    0    0  501  0.00000000000E+00  0.00000000000E+00 -0.79832957744E+03  0.79832957744E+03  0.25500000920E-02 0.  1.
    10030    2    1    2    0    0  0.00000000000E+00  0.00000000000E+00 -0.15416183255E+03  0.14424973223E+04  0.14342359131E+04 0.  0.
        3    1    3    3  502    0  0.49160751292E+03 -0.46878283257E+03 -0.30823703237E+03  0.74595265882E+03  0.10100000352E+00 0.  1.
       -3    1    3    3    0  502 -0.49160751292E+03  0.46878283257E+03  0.15407519982E+03  0.69654466352E+03  0.10100000352E+00 0. -1.
</event>
<event>
 5   0  0.3837251E-04  0.1576560E+04  0.7818609E-02  0.8835079E-01
       -1   -1    0    0    0  501  0.00000000000E+00  0.00000000000E+00  0.61313510798E+03  0.61313510800E+03  0.50400001928E-02 0. -1.
        1   -1    0    0  501    0  0.00000000000E+00  0.00000000000E+00 -0.10134555270E+04  0.10134555270E+04  0.50400001928E-02 0.  1.
    10030    2    1    2    0    0  0.00000000000E+00  0.00000000000E+00 -0.40032041902E+03  0.16265906350E+04  0.15765597534E+04 0.  0.
        4    1    3    3  502    0  0.69708511422E+03 -0.27666009309E+03 -0.45058717757E+03  0.87492792907E+03  0.12699999809E+01 0.  1.
       -4    1    3    3    0  502 -0.69708511422E+03  0.27666009309E+03  0.50266758550E+02  0.75166270593E+03  0.12699999809E+01 0. -1.
</event>
<event>
 5   0  0.7415102E-04  0.1590385E+04  0.7818609E-02  0.8826477E-01
        2   -1    0    0  501    0  0.00000000000E+00  0.00000000000E+00  0.54211184981E+03  0.54211184982E+03  0.25500000920E-02 0. -1.
       -2   -1    0    0    0  501  0.00000000000E+00  0.00000000000E+00 -0.11664216728E+04  0.11664216728E+04  0.25500000920E-02 0.  1.
    10030    2    1    2    0    0  0.00000000000E+00  0.00000000000E+00 -0.62430982298E+03  0.17085335226E+04  0.15903848725E+04 0.  0.
        5    1    3    3  502    0  0.70377015656E+03  0.17206902920E+03 -0.66423468194E+03  0.98291911507E+03  0.46999998093E+01 0.  1.
       -5    1    3    3    0  502 -0.70377015656E+03 -0.17206902920E+03  0.39924858961E+02  0.72561440755E+03  0.46999998093E+01 0. -1.
</event>
<event>
 5   0  0.3973227E-04  0.1312902E+04  0.7818609E-02  0.9019396E-01
        1   -1    0    0  501    0  0.00000000000E+00  0.00000000000E+00  0.81670399777E+03  0.81670399778E+03  0.50400001928E-02 0. -1.
       -1   -1    0    0    0  501  0.00000000000E+00  0.00000000000E+00 -0.52764249671E+03  0.52764249674E+03  0.50400001928E-02 0.  1.
    10030    2    1    2    0    0  0.00000000000E+00  0.00000000000E+00  0.28906150105E+03  0.13443464945E+04  0.13129017274E+04 0.  0.
        3    1    3    3  502    0 -0.30760543594E+03  0.31103686940E+03  0.64570481454E+03  0.77993573842E+03  0.10100000352E+00 0. -1.
       -3    1    3    3    0  502  0.30760543594E+03 -0.31103686940E+03 -0.35664331349E+03  0.56441075610E+03  0.10100000352E+00 0.  1.
</event>
<event>
 5   0  0.7770905E-04  0.1598710E+04  0.7818609E-02  0.8821341E-01
        2   -1    0    0  501    0  0.00000000000E+00  0.00000000000E+00  0.12162351859E+04  0.12162351859E+04  0.25500000920E-02 0. -1.
       -2   -1    0    0    0  501  0.00000000000E+00  0.00000000000E+00 -0.52536607552E+03  0.52536607553E+03  0.25500000920E-02 0.  1.
    10030    2    1    2    0    0  0.00000000000E+00  0.00000000000E+00  0.69086911042E+03  0.17416012615E+04  0.15987103635E+04 0.  0.
        2    1    3    3  502    0  0.12240642388E+02 -0.53636922721E+03  0.99095649446E+03  0.11268702477E+04  0.25500000920E-02 0. -1.
       -2    1    3    3    0  502 -0.12240642388E+02  0.53636922721E+03 -0.30008738404E+03  0.61473101377E+03  0.25500000920E-02 0.  1.
</event>
<event>
 5   0  0.4110803E-04  0.1618534E+04  0.7818609E-02  0.8809242E-01
        1   -1    0    0  501    0  0.00000000000E+00  0.00000000000E+00  0.27636975655E+04  0.27636975655E+04  0.50400001928E-02 0. -1.
       -1   -1    0    0    0  501  0.00000000000E+00  0.00000000000E+00 -0.23696992762E+03  0.23696992767E+03  0.50400001928E-02 0.  1.
    10030    2    1    2    0    0  0.00000000000E+00  0.00000000000E+00  0.25267276379E+04  0.30006674931E+04  0.16185341666E+04 0.  0.
        5    1    3    3  502    0 -0.28472573440E+03  0.73910469379E+03  0.95566187555E+03  0.12412317280E+04  0.46999998093E+01 0.  1.
       -5    1    3    3    0  502  0.28472573440E+03 -0.73910469379E+03  0.15710657623E+04  0.17594357651E+04  0.46999998093E+01 0. -1.
</event>
<event>
 5   0  0.3950195E-04  0.1597596E+04  0.7818609E-02  0.8822026E-01
       -1   -1    0    0    0  501  0.00000000000E+00  0.00000000000E+00  0.13004993301E+04  0.13004993301E+04  0.50400001928E-02 0. -1.
        1   -1    0    0  501    0  0.00000000000E+00  0.00000000000E+00 -0.49064105358E+03  0.49064105361E+03  0.50400001928E-02 0.  1.
    10030    2    1    2    0    0  0.00000000000E+00  0.00000000000E+00  0.80985827648E+03  0.17911403837E+04  0.15975961461E+04 0.  0.
        2    1    3    3  502    0 -0.77811891867E+03 -0.17331414469E+03  0.34807562124E+03  0.86986405976E+03  0.25500000920E-02 0.  1.
       -2    1    3    3    0  502  0.77811891867E+03  0.17331414469E+03  0.46178265524E+03  0.92127632393E+03  0.25500000920E-02 0. -1.
</event>
<event>
 5   0  0.4110803E-04  0.1621249E+04  0.7818609E-02  0.8807599E-01
        1   -1    0    0  501    0  0.00000000000E+00  0.00000000000E+00  0.82184381840E+03  0.82184381842E+03  0.50400001928E-02 0.  1.
       -1   -1    0    0    0  501  0.00000000000E+00  0.00000000000E+00 -0.79955828032E+03  0.79955828033E+03  0.50400001928E-02 0. -1.
    10030    2    1    2    0    0  0.00000000000E+00  0.00000000000E+00  0.22285538085E+02  0.16214020988E+04  0.16212489385E+04 0.  0.
        5    1    3    3  502    0  0.23422988819E+03 -0.63048908755E+03 -0.44134865632E+03  0.80448173160E+03  0.46999998093E+01 0. -1.
       -5    1    3    3    0  502 -0.23422988819E+03  0.63048908755E+03  0.46363419440E+03  0.81692036715E+03  0.46999998093E+01 0.  1.
</event>
<event>
 5   0  0.7415102E-04  0.1612301E+04  0.7818609E-02  0.8813026E-01
        2   -1    0    0  501    0  0.00000000000E+00  0.00000000000E+00  0.10823148505E+04  0.10823148505E+04  0.25500000920E-02 0.  1.
       -2   -1    0    0    0  501  0.00000000000E+00  0.00000000000E+00 -0.60045261600E+03  0.60045261601E+03  0.25500000920E-02 0. -1.
    10030    2    1    2    0    0  0.00000000000E+00  0.00000000000E+00  0.48186223447E+03  0.16827674665E+04  0.16123011919E+04 0.  0.
        5    1    3    3  502    0  0.32846065145E+03  0.73342037297E+03  0.30747378504E+03  0.86043829618E+03  0.46999998093E+01 0. -1.
       -5    1    3    3    0  502 -0.32846065145E+03 -0.73342037297E+03  0.17438844943E+03  0.82232917031E+03  0.46999998093E+01 0.  1.
</event>
<event>
 5   0  0.4110803E-04  0.1584821E+04  0.7818609E-02  0.8829927E-01
       -1   -1    0    0    0  501  0.00000000000E+00  0.00000000000E+00  0.73862527165E+03  0.73862527167E+03  0.50400001928E-02 0. -1.
        1   -1    0    0  501    0  0.00000000000E+00  0.00000000000E+00 -0.85011274594E+03  0.85011274596E+03  0.50400001928E-02 0.  1.
    10030    2    1    2    0    0  0.00000000000E+00  0.00000000000E+00 -0.11148747429E+03  0.15887380176E+04  0.15848214511E+04 0.  0.
        5    1    3    3  502    0  0.53443376129E+03 -0.52520110085E+02 -0.63986274838E+03  0.83535874565E+03  0.46999998093E+01 0.  1.
       -5    1    3    3    0  502 -0.53443376129E+03  0.52520110085E+02  0.52837527409E+03  0.75337927197E+03  0.46999998093E+01 0. -1.
</event>
<event>
 5   0  0.7395088E-04  0.1613432E+04  0.7818609E-02  0.8812339E-01
       -2   -1    0    0    0  501  0.00000000000E+00  0.00000000000E+00  0.64436101287E+03  0.64436101288E+03  0.25500000920E-02 0.  1.
        2   -1    0    0  501    0  0.00000000000E+00  0.00000000000E+00 -0.10099779181E+04  0.10099779181E+04  0.25500000920E-02 0. -1.
    10030    2    1    2    0    0  0.00000000000E+00  0.00000000000E+00 -0.36561690520E+03  0.16543389309E+04  0.16134316152E+04 0.  0.
        1    1    3    3  502    0  0.61338927601E+03  0.18572580195E+03 -0.68517962137E+03  0.93819592357E+03  0.50400001928E-02 0. -1.
       -1    1    3    3    0  502 -0.61338927601E+03 -0.18572580195E+03  0.31956271617E+03  0.71614300738E+03  0.50400001928E-02 0.  1.
</event>
<event>
 5   0  0.7415102E-04  0.1567049E+04  0.7818609E-02  0.8841050E-01
        2   -1    0    0  501    0  0.00000000000E+00  0.00000000000E+00  0.15382517965E+04  0.15382517965E+04  0.25500000920E-02 0.  1.
       -2   -1    0    0    0  501  0.00000000000E+00  0.00000000000E+00 -0.39909653313E+03  0.39909653314E+03  0.25500000920E-02 0. -1.
    10030    2    1    2    0    0  0.00000000000E+00  0.00000000000E+00  0.11391552634E+04  0.19373483296E+04  0.15670494045E+04 0.  0.
        5    1    3    3  502    0 -0.15728410206E+03 -0.76732014449E+03  0.59337048601E+03  0.98266429494E+03  0.46999998093E+01 0.  1.
       -5    1    3    3    0  502  0.15728410206E+03  0.76732014449E+03  0.54578477735E+03  0.95468403468E+03  0.46999998093E+01 0. -1.
</event>
<event>
 5   0  0.7415102E-04  0.1597660E+04  0.7818609E-02  0.8821987E-01
       -2   -1    0    0    0  501  0.00000000000E+00  0.00000000000E+00  0.49059364760E+03  0.49059364760E+03  0.25500000920E-02 0. -1.
        2   -1    0    0  501    0  0.00000000000E+00  0.00000000000E+00 -0.13007293119E+04  0.13007293119E+04  0.25500000920E-02 0.  1.
    10030    2    1    2    0    0  0.00000000000E+00  0.00000000000E+00 -0.81013566433E+03  0.17913229595E+04  0.15976602113E+04 0.  0.
        5    1    3    3  502    0 -0.78090970262E+01 -0.54409713145E+03  0.25063273460E+03  0.59911729077E+03  0.46999998093E+01 0. -1.
       -5    1    3    3    0  502  0.78090970262E+01  0.54409713145E+03 -0.10607683989E+04  0.11922056688E+04  0.46999998093E+01 0.  1.
</event>
<event>
 5   0  0.4110803E-04  0.1595777E+04  0.7818609E-02  0.8823146E-01
        1   -1    0    0  501    0  0.00000000000E+00  0.00000000000E+00  0.12090711457E+04  0.12090711457E+04  0.50400001928E-02 0. -1.
       -1   -1    0    0    0  501  0.00000000000E+00  0.00000000000E+00 -0.52654175051E+03  0.52654175053E+03  0.50400001928E-02 0.  1.
    10030    2    1    2    0    0  0.00000000000E+00  0.00000000000E+00  0.68252939523E+03  0.17356128963E+04  0.15957774752E+04 0.  0.
        5    1    3    3  502    0 -0.11673252479E+03  0.56763870778E+03 -0.25521213659E+03  0.63324206239E+03  0.46999998093E+01 0. -1.
       -5    1    3    3    0  502  0.11673252479E+03 -0.56763870778E+03  0.93774153182E+03  0.11023708339E+04  0.46999998093E+01 0.  1.
</event>
<event>
 5   0  0.4110803E-04  0.1604812E+04  0.7818609E-02  0.8817597E-01
       -1   -1    0    0    0  501  0.00000000000E+00  0.00000000000E+00  0.12833033257E+04  0.12833033257E+04  0.50400001928E-02 0. -1.
        1   -1    0    0  501    0  0.00000000000E+00  0.00000000000E+00 -0.50171710245E+03  0.50171710248E+03  0.50400001928E-02 0.  1.
    10030    2    1    2    0    0  0.00000000000E+00  0.00000000000E+00  0.78158622326E+03  0.17850204282E+04  0.16048117973E+04 0.  0.
        5    1    3    3  502    0 -0.87652571901E+02 -0.38331700825E+03 -0.38719041324E+03  0.55186357760E+03  0.46999998093E+01 0.  1.
       -5    1    3    3    0  502  0.87652571901E+02  0.38331700825E+03  0.11687766365E+04  0.12331568506E+04  0.46999998093E+01 0. -1.
</event>
<event>
 5   0  0.7415102E-04  0.1602782E+04  0.7818609E-02  0.8818841E-01
       -2   -1    0    0    0  501  0.00000000000E+00  0.00000000000E+00  0.10846243002E+04  0.10846243002E+04  0.25500000920E-02 0. -1.
        2   -1    0    0  501    0  0.00000000000E+00  0.00000000000E+00 -0.59211991869E+03  0.59211991869E+03  0.25500000920E-02 0.  1.
    10030    2    1    2    0    0  0.00000000000E+00  0.00000000000E+00  0.49250438154E+03  0.16767442189E+04  0.16027821467E+04 0.  0.
        5    1    3    3  502    0  0.42330554530E+03  0.66248703407E+03  0.83749277743E+02  0.79064068103E+03  0.46999998093E+01 0. -1.
       -5    1    3    3    0  502 -0.42330554530E+03 -0.66248703407E+03  0.40875510380E+03  0.88610353789E+03  0.46999998093E+01 0.  1.
</event>
<event>
 5   0  0.3837251E-04  0.1592781E+04  0.7818609E-02  0.8824995E-01
        1   -1    0    0  501    0  0.00000000000E+00  0.00000000000E+00  0.96599088393E+03  0.96599088394E+03  0.50400001928E-02 0.  1.
       -1   -1    0    0    0  501  0.00000000000E+00  0.00000000000E+00 -0.65656732963E+03  0.65656732965E+03  0.50400001928E-02 0. -1.
    10030    2    1    2    0    0  0.00000000000E+00  0.00000000000E+00  0.30942355430E+03  0.16225582136E+04  0.15927812846E+04 0.  0.
        4    1    3    3  502    0  0.28496594110E+03 -0.62343979110E+03 -0.25827282688E+03  0.73252250935E+03  0.12699999809E+01 0. -1.
       -4    1    3    3    0  502 -0.28496594110E+03  0.62343979110E+03  0.56769638118E+03  0.89003570423E+03  0.12699999809E+01 0.  1.
</event>
<event>
 5   0  0.7395088E-04  0.1649986E+04  0.7818609E-02  0.8790415E-01
        2   -1    0    0  501    0  0.00000000000E+00  0.00000000000E+00  0.11976036155E+04  0.11976036156E+04  0.25500000920E-02 0. -1.
       -2   -1    0    0    0  501  0.00000000000E+00  0.00000000000E+00 -0.56831307669E+03  0.56831307669E+03  0.25500000920E-02 0.  1.
    10030    2    1    2    0    0  0.00000000000E+00  0.00000000000E+00  0.62929053886E+03  0.17659166922E+04  0.16499864186E+04 0.  0.
        1    1    3    3  502    0 -0.68247497375E+03 -0.23760066989E+03  0.74058727228E+03  0.10347442563E+04  0.50400001928E-02 0. -1.
       -1    1    3    3    0  502  0.68247497375E+03  0.23760066989E+03 -0.11129673342E+03  0.73117243591E+03  0.50400001928E-02 0.  1.
</event>
<event>
 5   0  0.4110803E-04  0.1597218E+04  0.7818609E-02  0.8822259E-01
        1   -1    0    0  501    0  0.00000000000E+00  0.00000000000E+00  0.12443160492E+04  0.12443160492E+04  0.50400001928E-02 0.  1.
       -1   -1    0    0    0  501  0.00000000000E+00  0.00000000000E+00 -0.51255153109E+03  0.51255153112E+03  0.50400001928E-02 0. -1.
    10030    2    1    2    0    0  0.00000000000E+00  0.00000000000E+00  0.73176451812E+03  0.17568675803E+04  0.15972177011E+04 0.  0.
        5    1    3    3  502    0 -0.21538935979E+02 -0.42005012917E+03 -0.38083081151E+03  0.56741539790E+03  0.46999998093E+01 0. -1.
       -5    1    3    3    0  502  0.21538935979E+02  0.42005012917E+03  0.11125953296E+04  0.11894521824E+04  0.46999998093E+01 0.  1.
</event>
<event>
 5   0  0.3889847E-04  0.1622664E+04  0.7818609E-02  0.8806744E-01
       -1   -1    0    0    0  501  0.00000000000E+00  0.00000000000E+00  0.80406575805E+03  0.80406575806E+03  0.50400001928E-02 0.  1.
        1   -1    0    0  501    0  0.00000000000E+00  0.00000000000E+00 -0.81866386793E+03  0.81866386794E+03  0.50400001928E-02 0. -1.
    10030    2    1    2    0    0  0.00000000000E+00  0.00000000000E+00 -0.14598109879E+02  0.16227296260E+04  0.16226639622E+04 0.  0.
        1    1    3    3  502    0  0.44994915051E+03  0.60790125046E+03 -0.30101387710E+03  0.81400707773E+03  0.50400001928E-02 0. -1.
       -1    1    3    3    0  502 -0.44994915051E+03 -0.60790125046E+03  0.28641576722E+03  0.80872254828E+03  0.50400001928E-02 0.  1.
</event>
<event>
 5   0  0.3889847E-04  0.1614974E+04  0.7818609E-02  0.8811401E-01
       -1   -1    0    0    0  501  0.00000000000E+00  0.00000000000E+00  0.74103554519E+03  0.74103554520E+03  0.50400001928E-02 0. -1.
        1   -1    0    0  501    0  0.00000000000E+00  0.00000000000E+00 -0.87989736689E+03  0.87989736691E+03  0.50400001928E-02 0.  1.
    10030    2    1    2    0    0  0.00000000000E+00  0.00000000000E+00 -0.13886182170E+03  0.16209329121E+04  0.16149739626E+04 0.  0.
        1    1    3    3  502    0  0.49176296369E+03 -0.44920914606E+03  0.38877910798E+03  0.77121259338E+03  0.50400001928E-02 0. -1.
       -1    1    3    3    0  502 -0.49176296369E+03  0.44920914606E+03 -0.52764092969E+03  0.84972031873E+03  0.50400001928E-02 0.  1.
</event>
<event>
 5   0  0.3837251E-04  0.1601758E+04  0.7818609E-02  0.8819469E-01
        1   -1    0    0  501    0  0.00000000000E+00  0.00000000000E+00  0.58388055476E+03  0.58388055478E+03  0.50400001928E-02 0. -1.
       -1   -1    0    0    0  501  0.00000000000E+00  0.00000000000E+00 -0.10985248058E+04  0.10985248058E+04  0.50400001928E-02 0.  1.
    10030    2    1    2    0    0  0.00000000000E+00  0.00000000000E+00 -0.51464425103E+03  0.16824053606E+04  0.16017581254E+04 0.  0.
        4    1    3    3  502    0  0.50943233548E+03 -0.56221121952E+03 -0.52675849988E+03  0.92362269888E+03  0.12699999809E+01 0.  1.
       -4    1    3    3    0  502 -0.50943233548E+03  0.56221121952E+03  0.12114248846E+02  0.75878266171E+03  0.12699999809E+01 0. -1.
</event>
<event>
 5   0  0.7553070E-04  0.1555353E+04  0.7818609E-02  0.8848456E-01
       -2   -1    0    0    0  501  0.00000000000E+00  0.00000000000E+00  0.30070938640E+03  0.30070938641E+03  0.25500000920E-02 0. -1.
        2   -1    0    0  501    0  0.00000000000E+00  0.00000000000E+00 -0.20111800607E+04  0.20111800607E+04  0.25500000920E-02 0.  1.
    10030    2    1    2    0    0  0.00000000000E+00  0.00000000000E+00 -0.17104706743E+04  0.23118894471E+04  0.15553529786E+04 0.  0.
        4    1    3    3  502    0 -0.12226005826E+03 -0.12226485656E+03 -0.19822453894E+04  0.19897725030E+04  0.12699999809E+01 0.  1.
       -4    1    3    3    0  502  0.12226005826E+03  0.12226485656E+03  0.27177471512E+03  0.32211694409E+03  0.12699999809E+01 0. -1.
</event>
<event>
 5   0  0.7488884E-04  0.1586505E+04  0.7818609E-02  0.8828882E-01
        2   -1    0    0  501    0  0.00000000000E+00  0.00000000000E+00  0.12401648407E+04  0.12401648407E+04  0.25500000920E-02 0.  1.
       -2   -1    0    0    0  501  0.00000000000E+00  0.00000000000E+00 -0.50739162954E+03  0.50739162954E+03  0.25500000920E-02 0. -1.
    10030    2    1    2    0    0  0.00000000000E+00  0.00000000000E+00  0.73277321120E+03  0.17475564703E+04  0.15865046605E+04 0.  0.
        3    1    3    3  502    0  0.45578085031E+02  0.43024419670E+03  0.10987579937E+04  0.11808711062E+04  0.10100000352E+00 0.  1.
       -3    1    3    3    0  502 -0.45578085031E+02 -0.43024419670E+03 -0.36598478248E+03  0.56668536406E+03  0.10100000352E+00 0. -1.
</event>
<event>
 5   0  0.3837251E-04  0.1611705E+04  0.7818609E-02  0.8813389E-01
        1   -1    0    0  501    0  0.00000000000E+00  0.00000000000E+00  0.30768015972E+03  0.30768015977E+03  0.50400001928E-02 0. -1.
       -1   -1    0    0    0  501  0.00000000000E+00  0.00000000000E+00 -0.21106282224E+04  0.21106282224E+04  0.50400001928E-02 0.  1.
    10030    2    1    2    0    0  0.00000000000E+00  0.00000000000E+00 -0.18029480626E+04  0.24183083821E+04  0.16117052195E+04 0.  0.
        4    1    3    3  502    0 -0.31209641303E+03 -0.57573341787E+03 -0.16060919459E+04  0.17344757396E+04  0.12699999809E+01 0.  1.
       -4    1    3    3    0  502  0.31209641303E+03  0.57573341787E+03 -0.19685611673E+03  0.68383264259E+03  0.12699999809E+01 0. -1.
</event>
<event>
 5   0  0.7415102E-04  0.1602716E+04  0.7818609E-02  0.8818881E-01
       -2   -1    0    0    0  501  0.00000000000E+00  0.00000000000E+00  0.94766667874E+03  0.94766667875E+03  0.25500000920E-02 0.  1.
        2   -1    0    0  501    0  0.00000000000E+00  0.00000000000E+00 -0.67763742403E+03  0.67763742403E+03  0.25500000920E-02 0. -1.
    10030    2    1    2    0    0  0.00000000000E+00  0.00000000000E+00  0.27002925472E+03  0.16253041028E+04  0.16027157041E+04 0.  0.
        5    1    3    3  502    0  0.14944897747E+03 -0.22743564757E+03 -0.62932582314E+03  0.68566395000E+03  0.46999998093E+01 0. -1.
       -5    1    3    3    0  502 -0.14944897747E+03  0.22743564757E+03  0.89935507786E+03  0.93964015278E+03  0.46999998093E+01 0.  1.
</event>
<event>
 5   0  0.7488884E-04  0.1595860E+04  0.7818609E-02  0.8823095E-01
        2   -1    0    0  501    0  0.00000000000E+00  0.00000000000E+00  0.24009892723E+04  0.24009892723E+04  0.25500000920E-02 0. -1.
       -2   -1    0    0    0  501  0.00000000000E+00  0.00000000000E+00 -0.26517920966E+03  0.26517920968E+03  0.25500000920E-02 0.  1.
    10030    2    1    2    0    0  0.00000000000E+00  0.00000000000E+00  0.21358100626E+04  0.26661684820E+04  0.15958601914E+04 0.  0.
        3    1    3    3  502    0  0.56198614326E+03 -0.49106716649E+03  0.59620236456E+03  0.95521340910E+03  0.10100000352E+00 0. -1.
       -3    1    3    3    0  502 -0.56198614326E+03  0.49106716649E+03  0.15396076981E+04  0.17109550729E+04  0.10100000352E+00 0.  1.
</event>
<event>
 5   0  0.7553070E-04  0.1576189E+04  0.7818609E-02  0.8835311E-01
        2   -1    0    0  501    0  0.00000000000E+00  0.00000000000E+00  0.67904616080E+03  0.67904616081E+03  0.25500000920E-02 0.  1.
       -2   -1    0    0    0  501  0.00000000000E+00  0.00000000000E+00 -0.91465545596E+03  0.91465545597E+03  0.25500000920E-02 0. -1.
    10030    2    1    2    0    0  0.00000000000E+00  0.00000000000E+00 -0.23560929516E+03  0.15937016168E+04  0.15761894250E+04 0.  0.
        4    1    3    3  502    0 -0.33727121668E+02  0.65574381994E+03 -0.55848434139E+03  0.86199991218E+03  0.12699999809E+01 0. -1.
       -4    1    3    3    0  502  0.33727121668E+02 -0.65574381994E+03  0.32287504622E+03  0.73170170459E+03  0.12699999809E+01 0.  1.
</event>
<event>
 5   0  0.7770905E-04  0.1623060E+04  0.7818609E-02  0.8806505E-01
       -2   -1    0    0    0  501  0.00000000000E+00  0.00000000000E+00  0.56321803677E+03  0.56321803678E+03  0.25500000920E-02 0. -1.
        2   -1    0    0  501    0  0.00000000000E+00  0.00000000000E+00 -0.11693182268E+04  0.11693182268E+04  0.25500000920E-02 0.  1.
    10030    2    1    2    0    0  0.00000000000E+00  0.00000000000E+00 -0.60610019000E+03  0.17325362636E+04  0.16230602158E+04 0.  0.
        2    1    3    3  502    0 -0.58171392873E+02 -0.80521612265E+03 -0.21486938248E+03  0.83541951536E+03  0.25500000920E-02 0. -1.
       -2    1    3    3    0  502  0.58171392873E+02  0.80521612265E+03 -0.39123080752E+03  0.89711674819E+03  0.25500000920E-02 0.  1.
</event>
<event>
 5   0  0.7770905E-04  0.1590126E+04  0.7818609E-02  0.8826637E-01
       -2   -1    0    0    0  501  0.00000000000E+00  0.00000000000E+00  0.44322068509E+03  0.44322068509E+03  0.25500000920E-02 0.  1.
        2   -1    0    0  501    0  0.00000000000E+00  0.00000000000E+00 -0.14262092960E+04  0.14262092960E+04  0.25500000920E-02 0. -1.
    10030    2    1    2    0    0  0.00000000000E+00  0.00000000000E+00 -0.98298861092E+03  0.18694299811E+04  0.15901263613E+04 0.  0.
        2    1    3    3  502    0  0.12078746091E+03 -0.57151392715E+03  0.14260190923E+03  0.60129284393E+03  0.25500000920E-02 0.  1.
       -2    1    3    3    0  502 -0.12078746091E+03  0.57151392715E+03 -0.11255905201E+04  0.12681371372E+04  0.25500000920E-02 0. -1.
</event>
<event>
 5   0  0.7770905E-04  0.1593499E+04  0.7818609E-02  0.8824552E-01
        2   -1    0    0  501    0  0.00000000000E+00  0.00000000000E+00  0.52061925024E+03  0.52061925024E+03  0.25500000920E-02 0.  1.
       -2   -1    0    0    0  501  0.00000000000E+00  0.00000000000E+00 -0.12193358230E+04  0.12193358230E+04  0.25500000920E-02 0. -1.
    10030    2    1    2    0    0  0.00000000000E+00  0.00000000000E+00 -0.69871657275E+03  0.17399550732E+04  0.15934989199E+04 0.  0.
        2    1    3    3  502    0 -0.47209483592E+03  0.35817698292E+03 -0.93089099443E+03  0.11035045667E+04  0.25500000920E-02 0. -1.
       -2    1    3    3    0  502  0.47209483592E+03 -0.35817698292E+03  0.23217442168E+03  0.63645050654E+03  0.25500000920E-02 0.  1.
</event>
<event>
 5   0  0.7488884E-04  0.1617971E+04  0.7818609E-02  0.8809583E-01
       -2   -1    0    0    0  501  0.00000000000E+00  0.00000000000E+00  0.86244973854E+03  0.86244973854E+03  0.25500000920E-02 0. -1.
        2   -1    0    0  501    0  0.00000000000E+00  0.00000000000E+00 -0.75883517410E+03  0.75883517410E+03  0.25500000920E-02 0.  1.
    10030    2    1    2    0    0  0.00000000000E+00  0.00000000000E+00  0.10361456444E+03  0.16212849126E+04  0.16179705776E+04 0.  0.
        3    1    3    3  502    0  0.70531305642E+03 -0.25278516409E+03 -0.25392481189E+03  0.79110344901E+03  0.10100000352E+00 0.  1.
       -3    1    3    3    0  502 -0.70531305642E+03  0.25278516409E+03  0.35753937633E+03  0.83018146363E+03  0.10100000352E+00 0. -1.
</event>
<event>
 5   0  0.7553070E-04  0.1634674E+04  0.7818609E-02  0.8799525E-01
        2   -1    0    0  501    0  0.00000000000E+00  0.00000000000E+00  0.20187581254E+04  0.20187581254E+04  0.25500000920E-02 0.  1.
       -2   -1    0    0    0  501  0.00000000000E+00  0.00000000000E+00 -0.33091605273E+03  0.33091605274E+03  0.25500000920E-02 0. -1.
    10030    2    1    2    0    0  0.00000000000E+00  0.00000000000E+00  0.16878420727E+04  0.23496741782E+04  0.16346736314E+04 0.  0.
        4    1    3    3  502    0 -0.60997014698E+03 -0.57477818978E+02  0.16215387040E+04  0.17334233936E+04  0.12699999809E+01 0.  1.
       -4    1    3    3    0  502  0.60997014698E+03  0.57477818978E+02  0.66303368663E+02  0.61625078457E+03  0.12699999809E+01 0. -1.
</event>
<event>
 5   0  0.7395088E-04  0.1600631E+04  0.7818609E-02  0.8820160E-01
        2   -1    0    0  501    0  0.00000000000E+00  0.00000000000E+00  0.83565490692E+03  0.83565490692E+03  0.25500000920E-02 0. -1.
       -2   -1    0    0    0  501  0.00000000000E+00  0.00000000000E+00 -0.76647061677E+03  0.76647061677E+03  0.25500000920E-02 0.  1.
    10030    2    1    2    0    0  0.00000000000E+00  0.00000000000E+00  0.69184290150E+02  0.16021255237E+04  0.16006310405E+04 0.  0.
        1    1    3    3  502    0 -0.22301732085E+03 -0.10834010286E+03  0.79624324393E+03  0.83395300037E+03  0.50400001928E-02 0. -1.
       -1    1    3    3    0  502  0.22301732085E+03  0.10834010286E+03 -0.72705895378E+03  0.76817252332E+03  0.50400001928E-02 0.  1.
</event>
<event>
 5   0  0.3889847E-04  0.1599347E+04  0.7818609E-02  0.8820949E-01
       -1   -1    0    0    0  501  0.00000000000E+00  0.00000000000E+00  0.50585764989E+03  0.50585764991E+03  0.50400001928E-02 0. -1.
        1   -1    0    0  501    0  0.00000000000E+00  0.00000000000E+00 -0.12641450089E+04  0.12641450090E+04  0.50400001928E-02 0.  1.
    10030    2    1    2    0    0  0.00000000000E+00  0.00000000000E+00 -0.75828735905E+03  0.17700026589E+04  0.15993466458E+04 0.  0.
        1    1    3    3  502    0 -0.39786579713E+03 -0.43396347844E+03  0.21976185473E+03  0.62842403356E+03  0.50400001928E-02 0. -1.
       -1    1    3    3    0  502  0.39786579713E+03  0.43396347844E+03 -0.97804921379E+03  0.11415786253E+04  0.50400001928E-02 0.  1.
</event>
<event>
 5   0  0.3973227E-04  0.1629680E+04  0.7818609E-02  0.8802519E-01
       -1   -1    0    0    0  501  0.00000000000E+00  0.00000000000E+00  0.11108191087E+04  0.11108191087E+04  0.50400001928E-02 0. -1.
        1   -1    0    0  501    0  0.00000000000E+00  0.00000000000E+00 -0.59772508853E+03  0.59772508855E+03  0.50400001928E-02 0.  1.
    10030    2    1    2    0    0  0.00000000000E+00  0.00000000000E+00  0.51309402015E+03  0.17085441972E+04  0.16296802755E+04 0.  0.
        3    1    3    3  502    0  0.14141627254E+01  0.80977194274E+03  0.16142691188E+03  0.82570652001E+03  0.10100000352E+00 0. -1.
       -3    1    3    3    0  502 -0.14141627254E+01 -0.80977194274E+03  0.35166710826E+03  0.88283767723E+03  0.10100000352E+00 0.  1.
</event>
<event>
 5   0  0.3889847E-04  0.1598281E+04  0.7818609E-02  0.8821605E-01
       -1   -1    0    0    0  501  0.00000000000E+00  0.00000000000E+00  0.69628381177E+03  0.69628381179E+03  0.50400001928E-02 0.  1.
        1   -1    0    0  501    0  0.00000000000E+00  0.00000000000E+00 -0.91719142739E+03  0.91719142741E+03  0.50400001928E-02 0. -1.
    10030    2    1    2    0    0  0.00000000000E+00  0.00000000000E+00 -0.22090761562E+03  0.16134752392E+04  0.15982810056E+04 0.  0.
        1    1    3    3  502    0 -0.54757113215E+03 -0.84212752435E+02  0.47095505499E+03  0.72713451045E+03  0.50400001928E-02 0.  1.
       -1    1    3    3    0  502  0.54757113215E+03  0.84212752435E+02 -0.69186267061E+03  0.88634072875E+03  0.50400001928E-02 0. -1.
</event>
<event>
 5   0  0.7553070E-04  0.1591114E+04  0.7818609E-02  0.8826026E-01
       -2   -1    0    0    0  501  0.00000000000E+00  0.00000000000E+00  0.32069244562E+03  0.32069244563E+03  0.25500000920E-02 0. -1.
        2   -1    0    0  501    0  0.00000000000E+00  0.00000000000E+00 -0.19735752591E+04  0.19735752591E+04  0.25500000920E-02 0.  1.
    10030    2    1    2    0    0  0.00000000000E+00  0.00000000000E+00 -0.16528828135E+04  0.22942677048E+04  0.15911136684E+04 0.  0.
        4    1    3    3  502    0 -0.66028832524E+03  0.35972181944E+03 -0.45173875174E+03  0.87718297552E+03  0.12699999809E+01 0. -1.
       -4    1    3    3    0  502  0.66028832524E+03 -0.35972181944E+03 -0.12011440618E+04  0.14170847292E+04  0.12699999809E+01 0.  1.
</event>
<event>
 5   0  0.7770905E-04  0.1599805E+04  0.7818609E-02  0.8820668E-01
       -2   -1    0    0    0  501  0.00000000000E+00  0.00000000000E+00  0.39911810269E+03  0.39911810270E+03  0.25500000920E-02 0. -1.
        2   -1    0    0  501    0  0.00000000000E+00  0.00000000000E+00 -0.16031442516E+04  0.16031442516E+04  0.25500000920E-02 0.  1.
    10030    2    1    2    0    0  0.00000000000E+00  0.00000000000E+00 -0.12040261489E+04  0.20022623543E+04  0.15998048531E+04 0.  0.
        2    1    3    3  502    0  0.46852737362E+02 -0.61923309555E+02  0.39438977375E+03  0.40196140226E+03  0.25500000920E-02 0. -1.
       -2    1    3    3    0  502 -0.46852737362E+02  0.61923309555E+02 -0.15984159226E+04  0.16003009520E+04  0.25500000920E-02 0.  1.
</event>
<event>
 5   0  0.7770905E-04  0.1657683E+04  0.7818609E-02  0.8785874E-01
        2   -1    0    0  501    0  0.00000000000E+00  0.00000000000E+00  0.10587609465E+04  0.10587609465E+04  0.25500000920E-02 0. -1.
       -2   -1    0    0    0  501  0.00000000000E+00  0.00000000000E+00 -0.64885092222E+03  0.64885092223E+03  0.25500000920E-02 0.  1.
    10030    2    1    2    0    0  0.00000000000E+00  0.00000000000E+00  0.40991002425E+03  0.17076118687E+04  0.16576827399E+04 0.  0.
        2    1    3    3  502    0 -0.18933148699E+03 -0.78578231815E+03  0.39399744737E+03  0.89918532685E+03  0.25500000920E-02 0. -1.
       -2    1    3    3    0  502  0.18933148699E+03  0.78578231815E+03  0.15912576882E+02  0.80842654186E+03  0.25500000920E-02 0.  1.
</event>
<event>
 5   0  0.7395088E-04  0.1574787E+04  0.7818609E-02  0.8836189E-01
        2   -1    0    0  501    0  0.00000000000E+00  0.00000000000E+00  0.10452452724E+04  0.10452452724E+04  0.25500000920E-02 0.  1.
       -2   -1    0    0    0  501  0.00000000000E+00  0.00000000000E+00 -0.59315138352E+03  0.59315138352E+03  0.25500000920E-02 0. -1.
    10030    2    1    2    0    0  0.00000000000E+00  0.00000000000E+00  0.45209388891E+03  0.16383966560E+04  0.15747871976E+04 0.  0.
        1    1    3    3  502    0 -0.27205739391E+03 -0.25915242239E+03  0.94596051429E+03  0.10178489565E+04  0.50400001928E-02 0.  1.
       -1    1    3    3    0  502  0.27205739391E+03  0.25915242239E+03 -0.49386662538E+03  0.62054769946E+03  0.50400001928E-02 0. -1.
</event>
<event>
 5   0  0.7415102E-04  0.1585537E+04  0.7818609E-02  0.8829483E-01
       -2   -1    0    0    0  501  0.00000000000E+00  0.00000000000E+00  0.10066374507E+04  0.10066374507E+04  0.25500000920E-02 0.  1.
        2   -1    0    0  501    0  0.00000000000E+00  0.00000000000E+00 -0.62433776612E+03  0.62433776612E+03  0.25500000920E-02 0. -1.
    10030    2    1    2    0    0  0.00000000000E+00  0.00000000000E+00  0.38229968456E+03  0.16309752168E+04  0.15855368520E+04 0.  0.
        5    1    3    3  502    0  0.12974401394E+02  0.37148284645E+03  0.91142486853E+03  0.98431967433E+03  0.46999998093E+01 0.  1.
       -5    1    3    3    0  502 -0.12974401394E+02 -0.37148284645E+03 -0.52912518397E+03  0.64665554247E+03  0.46999998093E+01 0. -1.
</event>
<event>
 5   0  0.3950195E-04  0.1580078E+04  0.7818609E-02  0.8832881E-01
       -1   -1    0    0    0  501  0.00000000000E+00  0.00000000000E+00  0.40142111886E+03  0.40142111889E+03  0.50400001928E-02 0. -1.
        1   -1    0    0  501    0  0.00000000000E+00  0.00000000000E+00 -0.15548798108E+04  0.15548798108E+04  0.50400001928E-02 0.  1.
    10030    2    1    2    0    0  0.00000000000E+00  0.00000000000E+00 -0.11534586920E+04  0.19563009297E+04  0.15800779644E+04 0.  0.
        2    1    3    3  502    0 -0.53060775025E+02 -0.26450962662E+02  0.39866289843E+03  0.40304739902E+03  0.25500000920E-02 0. -1.
       -2    1    3    3    0  502  0.53060775025E+02  0.26450962662E+02 -0.15521215904E+04  0.15532535307E+04  0.25500000920E-02 0.  1.
</event>
<event>
 5   0  0.3973227E-04  0.1612008E+04  0.7818609E-02  0.8813205E-01
        1   -1    0    0  501    0  0.00000000000E+00  0.00000000000E+00  0.16323487472E+04  0.16323487472E+04  0.50400001928E-02 0.  1.
       -1   -1    0    0    0  501  0.00000000000E+00  0.00000000000E+00 -0.39797999116E+03  0.39797999119E+03  0.50400001928E-02 0. -1.
    10030    2    1    2    0    0  0.00000000000E+00  0.00000000000E+00  0.12343687560E+04  0.20303287384E+04  0.16120076179E+04 0.  0.
        3    1    3    3  502    0 -0.73095691426E+02  0.64837535617E+03  0.21200367740E+02  0.65282696665E+03  0.10100000352E+00 0. -1.
       -3    1    3    3    0  502  0.73095691426E+02 -0.64837535617E+03  0.12131683883E+04  0.13775017717E+04  0.10100000352E+00 0.  1.
</event>
<event>
 5   0  0.3889847E-04  0.1596262E+04  0.7818609E-02  0.8822848E-01
       -1   -1    0    0    0  501  0.00000000000E+00  0.00000000000E+00  0.27706336853E+03  0.27706336857E+03  0.50400001928E-02 0.  1.
        1   -1    0    0  501    0  0.00000000000E+00  0.00000000000E+00 -0.22991603770E+04  0.22991603770E+04  0.50400001928E-02 0. -1.
    10030    2    1    2    0    0  0.00000000000E+00  0.00000000000E+00 -0.20220970085E+04  0.25762237456E+04  0.15962620323E+04 0.  0.
        1    1    3    3  502    0  0.64328534411E+03 -0.13507351273E+03 -0.28040467595E+03  0.71462414605E+03  0.50400001928E-02 0. -1.
       -1    1    3    3    0  502 -0.64328534411E+03  0.13507351273E+03 -0.17416923325E+04  0.18615995996E+04  0.50400001928E-02 0.  1.
</event>
<event>
 5   0  0.3950195E-04  0.1599070E+04  0.7818609E-02  0.8821119E-01
        1   -1    0    0  501    0  0.00000000000E+00  0.00000000000E+00  0.56236072304E+03  0.56236072306E+03  0.50400001928E-02 0. -1.
       -1   -1    0    0    0  501  0.00000000000E+00  0.00000000000E+00 -0.11367375689E+04  0.11367375689E+04  0.50400001928E-02 0.  1.
    10030    2    1    2    0    0  0.00000000000E+00  0.00000000000E+00 -0.57437684587E+03  0.16990982920E+04  0.15990704315E+04 0.  0.
        2    1    3    3  502    0 -0.54649150260E+03 -0.43188899881E+03  0.12988996994E+03  0.70855661313E+03  0.25500000920E-02 0. -1.
       -2    1    3    3    0  502  0.54649150260E+03  0.43188899881E+03 -0.70426681581E+03  0.99054167887E+03  0.25500000920E-02 0.  1.
</event>
<event>
 5   0  0.7488884E-04  0.1669468E+04  0.7818609E-02  0.8778972E-01
        2   -1    0    0  501    0  0.00000000000E+00  0.00000000000E+00  0.15023300721E+04  0.15023300721E+04  0.25500000920E-02 0.  1.
       -2   -1    0    0    0  501  0.00000000000E+00  0.00000000000E+00 -0.46379998814E+03  0.46379998815E+03  0.25500000920E-02 0. -1.
    10030    2    1    2    0    0  0.00000000000E+00  0.00000000000E+00  0.10385300840E+04  0.19661300603E+04  0.16694677830E+04 0.  0.
        3    1    3    3  502    0  0.12212441516E+03  0.17837328442E+03 -0.43026199212E+03  0.48151510198E+03  0.10100000352E+00 0. -1.
       -3    1    3    3    0  502 -0.12212441516E+03 -0.17837328442E+03  0.14687920761E+04  0.14846149583E+04  0.10100000352E+00 0.  1.
</event>
<event>
 5   0  0.3950195E-04  0.1617632E+04  0.7818609E-02  0.8809789E-01
       -1   -1    0    0    0  501  0.00000000000E+00  0.00000000000E+00  0.46002895584E+03  0.46002895587E+03  0.50400001928E-02 0.  1.
        1   -1    0    0  501    0  0.00000000000E+00  0.00000000000E+00 -0.14220480784E+04  0.14220480784E+04  0.50400001928E-02 0. -1.
    10030    2    1    2    0    0  0.00000000000E+00  0.00000000000E+00 -0.96201912253E+03  0.18820770342E+04  0.16176319639E+04 0.  0.
        2    1    3    3  502    0  0.17878129848E+03  0.78143628677E+03 -0.35581887952E+03  0.87704760304E+03  0.25500000920E-02 0.  1.
       -2    1    3    3    0  502 -0.17878129848E+03 -0.78143628677E+03 -0.60620024301E+03  0.10050294312E+04  0.25500000920E-02 0. -1.
</event>
<event>
 5   0  0.7415102E-04  0.1610151E+04  0.7818609E-02  0.8814336E-01
       -2   -1    0    0    0  501  0.00000000000E+00  0.00000000000E+00  0.95252297763E+03  0.95252297764E+03  0.25500000920E-02 0. -1.
        2   -1    0    0  501    0  0.00000000000E+00  0.00000000000E+00 -0.68045228092E+03  0.68045228092E+03  0.25500000920E-02 0.  1.
    10030    2    1    2    0    0  0.00000000000E+00  0.00000000000E+00  0.27207069672E+03  0.16329752586E+04  0.16101508411E+04 0.  0.
        5    1    3    3  502    0  0.20532715262E+03  0.16333081092E+03  0.90793414443E+03  0.94509401333E+03  0.46999998093E+01 0. -1.
       -5    1    3    3    0  502 -0.20532715262E+03 -0.16333081092E+03 -0.63586344771E+03  0.68788124523E+03  0.46999998093E+01 0.  1.
</event>
<event>
 5   0  0.7395088E-04  0.1575224E+04  0.7818609E-02  0.8835915E-01
        2   -1    0    0  501    0  0.00000000000E+00  0.00000000000E+00  0.56267905699E+03  0.56267905700E+03  0.25500000920E-02 0.  1.
       -2   -1    0    0    0  501  0.00000000000E+00  0.00000000000E+00 -0.11024621118E+04  0.11024621118E+04  0.25500000920E-02 0. -1.
    10030    2    1    2    0    0  0.00000000000E+00  0.00000000000E+00 -0.53978305482E+03  0.16651411688E+04  0.15752235923E+04 0.  0.
        1    1    3    3  502    0  0.34034017680E+02 -0.97790966776E+02  0.55545291604E+03  0.56502153013E+03  0.50400001928E-02 0.  1.
       -1    1    3    3    0  502 -0.34034017680E+02  0.97790966776E+02 -0.10952359709E+04  0.11001196387E+04  0.50400001928E-02 0. -1.
</event>
<event>
 5   0  0.4110803E-04  0.1578606E+04  0.7818609E-02  0.8833800E-01
        1   -1    0    0  501    0  0.00000000000E+00  0.00000000000E+00  0.82171661845E+03  0.82171661847E+03  0.50400001928E-02 0.  1.
       -1   -1    0    0    0  501  0.00000000000E+00  0.00000000000E+00 -0.75816799577E+03  0.75816799579E+03  0.50400001928E-02 0. -1.
    10030    2    1    2    0    0  0.00000000000E+00  0.00000000000E+00  0.63548622678E+02  0.15798846143E+04  0.15786060202E+04 0.  0.
        5    1    3    3  502    0 -0.14949827411E+03  0.36720269762E+03 -0.65126627020E+03  0.76246796641E+03  0.46999998093E+01 0. -1.
       -5    1    3    3    0  502  0.14949827411E+03 -0.36720269762E+03  0.71481489288E+03  0.81741664785E+03  0.46999998093E+01 0.  1.
</event>
<event>
 5   0  0.3973227E-04  0.1589596E+04  0.7818609E-02  0.8826965E-01
       -1   -1    0    0    0  501  0.00000000000E+00  0.00000000000E+00  0.67875117490E+03  0.67875117492E+03  0.50400001928E-02 0.  1.
        1   -1    0    0  501    0  0.00000000000E+00  0.00000000000E+00 -0.93068512774E+03  0.93068512776E+03  0.50400001928E-02 0. -1.
    10030    2    1    2    0    0  0.00000000000E+00  0.00000000000E+00 -0.25193395284E+03  0.16094363027E+04  0.15895957020E+04 0.  0.
        3    1    3    3  502    0 -0.72911095236E+03  0.22870522698E+03  0.95381847946E+02  0.77006919742E+03  0.10100000352E+00 0. -1.
       -3    1    3    3    0  502  0.72911095236E+03 -0.22870522698E+03 -0.34731580079E+03  0.83936710525E+03  0.10100000352E+00 0.  1.
</event>
<event>
 5   0  0.3837251E-04  0.1588143E+04  0.7818609E-02  0.8827866E-01
        1   -1    0    0  501    0  0.00000000000E+00  0.00000000000E+00  0.15474075420E+04  0.15474075420E+04  0.50400001928E-02 0.  1.
       -1   -1    0    0    0  501  0.00000000000E+00  0.00000000000E+00 -0.40748750134E+03  0.40748750137E+03  0.50400001928E-02 0. -1.
    10030    2    1    2    0    0  0.00000000000E+00  0.00000000000E+00  0.11399200406E+04  0.19548950433E+04  0.15881426043E+04 0.  0.
        4    1    3    3  502    0  0.53795494259E+03  0.29889722360E+03  0.11876529552E+04  0.13376308256E+04  0.12699999809E+01 0.  1.
       -4    1    3    3    0  502 -0.53795494259E+03 -0.29889722360E+03 -0.47732914597E+02  0.61726421779E+03  0.12699999809E+01 0. -1.
</event>
<event>
 5   0  0.4110803E-04  0.1597668E+04  0.7818609E-02  0.8821982E-01
        1   -1    0    0  501    0  0.00000000000E+00  0.00000000000E+00  0.83666898866E+03  0.83666898868E+03  0.50400001928E-02 0.  1.
       -1   -1    0    0    0  501  0.00000000000E+00  0.00000000000E+00 -0.76271013145E+03  0.76271013147E+03  0.50400001928E-02 0. -1.
    10030    2    1    2    0    0  0.00000000000E+00  0.00000000000E+00  0.73958857211E+02  0.15993791201E+04  0.15976681938E+04 0.  0.
        5    1    3    3  502    0 -0.45396515355E+03 -0.65576623566E+03 -0.77910299376E+01  0.79761927423E+03  0.46999998093E+01 0.  1.
       -5    1    3    3    0  502  0.45396515355E+03  0.65576623566E+03  0.81749887148E+02  0.80175984592E+03  0.46999998093E+01 0. -1.
</event>
<event>
 5   0  0.7770905E-04  0.1603917E+04  0.7818609E-02  0.8818145E-01
        2   -1    0    0  501    0  0.00000000000E+00  0.00000000000E+00  0.17389755288E+04  0.17389755288E+04  0.25500000920E-02 0. -1.
       -2   -1    0    0    0  501  0.00000000000E+00  0.00000000000E+00 -0.36983691665E+03  0.36983691666E+03  0.25500000920E-02 0.  1.
    10030    2    1    2    0    0  0.00000000000E+00  0.00000000000E+00  0.13691386121E+04  0.21088124454E+04  0.16039168902E+04 0.  0.
        2    1    3    3  502    0  0.39627304469E+03  0.52182866143E+03  0.12925080382E+04  0.14491081763E+04  0.25500000920E-02 0. -1.
       -2    1    3    3    0  502 -0.39627304469E+03 -0.52182866143E+03  0.76630573922E+02  0.65970426912E+03  0.25500000920E-02 0.  1.
</event>
<event>
 5   0  0.3950195E-04  0.1596753E+04  0.7818609E-02  0.8822546E-01
       -1   -1    0    0    0  501  0.00000000000E+00  0.00000000000E+00  0.92028634436E+03  0.92028634437E+03  0.50400001928E-02 0.  1.
        1   -1    0    0  501    0  0.00000000000E+00  0.00000000000E+00 -0.69261558243E+03  0.69261558245E+03  0.50400001928E-02 0. -1.
    10030    2    1    2    0    0  0.00000000000E+00  0.00000000000E+00  0.22767076192E+03  0.16129019268E+04  0.15967525324E+04 0.  0.
        2    1    3    3  502    0  0.96111007364E+02 -0.52335396775E+03  0.71505934967E+03  0.89131732557E+03  0.25500000920E-02 0.  1.
       -2    1    3    3    0  502 -0.96111007364E+02  0.52335396775E+03 -0.48738858775E+03  0.72158460125E+03  0.25500000920E-02 0. -1.
</event>
<event>
 5   0  0.7415102E-04  0.1546788E+04  0.7818609E-02  0.8853922E-01
        2   -1    0    0  501    0  0.00000000000E+00  0.00000000000E+00  0.23255521116E+04  0.23255521116E+04  0.25500000920E-02 0.  1.
       -2   -1    0    0    0  501  0.00000000000E+00  0.00000000000E+00 -0.25720263198E+03  0.25720263199E+03  0.25500000920E-02 0. -1.
    10030    2    1    2    0    0  0.00000000000E+00  0.00000000000E+00  0.20683494797E+04  0.25827547436E+04  0.15467877992E+04 0.  0.
        5    1    3    3  502    0 -0.32892923883E+02  0.10366495848E+03  0.23126955725E+04  0.23152561995E+04  0.46999998093E+01 0.  1.
       -5    1    3    3    0  502  0.32892923883E+02 -0.10366495848E+03 -0.24434609283E+03  0.26749854418E+03  0.46999998093E+01 0. -1.
</event>
<event>
 5   0  0.3889847E-04  0.1596444E+04  0.7818609E-02  0.8822736E-01
       -1   -1    0    0    0  501  0.00000000000E+00  0.00000000000E+00  0.39777756010E+03  0.39777756013E+03  0.50400001928E-02 0.  1.
        1   -1    0    0  501    0  0.00000000000E+00  0.00000000000E+00 -0.16017955233E+04  0.16017955233E+04  0.50400001928E-02 0. -1.
    10030    2    1    2    0    0  0.00000000000E+00  0.00000000000E+00 -0.12040179632E+04  0.19995730835E+04  0.15964439421E+04 0.  0.
        1    1    3    3  502    0 -0.82441999925E+02 -0.28084705791E+03  0.32813691812E+03  0.43971080308E+03  0.50400001928E-02 0.  1.
       -1    1    3    3    0  502  0.82441999925E+02  0.28084705791E+03 -0.15321548813E+04  0.15598622804E+04  0.50400001928E-02 0. -1.
</event>
<event>
 5   0  0.7488884E-04  0.1703073E+04  0.7818609E-02  0.8759614E-01
       -2   -1    0    0    0  501  0.00000000000E+00  0.00000000000E+00  0.57684025574E+03  0.57684025575E+03  0.25500000920E-02 0.  1.
        2   -1    0    0  501    0  0.00000000000E+00  0.00000000000E+00 -0.12570450387E+04  0.12570450387E+04  0.25500000920E-02 0. -1.
    10030    2    1    2    0    0  0.00000000000E+00  0.00000000000E+00 -0.68020478292E+03  0.18338852944E+04  0.17030727308E+04 0.  0.
        3    1    3    3  502    0 -0.36395439142E+03  0.76161614831E+03 -0.46093663776E+03  0.96176117131E+03  0.10100000352E+00 0.  1.
       -3    1    3    3    0  502  0.36395439142E+03 -0.76161614831E+03 -0.21926814516E+03  0.87212412310E+03  0.10100000352E+00 0. -1.
</event>
<event>
 5   0  0.7415102E-04  0.1608102E+04  0.7818609E-02  0.8815586E-01
        2   -1    0    0  501    0  0.00000000000E+00  0.00000000000E+00  0.14998884110E+04  0.14998884110E+04  0.25500000920E-02 0. -1.
       -2   -1    0    0    0  501  0.00000000000E+00  0.00000000000E+00 -0.43103096895E+03  0.43103096895E+03  0.25500000920E-02 0.  1.
    10030    2    1    2    0    0  0.00000000000E+00  0.00000000000E+00  0.10688574420E+04  0.19309193799E+04  0.16081024285E+04 0.  0.
        5    1    3    3  502    0 -0.17998898855E+03 -0.73104777337E+03  0.19555207559E+03  0.77787504601E+03  0.46999998093E+01 0.  1.
       -5    1    3    3    0  502  0.17998898855E+03  0.73104777337E+03  0.87330536645E+03  0.11530443339E+04  0.46999998093E+01 0. -1.
</event>
<event>
 5   0  0.7415102E-04  0.1598720E+04  0.7818609E-02  0.8821335E-01
        2   -1    0    0  501    0  0.00000000000E+00  0.00000000000E+00  0.14088477814E+04  0.14088477814E+04  0.25500000920E-02 0. -1.
       -2   -1    0    0    0  501  0.00000000000E+00  0.00000000000E+00 -0.45354530845E+03  0.45354530846E+03  0.25500000920E-02 0.  1.
    10030    2    1    2    0    0  0.00000000000E+00  0.00000000000E+00  0.95530247292E+03  0.18623930898E+04  0.15987198648E+04 0.  0.
        5    1    3    3  502    0 -0.90678881116E+02 -0.74127236679E+02 -0.44347937042E+03  0.45870856617E+03  0.46999998093E+01 0.  1.
       -5    1    3    3    0  502  0.90678881116E+02  0.74127236679E+02  0.13987818433E+04  0.14036845237E+04  0.46999998093E+01 0. -1.
</event>
<event>
 5   0  0.7488884E-04  0.1624852E+04  0.7818609E-02  0.8805424E-01
        2   -1    0    0  501    0  0.00000000000E+00  0.00000000000E+00  0.58196116045E+03  0.58196116046E+03  0.25500000920E-02 0. -1.
       -2   -1    0    0    0  501  0.00000000000E+00  0.00000000000E+00 -0.11341581314E+04  0.11341581314E+04  0.25500000920E-02 0.  1.
    10030    2    1    2    0    0  0.00000000000E+00  0.00000000000E+00 -0.55219697095E+03  0.17161192919E+04  0.16248519715E+04 0.  0.
        3    1    3    3  502    0  0.31024104737E+03  0.26754043089E+03 -0.10170815171E+04  0.10964863028E+04  0.10100000352E+00 0.  1.
       -3    1    3    3    0  502 -0.31024104737E+03 -0.26754043089E+03  0.46488454617E+03  0.61963298904E+03  0.10100000352E+00 0. -1.
</event>
<event>
 5   0  0.3889847E-04  0.1610401E+04  0.7818609E-02  0.8814184E-01
        1   -1    0    0  501    0  0.00000000000E+00  0.00000000000E+00  0.14005911775E+04  0.14005911775E+04  0.50400001928E-02 0. -1.
       -1   -1    0    0    0  501  0.00000000000E+00  0.00000000000E+00 -0.46290997162E+03  0.46290997164E+03  0.50400001928E-02 0.  1.
    10030    2    1    2    0    0  0.00000000000E+00  0.00000000000E+00  0.93768120591E+03  0.18635011492E+04  0.16104007231E+04 0.  0.
        1    1    3    3  502    0 -0.26822992352E+02 -0.21878591031E+02 -0.46204863650E+03  0.46334338042E+03  0.50400001928E-02 0.  1.
       -1    1    3    3    0  502  0.26822992352E+02  0.21878591031E+02  0.13997298424E+04  0.14001577688E+04  0.50400001928E-02 0. -1.
</event>
<event>
 5   0  0.3837251E-04  0.1631983E+04  0.7818609E-02  0.8801137E-01
        1   -1    0    0  501    0  0.00000000000E+00  0.00000000000E+00  0.99741771750E+03  0.99741771751E+03  0.50400001928E-02 0.  1.
       -1   -1    0    0    0  501  0.00000000000E+00  0.00000000000E+00 -0.66756587804E+03  0.66756587806E+03  0.50400001928E-02 0. -1.
    10030    2    1    2    0    0  0.00000000000E+00  0.00000000000E+00  0.32985183945E+03  0.16649835956E+04  0.16319828852E+04 0.  0.
        4    1    3    3  502    0 -0.75455428988E+03  0.23619714312E+02  0.48091522422E+03  0.89509280696E+03  0.12699999809E+01 0.  1.
       -4    1    3    3    0  502  0.75455428988E+03 -0.23619714312E+02 -0.15106338477E+03  0.76989078862E+03  0.12699999809E+01 0. -1.
</event>
<event>
 5   0  0.4110803E-04  0.1200263E+04  0.7818609E-02  0.9112627E-01
        1   -1    0    0  501    0  0.00000000000E+00  0.00000000000E+00  0.43827641646E+03  0.43827641649E+03  0.50400001928E-02 0.  1.
       -1   -1    0    0    0  501  0.00000000000E+00  0.00000000000E+00 -0.82175887116E+03  0.82175887117E+03  0.50400001928E-02 0. -1.
    10030    2    1    2    0    0  0.00000000000E+00  0.00000000000E+00 -0.38348245470E+03  0.12600352877E+04  0.12002625267E+04 0.  0.
        5    1    3    3  502    0  0.53272001659E+03 -0.25981459131E+03 -0.93030989284E+02  0.59997591026E+03  0.46999998093E+01 0.  1.
       -5    1    3    3    0  502 -0.53272001659E+03  0.25981459131E+03 -0.29045146541E+03  0.66005937740E+03  0.46999998093E+01 0. -1.
</event>
<event>
 5   0  0.7770905E-04  0.1677957E+04  0.7818609E-02  0.8774037E-01
       -2   -1    0    0    0  501  0.00000000000E+00  0.00000000000E+00  0.69272383886E+03  0.69272383886E+03  0.25500000920E-02 0.  1.
        2   -1    0    0  501    0  0.00000000000E+00  0.00000000000E+00 -0.10161123723E+04  0.10161123723E+04  0.25500000920E-02 0. -1.
    10030    2    1    2    0    0  0.00000000000E+00  0.00000000000E+00 -0.32338853342E+03  0.17088362111E+04  0.16779574050E+04 0.  0.
        2    1    3    3  502    0  0.21137953281E+03  0.77695901429E+03  0.78308999428E+02  0.80899871210E+03  0.25500000920E-02 0.  1.
       -2    1    3    3    0  502 -0.21137953281E+03 -0.77695901429E+03 -0.40169753284E+03  0.89983749904E+03  0.25500000920E-02 0. -1.
</event>
<event>
 5   0  0.3973227E-04  0.1678485E+04  0.7818609E-02  0.8773731E-01
       -1   -1    0    0    0  501  0.00000000000E+00  0.00000000000E+00  0.11497563753E+04  0.11497563753E+04  0.50400001928E-02 0.  1.
        1   -1    0    0  501    0  0.00000000000E+00  0.00000000000E+00 -0.61258919653E+03  0.61258919656E+03  0.50400001928E-02 0. -1.
    10030    2    1    2    0    0  0.00000000000E+00  0.00000000000E+00  0.53716717876E+03  0.17623455719E+04  0.16784854294E+04 0.  0.
        3    1    3    3  502    0  0.37873178280E+03  0.73266302941E+03  0.10560108725E+03  0.83149532638E+03  0.10100000352E+00 0. -1.
       -3    1    3    3    0  502 -0.37873178280E+03 -0.73266302941E+03  0.43156609151E+03  0.93085024548E+03  0.10100000352E+00 0.  1.
</event>
<event>
 5   0  0.3837251E-04  0.1546734E+04  0.7818609E-02  0.8853956E-01
        1   -1    0    0  501    0  0.00000000000E+00  0.00000000000E+00  0.79853328707E+03  0.79853328709E+03  0.50400001928E-02 0.  1.
       -1   -1    0    0    0  501  0.00000000000E+00  0.00000000000E+00 -0.74899399116E+03  0.74899399118E+03  0.50400001928E-02 0. -1.
    10030    2    1    2    0    0  0.00000000000E+00  0.00000000000E+00  0.49539295914E+02  0.15475272783E+04  0.15467341514E+04 0.  0.
        4    1    3    3  502    0  0.45679995719E+03 -0.57925161654E+03 -0.20750534502E+03  0.76632807417E+03  0.12699999809E+01 0.  1.
       -4    1    3    3    0  502 -0.45679995719E+03  0.57925161654E+03  0.25704464094E+03  0.78119920410E+03  0.12699999809E+01 0. -1.
</event>
<event>
 5   0  0.7553070E-04  0.1592567E+04  0.7818609E-02  0.8825127E-01
        2   -1    0    0  501    0  0.00000000000E+00  0.00000000000E+00  0.20766053190E+04  0.20766053190E+04  0.25500000920E-02 0. -1.
       -2   -1    0    0    0  501  0.00000000000E+00  0.00000000000E+00 -0.30533860375E+03  0.30533860376E+03  0.25500000920E-02 0.  1.
    10030    2    1    2    0    0  0.00000000000E+00  0.00000000000E+00  0.17712667153E+04  0.23819439228E+04  0.15925674474E+04 0.  0.
        4    1    3    3  502    0  0.42808633692E+03  0.24648956829E+02  0.18891781655E+04  0.19372303004E+04  0.12699999809E+01 0. -1.
       -4    1    3    3    0  502 -0.42808633692E+03 -0.24648956829E+02 -0.11791145022E+03  0.44471362237E+03  0.12699999809E+01 0.  1.
</event>
<event>
 5   0  0.3837251E-04  0.1631492E+04  0.7818609E-02  0.8801431E-01
       -1   -1    0    0    0  501  0.00000000000E+00  0.00000000000E+00  0.14076533396E+04  0.14076533396E+04  0.50400001928E-02 0. -1.
        1   -1    0    0  501    0  0.00000000000E+00  0.00000000000E+00 -0.47273125085E+03  0.47273125088E+03  0.50400001928E-02 0.  1.
    10030    2    1    2    0    0  0.00000000000E+00  0.00000000000E+00  0.93492208876E+03  0.18803845905E+04  0.16314922299E+04 0.  0.
        4    1    3    3  502    0  0.53965211022E+03 -0.60283538133E+03  0.34765510135E+03  0.88062510720E+03  0.12699999809E+01 0.  1.
       -4    1    3    3    0  502 -0.53965211022E+03  0.60283538133E+03  0.58726698741E+03  0.99975948330E+03  0.12699999809E+01 0. -1.
</event>
<event>
 5   0  0.3837251E-04  0.1616630E+04  0.7818609E-02  0.8810396E-01
        1   -1    0    0  501    0  0.00000000000E+00  0.00000000000E+00  0.69815987822E+03  0.69815987824E+03  0.50400001928E-02 0. -1.
       -1   -1    0    0    0  501  0.00000000000E+00  0.00000000000E+00 -0.93585084049E+03  0.93585084050E+03  0.50400001928E-02 0.  1.
    10030    2    1    2    0    0  0.00000000000E+00  0.00000000000E+00 -0.23769096227E+03  0.16340107187E+04  0.16166304573E+04 0.  0.
        4    1    3    3  502    0  0.30668207811E+03 -0.36750061289E+03 -0.77720156439E+03  0.91277296307E+03  0.12699999809E+01 0.  1.
       -4    1    3    3    0  502 -0.30668207811E+03  0.36750061289E+03  0.53951060212E+03  0.72123775568E+03  0.12699999809E+01 0. -1.
</event>
<event>
 5   0  0.3889847E-04  0.1597514E+04  0.7818609E-02  0.8822076E-01
        1   -1    0    0  501    0  0.00000000000E+00  0.00000000000E+00  0.57422375194E+03  0.57422375196E+03  0.50400001928E-02 0. -1.
       -1   -1    0    0    0  501  0.00000000000E+00  0.00000000000E+00 -0.11110879416E+04  0.11110879416E+04  0.50400001928E-02 0.  1.
    10030    2    1    2    0    0  0.00000000000E+00  0.00000000000E+00 -0.53686418966E+03  0.16853116936E+04  0.15975144276E+04 0.  0.
        1    1    3    3  502    0 -0.43580786187E+02 -0.63899791221E+03  0.23507777330E+03  0.68226034346E+03  0.50400001928E-02 0. -1.
       -1    1    3    3    0  502  0.43580786187E+02  0.63899791221E+03 -0.77194196296E+03  0.10030513501E+04  0.50400001928E-02 0.  1.
</event>
<event>
 5   0  0.7395088E-04  0.1559706E+04  0.7818609E-02  0.8845692E-01
        2   -1    0    0  501    0  0.00000000000E+00  0.00000000000E+00  0.88424577759E+03  0.88424577759E+03  0.25500000920E-02 0. -1.
       -2   -1    0    0    0  501  0.00000000000E+00  0.00000000000E+00 -0.68778506610E+03  0.68778506610E+03  0.25500000920E-02 0.  1.
    10030    2    1    2    0    0  0.00000000000E+00  0.00000000000E+00  0.19646071149E+03  0.15720308437E+04  0.15597064347E+04 0.  0.
        1    1    3    3  502    0 -0.40175776685E+03  0.65488348846E+03 -0.36577601102E+02  0.76916812701E+03  0.50400001928E-02 0.  1.
       -1    1    3    3    0  502  0.40175776685E+03 -0.65488348846E+03  0.23303831259E+03  0.80286271669E+03  0.50400001928E-02 0. -1.
</event>
<event>
 5   0  0.3973227E-04  0.1484915E+04  0.7818609E-02  0.8894547E-01
        1   -1    0    0  501    0  0.00000000000E+00  0.00000000000E+00  0.74936736700E+03  0.74936736702E+03  0.50400001928E-02 0. -1.
       -1   -1    0    0    0  501  0.00000000000E+00  0.00000000000E+00 -0.73561143256E+03  0.73561143258E+03  0.50400001928E-02 0.  1.
    10030    2    1    2    0    0  0.00000000000E+00  0.00000000000E+00  0.13755934439E+02  0.14849787996E+04  0.14849150850E+04 0.  0.
        3    1    3    3  502    0 -0.23267988608E+03  0.39644152869E+03  0.58994447266E+03  0.74789057093E+03  0.10100000352E+00 0. -1.
       -3    1    3    3    0  502  0.23267988608E+03 -0.39644152869E+03 -0.57618853822E+03  0.73708822867E+03  0.10100000352E+00 0.  1.
</event>
<event>
 5   0  0.7770905E-04  0.1567074E+04  0.7818609E-02  0.8841035E-01
       -2   -1    0    0    0  501  0.00000000000E+00  0.00000000000E+00  0.49241192666E+03  0.49241192667E+03  0.25500000920E-02 0. -1.
        2   -1    0    0  501    0  0.00000000000E+00  0.00000000000E+00 -0.12467814538E+04  0.12467814538E+04  0.25500000920E-02 0.  1.
    10030    2    1    2    0    0  0.00000000000E+00  0.00000000000E+00 -0.75436952717E+03  0.17391933805E+04  0.15670737798E+04 0.  0.
        2    1    3    3  502    0 -0.55763894593E+03 -0.33031953725E+03  0.11146775868E+03  0.65764523258E+03  0.25500000920E-02 0. -1.
       -2    1    3    3    0  502  0.55763894593E+03  0.33031953725E+03 -0.86583728585E+03  0.10815481479E+04  0.25500000920E-02 0.  1.
</event>
<event>
 5   0  0.7488884E-04  0.1587837E+04  0.7818609E-02  0.8828055E-01
       -2   -1    0    0    0  501  0.00000000000E+00  0.00000000000E+00  0.66840096186E+03  0.66840096186E+03  0.25500000920E-02 0. -1.
        2   -1    0    0  501    0  0.00000000000E+00  0.00000000000E+00 -0.94300622071E+03  0.94300622072E+03  0.25500000920E-02 0.  1.
    10030    2    1    2    0    0  0.00000000000E+00  0.00000000000E+00 -0.27460525886E+03  0.16114071826E+04  0.15878365973E+04 0.  0.
        3    1    3    3  502    0  0.79207906323E+03  0.53930491540E+02 -0.13434136179E+03  0.80519895182E+03  0.10100000352E+00 0.  1.
       -3    1    3    3    0  502 -0.79207906323E+03 -0.53930491540E+02 -0.14026389706E+03  0.80620823076E+03  0.10100000352E+00 0. -1.
</event>
<event>
 5   0  0.2781000E-04  0.1525269E+04  0.7818609E-02  0.8867821E-01
        3   -1    0    0  501    0  0.00000000000E+00  0.00000000000E+00  0.51869189956E+03  0.51869190939E+03  0.10100000352E+00 0. -1.
       -3   -1    0    0    0  501  0.00000000000E+00  0.00000000000E+00 -0.11213044284E+04  0.11213044330E+04  0.10100000352E+00 0.  1.
    10030    2    1    2    0    0  0.00000000000E+00  0.00000000000E+00 -0.60261252886E+03  0.16399963424E+04  0.15252692035E+04 0.  0.
        3    1    3    3  502    0  0.67692542434E+02 -0.50053860895E+03 -0.91567845625E+03  0.10457476870E+04  0.10100000352E+00 0.  1.
       -3    1    3    3    0  502 -0.67692542434E+02  0.50053860895E+03  0.31306592739E+03  0.59424865540E+03  0.10100000352E+00 0. -1.
</event>
<event>
 5   0  0.4110803E-04  0.1581793E+04  0.7818609E-02  0.8831812E-01
        1   -1    0    0  501    0  0.00000000000E+00  0.00000000000E+00  0.11260188156E+04  0.11260188156E+04  0.50400001928E-02 0.  1.
       -1   -1    0    0    0  501  0.00000000000E+00  0.00000000000E+00 -0.55551210922E+03  0.55551210924E+03  0.50400001928E-02 0. -1.
    10030    2    1    2    0    0  0.00000000000E+00  0.00000000000E+00  0.57050670634E+03  0.16815309248E+04  0.15817927643E+04 0.  0.
        5    1    3    3  502    0  0.81468897554E+02  0.69844003942E+03 -0.99565288024E+02  0.71020490459E+03  0.46999998093E+01 0. -1.
       -5    1    3    3    0  502 -0.81468897554E+02 -0.69844003942E+03  0.67007199436E+03  0.97132602022E+03  0.46999998093E+01 0.  1.
</event>
<event>
 5   0  0.7553070E-04  0.1561309E+04  0.7818609E-02  0.8844676E-01
        2   -1    0    0  501    0  0.00000000000E+00  0.00000000000E+00  0.82237062586E+03  0.82237062586E+03  0.25500000920E-02 0.  1.
       -2   -1    0    0    0  501  0.00000000000E+00  0.00000000000E+00 -0.74105494993E+03  0.74105494993E+03  0.25500000920E-02 0. -1.
    10030    2    1    2    0    0  0.00000000000E+00  0.00000000000E+00  0.81315675933E+02  0.15634255758E+04  0.15613094799E+04 0.  0.
        4    1    3    3  502    0 -0.10534607312E+03  0.32982241716E+03  0.74127718305E+03  0.81815285674E+03  0.12699999809E+01 0.  1.
       -4    1    3    3    0  502  0.10534607312E+03 -0.32982241716E+03 -0.65996150712E+03  0.74527271905E+03  0.12699999809E+01 0. -1.
</event>
<event>
 5   0  0.7553070E-04  0.1588062E+04  0.7818609E-02  0.8827916E-01
       -2   -1    0    0    0  501  0.00000000000E+00  0.00000000000E+00  0.34961775569E+03  0.34961775570E+03  0.25500000920E-02 0. -1.
        2   -1    0    0  501    0  0.00000000000E+00  0.00000000000E+00 -0.18033566249E+04  0.18033566249E+04  0.25500000920E-02 0.  1.
    10030    2    1    2    0    0  0.00000000000E+00  0.00000000000E+00 -0.14537388693E+04  0.21529743806E+04  0.15880623362E+04 0.  0.
        4    1    3    3  502    0 -0.25521771839E+03  0.51290582330E+03  0.18501973780E+02  0.57319490864E+03  0.12699999809E+01 0. -1.
       -4    1    3    3    0  502  0.25521771839E+03 -0.51290582330E+03 -0.14722408430E+04  0.15797794720E+04  0.12699999809E+01 0.  1.
</event>
<event>
 5   0  0.7770905E-04  0.1683447E+04  0.7818609E-02  0.8770862E-01
       -2   -1    0    0    0  501  0.00000000000E+00  0.00000000000E+00  0.34953798443E+03  0.34953798444E+03  0.25500000920E-02 0. -1.
        2   -1    0    0  501    0  0.00000000000E+00  0.00000000000E+00 -0.20269579160E+04  0.20269579160E+04  0.25500000920E-02 0.  1.
    10030    2    1    2    0    0  0.00000000000E+00  0.00000000000E+00 -0.16774199316E+04  0.23764959004E+04  0.16834473969E+04 0.  0.
        2    1    3    3  502    0 -0.60449344414E+02  0.44211353461E+03 -0.18462413533E+04  0.18994013887E+04  0.25500000920E-02 0.  1.
       -2    1    3    3    0  502  0.60449344414E+02 -0.44211353461E+03  0.16882142172E+03  0.47709451177E+03  0.25500000920E-02 0. -1.
</event>
<event>
 5   0  0.4110803E-04  0.1381964E+04  0.7818609E-02  0.8966978E-01
       -1   -1    0    0    0  501  0.00000000000E+00  0.00000000000E+00  0.63847927100E+03  0.63847927102E+03  0.50400001928E-02 0. -1.
        1   -1    0    0  501    0  0.00000000000E+00  0.00000000000E+00 -0.74780191963E+03  0.74780191965E+03  0.50400001928E-02 0.  1.
    10030    2    1    2    0    0  0.00000000000E+00  0.00000000000E+00 -0.10932264863E+03  0.13862811907E+04  0.13819638556E+04 0.  0.
        5    1    3    3  502    0  0.45060859605E+03 -0.29126809702E+03 -0.49139338825E+03  0.72758144780E+03  0.46999998093E+01 0.  1.
       -5    1    3    3    0  502 -0.45060859605E+03  0.29126809702E+03  0.38207073962E+03  0.65869974286E+03  0.46999998093E+01 0. -1.
</event>
<event>
 5   0  0.7488884E-04  0.1575012E+04  0.7818609E-02  0.8836048E-01
        2   -1    0    0  501    0  0.00000000000E+00  0.00000000000E+00  0.10376609147E+04  0.10376609147E+04  0.25500000920E-02 0.  1.
       -2   -1    0    0    0  501  0.00000000000E+00  0.00000000000E+00 -0.59765711111E+03  0.59765711111E+03  0.25500000920E-02 0. -1.
    10030    2    1    2    0    0  0.00000000000E+00  0.00000000000E+00  0.44000380355E+03  0.16353180258E+04  0.15750116502E+04 0.  0.
        3    1    3    3  502    0  0.66972094896E+03 -0.13419748989E+03  0.62696674270E+03  0.92715825101E+03  0.10100000352E+00 0. -1.
       -3    1    3    3    0  502 -0.66972094896E+03  0.13419748989E+03 -0.18696293915E+03  0.70815977476E+03  0.10100000352E+00 0.  1.
</event>
<event>
 5   0  0.2781000E-04  0.1583389E+04  0.7818609E-02  0.8830818E-01
        3   -1    0    0  501    0  0.00000000000E+00  0.00000000000E+00  0.58844755981E+03  0.58844756848E+03  0.10100000352E+00 0.  1.
       -3   -1    0    0    0  501  0.00000000000E+00  0.00000000000E+00 -0.10651413983E+04  0.10651414031E+04  0.10100000352E+00 0. -1.
    10030    2    1    2    0    0  0.00000000000E+00  0.00000000000E+00 -0.47669383849E+03  0.16535889716E+04  0.15833886040E+04 0.  0.
        4    1    3    3  502    0  0.64838397720E+03  0.10213448254E+03  0.22393527704E+03  0.69352855429E+03  0.12699999809E+01 0.  1.
       -4    1    3    3    0  502 -0.64838397720E+03 -0.10213448254E+03 -0.70062911553E+03  0.96006041729E+03  0.12699999809E+01 0. -1.
</event>
<event>
 5   0  0.3973227E-04  0.1626802E+04  0.7818609E-02  0.8804250E-01
       -1   -1    0    0    0  501  0.00000000000E+00  0.00000000000E+00  0.76438103302E+03  0.76438103304E+03  0.50400001928E-02 0. -1.
        1   -1    0    0  501    0  0.00000000000E+00  0.00000000000E+00 -0.86556454274E+03  0.86556454276E+03  0.50400001928E-02 0.  1.
    10030    2    1    2    0    0  0.00000000000E+00  0.00000000000E+00 -0.10118350972E+03  0.16299455758E+04  0.16268019171E+04 0.  0.
        3    1    3    3  502    0 -0.54299029935E+03  0.44639436657E+03  0.35948476893E+03  0.78951612079E+03  0.10100000352E+00 0.  1.
       -3    1    3    3    0  502  0.54299029935E+03 -0.44639436657E+03 -0.46066827865E+03  0.84042945501E+03  0.10100000352E+00 0. -1.
</event>
<event>
 5   0  0.2781000E-04  0.1590494E+04  0.7818609E-02  0.8826410E-01
        3   -1    0    0  501    0  0.00000000000E+00  0.00000000000E+00  0.88408766798E+03  0.88408767375E+03  0.10100000352E+00 0. -1.
       -3   -1    0    0    0  501  0.00000000000E+00  0.00000000000E+00 -0.71533335478E+03  0.71533336191E+03  0.10100000352E+00 0.  1.
    10030    2    1    2    0    0  0.00000000000E+00  0.00000000000E+00  0.16875431320E+03  0.15994210357E+04  0.15904935181E+04 0.  0.
        4    1    3    3  502    0  0.67540046836E+03  0.41656211244E+03  0.13688141379E+03  0.80525022230E+03  0.12699999809E+01 0. -1.
       -4    1    3    3    0  502 -0.67540046836E+03 -0.41656211244E+03  0.31872899406E+02  0.79417081336E+03  0.12699999809E+01 0.  1.
</event>
<event>
 5   0  0.7553070E-04  0.1628172E+04  0.7818609E-02  0.8803425E-01
       -2   -1    0    0    0  501  0.00000000000E+00  0.00000000000E+00  0.49489583668E+03  0.49489583668E+03  0.25500000920E-02 0. -1.
        2   -1    0    0  501    0  0.00000000000E+00  0.00000000000E+00 -0.13391431750E+04  0.13391431750E+04  0.25500000920E-02 0.  1.
    10030    2    1    2    0    0  0.00000000000E+00  0.00000000000E+00 -0.84424733831E+03  0.18340390117E+04  0.16281724504E+04 0.  0.
        4    1    3    3  502    0  0.44178991034E+03  0.10520265537E+03  0.33894396346E+03  0.56668381558E+03  0.12699999809E+01 0. -1.
       -4    1    3    3    0  502 -0.44178991034E+03 -0.10520265537E+03 -0.11831913018E+04  0.12673551961E+04  0.12699999809E+01 0.  1.
</event>
<event>
 5   0  0.3837251E-04  0.1614097E+04  0.7818609E-02  0.8811934E-01
       -1   -1    0    0    0  501  0.00000000000E+00  0.00000000000E+00  0.51590602536E+03  0.51590602539E+03  0.50400001928E-02 0. -1.
        1   -1    0    0  501    0  0.00000000000E+00  0.00000000000E+00 -0.12624917136E+04  0.12624917136E+04  0.50400001928E-02 0.  1.
    10030    2    1    2    0    0  0.00000000000E+00  0.00000000000E+00 -0.74658568826E+03  0.17783977390E+04  0.16140967531E+04 0.  0.
        4    1    3    3  502    0  0.54536623865E+03 -0.30543571064E+03  0.18917151249E+03  0.65307180435E+03  0.12699999809E+01 0. -1.
       -4    1    3    3    0  502 -0.54536623865E+03  0.30543571064E+03 -0.93575720075E+03  0.11253259347E+04  0.12699999809E+01 0.  1.
</event>
<event>
 5   0  0.3973227E-04  0.1590596E+04  0.7818609E-02  0.8826346E-01
        1   -1    0    0  501    0  0.00000000000E+00  0.00000000000E+00  0.79103495084E+03  0.79103495085E+03  0.50400001928E-02 0.  1.
       -1   -1    0    0    0  501  0.00000000000E+00  0.00000000000E+00 -0.79958432677E+03  0.79958432679E+03  0.50400001928E-02 0. -1.
    10030    2    1    2    0    0  0.00000000000E+00  0.00000000000E+00 -0.85493759322E+01  0.15906192776E+04  0.15905963016E+04 0.  0.
        3    1    3    3  502    0 -0.67726551875E+03  0.15221416712E+03 -0.39240579329E+03  0.79739579405E+03  0.10100000352E+00 0. -1.
       -3    1    3    3    0  502  0.67726551875E+03 -0.15221416712E+03  0.38385641736E+03  0.79322348359E+03  0.10100000352E+00 0.  1.
</event>
<event>
 5   0  0.7770905E-04  0.1647958E+04  0.7818609E-02  0.8791615E-01
        2   -1    0    0  501    0  0.00000000000E+00  0.00000000000E+00  0.18517369510E+04  0.18517369510E+04  0.25500000920E-02 0. -1.
       -2   -1    0    0    0  501  0.00000000000E+00  0.00000000000E+00 -0.36665131085E+03  0.36665131086E+03  0.25500000920E-02 0.  1.
    10030    2    1    2    0    0  0.00000000000E+00  0.00000000000E+00  0.14850856402E+04  0.22183882619E+04  0.16479584709E+04 0.  0.
        2    1    3    3  502    0  0.25731421913E+02 -0.74192957585E+03  0.12238152749E+04  0.14313788557E+04  0.25500000920E-02 0. -1.
       -2    1    3    3    0  502 -0.25731421913E+02  0.74192957585E+03  0.26127036529E+03  0.78700940616E+03  0.25500000920E-02 0.  1.
</event>
<event>
 5   0  0.3973227E-04  0.1547203E+04  0.7818609E-02  0.8853656E-01
       -1   -1    0    0    0  501  0.00000000000E+00  0.00000000000E+00  0.95414927962E+03  0.95414927963E+03  0.50400001928E-02 0.  1.
        1   -1    0    0  501    0  0.00000000000E+00  0.00000000000E+00 -0.62721778110E+03  0.62721778112E+03  0.50400001928E-02 0. -1.
    10030    2    1    2    0    0  0.00000000000E+00  0.00000000000E+00  0.32693149852E+03  0.15813670607E+04  0.15472031464E+04 0.  0.
        3    1    3    3  502    0  0.32179812679E+03  0.57116467897E+03 -0.25630515083E+03  0.70390018146E+03  0.10100000352E+00 0. -1.
       -3    1    3    3    0  502 -0.32179812679E+03 -0.57116467897E+03  0.58323664934E+03  0.87746687929E+03  0.10100000352E+00 0.  1.
</event>
<event>
 5   0  0.7553070E-04  0.1589420E+04  0.7818609E-02  0.8827074E-01
        2   -1    0    0  501    0  0.00000000000E+00  0.00000000000E+00  0.62960100974E+03  0.62960100974E+03  0.25500000920E-02 0. -1.
       -2   -1    0    0    0  501  0.00000000000E+00  0.00000000000E+00 -0.10031174867E+04  0.10031174867E+04  0.25500000920E-02 0.  1.
    10030    2    1    2    0    0  0.00000000000E+00  0.00000000000E+00 -0.37351647697E+03  0.16327184965E+04  0.15894197463E+04 0.  0.
        4    1    3    3  502    0  0.59027293519E+03 -0.39514180499E+03  0.17932485585E+03  0.73261053834E+03  0.12699999809E+01 0. -1.
       -4    1    3    3    0  502 -0.59027293519E+03  0.39514180499E+03 -0.55284133283E+03  0.90010795811E+03  0.12699999809E+01 0.  1.
</event>
<event>
 5   0  0.7395088E-04  0.1521889E+04  0.7818609E-02  0.8870026E-01
       -2   -1    0    0    0  501  0.00000000000E+00  0.00000000000E+00  0.69986323791E+03  0.69986323791E+03  0.25500000920E-02 0.  1.
        2   -1    0    0  501    0  0.00000000000E+00  0.00000000000E+00 -0.82735676369E+03  0.82735676369E+03  0.25500000920E-02 0. -1.
    10030    2    1    2    0    0  0.00000000000E+00  0.00000000000E+00 -0.12749352578E+03  0.15272200016E+04  0.15218890676E+04 0.  0.
        1    1    3    3  502    0 -0.15133924041E+03 -0.56506548062E+02 -0.80995084578E+03  0.82590370399E+03  0.50400001928E-02 0. -1.
       -1    1    3    3    0  502  0.15133924041E+03  0.56506548062E+02  0.68245731999E+03  0.70131629762E+03  0.50400001928E-02 0.  1.
</event>
<event>
 5   0  0.7488884E-04  0.1592759E+04  0.7818609E-02  0.8825009E-01
       -2   -1    0    0    0  501  0.00000000000E+00  0.00000000000E+00  0.21505461910E+04  0.21505461910E+04  0.25500000920E-02 0.  1.
        2   -1    0    0  501    0  0.00000000000E+00  0.00000000000E+00 -0.29491127147E+03  0.29491127148E+03  0.25500000920E-02 0. -1.
    10030    2    1    2    0    0  0.00000000000E+00  0.00000000000E+00  0.18556349195E+04  0.24454574624E+04  0.15927590044E+04 0.  0.
        3    1    3    3  502    0  0.50783309992E+03  0.62509000670E+02 -0.91524607656E+01  0.51174760408E+03  0.10100000352E+00 0. -1.
       -3    1    3    3    0  502 -0.50783309992E+03 -0.62509000670E+02  0.18647873803E+04  0.19337098584E+04  0.10100000352E+00 0.  1.
</event>
<event>
 5   0  0.7488884E-04  0.1560148E+04  0.7818609E-02  0.8845412E-01
       -2   -1    0    0    0  501  0.00000000000E+00  0.00000000000E+00  0.42190182818E+03  0.42190182819E+03  0.25500000920E-02 0. -1.
        2   -1    0    0  501    0  0.00000000000E+00  0.00000000000E+00 -0.14423150909E+04  0.14423150909E+04  0.25500000920E-02 0.  1.
    10030    2    1    2    0    0  0.00000000000E+00  0.00000000000E+00 -0.10204132628E+04  0.18642169191E+04  0.15601479080E+04 0.  0.
        3    1    3    3  502    0 -0.73712570467E+03 -0.24669908696E+03 -0.58856694797E+03  0.97500041356E+03  0.10100000352E+00 0.  1.
       -3    1    3    3    0  502  0.73712570467E+03  0.24669908696E+03 -0.43184631478E+03  0.88921650557E+03  0.10100000352E+00 0. -1.
</event>
<event>
 5   0  0.7415102E-04  0.1517184E+04  0.7818609E-02  0.8873105E-01
       -2   -1    0    0    0  501  0.00000000000E+00  0.00000000000E+00  0.23401949081E+03  0.23401949083E+03  0.25500000920E-02 0.  1.
        2   -1    0    0  501    0  0.00000000000E+00  0.00000000000E+00 -0.24590339432E+04  0.24590339432E+04  0.25500000920E-02 0. -1.
    10030    2    1    2    0    0  0.00000000000E+00  0.00000000000E+00 -0.22250144523E+04  0.26930534340E+04  0.15171840644E+04 0.  0.
        5    1    3    3  502    0 -0.23800648926E+02 -0.64067162330E+03 -0.18322461906E+04  0.19411787122E+04  0.46999998093E+01 0. -1.
       -5    1    3    3    0  502  0.23800648926E+02  0.64067162330E+03 -0.39276826172E+03  0.75187472175E+03  0.46999998093E+01 0.  1.
</event>
<event>
 5   0  0.3973227E-04  0.1592701E+04  0.7818609E-02  0.8825044E-01
       -1   -1    0    0    0  501  0.00000000000E+00  0.00000000000E+00  0.28199309895E+03  0.28199309899E+03  0.50400001928E-02 0.  1.
        1   -1    0    0  501    0  0.00000000000E+00  0.00000000000E+00 -0.22489002365E+04  0.22489002365E+04  0.50400001928E-02 0. -1.
    10030    2    1    2    0    0  0.00000000000E+00  0.00000000000E+00 -0.19669071376E+04  0.25308933355E+04  0.15927012865E+04 0.  0.
        3    1    3    3  502    0 -0.11697927776E+03  0.32049220369E+03  0.15997758772E+03  0.37681858079E+03  0.10100000352E+00 0.  1.
       -3    1    3    3    0  502  0.11697927776E+03 -0.32049220369E+03 -0.21268847253E+04  0.21540747547E+04  0.10100000352E+00 0. -1.
</event>
<event>
 5   0  0.3837251E-04  0.1602079E+04  0.7818609E-02  0.8819272E-01
        1   -1    0    0  501    0  0.00000000000E+00  0.00000000000E+00  0.49853699338E+03  0.49853699341E+03  0.50400001928E-02 0. -1.
       -1   -1    0    0    0  501  0.00000000000E+00  0.00000000000E+00 -0.12870947607E+04  0.12870947607E+04  0.50400001928E-02 0.  1.
    10030    2    1    2    0    0  0.00000000000E+00  0.00000000000E+00 -0.78855776729E+03  0.17856317541E+04  0.16020790894E+04 0.  0.
        4    1    3    3  502    0  0.54501465962E+03  0.47088213243E+03 -0.78500222959E+03  0.10653642922E+04  0.12699999809E+01 0.  1.
       -4    1    3    3    0  502 -0.54501465962E+03 -0.47088213243E+03 -0.35555377032E+01  0.72026746184E+03  0.12699999809E+01 0. -1.
</event>
<event>
 5   0  0.7553070E-04  0.1603926E+04  0.7818609E-02  0.8818140E-01
       -2   -1    0    0    0  501  0.00000000000E+00  0.00000000000E+00  0.43066580879E+03  0.43066580879E+03  0.25500000920E-02 0.  1.
        2   -1    0    0  501    0  0.00000000000E+00  0.00000000000E+00 -0.14933727068E+04  0.14933727068E+04  0.25500000920E-02 0. -1.
    10030    2    1    2    0    0  0.00000000000E+00  0.00000000000E+00 -0.10627068980E+04  0.19240385156E+04  0.16039258893E+04 0.  0.
        4    1    3    3  502    0 -0.24910280010E+03  0.52339201132E+03 -0.11961761174E+04  0.13292216968E+04  0.12699999809E+01 0. -1.
       -4    1    3    3    0  502  0.24910280010E+03 -0.52339201132E+03  0.13346921936E+03  0.59481681882E+03  0.12699999809E+01 0.  1.
</event>
<event>
 5   0  0.3973227E-04  0.1607492E+04  0.7818609E-02  0.8815959E-01
        1   -1    0    0  501    0  0.00000000000E+00  0.00000000000E+00  0.13738919815E+04  0.13738919815E+04  0.50400001928E-02 0. -1.
       -1   -1    0    0    0  501  0.00000000000E+00  0.00000000000E+00 -0.47020266369E+03  0.47020266372E+03  0.50400001928E-02 0.  1.
    10030    2    1    2    0    0  0.00000000000E+00  0.00000000000E+00  0.90368931784E+03  0.18440946453E+04  0.16074920459E+04 0.  0.
        3    1    3    3  502    0 -0.63027160377E+03 -0.33203483582E+03  0.24884015068E+02  0.71281740378E+03  0.10100000352E+00 0. -1.
       -3    1    3    3    0  502  0.63027160377E+03  0.33203483582E+03  0.87880530277E+03  0.11312772415E+04  0.10100000352E+00 0.  1.
</event>
<event>
 5   0  0.3950195E-04  0.1579440E+04  0.7818609E-02  0.8833279E-01
       -1   -1    0    0    0  501  0.00000000000E+00  0.00000000000E+00  0.10675795661E+04  0.10675795661E+04  0.50400001928E-02 0.  1.
        1   -1    0    0  501    0  0.00000000000E+00  0.00000000000E+00 -0.58417893315E+03  0.58417893317E+03  0.50400001928E-02 0. -1.
    10030    2    1    2    0    0  0.00000000000E+00  0.00000000000E+00  0.48340063294E+03  0.16517584993E+04  0.15794397640E+04 0.  0.
        2    1    3    3  502    0  0.63663962228E+03 -0.11639057047E+03 -0.23156995002E+03  0.68737283573E+03  0.25500000920E-02 0. -1.
       -2    1    3    3    0  502 -0.63663962228E+03  0.11639057047E+03  0.71497058296E+03  0.96438566354E+03  0.25500000920E-02 0.  1.
</event>
<event>
 5   0  0.3973227E-04  0.1612122E+04  0.7818609E-02  0.8813136E-01
       -1   -1    0    0    0  501  0.00000000000E+00  0.00000000000E+00  0.92526791658E+03  0.92526791659E+03  0.50400001928E-02 0. -1.
        1   -1    0    0  501    0  0.00000000000E+00  0.00000000000E+00 -0.70221172574E+03  0.70221172576E+03  0.50400001928E-02 0.  1.
    10030    2    1    2    0    0  0.00000000000E+00  0.00000000000E+00  0.22305619084E+03  0.16274796424E+04  0.16121215593E+04 0.  0.
        3    1    3    3  502    0 -0.50797623371E+02 -0.76601859961E+03  0.35956999356E+03  0.84773550354E+03  0.10100000352E+00 0. -1.
       -3    1    3    3    0  502  0.50797623371E+02  0.76601859961E+03 -0.13651380273E+03  0.77974413882E+03  0.10100000352E+00 0.  1.
</event>
<event>
 5   0  0.3973227E-04  0.1609814E+04  0.7818609E-02  0.8814541E-01
       -1   -1    0    0    0  501  0.00000000000E+00  0.00000000000E+00  0.59338073285E+03  0.59338073287E+03  0.50400001928E-02 0. -1.
        1   -1    0    0  501    0  0.00000000000E+00  0.00000000000E+00 -0.10918375829E+04  0.10918375829E+04  0.50400001928E-02 0.  1.
    10030    2    1    2    0    0  0.00000000000E+00  0.00000000000E+00 -0.49845685001E+03  0.16852183157E+04  0.16098141323E+04 0.  0.
        3    1    3    3  502    0 -0.39003719450E+03  0.74061129687E+02 -0.98221200523E+03  0.10594123359E+04  0.10100000352E+00 0.  1.
       -3    1    3    3    0  502  0.39003719450E+03 -0.74061129687E+02  0.48375515521E+03  0.62580597985E+03  0.10100000352E+00 0. -1.
</event>
<event>
 5   0  0.4110803E-04  0.1602145E+04  0.7818609E-02  0.8819231E-01
        1   -1    0    0  501    0  0.00000000000E+00  0.00000000000E+00  0.82897123891E+03  0.82897123892E+03  0.50400001928E-02 0. -1.
       -1   -1    0    0    0  501  0.00000000000E+00  0.00000000000E+00 -0.77411296425E+03  0.77411296427E+03  0.50400001928E-02 0.  1.
    10030    2    1    2    0    0  0.00000000000E+00  0.00000000000E+00  0.54858274654E+02  0.16030842032E+04  0.16021452906E+04 0.  0.
        5    1    3    3  502    0  0.42010853949E+03  0.50337299479E+03  0.48793763492E+03  0.81730091301E+03  0.46999998093E+01 0. -1.
       -5    1    3    3    0  502 -0.42010853949E+03 -0.50337299479E+03 -0.43307936026E+03  0.78578329018E+03  0.46999998093E+01 0.  1.
</event>
<event>
 5   0  0.3950195E-04  0.1457123E+04  0.7818609E-02  0.8913477E-01
        1   -1    0    0  501    0  0.00000000000E+00  0.00000000000E+00  0.81658850684E+03  0.81658850686E+03  0.50400001928E-02 0.  1.
       -1   -1    0    0    0  501  0.00000000000E+00  0.00000000000E+00 -0.65002377679E+03  0.65002377681E+03  0.50400001928E-02 0. -1.
    10030    2    1    2    0    0  0.00000000000E+00  0.00000000000E+00  0.16656473005E+03  0.14666122837E+04  0.14571231181E+04 0.  0.
        2    1    3    3  502    0  0.51657019665E+03 -0.36419123211E+03 -0.28146124109E+03  0.69188181929E+03  0.25500000920E-02 0. -1.
       -2    1    3    3    0  502 -0.51657019665E+03  0.36419123211E+03  0.44802597115E+03  0.77473046438E+03  0.25500000920E-02 0.  1.
</event>
<event>
 5   0  0.2781000E-04  0.1549561E+04  0.7818609E-02  0.8852148E-01
       -3   -1    0    0    0  501  0.00000000000E+00  0.00000000000E+00  0.86170203897E+03  0.86170204489E+03  0.10100000352E+00 0.  1.
        3   -1    0    0  501    0  0.00000000000E+00  0.00000000000E+00 -0.69662659415E+03  0.69662660147E+03  0.10100000352E+00 0. -1.
    10030    2    1    2    0    0  0.00000000000E+00  0.00000000000E+00  0.16507544482E+03  0.15583286464E+04  0.15495606692E+04 0.  0.
        5    1    3    3  502    0  0.66272058675E+03  0.14273851954E+03 -0.29467079580E+03  0.73920621545E+03  0.46999998093E+01 0. -1.
       -5    1    3    3    0  502 -0.66272058675E+03 -0.14273851954E+03  0.45974624062E+03  0.81912243092E+03  0.46999998093E+01 0.  1.
</event>
<event>
 5   0  0.3950195E-04  0.1614227E+04  0.7818609E-02  0.8811855E-01
        1   -1    0    0  501    0  0.00000000000E+00  0.00000000000E+00  0.12294768694E+04  0.12294768694E+04  0.50400001928E-02 0.  1.
       -1   -1    0    0    0  501  0.00000000000E+00  0.00000000000E+00 -0.52984488684E+03  0.52984488687E+03  0.50400001928E-02 0. -1.
    10030    2    1    2    0    0  0.00000000000E+00  0.00000000000E+00  0.69963198254E+03  0.17593217563E+04  0.16142267905E+04 0.  0.
        2    1    3    3  502    0  0.21576408080E+02 -0.74222983411E+03  0.69457365854E+03  0.10167611495E+04  0.25500000920E-02 0. -1.
       -2    1    3    3    0  502 -0.21576408080E+02  0.74222983411E+03  0.50583239967E+01  0.74256060674E+03  0.25500000920E-02 0.  1.
</event>
<event>
 5   0  0.7415102E-04  0.1647848E+04  0.7818609E-02  0.8791681E-01
       -2   -1    0    0    0  501  0.00000000000E+00  0.00000000000E+00  0.75532107896E+03  0.75532107897E+03  0.25500000920E-02 0. -1.
        2   -1    0    0  501    0  0.00000000000E+00  0.00000000000E+00 -0.89875789973E+03  0.89875789973E+03  0.25500000920E-02 0.  1.
    10030    2    1    2    0    0  0.00000000000E+00  0.00000000000E+00 -0.14343682077E+03  0.16540789787E+04  0.16478480349E+04 0.  0.
        5    1    3    3  502    0 -0.46099613295E+03 -0.66989842948E+03 -0.20468573458E+03  0.83857002114E+03  0.46999998093E+01 0.  1.
       -5    1    3    3    0  502  0.46099613295E+03  0.66989842948E+03  0.61248913809E+02  0.81550895756E+03  0.46999998093E+01 0. -1.
</event>
<event>
 5   0  0.3973227E-04  0.1597577E+04  0.7818609E-02  0.8822038E-01
       -1   -1    0    0    0  501  0.00000000000E+00  0.00000000000E+00  0.13512086891E+04  0.13512086891E+04  0.50400001928E-02 0.  1.
        1   -1    0    0  501    0  0.00000000000E+00  0.00000000000E+00 -0.47221664438E+03  0.47221664441E+03  0.50400001928E-02 0. -1.
    10030    2    1    2    0    0  0.00000000000E+00  0.00000000000E+00  0.87899204474E+03  0.18234253335E+04  0.15975772070E+04 0.  0.
        3    1    3    3  502    0 -0.32002251674E+03  0.40825346562E+03  0.11328041915E+04  0.12459256197E+04  0.10100000352E+00 0.  1.
       -3    1    3    3    0  502  0.32002251674E+03 -0.40825346562E+03 -0.25381214676E+03  0.57749971381E+03  0.10100000352E+00 0. -1.
</event>
<event>
 5   0  0.7415102E-04  0.1562217E+04  0.7818609E-02  0.8844102E-01
        2   -1    0    0  501    0  0.00000000000E+00  0.00000000000E+00  0.93344241398E+03  0.93344241399E+03  0.25500000920E-02 0.  1.
       -2   -1    0    0    0  501  0.00000000000E+00  0.00000000000E+00 -0.65363459604E+03  0.65363459604E+03  0.25500000920E-02 0. -1.
    10030    2    1    2    0    0  0.00000000000E+00  0.00000000000E+00  0.27980781795E+03  0.15870770100E+04  0.15622167010E+04 0.  0.
        5    1    3    3  502    0 -0.42255033498E+03 -0.30974222614E+03  0.72844945826E+03  0.89730136269E+03  0.46999998093E+01 0.  1.
       -5    1    3    3    0  502  0.42255033498E+03  0.30974222614E+03 -0.44864164031E+03  0.68977564734E+03  0.46999998093E+01 0. -1.
</event>
<event>
 5   0  0.3973227E-04  0.1576418E+04  0.7818609E-02  0.8835168E-01
        1   -1    0    0  501    0  0.00000000000E+00  0.00000000000E+00  0.93130833251E+03  0.93130833253E+03  0.50400001928E-02 0. -1.
       -1   -1    0    0    0  501  0.00000000000E+00  0.00000000000E+00 -0.66709737850E+03  0.66709737851E+03  0.50400001928E-02 0.  1.
    10030    2    1    2    0    0  0.00000000000E+00  0.00000000000E+00  0.26421095402E+03  0.15984057110E+04  0.15764178979E+04 0.  0.
        3    1    3    3  502    0  0.43390929210E+03  0.57635561838E+03  0.45404036419E+03  0.85241758260E+03  0.10100000352E+00 0. -1.
       -3    1    3    3    0  502 -0.43390929210E+03 -0.57635561838E+03 -0.18982941018E+03  0.74598812844E+03  0.10100000352E+00 0.  1.
</event>
<event>
 5   0  0.7553070E-04  0.1602324E+04  0.7818609E-02  0.8819121E-01
       -2   -1    0    0    0  501  0.00000000000E+00  0.00000000000E+00  0.33248350231E+03  0.33248350232E+03  0.25500000920E-02 0.  1.
        2   -1    0    0  501    0  0.00000000000E+00  0.00000000000E+00 -0.19305045562E+04  0.19305045562E+04  0.25500000920E-02 0. -1.
    10030    2    1    2    0    0  0.00000000000E+00  0.00000000000E+00 -0.15980210539E+04  0.22629880585E+04  0.16023244566E+04 0.  0.
        4    1    3    3  502    0  0.43514819383E+03 -0.46305076112E+03 -0.10987953591E+03  0.64486051459E+03  0.12699999809E+01 0.  1.
       -4    1    3    3    0  502 -0.43514819383E+03  0.46305076112E+03 -0.14881415180E+04  0.16181275440E+04  0.12699999809E+01 0. -1.
</event>
<event>
 5   0  0.3837251E-04  0.1792699E+04  0.7818609E-02  0.8710192E-01
       -1   -1    0    0    0  501  0.00000000000E+00  0.00000000000E+00  0.47720798452E+03  0.47720798454E+03  0.50400001928E-02 0.  1.
        1   -1    0    0  501    0  0.00000000000E+00  0.00000000000E+00 -0.16836318178E+04  0.16836318178E+04  0.50400001928E-02 0. -1.
    10030    2    1    2    0    0  0.00000000000E+00  0.00000000000E+00 -0.12064238333E+04  0.21608398024E+04  0.17926991343E+04 0.  0.
        4    1    3    3  502    0 -0.48537164177E+03 -0.75354943457E+03 -0.59802011772E+03  0.10775212550E+04  0.12699999809E+01 0. -1.
       -4    1    3    3    0  502  0.48537164177E+03  0.75354943457E+03 -0.60840371560E+03  0.10833185473E+04  0.12699999809E+01 0.  1.
</event>
<event>
 5   0  0.7553070E-04  0.1620624E+04  0.7818609E-02  0.8807977E-01
        2   -1    0    0  501    0  0.00000000000E+00  0.00000000000E+00  0.19168333120E+04  0.19168333120E+04  0.25500000920E-02 0.  1.
       -2   -1    0    0    0  501  0.00000000000E+00  0.00000000000E+00 -0.34254715578E+03  0.34254715579E+03  0.25500000920E-02 0. -1.
    10030    2    1    2    0    0  0.00000000000E+00  0.00000000000E+00  0.15742861562E+04  0.22593804678E+04  0.16206243231E+04 0.  0.
        4    1    3    3  502    0 -0.48442898296E+03  0.26809484150E+03 -0.37710685830E+02  0.55495044129E+03  0.12699999809E+01 0. -1.
       -4    1    3    3    0  502  0.48442898296E+03 -0.26809484150E+03  0.16119968420E+04  0.17044300265E+04  0.12699999809E+01 0.  1.
</event>
<event>
 5   0  0.7770905E-04  0.1550055E+04  0.7818609E-02  0.8851832E-01
       -2   -1    0    0    0  501  0.00000000000E+00  0.00000000000E+00  0.87778946670E+03  0.87778946670E+03  0.25500000920E-02 0.  1.
        2   -1    0    0  501    0  0.00000000000E+00  0.00000000000E+00 -0.68429607420E+03  0.68429607420E+03  0.25500000920E-02 0. -1.
    10030    2    1    2    0    0  0.00000000000E+00  0.00000000000E+00  0.19349339250E+03  0.15620855409E+04  0.15500553358E+04 0.  0.
        2    1    3    3  502    0  0.68957669175E+03  0.13802559859E+03 -0.23151253817E+03  0.74038174951E+03  0.25500000920E-02 0. -1.
       -2    1    3    3    0  502 -0.68957669175E+03 -0.13802559859E+03  0.42500593067E+03  0.82170379139E+03  0.25500000920E-02 0.  1.
</event>
<event>
 5   0  0.3889847E-04  0.1607449E+04  0.7818609E-02  0.8815985E-01
       -1   -1    0    0    0  501  0.00000000000E+00  0.00000000000E+00  0.78934638289E+03  0.78934638291E+03  0.50400001928E-02 0. -1.
        1   -1    0    0  501    0  0.00000000000E+00  0.00000000000E+00 -0.81836445050E+03  0.81836445051E+03  0.50400001928E-02 0.  1.
    10030    2    1    2    0    0  0.00000000000E+00  0.00000000000E+00 -0.29018067605E+02  0.16077108334E+04  0.16074489341E+04 0.  0.
        1    1    3    3  502    0  0.44162844704E+03  0.62613373194E+03  0.22821112592E+03  0.79947448585E+03  0.50400001928E-02 0.  1.
       -1    1    3    3    0  502 -0.44162844704E+03 -0.62613373194E+03 -0.25722919353E+03  0.80823634757E+03  0.50400001928E-02 0. -1.
</event>
<event>
 5   0  0.2781000E-04  0.1709473E+04  0.7818609E-02  0.8755980E-01
        3   -1    0    0  501    0  0.00000000000E+00  0.00000000000E+00  0.13502142531E+04  0.13502142569E+04  0.10100000352E+00 0.  1.
       -3   -1    0    0    0  501  0.00000000000E+00  0.00000000000E+00 -0.54108065125E+03  0.54108066068E+03  0.10100000352E+00 0. -1.
    10030    2    1    2    0    0  0.00000000000E+00  0.00000000000E+00  0.80913360187E+03  0.18912949176E+04  0.17094733925E+04 0.  0.
        1    1    3    3  502    0 -0.17008630023E+03  0.70222164951E+01 -0.52213607606E+03  0.54918552693E+03  0.50400001928E-02 0. -1.
       -1    1    3    3    0  502  0.17008630023E+03 -0.70222164951E+01  0.13312696779E+04  0.13421093906E+04  0.50400001928E-02 0.  1.
</event>
<event>
 5   0  0.3889847E-04  0.1604014E+04  0.7818609E-02  0.8818086E-01
        1   -1    0    0  501    0  0.00000000000E+00  0.00000000000E+00  0.14964859409E+04  0.14964859409E+04  0.50400001928E-02 0. -1.
       -1   -1    0    0    0  501  0.00000000000E+00  0.00000000000E+00 -0.42981692680E+03  0.42981692683E+03  0.50400001928E-02 0.  1.
    10030    2    1    2    0    0  0.00000000000E+00  0.00000000000E+00  0.10666690141E+04  0.19263028678E+04  0.16040137009E+04 0.  0.
        1    1    3    3  502    0  0.73862709701E+03  0.26470894383E+03  0.73275406972E+03  0.10735778221E+04  0.50400001928E-02 0. -1.
       -1    1    3    3    0  502 -0.73862709701E+03 -0.26470894383E+03  0.33391494441E+03  0.85272504567E+03  0.50400001928E-02 0.  1.
</event>
<event>
 5   0  0.7415102E-04  0.1592869E+04  0.7818609E-02  0.8824941E-01
        2   -1    0    0  501    0  0.00000000000E+00  0.00000000000E+00  0.24394993501E+04  0.24394993501E+04  0.25500000920E-02 0.  1.
       -2   -1    0    0    0  501  0.00000000000E+00  0.00000000000E+00 -0.26001554084E+03  0.26001554085E+03  0.25500000920E-02 0. -1.
    10030    2    1    2    0    0  0.00000000000E+00  0.00000000000E+00  0.21794838092E+04  0.26995148909E+04  0.15928687867E+04 0.  0.
        5    1    3    3  502    0  0.22987300160E+02  0.64276028452E+03  0.18857631791E+04  0.19924342040E+04  0.46999998093E+01 0.  1.
       -5    1    3    3    0  502 -0.22987300160E+02 -0.64276028452E+03  0.29372063008E+03  0.70708068695E+03  0.46999998093E+01 0. -1.
</event>
<event>
 5   0  0.7488884E-04  0.1602534E+04  0.7818609E-02  0.8818993E-01
        2   -1    0    0  501    0  0.00000000000E+00  0.00000000000E+00  0.82043303370E+03  0.82043303370E+03  0.25500000920E-02 0. -1.
       -2   -1    0    0    0  501  0.00000000000E+00  0.00000000000E+00 -0.78254881789E+03  0.78254881789E+03  0.25500000920E-02 0.  1.
    10030    2    1    2    0    0  0.00000000000E+00  0.00000000000E+00  0.37884215812E+02  0.16029818516E+04  0.16025341191E+04 0.  0.
        3    1    3    3  502    0  0.23938326650E+03 -0.75926692523E+03 -0.71848213677E+02  0.79934522457E+03  0.10100000352E+00 0. -1.
       -3    1    3    3    0  502 -0.23938326650E+03  0.75926692523E+03  0.10973242949E+03  0.80363662703E+03  0.10100000352E+00 0.  1.
</event>
<event>
 5   0  0.7415102E-04  0.1605620E+04  0.7818609E-02  0.8817103E-01
        2   -1    0    0  501    0  0.00000000000E+00  0.00000000000E+00  0.13265398122E+04  0.13265398122E+04  0.25500000920E-02 0.  1.
       -2   -1    0    0    0  501  0.00000000000E+00  0.00000000000E+00 -0.48585351136E+03  0.48585351137E+03  0.25500000920E-02 0. -1.
    10030    2    1    2    0    0  0.00000000000E+00  0.00000000000E+00  0.84068630080E+03  0.18123933235E+04  0.16056201614E+04 0.  0.
        5    1    3    3  502    0 -0.50301272211E+03 -0.32004214202E+03 -0.18650981667E+03  0.62470534893E+03  0.46999998093E+01 0. -1.
       -5    1    3    3    0  502  0.50301272211E+03  0.32004214202E+03  0.10271961175E+04  0.11876879746E+04  0.46999998093E+01 0.  1.
</event>
<event>
 5   0  0.3950195E-04  0.1594478E+04  0.7818609E-02  0.8823948E-01
       -1   -1    0    0    0  501  0.00000000000E+00  0.00000000000E+00  0.44940421119E+03  0.44940421122E+03  0.50400001928E-02 0. -1.
        1   -1    0    0  501    0  0.00000000000E+00  0.00000000000E+00 -0.14142943600E+04  0.14142943600E+04  0.50400001928E-02 0.  1.
    10030    2    1    2    0    0  0.00000000000E+00  0.00000000000E+00 -0.96489014884E+03  0.18636985713E+04  0.15944777719E+04 0.  0.
        2    1    3    3  502    0 -0.67360262535E+03  0.14044259731E+03 -0.11811946535E+02  0.68818903080E+03  0.25500000920E-02 0. -1.
       -2    1    3    3    0  502  0.67360262535E+03 -0.14044259731E+03 -0.95307820231E+03  0.11755095405E+04  0.25500000920E-02 0.  1.
</event>
<event>
 5   0  0.7553070E-04  0.1470397E+04  0.7818609E-02  0.8904380E-01
       -2   -1    0    0    0  501  0.00000000000E+00  0.00000000000E+00  0.34067417786E+03  0.34067417787E+03  0.25500000920E-02 0. -1.
        2   -1    0    0  501    0  0.00000000000E+00  0.00000000000E+00 -0.15866103291E+04  0.15866103291E+04  0.25500000920E-02 0.  1.
    10030    2    1    2    0    0  0.00000000000E+00  0.00000000000E+00 -0.12459361512E+04  0.19272845070E+04  0.14703974557E+04 0.  0.
        4    1    3    3  502    0  0.43214459724E+03  0.58617507887E+02  0.15283253798E+03  0.46210860490E+03  0.12699999809E+01 0. -1.
       -4    1    3    3    0  502 -0.43214459724E+03 -0.58617507887E+02 -0.13987686892E+04  0.14651759021E+04  0.12699999809E+01 0.  1.
</event>
<event>
 5   0  0.3889847E-04  0.1583772E+04  0.7818609E-02  0.8830580E-01
       -1   -1    0    0    0  501  0.00000000000E+00  0.00000000000E+00  0.59039358299E+03  0.59039358301E+03  0.50400001928E-02 0.  1.
        1   -1    0    0  501    0  0.00000000000E+00  0.00000000000E+00 -0.10621447916E+04  0.10621447916E+04  0.50400001928E-02 0. -1.
    10030    2    1    2    0    0  0.00000000000E+00  0.00000000000E+00 -0.47175120864E+03  0.16525383747E+04  0.15837720407E+04 0.  0.
        1    1    3    3  502    0  0.56192988921E+03  0.16719156565E+03 -0.79130923995E+03  0.98482918989E+03  0.50400001928E-02 0. -1.
       -1    1    3    3    0  502 -0.56192988921E+03 -0.16719156565E+03  0.31955803131E+03  0.66770918476E+03  0.50400001928E-02 0.  1.
</event>
<event>
 5   0  0.7488884E-04  0.1595795E+04  0.7818609E-02  0.8823135E-01
       -2   -1    0    0    0  501  0.00000000000E+00  0.00000000000E+00  0.11782254299E+04  0.11782254299E+04  0.25500000920E-02 0. -1.
        2   -1    0    0  501    0  0.00000000000E+00  0.00000000000E+00 -0.54033871859E+03  0.54033871859E+03  0.25500000920E-02 0.  1.
    10030    2    1    2    0    0  0.00000000000E+00  0.00000000000E+00  0.63788671133E+03  0.17185641485E+04  0.15957954995E+04 0.  0.
        3    1    3    3  502    0 -0.52933196014E+03 -0.90118178423E+02 -0.31665418082E+03  0.62336465295E+03  0.10100000352E+00 0.  1.
       -3    1    3    3    0  502  0.52933196014E+03  0.90118178423E+02  0.95454089215E+03  0.10951994956E+04  0.10100000352E+00 0. -1.
</event>
<event>
 5   0  0.3889847E-04  0.1624306E+04  0.7818609E-02  0.8805754E-01
        1   -1    0    0  501    0  0.00000000000E+00  0.00000000000E+00  0.23466288019E+04  0.23466288019E+04  0.50400001928E-02 0. -1.
       -1   -1    0    0    0  501  0.00000000000E+00  0.00000000000E+00 -0.28108073119E+03  0.28108073123E+03  0.50400001928E-02 0.  1.
    10030    2    1    2    0    0  0.00000000000E+00  0.00000000000E+00  0.20655480708E+04  0.26277095332E+04  0.16243055618E+04 0.  0.
        1    1    3    3  502    0 -0.51422618927E+03 -0.83393060738E+02  0.24815849180E+02  0.52153504456E+03  0.50400001928E-02 0.  1.
       -1    1    3    3    0  502  0.51422618927E+03  0.83393060738E+02  0.20407322216E+04  0.21061744886E+04  0.50400001928E-02 0. -1.
</event>
<event>
 5   0  0.7415102E-04  0.1584090E+04  0.7818609E-02  0.8830382E-01
       -2   -1    0    0    0  501  0.00000000000E+00  0.00000000000E+00  0.28185708428E+03  0.28185708430E+03  0.25500000920E-02 0. -1.
        2   -1    0    0  501    0  0.00000000000E+00  0.00000000000E+00 -0.22257218677E+04  0.22257218677E+04  0.25500000920E-02 0.  1.
    10030    2    1    2    0    0  0.00000000000E+00  0.00000000000E+00 -0.19438647835E+04  0.25075789520E+04  0.15840902450E+04 0.  0.
        5    1    3    3  502    0 -0.19881290061E+02  0.60027985818E+03 -0.17892489173E+04  0.18873698503E+04  0.46999998093E+01 0.  1.
       -5    1    3    3    0  502  0.19881290061E+02 -0.60027985818E+03 -0.15461586619E+03  0.62020910176E+03  0.46999998093E+01 0. -1.
</event>
<event>
 5   0  0.2781000E-04  0.1611248E+04  0.7818609E-02  0.8813668E-01
       -3   -1    0    0    0  501  0.00000000000E+00  0.00000000000E+00  0.48931878958E+03  0.48931880001E+03  0.10100000352E+00 0.  1.
        3   -1    0    0  501    0  0.00000000000E+00  0.00000000000E+00 -0.13263943204E+04  0.13263943242E+04  0.10100000352E+00 0. -1.
    10030    2    1    2    0    0  0.00000000000E+00  0.00000000000E+00 -0.83707553079E+03  0.18157131242E+04  0.16112475618E+04 0.  0.
        3    1    3    3  502    0  0.77561679757E+02 -0.77092074922E+03 -0.16986548943E+03  0.79321429037E+03  0.10100000352E+00 0.  1.
       -3    1    3    3    0  502 -0.77561679757E+02  0.77092074922E+03 -0.66721004137E+03  0.10224988339E+04  0.10100000352E+00 0. -1.
</event>
<event>
 5   0  0.3837251E-04  0.1664470E+04  0.7818609E-02  0.8781892E-01
       -1   -1    0    0    0  501  0.00000000000E+00  0.00000000000E+00  0.70024089703E+03  0.70024089705E+03  0.50400001928E-02 0. -1.
        1   -1    0    0  501    0  0.00000000000E+00  0.00000000000E+00 -0.98911021748E+03  0.98911021749E+03  0.50400001928E-02 0.  1.
    10030    2    1    2    0    0  0.00000000000E+00  0.00000000000E+00 -0.28886932044E+03  0.16893511145E+04  0.16644703974E+04 0.  0.
        4    1    3    3  502    0 -0.34939381598E+03 -0.55575315466E+03 -0.66362423559E+03  0.93345398736E+03  0.12699999809E+01 0.  1.
       -4    1    3    3    0  502  0.34939381598E+03  0.55575315466E+03  0.37475491515E+03  0.75589712718E+03  0.12699999809E+01 0. -1.
</event>
<event>
 5   0  0.7770905E-04  0.1550214E+04  0.7818609E-02  0.8851731E-01
       -2   -1    0    0    0  501  0.00000000000E+00  0.00000000000E+00  0.60414911170E+03  0.60414911170E+03  0.25500000920E-02 0.  1.
        2   -1    0    0  501    0  0.00000000000E+00  0.00000000000E+00 -0.99444086484E+03  0.99444086485E+03  0.25500000920E-02 0. -1.
    10030    2    1    2    0    0  0.00000000000E+00  0.00000000000E+00 -0.39029175315E+03  0.15985899766E+04  0.15502136177E+04 0.  0.
        2    1    3    3  502    0  0.68292529001E+02 -0.19750672619E+03  0.57454980651E+03  0.61137570819E+03  0.25500000920E-02 0.  1.
       -2    1    3    3    0  502 -0.68292529001E+02  0.19750672619E+03 -0.96484155965E+03  0.98721426836E+03  0.25500000920E-02 0. -1.
</event>
<event>
 5   0  0.7488884E-04  0.1605766E+04  0.7818609E-02  0.8817013E-01
        2   -1    0    0  501    0  0.00000000000E+00  0.00000000000E+00  0.11742914136E+04  0.11742914136E+04  0.25500000920E-02 0.  1.
       -2   -1    0    0    0  501  0.00000000000E+00  0.00000000000E+00 -0.54894500788E+03  0.54894500789E+03  0.25500000920E-02 0. -1.
    10030    2    1    2    0    0  0.00000000000E+00  0.00000000000E+00  0.62534640573E+03  0.17232364215E+04  0.16057663707E+04 0.  0.
        3    1    3    3  502    0 -0.29518437639E+02 -0.21430882499E+03 -0.51707892826E+03  0.56050891061E+03  0.10100000352E+00 0. -1.
       -3    1    3    3    0  502  0.29518437639E+02  0.21430882499E+03  0.11424253340E+04  0.11627275109E+04  0.10100000352E+00 0.  1.
</event>
<event>
 5   0  0.4110803E-04  0.1629543E+04  0.7818609E-02  0.8802602E-01
       -1   -1    0    0    0  501  0.00000000000E+00  0.00000000000E+00  0.13344863293E+04  0.13344863293E+04  0.50400001928E-02 0. -1.
        1   -1    0    0  501    0  0.00000000000E+00  0.00000000000E+00 -0.49745902848E+03  0.49745902851E+03  0.50400001928E-02 0.  1.
    10030    2    1    2    0    0  0.00000000000E+00  0.00000000000E+00  0.83702730081E+03  0.18319453578E+04  0.16295426020E+04 0.  0.
        5    1    3    3  502    0 -0.62791705843E+03  0.15930897604E+03 -0.13699885289E+03  0.66215553899E+03  0.46999998093E+01 0.  1.
       -5    1    3    3    0  502  0.62791705843E+03 -0.15930897604E+03  0.97402615370E+03  0.11697898188E+04  0.46999998093E+01 0. -1.
</event>
<event>
 5   0  0.2781000E-04  0.1611671E+04  0.7818609E-02  0.8813410E-01
       -4   -1    0    0    0  501  0.00000000000E+00  0.00000000000E+00  0.53744687919E+03  0.53744837971E+03  0.12699999809E+01 0. -1.
        4   -1    0    0  501    0  0.00000000000E+00  0.00000000000E+00 -0.12082480226E+04  0.12082486900E+04  0.12699999809E+01 0.  1.
    10030    2    1    2    0    0  0.00000000000E+00  0.00000000000E+00 -0.67080114339E+03  0.17456970697E+04  0.16116712088E+04 0.  0.
        4    1    3    3  502    0 -0.20617190848E+03 -0.83744291718E+02  0.50350594177E+03  0.55049051630E+03  0.12699999809E+01 0. -1.
       -4    1    3    3    0  502  0.20617190848E+03  0.83744291718E+02 -0.11743070852E+04  0.11952065534E+04  0.12699999809E+01 0.  1.
</event>
<event>
 5   0  0.7395088E-04  0.1587813E+04  0.7818609E-02  0.8828070E-01
        2   -1    0    0  501    0  0.00000000000E+00  0.00000000000E+00  0.12817396952E+04  0.12817396952E+04  0.25500000920E-02 0.  1.
       -2   -1    0    0    0  501  0.00000000000E+00  0.00000000000E+00 -0.49174407971E+03  0.49174407971E+03  0.25500000920E-02 0. -1.
    10030    2    1    2    0    0  0.00000000000E+00  0.00000000000E+00  0.78999561547E+03  0.17734837749E+04  0.15878134737E+04 0.  0.
        1    1    3    3  502    0 -0.76111302341E+03  0.22581078512E+03  0.39733049800E+03  0.88778098073E+03  0.50400001928E-02 0. -1.
       -1    1    3    3    0  502  0.76111302341E+03 -0.22581078512E+03  0.39266511747E+03  0.88570279416E+03  0.50400001928E-02 0.  1.
</event>
<event>
 5   0  0.7770905E-04  0.1588897E+04  0.7818609E-02  0.8827398E-01
        2   -1    0    0  501    0  0.00000000000E+00  0.00000000000E+00  0.47678158315E+03  0.47678158315E+03  0.25500000920E-02 0. -1.
       -2   -1    0    0    0  501  0.00000000000E+00  0.00000000000E+00 -0.13237679217E+04  0.13237679217E+04  0.25500000920E-02 0.  1.
    10030    2    1    2    0    0  0.00000000000E+00  0.00000000000E+00 -0.84698633854E+03  0.18005495048E+04  0.15888966806E+04 0.  0.
        2    1    3    3  502    0  0.59292134044E+03  0.28881813817E+03 -0.92541135988E+03  0.11363792579E+04  0.25500000920E-02 0.  1.
       -2    1    3    3    0  502 -0.59292134044E+03 -0.28881813817E+03  0.78425021338E+02  0.66417024690E+03  0.25500000920E-02 0. -1.
</event>
<event>
 5   0  0.3950195E-04  0.1616102E+04  0.7818609E-02  0.8810717E-01
        1   -1    0    0  501    0  0.00000000000E+00  0.00000000000E+00  0.95144059525E+03  0.95144059527E+03  0.50400001928E-02 0.  1.
       -1   -1    0    0    0  501  0.00000000000E+00  0.00000000000E+00 -0.68627096509E+03  0.68627096511E+03  0.50400001928E-02 0. -1.
    10030    2    1    2    0    0  0.00000000000E+00  0.00000000000E+00  0.26516963016E+03  0.16377115604E+04  0.16161015507E+04 0.  0.
        2    1    3    3  502    0  0.32155774994E+02  0.30495079434E+03 -0.62501952921E+03  0.69618847500E+03  0.25500000920E-02 0. -1.
       -2    1    3    3    0  502 -0.32155774994E+02 -0.30495079434E+03  0.89018915937E+03  0.94152308538E+03  0.25500000920E-02 0.  1.
</event>
<event>
 5   0  0.7553070E-04  0.1604779E+04  0.7818609E-02  0.8817617E-01
       -2   -1    0    0    0  501  0.00000000000E+00  0.00000000000E+00  0.68440506086E+03  0.68440506086E+03  0.25500000920E-02 0. -1.
        2   -1    0    0  501    0  0.00000000000E+00  0.00000000000E+00 -0.94071345215E+03  0.94071345215E+03  0.25500000920E-02 0.  1.
    10030    2    1    2    0    0  0.00000000000E+00  0.00000000000E+00 -0.25630839129E+03  0.16251185130E+04  0.16047791717E+04 0.  0.
        4    1    3    3  502    0  0.11361246676E+03 -0.39651410175E+03 -0.82513322819E+03  0.92248451621E+03  0.12699999809E+01 0.  1.
       -4    1    3    3    0  502 -0.11361246676E+03  0.39651410175E+03  0.56882483690E+03  0.70263399680E+03  0.12699999809E+01 0. -1.
</event>
<event>
 5   0  0.7415102E-04  0.1612501E+04  0.7818609E-02  0.8812905E-01
       -2   -1    0    0    0  501  0.00000000000E+00  0.00000000000E+00  0.37086904808E+03  0.37086904809E+03  0.25500000920E-02 0. -1.
        2   -1    0    0  501    0  0.00000000000E+00  0.00000000000E+00 -0.17527469863E+04  0.17527469863E+04  0.25500000920E-02 0.  1.
    10030    2    1    2    0    0  0.00000000000E+00  0.00000000000E+00 -0.13818779382E+04  0.21236160344E+04  0.16125006745E+04 0.  0.
        5    1    3    3  502    0 -0.34208421972E+03 -0.10323205436E+03 -0.16427535129E+04  0.16811721104E+04  0.46999998093E+01 0.  1.
       -5    1    3    3    0  502  0.34208421972E+03  0.10323205436E+03  0.26087557470E+03  0.44244392402E+03  0.46999998093E+01 0. -1.
</event>
<event>
 5   0  0.7553070E-04  0.1617336E+04  0.7818609E-02  0.8809968E-01
       -2   -1    0    0    0  501  0.00000000000E+00  0.00000000000E+00  0.46484518839E+03  0.46484518840E+03  0.25500000920E-02 0. -1.
        2   -1    0    0  501    0  0.00000000000E+00  0.00000000000E+00 -0.14067993756E+04  0.14067993756E+04  0.25500000920E-02 0.  1.
    10030    2    1    2    0    0  0.00000000000E+00  0.00000000000E+00 -0.94195418716E+03  0.18716445640E+04  0.16173359834E+04 0.  0.
        4    1    3    3  502    0 -0.24402589131E+03  0.14685107788E+03  0.40488435575E+03  0.49502204915E+03  0.12699999809E+01 0. -1.
       -4    1    3    3    0  502  0.24402589131E+03 -0.14685107788E+03 -0.13468385429E+04  0.13766225148E+04  0.12699999809E+01 0.  1.
</event>
<event>
 5   0  0.7770905E-04  0.1226429E+04  0.7818609E-02  0.9090033E-01
        2   -1    0    0  501    0  0.00000000000E+00  0.00000000000E+00  0.45475963573E+03  0.45475963574E+03  0.25500000920E-02 0.  1.
       -2   -1    0    0    0  501  0.00000000000E+00  0.00000000000E+00 -0.82688112744E+03  0.82688112745E+03  0.25500000920E-02 0. -1.
    10030    2    1    2    0    0  0.00000000000E+00  0.00000000000E+00 -0.37212149171E+03  0.12816407632E+04  0.12264292239E+04 0.  0.
        2    1    3    3  502    0  0.36139196298E+03  0.48381978552E+03 -0.74745836746E+02  0.60850034995E+03  0.25500000920E-02 0. -1.
       -2    1    3    3    0  502 -0.36139196298E+03 -0.48381978552E+03 -0.29737565496E+03  0.67314041324E+03  0.25500000920E-02 0.  1.
</event>
<event>
 5   0  0.7415102E-04  0.1396563E+04  0.7818609E-02  0.8956310E-01
        2   -1    0    0  501    0  0.00000000000E+00  0.00000000000E+00  0.13727788454E+04  0.13727788454E+04  0.25500000920E-02 0. -1.
       -2   -1    0    0    0  501  0.00000000000E+00  0.00000000000E+00 -0.35518964779E+03  0.35518964780E+03  0.25500000920E-02 0.  1.
    10030    2    1    2    0    0  0.00000000000E+00  0.00000000000E+00  0.10175891976E+04  0.17279684932E+04  0.13965626869E+04 0.  0.
        5    1    3    3  502    0  0.56841080782E+03 -0.36332127035E+03  0.28580029188E+03  0.73266437662E+03  0.46999998093E+01 0.  1.
       -5    1    3    3    0  502 -0.56841080782E+03  0.36332127035E+03  0.73178890574E+03  0.99530411659E+03  0.46999998093E+01 0. -1.
</event>
<event>
 5   0  0.3889847E-04  0.1583492E+04  0.7818609E-02  0.8830754E-01
       -1   -1    0    0    0  501  0.00000000000E+00  0.00000000000E+00  0.66356738065E+03  0.66356738067E+03  0.50400001928E-02 0.  1.
        1   -1    0    0  501    0  0.00000000000E+00  0.00000000000E+00 -0.94468484882E+03  0.94468484883E+03  0.50400001928E-02 0. -1.
    10030    2    1    2    0    0  0.00000000000E+00  0.00000000000E+00 -0.28111746816E+03  0.16082522295E+04  0.15834924069E+04 0.  0.
        1    1    3    3  502    0  0.67890573655E+03 -0.20194205399E+03  0.21876477196E+03  0.74131748784E+03  0.50400001928E-02 0.  1.
       -1    1    3    3    0  502 -0.67890573655E+03  0.20194205399E+03 -0.49988224012E+03  0.86693474167E+03  0.50400001928E-02 0. -1.
</event>
<event>
 5   0  0.7488884E-04  0.1619439E+04  0.7818609E-02  0.8808694E-01
       -2   -1    0    0    0  501  0.00000000000E+00  0.00000000000E+00  0.42087006658E+03  0.42087006659E+03  0.25500000920E-02 0.  1.
        2   -1    0    0  501    0  0.00000000000E+00  0.00000000000E+00 -0.15578331731E+04  0.15578331731E+04  0.25500000920E-02 0. -1.
    10030    2    1    2    0    0  0.00000000000E+00  0.00000000000E+00 -0.11369631066E+04  0.19787032397E+04  0.16194386081E+04 0.  0.
        3    1    3    3  502    0  0.75989808726E+03  0.26880690509E+03 -0.66267532311E+03  0.10434753707E+04  0.10100000352E+00 0. -1.
       -3    1    3    3    0  502 -0.75989808726E+03 -0.26880690509E+03 -0.47428778345E+03  0.93522786901E+03  0.10100000352E+00 0.  1.
</event>
<event>
 5   0  0.3889847E-04  0.1601448E+04  0.7818609E-02  0.8819659E-01
        1   -1    0    0  501    0  0.00000000000E+00  0.00000000000E+00  0.97931019591E+03  0.97931019593E+03  0.50400001928E-02 0.  1.
       -1   -1    0    0    0  501  0.00000000000E+00  0.00000000000E+00 -0.65470493479E+03  0.65470493481E+03  0.50400001928E-02 0. -1.
    10030    2    1    2    0    0  0.00000000000E+00  0.00000000000E+00  0.32460526113E+03  0.16340151307E+04  0.16014483669E+04 0.  0.
        1    1    3    3  502    0  0.12558287157E+03  0.31209522463E+03 -0.57909947387E+03  0.66972433697E+03  0.50400001928E-02 0. -1.
       -1    1    3    3    0  502 -0.12558287157E+03 -0.31209522463E+03  0.90370473499E+03  0.96429079377E+03  0.50400001928E-02 0.  1.
</event>
<event>
 5   0  0.7770905E-04  0.1540998E+04  0.7818609E-02  0.8857638E-01
        2   -1    0    0  501    0  0.00000000000E+00  0.00000000000E+00  0.10263882339E+04  0.10263882339E+04  0.25500000920E-02 0.  1.
       -2   -1    0    0    0  501  0.00000000000E+00  0.00000000000E+00 -0.57840582512E+03  0.57840582512E+03  0.25500000920E-02 0. -1.
    10030    2    1    2    0    0  0.00000000000E+00  0.00000000000E+00  0.44798240875E+03  0.16047940590E+04  0.15409982911E+04 0.  0.
        2    1    3    3  502    0  0.63837349983E+03 -0.29412498823E+03  0.55271502477E+03  0.89416113346E+03  0.25500000920E-02 0.  1.
       -2    1    3    3    0  502 -0.63837349983E+03  0.29412498823E+03 -0.10473261602E+03  0.71063292553E+03  0.25500000920E-02 0. -1.
</event>
<event>
 5   0  0.7415102E-04  0.1420202E+04  0.7818609E-02  0.8939324E-01
        2   -1    0    0  501    0  0.00000000000E+00  0.00000000000E+00  0.14496633977E+04  0.14496633977E+04  0.25500000920E-02 0. -1.
       -2   -1    0    0    0  501  0.00000000000E+00  0.00000000000E+00 -0.34783477822E+03  0.34783477823E+03  0.25500000920E-02 0.  1.
    10030    2    1    2    0    0  0.00000000000E+00  0.00000000000E+00  0.11018286195E+04  0.17974981759E+04  0.14202018821E+04 0.  0.
        5    1    3    3  502    0  0.24234222815E+03 -0.34252743971E+03  0.12759601523E+04  0.13431869575E+04  0.46999998093E+01 0. -1.
       -5    1    3    3    0  502 -0.24234222815E+03  0.34252743971E+03 -0.17413153282E+03  0.45431121846E+03  0.46999998093E+01 0.  1.
</event>
<event>
 5   0  0.3889847E-04  0.1622273E+04  0.7818609E-02  0.8806981E-01
        1   -1    0    0  501    0  0.00000000000E+00  0.00000000000E+00  0.50087366767E+03  0.50087366769E+03  0.50400001928E-02 0. -1.
       -1   -1    0    0    0  501  0.00000000000E+00  0.00000000000E+00 -0.13135891691E+04  0.13135891691E+04  0.50400001928E-02 0.  1.
    10030    2    1    2    0    0  0.00000000000E+00  0.00000000000E+00 -0.81271550142E+03  0.18144628368E+04  0.16222727575E+04 0.  0.
        1    1    3    3  502    0  0.82852427575E+01 -0.67273624598E+03 -0.91313623996E+03  0.11342224185E+04  0.50400001928E-02 0.  1.
       -1    1    3    3    0  502 -0.82852427575E+01  0.67273624598E+03  0.10042073854E+03  0.68024041827E+03  0.50400001928E-02 0. -1.
</event>
<event>
 5   0  0.3837251E-04  0.1624878E+04  0.7818609E-02  0.8805409E-01
       -1   -1    0    0    0  501  0.00000000000E+00  0.00000000000E+00  0.63800376649E+03  0.63800376651E+03  0.50400001928E-02 0.  1.
        1   -1    0    0  501    0  0.00000000000E+00  0.00000000000E+00 -0.10345660937E+04  0.10345660937E+04  0.50400001928E-02 0. -1.
    10030    2    1    2    0    0  0.00000000000E+00  0.00000000000E+00 -0.39656232722E+03  0.16725698602E+04  0.16248779210E+04 0.  0.
        4    1    3    3  502    0 -0.10611350470E+03 -0.25622556773E+03 -0.98433333738E+03  0.10226560269E+04  0.12699999809E+01 0. -1.
       -4    1    3    3    0  502  0.10611350470E+03  0.25622556773E+03  0.58777101016E+03  0.64991383331E+03  0.12699999809E+01 0.  1.
</event>
<event>
 5   0  0.4110803E-04  0.1594346E+04  0.7818609E-02  0.8824029E-01
       -1   -1    0    0    0  501  0.00000000000E+00  0.00000000000E+00  0.46352929657E+03  0.46352929660E+03  0.50400001928E-02 0.  1.
        1   -1    0    0  501    0  0.00000000000E+00  0.00000000000E+00 -0.13709704787E+04  0.13709704787E+04  0.50400001928E-02 0. -1.
    10030    2    1    2    0    0  0.00000000000E+00  0.00000000000E+00 -0.90744118211E+03  0.18344997753E+04  0.15943462380E+04 0.  0.
        5    1    3    3  502    0  0.73534215033E+03  0.27355996732E+03 -0.61603568883E+03  0.99753956998E+03  0.46999998093E+01 0.  1.
       -5    1    3    3    0  502 -0.73534215033E+03 -0.27355996732E+03 -0.29140549328E+03  0.83696020531E+03  0.46999998093E+01 0. -1.
</event>
<event>
 5   0  0.2781000E-04  0.1577433E+04  0.7818609E-02  0.8834533E-01
       -3   -1    0    0    0  501  0.00000000000E+00  0.00000000000E+00  0.54713982850E+03  0.54713983782E+03  0.10100000352E+00 0.  1.
        3   -1    0    0  501    0  0.00000000000E+00  0.00000000000E+00 -0.11369550869E+04  0.11369550913E+04  0.10100000352E+00 0. -1.
    10030    2    1    2    0    0  0.00000000000E+00  0.00000000000E+00 -0.58981525836E+03  0.16840949292E+04  0.15774326266E+04 0.  0.
        3    1    3    3  502    0 -0.53680773457E+03 -0.46851946606E+03  0.66194026725E+02  0.71557996992E+03  0.10100000352E+00 0.  1.
       -3    1    3    3    0  502  0.53680773457E+03  0.46851946606E+03 -0.65600928508E+03  0.96851495925E+03  0.10100000352E+00 0. -1.
</event>
<event>
 5   0  0.2781000E-04  0.1851133E+04  0.7818609E-02  0.8679570E-01
        3   -1    0    0  501    0  0.00000000000E+00  0.00000000000E+00  0.35921470850E+03  0.35921472270E+03  0.10100000352E+00 0.  1.
       -3   -1    0    0    0  501  0.00000000000E+00  0.00000000000E+00 -0.23848497705E+04  0.23848497726E+04  0.10100000352E+00 0. -1.
    10030    2    1    2    0    0  0.00000000000E+00  0.00000000000E+00 -0.20256350620E+04  0.27440644953E+04  0.18511327749E+04 0.  0.
        2    1    3    3  502    0 -0.72876683156E+03 -0.56710462627E+03 -0.91948249694E+03  0.13031334598E+04  0.25500000920E-02 0. -1.
       -2    1    3    3    0  502  0.72876683156E+03  0.56710462627E+03 -0.11061525650E+04  0.14409310355E+04  0.25500000920E-02 0.  1.
</event>
<event>
 5   0  0.3973227E-04  0.1594360E+04  0.7818609E-02  0.8824020E-01
       -1   -1    0    0    0  501  0.00000000000E+00  0.00000000000E+00  0.12016496128E+04  0.12016496128E+04  0.50400001928E-02 0. -1.
        1   -1    0    0  501    0  0.00000000000E+00  0.00000000000E+00 -0.52885300880E+03  0.52885300882E+03  0.50400001928E-02 0.  1.
    10030    2    1    2    0    0  0.00000000000E+00  0.00000000000E+00  0.67279660397E+03  0.17305026216E+04  0.15943600763E+04 0.  0.
        3    1    3    3  502    0 -0.14944312535E+03 -0.51603705978E+03 -0.30284809228E+03  0.61672074067E+03  0.10100000352E+00 0.  1.
       -3    1    3    3    0  502  0.14944312535E+03  0.51603705978E+03  0.97564469624E+03  0.11137818809E+04  0.10100000352E+00 0. -1.
</event>
<event>
 5   0  0.7415102E-04  0.1604281E+04  0.7818609E-02  0.8817922E-01
        2   -1    0    0  501    0  0.00000000000E+00  0.00000000000E+00  0.86054697530E+03  0.86054697530E+03  0.25500000920E-02 0. -1.
       -2   -1    0    0    0  501  0.00000000000E+00  0.00000000000E+00 -0.74769856078E+03  0.74769856078E+03  0.25500000920E-02 0.  1.
    10030    2    1    2    0    0  0.00000000000E+00  0.00000000000E+00  0.11284841452E+03  0.16082455361E+04  0.16042814403E+04 0.  0.
        5    1    3    3  502    0  0.39841614841E+03  0.25381477644E+02 -0.64101609080E+03  0.75518432544E+03  0.46999998093E+01 0.  1.
       -5    1    3    3    0  502 -0.39841614841E+03 -0.25381477644E+02  0.75386450532E+03  0.85306121065E+03  0.46999998093E+01 0. -1.
</event>
<event>
 5   0  0.2781000E-04  0.1442184E+04  0.7818609E-02  0.8923837E-01
        3   -1    0    0  501    0  0.00000000000E+00  0.00000000000E+00  0.41613604441E+03  0.41613605667E+03  0.10100000352E+00 0.  1.
       -3   -1    0    0    0  501  0.00000000000E+00  0.00000000000E+00 -0.12495276169E+04  0.12495276209E+04  0.10100000352E+00 0. -1.
    10030    2    1    2    0    0  0.00000000000E+00  0.00000000000E+00 -0.83339157244E+03  0.16656636776E+04  0.14421837518E+04 0.  0.
        2    1    3    3  502    0  0.60763495702E+03  0.37986530692E+03 -0.32389854623E+03  0.78640203500E+03  0.25500000920E-02 0.  1.
       -2    1    3    3    0  502 -0.60763495702E+03 -0.37986530692E+03 -0.50949302621E+03  0.87926164261E+03  0.25500000920E-02 0. -1.
</event>
<event>
 5   0  0.7415102E-04  0.1599453E+04  0.7818609E-02  0.8820884E-01
       -2   -1    0    0    0  501  0.00000000000E+00  0.00000000000E+00  0.10609321137E+04  0.10609321137E+04  0.25500000920E-02 0. -1.
        2   -1    0    0  501    0  0.00000000000E+00  0.00000000000E+00 -0.60283037772E+03  0.60283037773E+03  0.25500000920E-02 0.  1.
    10030    2    1    2    0    0  0.00000000000E+00  0.00000000000E+00  0.45810173596E+03  0.16637624914E+04  0.15994525399E+04 0.  0.
        5    1    3    3  502    0 -0.56821628973E+03 -0.29367733254E+03 -0.27027460562E+03  0.69439655817E+03  0.46999998093E+01 0.  1.
       -5    1    3    3    0  502  0.56821628973E+03  0.29367733254E+03  0.72837634158E+03  0.96936593324E+03  0.46999998093E+01 0. -1.
</event>
<event>
 5   0  0.3837251E-04  0.1491661E+04  0.7818609E-02  0.8890018E-01
       -1   -1    0    0    0  501  0.00000000000E+00  0.00000000000E+00  0.12537700936E+04  0.12537700936E+04  0.50400001928E-02 0. -1.
        1   -1    0    0  501    0  0.00000000000E+00  0.00000000000E+00 -0.44367209567E+03  0.44367209570E+03  0.50400001928E-02 0.  1.
    10030    2    1    2    0    0  0.00000000000E+00  0.00000000000E+00  0.81009799792E+03  0.16974421893E+04  0.14916605578E+04 0.  0.
        4    1    3    3  502    0  0.38695289940E+03  0.41393376586E+03  0.95691302906E+03  0.11120961590E+04  0.12699999809E+01 0. -1.
       -4    1    3    3    0  502 -0.38695289940E+03 -0.41393376586E+03 -0.14681503113E+03  0.58534603026E+03  0.12699999809E+01 0.  1.
</event>
<event>
 5   0  0.4110803E-04  0.1618559E+04  0.7818609E-02  0.8809227E-01
       -1   -1    0    0    0  501  0.00000000000E+00  0.00000000000E+00  0.64444772851E+03  0.64444772853E+03  0.50400001928E-02 0.  1.
        1   -1    0    0  501    0  0.00000000000E+00  0.00000000000E+00 -0.10162709565E+04  0.10162709565E+04  0.50400001928E-02 0. -1.
    10030    2    1    2    0    0  0.00000000000E+00  0.00000000000E+00 -0.37182322799E+03  0.16607186850E+04  0.16185592476E+04 0.  0.
        5    1    3    3  502    0 -0.72545230630E+03  0.75911836123E+02  0.17374367214E+03  0.74983505466E+03  0.46999998093E+01 0.  1.
       -5    1    3    3    0  502  0.72545230630E+03 -0.75911836123E+02 -0.54556690013E+03  0.91088363038E+03  0.46999998093E+01 0. -1.
</event>
<event>
 5   0  0.7488884E-04  0.1598086E+04  0.7818609E-02  0.8821725E-01
        2   -1    0    0  501    0  0.00000000000E+00  0.00000000000E+00  0.27157365814E+04  0.27157365814E+04  0.25500000920E-02 0. -1.
       -2   -1    0    0    0  501  0.00000000000E+00  0.00000000000E+00 -0.23509996481E+03  0.23509996483E+03  0.25500000920E-02 0.  1.
    10030    2    1    2    0    0  0.00000000000E+00  0.00000000000E+00  0.24806366166E+04  0.29508365462E+04  0.15980858234E+04 0.  0.
        3    1    3    3  502    0 -0.50493198063E+03  0.52258444757E+03  0.18538916425E+04  0.19912219972E+04  0.10100000352E+00 0. -1.
       -3    1    3    3    0  502  0.50493198063E+03 -0.52258444757E+03  0.62674497408E+03  0.95961454899E+03  0.10100000352E+00 0.  1.
</event>
<event>
 5   0  0.7415102E-04  0.1578044E+04  0.7818609E-02  0.8834151E-01
       -2   -1    0    0    0  501  0.00000000000E+00  0.00000000000E+00  0.67207741273E+03  0.67207741273E+03  0.25500000920E-02 0.  1.
        2   -1    0    0  501    0  0.00000000000E+00  0.00000000000E+00 -0.92631517123E+03  0.92631517123E+03  0.25500000920E-02 0. -1.
    10030    2    1    2    0    0  0.00000000000E+00  0.00000000000E+00 -0.25423775850E+03  0.15983925840E+04  0.15780437303E+04 0.  0.
        5    1    3    3  502    0 -0.34964231692E+03 -0.70072250251E+03 -0.22464987619E+03  0.81470941579E+03  0.46999998093E+01 0.  1.
       -5    1    3    3    0  502  0.34964231692E+03  0.70072250251E+03 -0.29587882308E+02  0.78368316817E+03  0.46999998093E+01 0. -1.
</event>
<event>
 5   0  0.2781000E-04  0.1599425E+04  0.7818609E-02  0.8820902E-01
       -3   -1    0    0    0  501  0.00000000000E+00  0.00000000000E+00  0.80289374329E+03  0.80289374964E+03  0.10100000352E+00 0.  1.
        3   -1    0    0  501    0  0.00000000000E+00  0.00000000000E+00 -0.79654352749E+03  0.79654353389E+03  0.10100000352E+00 0. -1.
    10030    2    1    2    0    0  0.00000000000E+00  0.00000000000E+00  0.63502158021E+01  0.15994372835E+04  0.15994246774E+04 0.  0.
        1    1    3    3  502    0  0.69447178330E+03 -0.13313586552E+03  0.37670664276E+03  0.80120166700E+03  0.50400001928E-02 0.  1.
       -1    1    3    3    0  502 -0.69447178330E+03  0.13313586552E+03 -0.37035642696E+03  0.79823561653E+03  0.50400001928E-02 0. -1.
</event>
<event>
 5   0  0.7553070E-04  0.1595932E+04  0.7818609E-02  0.8823051E-01
       -2   -1    0    0    0  501  0.00000000000E+00  0.00000000000E+00  0.34830752623E+03  0.34830752624E+03  0.25500000920E-02 0. -1.
        2   -1    0    0  501    0  0.00000000000E+00  0.00000000000E+00 -0.18281253429E+04  0.18281253429E+04  0.25500000920E-02 0.  1.
    10030    2    1    2    0    0  0.00000000000E+00  0.00000000000E+00 -0.14798178167E+04  0.21764328692E+04  0.15959320986E+04 0.  0.
        4    1    3    3  502    0 -0.19905295282E+03 -0.52412723685E+03  0.34445320074E+02  0.56171125270E+03  0.12699999809E+01 0. -1.
       -4    1    3    3    0  502  0.19905295282E+03  0.52412723685E+03 -0.15142631368E+04  0.16147216165E+04  0.12699999809E+01 0.  1.
</event>
<event>
 5   0  0.3889847E-04  0.1594107E+04  0.7818609E-02  0.8824176E-01
        1   -1    0    0  501    0  0.00000000000E+00  0.00000000000E+00  0.71422262401E+03  0.71422262403E+03  0.50400001928E-02 0. -1.
       -1   -1    0    0    0  501  0.00000000000E+00  0.00000000000E+00 -0.88949062329E+03  0.88949062330E+03  0.50400001928E-02 0.  1.
    10030    2    1    2    0    0  0.00000000000E+00  0.00000000000E+00 -0.17526799927E+03  0.16037132473E+04  0.15941070567E+04 0.  0.
        1    1    3    3  502    0  0.22037043931E+03  0.32110415674E+03  0.61198701839E+03  0.72539583725E+03  0.50400001928E-02 0. -1.
       -1    1    3    3    0  502 -0.22037043931E+03 -0.32110415674E+03 -0.78725501766E+03  0.87831741008E+03  0.50400001928E-02 0.  1.
</event>
<event>
 5   0  0.3837251E-04  0.1612447E+04  0.7818609E-02  0.8812938E-01
       -1   -1    0    0    0  501  0.00000000000E+00  0.00000000000E+00  0.12586188280E+04  0.12586188280E+04  0.50400001928E-02 0.  1.
        1   -1    0    0  501    0  0.00000000000E+00  0.00000000000E+00 -0.51643608900E+03  0.51643608902E+03  0.50400001928E-02 0. -1.
    10030    2    1    2    0    0  0.00000000000E+00  0.00000000000E+00  0.74218273899E+03  0.17750549170E+04  0.16124468178E+04 0.  0.
        4    1    3    3  502    0 -0.30479067945E+03 -0.31754905424E+02 -0.44982418386E+03  0.54428773785E+03  0.12699999809E+01 0. -1.
       -4    1    3    3    0  502  0.30479067945E+03  0.31754905424E+02  0.11920069228E+04  0.12307671792E+04  0.12699999809E+01 0.  1.
</event>
<event>
 5   0  0.3837251E-04  0.1555607E+04  0.7818609E-02  0.8848294E-01
        1   -1    0    0  501    0  0.00000000000E+00  0.00000000000E+00  0.14138970231E+04  0.14138970231E+04  0.50400001928E-02 0. -1.
       -1   -1    0    0    0  501  0.00000000000E+00  0.00000000000E+00 -0.42788025001E+03  0.42788025004E+03  0.50400001928E-02 0.  1.
    10030    2    1    2    0    0  0.00000000000E+00  0.00000000000E+00  0.98601677310E+03  0.18417772732E+04  0.15556074206E+04 0.  0.
        4    1    3    3  502    0 -0.67481156888E+03  0.36293138565E+03  0.65135461909E+03  0.10056611243E+04  0.12699999809E+01 0. -1.
       -4    1    3    3    0  502  0.67481156888E+03 -0.36293138565E+03  0.33466215402E+03  0.83611614888E+03  0.12699999809E+01 0.  1.
</event>
<event>
 5   0  0.3837251E-04  0.1621648E+04  0.7818609E-02  0.8807358E-01
        1   -1    0    0  501    0  0.00000000000E+00  0.00000000000E+00  0.88487151062E+03  0.88487151063E+03  0.50400001928E-02 0.  1.
       -1   -1    0    0    0  501  0.00000000000E+00  0.00000000000E+00 -0.74297295777E+03  0.74297295778E+03  0.50400001928E-02 0. -1.
    10030    2    1    2    0    0  0.00000000000E+00  0.00000000000E+00  0.14189855285E+03  0.16278444684E+04  0.16216480549E+04 0.  0.
        4    1    3    3  502    0  0.75743417386E+03  0.28215079025E+03  0.65293429351E+01  0.80830677431E+03  0.12699999809E+01 0.  1.
       -4    1    3    3    0  502 -0.75743417386E+03 -0.28215079025E+03  0.13536920991E+03  0.81953769411E+03  0.12699999809E+01 0. -1.
</event>
<event>
 5   0  0.3889847E-04  0.1580826E+04  0.7818609E-02  0.8832415E-01
       -1   -1    0    0    0  501  0.00000000000E+00  0.00000000000E+00  0.48238420490E+03  0.48238420492E+03  0.50400001928E-02 0. -1.
        1   -1    0    0  501    0  0.00000000000E+00  0.00000000000E+00 -0.12951344764E+04  0.12951344764E+04  0.50400001928E-02 0.  1.
    10030    2    1    2    0    0  0.00000000000E+00  0.00000000000E+00 -0.81275027154E+03  0.17775186814E+04  0.15808256257E+04 0.  0.
        1    1    3    3  502    0  0.23589385374E+03 -0.68265192300E+03 -0.76740613464E+03  0.10538366732E+04  0.50400001928E-02 0.  1.
       -1    1    3    3    0  502 -0.23589385374E+03  0.68265192300E+03 -0.45344136897E+02  0.72368200820E+03  0.50400001928E-02 0. -1.
</event>
<event>
 5   0  0.4110803E-04  0.1594026E+04  0.7818609E-02  0.8824226E-01
        1   -1    0    0  501    0  0.00000000000E+00  0.00000000000E+00  0.88919836783E+03  0.88919836785E+03  0.50400001928E-02 0.  1.
       -1   -1    0    0    0  501  0.00000000000E+00  0.00000000000E+00 -0.71438483535E+03  0.71438483536E+03  0.50400001928E-02 0. -1.
    10030    2    1    2    0    0  0.00000000000E+00  0.00000000000E+00  0.17481353249E+03  0.16035832032E+04  0.15940261348E+04 0.  0.
        5    1    3    3  502    0 -0.13450674682E+03  0.27705527570E+02 -0.70237860295E+03  0.71569368662E+03  0.46999998093E+01 0. -1.
       -5    1    3    3    0  502  0.13450674682E+03 -0.27705527570E+02  0.87719213543E+03  0.88788951659E+03  0.46999998093E+01 0.  1.
</event>
<event>
 5   0  0.7553070E-04  0.1616075E+04  0.7818609E-02  0.8810733E-01
        2   -1    0    0  501    0  0.00000000000E+00  0.00000000000E+00  0.15846193218E+04  0.15846193218E+04  0.25500000920E-02 0.  1.
       -2   -1    0    0    0  501  0.00000000000E+00  0.00000000000E+00 -0.41203858650E+03  0.41203858651E+03  0.25500000920E-02 0. -1.
    10030    2    1    2    0    0  0.00000000000E+00  0.00000000000E+00  0.11725807353E+04  0.19966579083E+04  0.16160746338E+04 0.  0.
        4    1    3    3  502    0 -0.67851652486E+03  0.13396015045E+03  0.11025346860E+04  0.13015046458E+04  0.12699999809E+01 0.  1.
       -4    1    3    3    0  502  0.67851652486E+03 -0.13396015045E+03  0.70046049314E+02  0.69515326248E+03  0.12699999809E+01 0. -1.
</event>
<event>
 5   0  0.4110803E-04  0.1608766E+04  0.7818609E-02  0.8815181E-01
        1   -1    0    0  501    0  0.00000000000E+00  0.00000000000E+00  0.13272380046E+04  0.13272380046E+04  0.50400001928E-02 0.  1.
       -1   -1    0    0    0  501  0.00000000000E+00  0.00000000000E+00 -0.48750260018E+03  0.48750260021E+03  0.50400001928E-02 0. -1.
    10030    2    1    2    0    0  0.00000000000E+00  0.00000000000E+00  0.83973540439E+03  0.18147406048E+04  0.16087659598E+04 0.  0.
        5    1    3    3  502    0 -0.76976443701E+03 -0.20650680129E+03  0.29718907235E+03  0.85060318727E+03  0.46999998093E+01 0. -1.
       -5    1    3    3    0  502  0.76976443701E+03  0.20650680129E+03  0.54254633204E+03  0.96413741753E+03  0.46999998093E+01 0.  1.
</event>
<event>
 5   0  0.7553070E-04  0.1613785E+04  0.7818609E-02  0.8812124E-01
       -2   -1    0    0    0  501  0.00000000000E+00  0.00000000000E+00  0.95103941509E+03  0.95103941509E+03  0.25500000920E-02 0.  1.
        2   -1    0    0  501    0  0.00000000000E+00  0.00000000000E+00 -0.68459373146E+03  0.68459373146E+03  0.25500000920E-02 0. -1.
    10030    2    1    2    0    0  0.00000000000E+00  0.00000000000E+00  0.26644568363E+03  0.16356331466E+04  0.16137851430E+04 0.  0.
        4    1    3    3  502    0  0.23630543406E+03  0.41335087600E+03  0.79348283913E+03  0.92537334830E+03  0.12699999809E+01 0.  1.
       -4    1    3    3    0  502 -0.23630543406E+03 -0.41335087600E+03 -0.52703715549E+03  0.71025979826E+03  0.12699999809E+01 0. -1.
</event>
<event>
 5   0  0.3889847E-04  0.1599562E+04  0.7818609E-02  0.8820817E-01
        1   -1    0    0  501    0  0.00000000000E+00  0.00000000000E+00  0.85412091790E+03  0.85412091791E+03  0.50400001928E-02 0.  1.
       -1   -1    0    0    0  501  0.00000000000E+00  0.00000000000E+00 -0.74889804912E+03  0.74889804914E+03  0.50400001928E-02 0. -1.
    10030    2    1    2    0    0  0.00000000000E+00  0.00000000000E+00  0.10522286878E+03  0.16030189671E+04  0.15995618014E+04 0.  0.
        1    1    3    3  502    0 -0.27246131612E+03 -0.65136987434E+03  0.42909825710E+03  0.82622224386E+03  0.50400001928E-02 0.  1.
       -1    1    3    3    0  502  0.27246131612E+03  0.65136987434E+03 -0.32387538832E+03  0.77679672319E+03  0.50400001928E-02 0. -1.
</event>
<event>
 5   0  0.7395088E-04  0.1594899E+04  0.7818609E-02  0.8823688E-01
        2   -1    0    0  501    0  0.00000000000E+00  0.00000000000E+00  0.10697244735E+04  0.10697244735E+04  0.25500000920E-02 0.  1.
       -2   -1    0    0    0  501  0.00000000000E+00  0.00000000000E+00 -0.59447604099E+03  0.59447604099E+03  0.25500000920E-02 0. -1.
    10030    2    1    2    0    0  0.00000000000E+00  0.00000000000E+00  0.47524843247E+03  0.16642005145E+04  0.15948988306E+04 0.  0.
        1    1    3    3  502    0 -0.32711538033E+03 -0.33609844613E+03  0.91059737007E+03  0.10242822892E+04  0.50400001928E-02 0.  1.
       -1    1    3    3    0  502  0.32711538033E+03  0.33609844613E+03 -0.43534893760E+03  0.63991822527E+03  0.50400001928E-02 0. -1.
</event>
<event>
 5   0  0.3973227E-04  0.1591626E+04  0.7818609E-02  0.8825709E-01
        1   -1    0    0  501    0  0.00000000000E+00  0.00000000000E+00  0.84336581520E+03  0.84336581521E+03  0.50400001928E-02 0. -1.
       -1   -1    0    0    0  501  0.00000000000E+00  0.00000000000E+00 -0.75094184548E+03  0.75094184550E+03  0.50400001928E-02 0.  1.
    10030    2    1    2    0    0  0.00000000000E+00  0.00000000000E+00  0.92423969717E+02  0.15943076607E+04  0.15916264407E+04 0.  0.
        3    1    3    3  502    0 -0.72293139213E+03  0.25174085639E+03  0.26409948417E+03  0.80978503582E+03  0.10100000352E+00 0. -1.
       -3    1    3    3    0  502  0.72293139213E+03 -0.25174085639E+03 -0.17167551446E+03  0.78452262489E+03  0.10100000352E+00 0.  1.
</event>
<event>
 5   0  0.7770905E-04  0.1625243E+04  0.7818609E-02  0.8805189E-01
       -2   -1    0    0    0  501  0.00000000000E+00  0.00000000000E+00  0.90231042497E+03  0.90231042498E+03  0.25500000920E-02 0. -1.
        2   -1    0    0  501    0  0.00000000000E+00  0.00000000000E+00 -0.73184760799E+03  0.73184760799E+03  0.25500000920E-02 0.  1.
    10030    2    1    2    0    0  0.00000000000E+00  0.00000000000E+00  0.17046281699E+03  0.16341580330E+04  0.16252430294E+04 0.  0.
        2    1    3    3  502    0 -0.62393803790E+03 -0.10731324286E+03 -0.42701271725E+03  0.76364564291E+03  0.25500000920E-02 0.  1.
       -2    1    3    3    0  502  0.62393803790E+03  0.10731324286E+03  0.59747553424E+03  0.87051239006E+03  0.25500000920E-02 0. -1.
</event>
<event>
 5   0  0.3889847E-04  0.1597154E+04  0.7818609E-02  0.8822298E-01
        1   -1    0    0  501    0  0.00000000000E+00  0.00000000000E+00  0.81857602850E+03  0.81857602852E+03  0.50400001928E-02 0. -1.
       -1   -1    0    0    0  501  0.00000000000E+00  0.00000000000E+00 -0.77906699240E+03  0.77906699242E+03  0.50400001928E-02 0.  1.
    10030    2    1    2    0    0  0.00000000000E+00  0.00000000000E+00  0.39509036097E+02  0.15976430209E+04  0.15971544254E+04 0.  0.
        1    1    3    3  502    0 -0.29706932100E+03 -0.16131723294E+03 -0.70396673183E+03  0.78092419010E+03  0.50400001928E-02 0.  1.
       -1    1    3    3    0  502  0.29706932100E+03  0.16131723294E+03  0.74347576793E+03  0.81671883084E+03  0.50400001928E-02 0. -1.
</event>
<event>
 5   0  0.3973227E-04  0.1590534E+04  0.7818609E-02  0.8826385E-01
       -1   -1    0    0    0  501  0.00000000000E+00  0.00000000000E+00  0.51358121511E+03  0.51358121514E+03  0.50400001928E-02 0. -1.
        1   -1    0    0  501    0  0.00000000000E+00  0.00000000000E+00 -0.12314495819E+04  0.12314495819E+04  0.50400001928E-02 0.  1.
    10030    2    1    2    0    0  0.00000000000E+00  0.00000000000E+00 -0.71786836676E+03  0.17450307970E+04  0.15905337125E+04 0.  0.
        3    1    3    3  502    0  0.97781946922E+01 -0.30013222012E+03 -0.11668568050E+04  0.12048774943E+04  0.10100000352E+00 0.  1.
       -3    1    3    3    0  502 -0.97781946922E+01  0.30013222012E+03  0.44898843821E+03  0.54015330277E+03  0.10100000352E+00 0. -1.
</event>
<event>
 5   0  0.3889847E-04  0.1604674E+04  0.7818609E-02  0.8817682E-01
       -1   -1    0    0    0  501  0.00000000000E+00  0.00000000000E+00  0.81851005099E+03  0.81851005101E+03  0.50400001928E-02 0. -1.
        1   -1    0    0  501    0  0.00000000000E+00  0.00000000000E+00 -0.78648339896E+03  0.78648339898E+03  0.50400001928E-02 0.  1.
    10030    2    1    2    0    0  0.00000000000E+00  0.00000000000E+00  0.32026652029E+02  0.16049934500E+04  0.16046738822E+04 0.  0.
        1    1    3    3  502    0  0.11891631469E+03 -0.24916009438E+03  0.76950439376E+03  0.81753217342E+03  0.50400001928E-02 0. -1.
       -1    1    3    3    0  502 -0.11891631469E+03  0.24916009438E+03 -0.73747774173E+03  0.78746127657E+03  0.50400001928E-02 0.  1.
</event>
<event>
 5   0  0.7415102E-04  0.1622463E+04  0.7818609E-02  0.8806866E-01
       -2   -1    0    0    0  501  0.00000000000E+00  0.00000000000E+00  0.54514763954E+03  0.54514763954E+03  0.25500000920E-02 0. -1.
        2   -1    0    0  501    0  0.00000000000E+00  0.00000000000E+00 -0.12071901581E+04  0.12071901581E+04  0.25500000920E-02 0.  1.
    10030    2    1    2    0    0  0.00000000000E+00  0.00000000000E+00 -0.66204251852E+03  0.17523377976E+04  0.16224633927E+04 0.  0.
        5    1    3    3  502    0  0.73525479225E+03  0.15203764882E+03  0.74807506532E+00  0.75082468380E+03  0.46999998093E+01 0. -1.
       -5    1    3    3    0  502 -0.73525479225E+03 -0.15203764882E+03 -0.66279059359E+03  0.10015131138E+04  0.46999998093E+01 0.  1.
</event>
<event>
 5   0  0.7488884E-04  0.1590870E+04  0.7818609E-02  0.8826176E-01
        2   -1    0    0  501    0  0.00000000000E+00  0.00000000000E+00  0.23205304577E+04  0.23205304577E+04  0.25500000920E-02 0. -1.
       -2   -1    0    0    0  501  0.00000000000E+00  0.00000000000E+00 -0.27266051704E+03  0.27266051705E+03  0.25500000920E-02 0.  1.
    10030    2    1    2    0    0  0.00000000000E+00  0.00000000000E+00  0.20478699407E+04  0.25931909748E+04  0.15908702454E+04 0.  0.
        3    1    3    3  502    0 -0.23441311630E+03  0.21437727869E+03  0.22126505375E+04  0.22353365603E+04  0.10100000352E+00 0. -1.
       -3    1    3    3    0  502  0.23441311630E+03 -0.21437727869E+03 -0.16478059675E+03  0.35785441450E+03  0.10100000352E+00 0.  1.
</event>
<event>
 5   0  0.7395088E-04  0.1617952E+04  0.7818609E-02  0.8809594E-01
        2   -1    0    0  501    0  0.00000000000E+00  0.00000000000E+00  0.11236249036E+04  0.11236249036E+04  0.25500000920E-02 0. -1.
       -2   -1    0    0    0  501  0.00000000000E+00  0.00000000000E+00 -0.58243857736E+03  0.58243857737E+03  0.25500000920E-02 0.  1.
    10030    2    1    2    0    0  0.00000000000E+00  0.00000000000E+00  0.54118632622E+03  0.17060634809E+04  0.16179523977E+04 0.  0.
        1    1    3    3  502    0 -0.49088838130E+03 -0.26312703344E+03  0.88926040095E+03  0.10492813252E+04  0.50400001928E-02 0. -1.
       -1    1    3    3    0  502  0.49088838130E+03  0.26312703344E+03 -0.34807407473E+03  0.65678215578E+03  0.50400001928E-02 0.  1.
</event>
<event>
 5   0  0.3950195E-04  0.1590381E+04  0.7818609E-02  0.8826479E-01
        1   -1    0    0  501    0  0.00000000000E+00  0.00000000000E+00  0.88944103173E+03  0.88944103175E+03  0.50400001928E-02 0. -1.
       -1   -1    0    0    0  501  0.00000000000E+00  0.00000000000E+00 -0.71092713084E+03  0.71092713085E+03  0.50400001928E-02 0.  1.
    10030    2    1    2    0    0  0.00000000000E+00  0.00000000000E+00  0.17851390090E+03  0.16003681626E+04  0.15903807855E+04 0.  0.
        2    1    3    3  502    0  0.26303581402E+03  0.29281622438E+03  0.78453632206E+03  0.87773938122E+03  0.25500000920E-02 0. -1.
       -2    1    3    3    0  502 -0.26303581402E+03 -0.29281622438E+03 -0.60602242116E+03  0.72262878138E+03  0.25500000920E-02 0.  1.
</event>
<event>
 5   0  0.3889847E-04  0.1594267E+04  0.7818609E-02  0.8824078E-01
       -1   -1    0    0    0  501  0.00000000000E+00  0.00000000000E+00  0.42735170758E+03  0.42735170761E+03  0.50400001928E-02 0.  1.
        1   -1    0    0  501    0  0.00000000000E+00  0.00000000000E+00 -0.14868829485E+04  0.14868829485E+04  0.50400001928E-02 0. -1.
    10030    2    1    2    0    0  0.00000000000E+00  0.00000000000E+00 -0.10595312409E+04  0.19142346562E+04  0.15942671885E+04 0.  0.
        1    1    3    3  502    0 -0.32682466183E+03  0.25634416732E+03  0.28714668989E+03  0.50495535767E+03  0.50400001928E-02 0.  1.
       -1    1    3    3    0  502  0.32682466183E+03 -0.25634416732E+03 -0.13466779308E+04  0.14092792985E+04  0.50400001928E-02 0. -1.
</event>
<event>
 5   0  0.7415102E-04  0.1603611E+04  0.7818609E-02  0.8818333E-01
       -2   -1    0    0    0  501  0.00000000000E+00  0.00000000000E+00  0.43867664447E+03  0.43867664448E+03  0.25500000920E-02 0. -1.
        2   -1    0    0  501    0  0.00000000000E+00  0.00000000000E+00 -0.14655259624E+04  0.14655259624E+04  0.25500000920E-02 0.  1.
    10030    2    1    2    0    0  0.00000000000E+00  0.00000000000E+00 -0.10268493179E+04  0.19042026069E+04  0.16036109398E+04 0.  0.
        5    1    3    3  502    0 -0.21894085878E+03  0.28950714206E+03  0.33551293890E+03  0.49430810949E+03  0.46999998093E+01 0. -1.
       -5    1    3    3    0  502  0.21894085878E+03 -0.28950714206E+03 -0.13623622568E+04  0.14098944974E+04  0.46999998093E+01 0.  1.
</event>
<event>
 5   0  0.3973227E-04  0.1578632E+04  0.7818609E-02  0.8833784E-01
        1   -1    0    0  501    0  0.00000000000E+00  0.00000000000E+00  0.21476709496E+04  0.21476709496E+04  0.50400001928E-02 0. -1.
       -1   -1    0    0    0  501  0.00000000000E+00  0.00000000000E+00 -0.29009088483E+03  0.29009088487E+03  0.50400001928E-02 0.  1.
    10030    2    1    2    0    0  0.00000000000E+00  0.00000000000E+00  0.18575800648E+04  0.24377618345E+04  0.15786320232E+04 0.  0.
        3    1    3    3  502    0  0.42952428665E+02  0.78661585728E+03  0.85297604658E+03  0.11611104875E+04  0.10100000352E+00 0. -1.
       -3    1    3    3    0  502 -0.42952428665E+02 -0.78661585728E+03  0.10046040182E+04  0.12766513469E+04  0.10100000352E+00 0.  1.
</event>
<event>
 5   0  0.3837251E-04  0.1605260E+04  0.7818609E-02  0.8817323E-01
        1   -1    0    0  501    0  0.00000000000E+00  0.00000000000E+00  0.20412894941E+04  0.20412894941E+04  0.50400001928E-02 0. -1.
       -1   -1    0    0    0  501  0.00000000000E+00  0.00000000000E+00 -0.31559216131E+03  0.31559216135E+03  0.50400001928E-02 0.  1.
    10030    2    1    2    0    0  0.00000000000E+00  0.00000000000E+00  0.17256973328E+04  0.23568816555E+04  0.16052600579E+04 0.  0.
        4    1    3    3  502    0 -0.26718500600E+02 -0.74160836403E+03  0.41385882616E+03  0.84969264135E+03  0.12699999809E+01 0. -1.
       -4    1    3    3    0  502  0.26718500600E+02  0.74160836403E+03  0.13118385066E+04  0.15071890141E+04  0.12699999809E+01 0.  1.
</event>
<event>
 5   0  0.7415102E-04  0.1675322E+04  0.7818609E-02  0.8775565E-01
       -2   -1    0    0    0  501  0.00000000000E+00  0.00000000000E+00  0.46790925423E+03  0.46790925423E+03  0.25500000920E-02 0.  1.
        2   -1    0    0  501    0  0.00000000000E+00  0.00000000000E+00 -0.14995990012E+04  0.14995990012E+04  0.25500000920E-02 0. -1.
    10030    2    1    2    0    0  0.00000000000E+00  0.00000000000E+00 -0.10316897470E+04  0.19675082555E+04  0.16753223574E+04 0.  0.
        5    1    3    3  502    0  0.92200140207E+02  0.77663876827E+02 -0.14893426969E+04  0.14942209684E+04  0.46999998093E+01 0. -1.
       -5    1    3    3    0  502 -0.92200140207E+02 -0.77663876827E+02  0.45765294986E+03  0.47328728710E+03  0.46999998093E+01 0.  1.
</event>
<event>
 5   0  0.4110803E-04  0.1592715E+04  0.7818609E-02  0.8825036E-01
       -1   -1    0    0    0  501  0.00000000000E+00  0.00000000000E+00  0.58174445690E+03  0.58174445692E+03  0.50400001928E-02 0. -1.
        1   -1    0    0  501    0  0.00000000000E+00  0.00000000000E+00 -0.10901442284E+04  0.10901442284E+04  0.50400001928E-02 0.  1.
    10030    2    1    2    0    0  0.00000000000E+00  0.00000000000E+00 -0.50839977149E+03  0.16718886853E+04  0.15927151184E+04 0.  0.
        5    1    3    3  502    0  0.70539013404E+03 -0.35600053091E+03 -0.15001042091E+03  0.80426167110E+03  0.46999998093E+01 0. -1.
       -5    1    3    3    0  502 -0.70539013404E+03  0.35600053091E+03 -0.35838935058E+03  0.86762701423E+03  0.46999998093E+01 0.  1.
</event>
<event>
 5   0  0.7415102E-04  0.1587549E+04  0.7818609E-02  0.8828234E-01
       -2   -1    0    0    0  501  0.00000000000E+00  0.00000000000E+00  0.88785992195E+03  0.88785992195E+03  0.25500000920E-02 0. -1.
        2   -1    0    0  501    0  0.00000000000E+00  0.00000000000E+00 -0.70965964008E+03  0.70965964008E+03  0.25500000920E-02 0.  1.
    10030    2    1    2    0    0  0.00000000000E+00  0.00000000000E+00  0.17820028187E+03  0.15975195620E+04  0.15875494986E+04 0.  0.
        5    1    3    3  502    0 -0.42432627561E+03 -0.38089798812E+03 -0.46656353252E+03  0.73677655052E+03  0.46999998093E+01 0.  1.
       -5    1    3    3    0  502  0.42432627561E+03  0.38089798812E+03  0.64476381439E+03  0.86074301151E+03  0.46999998093E+01 0. -1.
</event>
<event>
 5   0  0.7553070E-04  0.1588567E+04  0.7818609E-02  0.8827603E-01
        2   -1    0    0  501    0  0.00000000000E+00  0.00000000000E+00  0.12790598522E+04  0.12790598522E+04  0.25500000920E-02 0.  1.
       -2   -1    0    0    0  501  0.00000000000E+00  0.00000000000E+00 -0.49324208964E+03  0.49324208965E+03  0.25500000920E-02 0. -1.
    10030    2    1    2    0    0  0.00000000000E+00  0.00000000000E+00  0.78581776256E+03  0.17723019419E+04  0.15885668438E+04 0.  0.
        4    1    3    3  502    0 -0.49824406276E+03 -0.39710685613E+03  0.92204691894E+03  0.11207645314E+04  0.12699999809E+01 0.  1.
       -4    1    3    3    0  502  0.49824406276E+03  0.39710685613E+03 -0.13622915638E+03  0.65153741044E+03  0.12699999809E+01 0. -1.
</event>
<event>
 5   0  0.7395088E-04  0.1618736E+04  0.7818609E-02  0.8809120E-01
        2   -1    0    0  501    0  0.00000000000E+00  0.00000000000E+00  0.29056793499E+04  0.29056793499E+04  0.25500000920E-02 0.  1.
       -2   -1    0    0    0  501  0.00000000000E+00  0.00000000000E+00 -0.22544689818E+03  0.22544689819E+03  0.25500000920E-02 0. -1.
    10030    2    1    2    0    0  0.00000000000E+00  0.00000000000E+00  0.26802324518E+04  0.31311262481E+04  0.16187357988E+04 0.  0.
        1    1    3    3  502    0 -0.56829205350E+03 -0.43378580193E+03  0.60622605624E+03  0.93735586162E+03  0.50400001928E-02 0. -1.
       -1    1    3    3    0  502  0.56829205350E+03  0.43378580193E+03  0.20740063955E+04  0.21937703865E+04  0.50400001928E-02 0.  1.
</event>
<event>
 5   0  0.7395088E-04  0.1662701E+04  0.7818609E-02  0.8782928E-01
       -2   -1    0    0    0  501  0.00000000000E+00  0.00000000000E+00  0.73647482505E+03  0.73647482506E+03  0.25500000920E-02 0.  1.
        2   -1    0    0  501    0  0.00000000000E+00  0.00000000000E+00 -0.93844789930E+03  0.93844789931E+03  0.25500000920E-02 0. -1.
    10030    2    1    2    0    0  0.00000000000E+00  0.00000000000E+00 -0.20197307425E+03  0.16749227244E+04  0.16627005172E+04 0.  0.
        1    1    3    3  502    0  0.43583540865E+02  0.35954187387E+03 -0.85480093716E+03  0.92836120465E+03  0.50400001928E-02 0. -1.
       -1    1    3    3    0  502 -0.43583540865E+02 -0.35954187387E+03  0.65282786291E+03  0.74656151972E+03  0.50400001928E-02 0.  1.
</event>
<event>
 5   0  0.3950195E-04  0.1582390E+04  0.7818609E-02  0.8831440E-01
        1   -1    0    0  501    0  0.00000000000E+00  0.00000000000E+00  0.16634140587E+03  0.16634140595E+03  0.50400001928E-02 0. -1.
       -1   -1    0    0    0  501  0.00000000000E+00  0.00000000000E+00 -0.37632836600E+04  0.37632836600E+04  0.50400001928E-02 0.  1.
    10030    2    1    2    0    0  0.00000000000E+00  0.00000000000E+00 -0.35969422541E+04  0.39296250660E+04  0.15823904637E+04 0.  0.
        2    1    3    3  502    0 -0.11740931049E+03  0.44706978096E+03 -0.20383426174E+03  0.50517793054E+03  0.25500000920E-02 0. -1.
       -2    1    3    3    0  502  0.11740931049E+03 -0.44706978096E+03 -0.33931079924E+04  0.34244471354E+04  0.25500000920E-02 0.  1.
</event>
<event>
 5   0  0.7395088E-04  0.1617357E+04  0.7818609E-02  0.8809955E-01
       -2   -1    0    0    0  501  0.00000000000E+00  0.00000000000E+00  0.16176632788E+04  0.16176632788E+04  0.25500000920E-02 0. -1.
        2   -1    0    0  501    0  0.00000000000E+00  0.00000000000E+00 -0.40426280814E+03  0.40426280815E+03  0.25500000920E-02 0.  1.
    10030    2    1    2    0    0  0.00000000000E+00  0.00000000000E+00  0.12134004706E+04  0.20219260869E+04  0.16173572267E+04 0.  0.
        1    1    3    3  502    0 -0.36744496223E+03 -0.23345193967E+03  0.14586749344E+04  0.15222510215E+04  0.50400001928E-02 0. -1.
       -1    1    3    3    0  502  0.36744496223E+03  0.23345193967E+03 -0.24527446373E+03  0.49967506540E+03  0.50400001928E-02 0.  1.
</event>
<event>
 5   0  0.4110803E-04  0.1836971E+04  0.7818609E-02  0.8686882E-01
        1   -1    0    0  501    0  0.00000000000E+00  0.00000000000E+00  0.10833601852E+04  0.10833601852E+04  0.50400001928E-02 0.  1.
       -1   -1    0    0    0  501  0.00000000000E+00  0.00000000000E+00 -0.77870254309E+03  0.77870254311E+03  0.50400001928E-02 0. -1.
    10030    2    1    2    0    0  0.00000000000E+00  0.00000000000E+00  0.30465764213E+03  0.18620627283E+04  0.18369706926E+04 0.  0.
        5    1    3    3  502    0 -0.23433423405E+03  0.10550039173E+03 -0.74150410229E+03  0.78478869106E+03  0.46999998093E+01 0. -1.
       -5    1    3    3    0  502  0.23433423405E+03 -0.10550039173E+03  0.10461617444E+04  0.10772740373E+04  0.46999998093E+01 0.  1.
</event>
<event>
 5   0  0.3973227E-04  0.1591177E+04  0.7818609E-02  0.8825987E-01
       -1   -1    0    0    0  501  0.00000000000E+00  0.00000000000E+00  0.68216394218E+03  0.68216394220E+03  0.50400001928E-02 0. -1.
        1   -1    0    0  501    0  0.00000000000E+00  0.00000000000E+00 -0.92787213046E+03  0.92787213048E+03  0.50400001928E-02 0.  1.
    10030    2    1    2    0    0  0.00000000000E+00  0.00000000000E+00 -0.24570818828E+03  0.16100360727E+04  0.15911768103E+04 0.  0.
        3    1    3    3  502    0  0.17855382716E+03 -0.49548491757E+02 -0.90573259190E+03  0.92449340748E+03  0.10100000352E+00 0.  1.
       -3    1    3    3    0  502 -0.17855382716E+03  0.49548491757E+02  0.66002440362E+03  0.68554266520E+03  0.10100000352E+00 0. -1.
</event>
<event>
 5   0  0.7553070E-04  0.1602217E+04  0.7818609E-02  0.8819187E-01
       -2   -1    0    0    0  501  0.00000000000E+00  0.00000000000E+00  0.86598276954E+03  0.86598276954E+03  0.25500000920E-02 0.  1.
        2   -1    0    0  501    0  0.00000000000E+00  0.00000000000E+00 -0.74109450227E+03  0.74109450228E+03  0.25500000920E-02 0. -1.
    10030    2    1    2    0    0  0.00000000000E+00  0.00000000000E+00  0.12488826727E+03  0.16070772718E+04  0.16022173006E+04 0.  0.
        4    1    3    3  502    0 -0.27719692632E+03  0.13538197101E+03 -0.67912723487E+03  0.74591006702E+03  0.12699999809E+01 0. -1.
       -4    1    3    3    0  502  0.27719692632E+03 -0.13538197101E+03  0.80401550214E+03  0.86116720480E+03  0.12699999809E+01 0.  1.
</event>
<event>
 5   0  0.3837251E-04  0.1601399E+04  0.7818609E-02  0.8819689E-01
       -1   -1    0    0    0  501  0.00000000000E+00  0.00000000000E+00  0.57066275066E+03  0.57066275069E+03  0.50400001928E-02 0.  1.
        1   -1    0    0  501    0  0.00000000000E+00  0.00000000000E+00 -0.11234648382E+04  0.11234648382E+04  0.50400001928E-02 0. -1.
    10030    2    1    2    0    0  0.00000000000E+00  0.00000000000E+00 -0.55280208749E+03  0.16941275888E+04  0.16013988071E+04 0.  0.
        4    1    3    3  502    0  0.73816168027E+03 -0.40915882405E+02 -0.60171521208E+03  0.95321539276E+03  0.12699999809E+01 0. -1.
       -4    1    3    3    0  502 -0.73816168027E+03  0.40915882405E+02  0.48913124597E+02  0.74091219608E+03  0.12699999809E+01 0.  1.
</event>
<event>
 5   0  0.7488884E-04  0.1647871E+04  0.7818609E-02  0.8791667E-01
        2   -1    0    0  501    0  0.00000000000E+00  0.00000000000E+00  0.96120270966E+03  0.96120270967E+03  0.25500000920E-02 0.  1.
       -2   -1    0    0    0  501  0.00000000000E+00  0.00000000000E+00 -0.70627086410E+03  0.70627086410E+03  0.25500000920E-02 0. -1.
    10030    2    1    2    0    0  0.00000000000E+00  0.00000000000E+00  0.25493184557E+03  0.16674735738E+04  0.16478707089E+04 0.  0.
        3    1    3    3  502    0 -0.60865544455E+03 -0.51892764007E+03 -0.72680104221E+02  0.80313744375E+03  0.10100000352E+00 0. -1.
       -3    1    3    3    0  502  0.60865544455E+03  0.51892764007E+03  0.32761194979E+03  0.86433613002E+03  0.10100000352E+00 0.  1.
</event>
<event>
 5   0  0.7488884E-04  0.1601973E+04  0.7818609E-02  0.8819337E-01
       -2   -1    0    0    0  501  0.00000000000E+00  0.00000000000E+00  0.77452847712E+03  0.77452847712E+03  0.25500000920E-02 0. -1.
        2   -1    0    0  501    0  0.00000000000E+00  0.00000000000E+00 -0.82834807608E+03  0.82834807609E+03  0.25500000920E-02 0.  1.
    10030    2    1    2    0    0  0.00000000000E+00  0.00000000000E+00 -0.53819598968E+02  0.16028765532E+04  0.16019727512E+04 0.  0.
        3    1    3    3  502    0  0.70239959930E+03  0.34651595247E+02  0.35672956813E+03  0.78855686233E+03  0.10100000352E+00 0. -1.
       -3    1    3    3    0  502 -0.70239959930E+03 -0.34651595247E+02 -0.41054916709E+03  0.81431969088E+03  0.10100000352E+00 0.  1.
</event>
<event>
 5   0  0.7488884E-04  0.1598250E+04  0.7818609E-02  0.8821624E-01
        2   -1    0    0  501    0  0.00000000000E+00  0.00000000000E+00  0.16257285026E+04  0.16257285026E+04  0.25500000920E-02 0. -1.
       -2   -1    0    0    0  501  0.00000000000E+00  0.00000000000E+00 -0.39280895345E+03  0.39280895345E+03  0.25500000920E-02 0.  1.
    10030    2    1    2    0    0  0.00000000000E+00  0.00000000000E+00  0.12329195492E+04  0.20185374561E+04  0.15982499325E+04 0.  0.
        3    1    3    3  502    0  0.55084186498E+03 -0.28521175796E+03  0.12527599575E+04  0.13979198934E+04  0.10100000352E+00 0. -1.
       -3    1    3    3    0  502 -0.55084186498E+03  0.28521175796E+03 -0.19840408317E+02  0.62061756267E+03  0.10100000352E+00 0.  1.
</event>
<event>
 5   0  0.3950195E-04  0.1521964E+04  0.7818609E-02  0.8869977E-01
       -1   -1    0    0    0  501  0.00000000000E+00  0.00000000000E+00  0.18859426965E+03  0.18859426971E+03  0.50400001928E-02 0.  1.
        1   -1    0    0  501    0  0.00000000000E+00  0.00000000000E+00 -0.30705778361E+04  0.30705778361E+04  0.50400001928E-02 0. -1.
    10030    2    1    2    0    0  0.00000000000E+00  0.00000000000E+00 -0.28819835664E+04  0.32591721058E+04  0.15219637111E+04 0.  0.
        2    1    3    3  502    0 -0.64025835256E+03  0.28324173282E+03 -0.20796134046E+04  0.21942991022E+04  0.25500000920E-02 0. -1.
       -2    1    3    3    0  502  0.64025835256E+03 -0.28324173282E+03 -0.80237016186E+03  0.10648730036E+04  0.25500000920E-02 0.  1.
</event>
<event>
 5   0  0.7415102E-04  0.1611149E+04  0.7818609E-02  0.8813728E-01
        2   -1    0    0  501    0  0.00000000000E+00  0.00000000000E+00  0.61576398177E+03  0.61576398178E+03  0.25500000920E-02 0.  1.
       -2   -1    0    0    0  501  0.00000000000E+00  0.00000000000E+00 -0.10538943581E+04  0.10538943581E+04  0.25500000920E-02 0. -1.
    10030    2    1    2    0    0  0.00000000000E+00  0.00000000000E+00 -0.43813037635E+03  0.16696583399E+04  0.16111488899E+04 0.  0.
        5    1    3    3  502    0  0.42929281923E+03  0.52147196155E+03  0.23585573083E+03  0.71545464363E+03  0.46999998093E+01 0.  1.
       -5    1    3    3    0  502 -0.42929281923E+03 -0.52147196155E+03 -0.67398610718E+03  0.95420369628E+03  0.46999998093E+01 0. -1.
</event>
<event>
 5   0  0.7415102E-04  0.1618333E+04  0.7818609E-02  0.8809364E-01
        2   -1    0    0  501    0  0.00000000000E+00  0.00000000000E+00  0.33603841744E+03  0.33603841745E+03  0.25500000920E-02 0.  1.
       -2   -1    0    0    0  501  0.00000000000E+00  0.00000000000E+00 -0.19484387091E+04  0.19484387091E+04  0.25500000920E-02 0. -1.
    10030    2    1    2    0    0  0.00000000000E+00  0.00000000000E+00 -0.16124002916E+04  0.22844771265E+04  0.16183327968E+04 0.  0.
        5    1    3    3  502    0  0.52268195568E+03 -0.55115195990E+03 -0.41255381337E+03  0.86440016695E+03  0.46999998093E+01 0.  1.
       -5    1    3    3    0  502 -0.52268195568E+03  0.55115195990E+03 -0.11998464782E+04  0.14200769595E+04  0.46999998093E+01 0. -1.
</event>
<event>
 5   0  0.7553070E-04  0.1604159E+04  0.7818609E-02  0.8817997E-01
        2   -1    0    0  501    0  0.00000000000E+00  0.00000000000E+00  0.16243081466E+04  0.16243081466E+04  0.25500000920E-02 0.  1.
       -2   -1    0    0    0  501  0.00000000000E+00  0.00000000000E+00 -0.39606517353E+03  0.39606517353E+03  0.25500000920E-02 0. -1.
    10030    2    1    2    0    0  0.00000000000E+00  0.00000000000E+00  0.12282429731E+04  0.20203733201E+04  0.16041594534E+04 0.  0.
        4    1    3    3  502    0  0.21030142144E+03 -0.73082025205E+03  0.29300793915E+03  0.81497251118E+03  0.12699999809E+01 0. -1.
       -4    1    3    3    0  502 -0.21030142144E+03  0.73082025205E+03  0.93523503391E+03  0.12054008090E+04  0.12699999809E+01 0.  1.
</event>
<event>
 5   0  0.7553070E-04  0.1587148E+04  0.7818609E-02  0.8828482E-01
        2   -1    0    0  501    0  0.00000000000E+00  0.00000000000E+00  0.42274942366E+03  0.42274942367E+03  0.25500000920E-02 0. -1.
       -2   -1    0    0    0  501  0.00000000000E+00  0.00000000000E+00 -0.14896765282E+04  0.14896765282E+04  0.25500000920E-02 0.  1.
    10030    2    1    2    0    0  0.00000000000E+00  0.00000000000E+00 -0.10669271045E+04  0.19124259519E+04  0.15871482524E+04 0.  0.
        4    1    3    3  502    0  0.15064964429E+03  0.13952506115E+03  0.39018434566E+03  0.44091721957E+03  0.12699999809E+01 0. -1.
       -4    1    3    3    0  502 -0.15064964429E+03 -0.13952506115E+03 -0.14571114502E+04  0.14715087323E+04  0.12699999809E+01 0.  1.
</event>
<event>
 5   0  0.3950195E-04  0.1601793E+04  0.7818609E-02  0.8819447E-01
       -1   -1    0    0    0  501  0.00000000000E+00  0.00000000000E+00  0.85518793358E+03  0.85518793360E+03  0.50400001928E-02 0.  1.
        1   -1    0    0  501    0  0.00000000000E+00  0.00000000000E+00 -0.75005213328E+03  0.75005213330E+03  0.50400001928E-02 0. -1.
    10030    2    1    2    0    0  0.00000000000E+00  0.00000000000E+00  0.10513580030E+03  0.16052400669E+04  0.16017934124E+04 0.  0.
        2    1    3    3  502    0 -0.59780859680E+03 -0.52348023022E+03 -0.47791801530E+02  0.79604693714E+03  0.25500000920E-02 0. -1.
       -2    1    3    3    0  502  0.59780859680E+03  0.52348023022E+03  0.15292760183E+03  0.80919312975E+03  0.25500000920E-02 0.  1.
</event>
<event>
 5   0  0.7488884E-04  0.1605505E+04  0.7818609E-02  0.8817173E-01
       -2   -1    0    0    0  501  0.00000000000E+00  0.00000000000E+00  0.58749743213E+03  0.58749743214E+03  0.25500000920E-02 0. -1.
        2   -1    0    0  501    0  0.00000000000E+00  0.00000000000E+00 -0.10968755737E+04  0.10968755737E+04  0.25500000920E-02 0.  1.
    10030    2    1    2    0    0  0.00000000000E+00  0.00000000000E+00 -0.50937814155E+03  0.16843730058E+04  0.16055050083E+04 0.  0.
        3    1    3    3  502    0 -0.35000081356E+03  0.69101559773E+03 -0.33604008381E+02  0.77532726341E+03  0.10100000352E+00 0. -1.
       -3    1    3    3    0  502  0.35000081356E+03 -0.69101559773E+03 -0.47577413317E+03  0.90904574241E+03  0.10100000352E+00 0.  1.
</event>
<event>
 5   0  0.3837251E-04  0.1587728E+04  0.7818609E-02  0.8828123E-01
        1   -1    0    0  501    0  0.00000000000E+00  0.00000000000E+00  0.11274754441E+04  0.11274754441E+04  0.50400001928E-02 0. -1.
       -1   -1    0    0    0  501  0.00000000000E+00  0.00000000000E+00 -0.55896548255E+03  0.55896548257E+03  0.50400001928E-02 0.  1.
    10030    2    1    2    0    0  0.00000000000E+00  0.00000000000E+00  0.56850996153E+03  0.16864409267E+04  0.15877277546E+04 0.  0.
        4    1    3    3  502    0 -0.72609793653E+03  0.29336041516E+03  0.14601046716E+03  0.79661735860E+03  0.12699999809E+01 0.  1.
       -4    1    3    3    0  502  0.72609793653E+03 -0.29336041516E+03  0.42249949437E+03  0.88982356805E+03  0.12699999809E+01 0. -1.
</event>
<event>
 5   0  0.7395088E-04  0.1650369E+04  0.7818609E-02  0.8790188E-01
       -2   -1    0    0    0  501  0.00000000000E+00  0.00000000000E+00  0.77835606660E+03  0.77835606661E+03  0.25500000920E-02 0.  1.
        2   -1    0    0  501    0  0.00000000000E+00  0.00000000000E+00 -0.87483057969E+03  0.87483057969E+03  0.25500000920E-02 0. -1.
    10030    2    1    2    0    0  0.00000000000E+00  0.00000000000E+00 -0.96474513084E+02  0.16531866463E+04  0.16503692786E+04 0.  0.
        1    1    3    3  502    0 -0.28624453360E+03 -0.54100423255E+03 -0.60263321123E+03  0.85894604019E+03  0.50400001928E-02 0. -1.
       -1    1    3    3    0  502  0.28624453360E+03  0.54100423255E+03  0.50615869815E+03  0.79424060611E+03  0.50400001928E-02 0.  1.
</event>
<event>
 5   0  0.7770905E-04  0.1598172E+04  0.7818609E-02  0.8821672E-01
        2   -1    0    0  501    0  0.00000000000E+00  0.00000000000E+00  0.78747736515E+03  0.78747736515E+03  0.25500000920E-02 0. -1.
       -2   -1    0    0    0  501  0.00000000000E+00  0.00000000000E+00 -0.81086535572E+03  0.81086535572E+03  0.25500000920E-02 0.  1.
    10030    2    1    2    0    0  0.00000000000E+00  0.00000000000E+00 -0.23387990573E+02  0.15983427209E+04  0.15981715976E+04 0.  0.
        2    1    3    3  502    0  0.50312844702E+03 -0.42862058896E+03  0.43744681014E+03  0.79259923996E+03  0.25500000920E-02 0. -1.
       -2    1    3    3    0  502 -0.50312844702E+03  0.42862058896E+03 -0.46083480071E+03  0.80574348091E+03  0.25500000920E-02 0.  1.
</event>
<event>
 5   0  0.3837251E-04  0.1767472E+04  0.7818609E-02  0.8723791E-01
        1   -1    0    0  501    0  0.00000000000E+00  0.00000000000E+00  0.11683189812E+04  0.11683189812E+04  0.50400001928E-02 0. -1.
       -1   -1    0    0    0  501  0.00000000000E+00  0.00000000000E+00 -0.66847288229E+03  0.66847288231E+03  0.50400001928E-02 0.  1.
    10030    2    1    2    0    0  0.00000000000E+00  0.00000000000E+00  0.49984609887E+03  0.18367918635E+04  0.17674722705E+04 0.  0.
        4    1    3    3  502    0 -0.32185646106E+03 -0.30282084697E+03  0.10452458420E+04  0.11348270926E+04  0.12699999809E+01 0. -1.
       -4    1    3    3    0  502  0.32185646106E+03  0.30282084697E+03 -0.54539974313E+03  0.70196477091E+03  0.12699999809E+01 0.  1.
</event>
<event>
 5   0  0.3950195E-04  0.1595835E+04  0.7818609E-02  0.8823111E-01
        1   -1    0    0  501    0  0.00000000000E+00  0.00000000000E+00  0.15759857485E+04  0.15759857485E+04  0.50400001928E-02 0.  1.
       -1   -1    0    0    0  501  0.00000000000E+00  0.00000000000E+00 -0.40398371087E+03  0.40398371090E+03  0.50400001928E-02 0. -1.
    10030    2    1    2    0    0  0.00000000000E+00  0.00000000000E+00  0.11720020376E+04  0.19799694594E+04  0.15958352935E+04 0.  0.
        2    1    3    3  502    0 -0.41596476092E+03 -0.65316309774E+03  0.82473335733E+03  0.11312974080E+04  0.25500000920E-02 0.  1.
       -2    1    3    3    0  502  0.41596476092E+03  0.65316309774E+03  0.34726868030E+03  0.84867205144E+03  0.25500000920E-02 0. -1.
</event>
<event>
 5   0  0.7553070E-04  0.1597033E+04  0.7818609E-02  0.8822373E-01
       -2   -1    0    0    0  501  0.00000000000E+00  0.00000000000E+00  0.68551362470E+03  0.68551362470E+03  0.25500000920E-02 0. -1.
        2   -1    0    0  501    0  0.00000000000E+00  0.00000000000E+00 -0.93014703113E+03  0.93014703114E+03  0.25500000920E-02 0.  1.
    10030    2    1    2    0    0  0.00000000000E+00  0.00000000000E+00 -0.24463340644E+03  0.16156606558E+04  0.15970328272E+04 0.  0.
        4    1    3    3  502    0 -0.65961369321E+03  0.44368541592E+03 -0.19856072287E+03  0.81937472877E+03  0.12699999809E+01 0. -1.
       -4    1    3    3    0  502  0.65961369321E+03 -0.44368541592E+03 -0.46072683564E+02  0.79628592707E+03  0.12699999809E+01 0.  1.
</event>
<event>
 5   0  0.7553070E-04  0.1657368E+04  0.7818609E-02  0.8786060E-01
        2   -1    0    0  501    0  0.00000000000E+00  0.00000000000E+00  0.11307779242E+04  0.11307779242E+04  0.25500000920E-02 0.  1.
       -2   -1    0    0    0  501  0.00000000000E+00  0.00000000000E+00 -0.60729590621E+03  0.60729590621E+03  0.25500000920E-02 0. -1.
    10030    2    1    2    0    0  0.00000000000E+00  0.00000000000E+00  0.52348201797E+03  0.17380738304E+04  0.16573675563E+04 0.  0.
        4    1    3    3  502    0 -0.12884299381E+03  0.81065584696E+03  0.38108868954E+03  0.90498266362E+03  0.12699999809E+01 0.  1.
       -4    1    3    3    0  502  0.12884299381E+03 -0.81065584696E+03  0.14239332842E+03  0.83309116676E+03  0.12699999809E+01 0. -1.
</event>
<event>
 5   0  0.3837251E-04  0.1392495E+04  0.7818609E-02  0.8959269E-01
       -1   -1    0    0    0  501  0.00000000000E+00  0.00000000000E+00  0.52658889092E+03  0.52658889094E+03  0.50400001928E-02 0. -1.
        1   -1    0    0  501    0  0.00000000000E+00  0.00000000000E+00 -0.92056743577E+03  0.92056743579E+03  0.50400001928E-02 0.  1.
    10030    2    1    2    0    0  0.00000000000E+00  0.00000000000E+00 -0.39397854486E+03  0.14471563267E+04  0.13924950054E+04 0.  0.
        4    1    3    3  502    0  0.83031293590E+02  0.45194350346E+03  0.34662299623E+03  0.57558339140E+03  0.12699999809E+01 0. -1.
       -4    1    3    3    0  502 -0.83031293590E+02 -0.45194350346E+03 -0.74060154109E+03  0.87157293533E+03  0.12699999809E+01 0.  1.
</event>
<event>
 5   0  0.3950195E-04  0.1587518E+04  0.7818609E-02  0.8828253E-01
        1   -1    0    0  501    0  0.00000000000E+00  0.00000000000E+00  0.14800454636E+04  0.14800454636E+04  0.50400001928E-02 0. -1.
       -1   -1    0    0    0  501  0.00000000000E+00  0.00000000000E+00 -0.42569843853E+03  0.42569843856E+03  0.50400001928E-02 0.  1.
    10030    2    1    2    0    0  0.00000000000E+00  0.00000000000E+00  0.10543470251E+04  0.19057439022E+04  0.15875176130E+04 0.  0.
        2    1    3    3  502    0  0.45107105769E+03 -0.10314525928E+03 -0.24704941530E+03  0.52453546801E+03  0.25500000920E-02 0.  1.
       -2    1    3    3    0  502 -0.45107105769E+03  0.10314525928E+03  0.13013964404E+04  0.13812084342E+04  0.25500000920E-02 0. -1.
</event>
<event>
 5   0  0.7415102E-04  0.1594963E+04  0.7818609E-02  0.8823649E-01
       -2   -1    0    0    0  501  0.00000000000E+00  0.00000000000E+00  0.49023513993E+03  0.49023513994E+03  0.25500000920E-02 0. -1.
        2   -1    0    0  501    0  0.00000000000E+00  0.00000000000E+00 -0.12972886125E+04  0.12972886125E+04  0.25500000920E-02 0.  1.
    10030    2    1    2    0    0  0.00000000000E+00  0.00000000000E+00 -0.80705347256E+03  0.17875237524E+04  0.15949626509E+04 0.  0.
        5    1    3    3  502    0 -0.41166375050E+03  0.32191793797E+03 -0.10786274407E+04  0.11985647450E+04  0.46999998093E+01 0. -1.
       -5    1    3    3    0  502  0.41166375050E+03 -0.32191793797E+03  0.27157396810E+03  0.58895900741E+03  0.46999998093E+01 0.  1.
</event>
<event>
 5   0  0.7415102E-04  0.1578870E+04  0.7818609E-02  0.8833635E-01
       -2   -1    0    0    0  501  0.00000000000E+00  0.00000000000E+00  0.36405646703E+03  0.36405646704E+03  0.25500000920E-02 0.  1.
        2   -1    0    0  501    0  0.00000000000E+00  0.00000000000E+00 -0.17118428688E+04  0.17118428688E+04  0.25500000920E-02 0. -1.
    10030    2    1    2    0    0  0.00000000000E+00  0.00000000000E+00 -0.13477864018E+04  0.20758993358E+04  0.15788698071E+04 0.  0.
        5    1    3    3  502    0 -0.19628737401E+03  0.55845580172E+03 -0.13605966470E+04  0.14837947775E+04  0.46999998093E+01 0. -1.
       -5    1    3    3    0  502  0.19628737401E+03 -0.55845580172E+03  0.12810245282E+02  0.59210455838E+03  0.46999998093E+01 0.  1.
</event>
<event>
 5   0  0.4110803E-04  0.1579726E+04  0.7818609E-02  0.8833101E-01
        1   -1    0    0  501    0  0.00000000000E+00  0.00000000000E+00  0.63140290194E+03  0.63140290196E+03  0.50400001928E-02 0.  1.
       -1   -1    0    0    0  501  0.00000000000E+00  0.00000000000E+00 -0.98809053945E+03  0.98809053946E+03  0.50400001928E-02 0. -1.
    10030    2    1    2    0    0  0.00000000000E+00  0.00000000000E+00 -0.35668763751E+03  0.16194934414E+04  0.15797255888E+04 0.  0.
        5    1    3    3  502    0 -0.75989190908E+03 -0.21337348944E+03 -0.14763674506E+03  0.80298359757E+03  0.46999998093E+01 0.  1.
       -5    1    3    3    0  502  0.75989190908E+03  0.21337348944E+03 -0.20905089245E+03  0.81650984385E+03  0.46999998093E+01 0. -1.
</event>
<event>
 5   0  0.7770905E-04  0.1529868E+04  0.7818609E-02  0.8864830E-01
        2   -1    0    0  501    0  0.00000000000E+00  0.00000000000E+00  0.83259988628E+03  0.83259988629E+03  0.25500000920E-02 0. -1.
       -2   -1    0    0    0  501  0.00000000000E+00  0.00000000000E+00 -0.70276743669E+03  0.70276743670E+03  0.25500000920E-02 0.  1.
    10030    2    1    2    0    0  0.00000000000E+00  0.00000000000E+00  0.12983244959E+03  0.15353673230E+04  0.15298680830E+04 0.  0.
        2    1    3    3  502    0 -0.90119567266E+02 -0.23132589599E+03  0.79104369960E+03  0.82908584673E+03  0.25500000920E-02 0. -1.
       -2    1    3    3    0  502  0.90119567266E+02  0.23132589599E+03 -0.66121125001E+03  0.70628147626E+03  0.25500000920E-02 0.  1.
</event>
<event>
 5   0  0.3837251E-04  0.1572734E+04  0.7818609E-02  0.8837476E-01
       -1   -1    0    0    0  501  0.00000000000E+00  0.00000000000E+00  0.90370294194E+03  0.90370294195E+03  0.50400001928E-02 0. -1.
        1   -1    0    0  501    0  0.00000000000E+00  0.00000000000E+00 -0.68426545484E+03  0.68426545486E+03  0.50400001928E-02 0.  1.
    10030    2    1    2    0    0  0.00000000000E+00  0.00000000000E+00  0.21943748710E+03  0.15879683968E+04  0.15727335498E+04 0.  0.
        4    1    3    3  502    0  0.26298792228E+03 -0.60326831078E+01 -0.63852124908E+03  0.69058673529E+03  0.12699999809E+01 0.  1.
       -4    1    3    3    0  502 -0.26298792228E+03  0.60326831078E+01  0.85795873618E+03  0.89738166151E+03  0.12699999809E+01 0. -1.
</event>
<event>
 5   0  0.7488884E-04  0.1585118E+04  0.7818609E-02  0.8829743E-01
       -2   -1    0    0    0  501  0.00000000000E+00  0.00000000000E+00  0.93818003424E+03  0.93818003424E+03  0.25500000920E-02 0. -1.
        2   -1    0    0  501    0  0.00000000000E+00  0.00000000000E+00 -0.66954042009E+03  0.66954042010E+03  0.25500000920E-02 0.  1.
    10030    2    1    2    0    0  0.00000000000E+00  0.00000000000E+00  0.26863961414E+03  0.16077204543E+04  0.15851176035E+04 0.  0.
        3    1    3    3  502    0  0.59785154304E+03  0.11889500230E+03  0.64808695971E+03  0.88970737135E+03  0.10100000352E+00 0. -1.
       -3    1    3    3    0  502 -0.59785154304E+03 -0.11889500230E+03 -0.37944734556E+03  0.71801308299E+03  0.10100000352E+00 0.  1.
</event>
<event>
 5   0  0.2781000E-04  0.1610263E+04  0.7818609E-02  0.8814267E-01
       -4   -1    0    0    0  501  0.00000000000E+00  0.00000000000E+00  0.69662511582E+03  0.69662627347E+03  0.12699999809E+01 0.  1.
        4   -1    0    0  501    0  0.00000000000E+00  0.00000000000E+00 -0.93053705339E+03  0.93053792004E+03  0.12699999809E+01 0. -1.
    10030    2    1    2    0    0  0.00000000000E+00  0.00000000000E+00 -0.23391193757E+03  0.16271641935E+04  0.16102634934E+04 0.  0.
        4    1    3    3  502    0 -0.32647092863E+03 -0.66083957720E+03  0.21039361682E+03  0.76652416853E+03  0.12699999809E+01 0.  1.
       -4    1    3    3    0  502  0.32647092863E+03  0.66083957720E+03 -0.44430555439E+03  0.86064002498E+03  0.12699999809E+01 0. -1.
</event>
<event>
 5   0  0.7770905E-04  0.1590049E+04  0.7818609E-02  0.8826685E-01
       -2   -1    0    0    0  501  0.00000000000E+00  0.00000000000E+00  0.37599572761E+03  0.37599572762E+03  0.25500000920E-02 0. -1.
        2   -1    0    0  501    0  0.00000000000E+00  0.00000000000E+00 -0.16810404040E+04  0.16810404040E+04  0.25500000920E-02 0.  1.
    10030    2    1    2    0    0  0.00000000000E+00  0.00000000000E+00 -0.13050446764E+04  0.20570361316E+04  0.15900490682E+04 0.  0.
        2    1    3    3  502    0  0.28961759666E+03  0.48096934721E+03 -0.13807398016E+04  0.14905208033E+04  0.25500000920E-02 0.  1.
       -2    1    3    3    0  502 -0.28961759666E+03 -0.48096934721E+03  0.75695125225E+02  0.56651532833E+03  0.25500000920E-02 0. -1.
</event>
<event>
 5   0  0.3973227E-04  0.1569563E+04  0.7818609E-02  0.8839468E-01
        1   -1    0    0  501    0  0.00000000000E+00  0.00000000000E+00  0.82775590412E+03  0.82775590414E+03  0.50400001928E-02 0.  1.
       -1   -1    0    0    0  501  0.00000000000E+00  0.00000000000E+00 -0.74403799752E+03  0.74403799754E+03  0.50400001928E-02 0. -1.
    10030    2    1    2    0    0  0.00000000000E+00  0.00000000000E+00  0.83717906601E+02  0.15717939017E+04  0.15695627995E+04 0.  0.
        3    1    3    3  502    0  0.76731313232E+03 -0.12775178373E+03 -0.62172659982E+02  0.78035595156E+03  0.10100000352E+00 0. -1.
       -3    1    3    3    0  502 -0.76731313232E+03  0.12775178373E+03  0.14589056658E+03  0.79143795012E+03  0.10100000352E+00 0.  1.
</event>
<event>
 5   0  0.7770905E-04  0.1604944E+04  0.7818609E-02  0.8817516E-01
       -2   -1    0    0    0  501  0.00000000000E+00  0.00000000000E+00  0.60661930685E+03  0.60661930685E+03  0.25500000920E-02 0. -1.
        2   -1    0    0  501    0  0.00000000000E+00  0.00000000000E+00 -0.10615580849E+04  0.10615580849E+04  0.25500000920E-02 0.  1.
    10030    2    1    2    0    0  0.00000000000E+00  0.00000000000E+00 -0.45493877810E+03  0.16681773918E+04  0.16049443974E+04 0.  0.
        2    1    3    3  502    0 -0.24737915226E+03 -0.11289871872E+03 -0.10122114493E+04  0.10481004645E+04  0.25500000920E-02 0.  1.
       -2    1    3    3    0  502  0.24737915226E+03  0.11289871872E+03  0.55727267120E+03  0.62007692727E+03  0.25500000920E-02 0. -1.
</event>
<event>
 5   0  0.4110803E-04  0.1584928E+04  0.7818609E-02  0.8829861E-01
       -1   -1    0    0    0  501  0.00000000000E+00  0.00000000000E+00  0.72683075199E+03  0.72683075200E+03  0.50400001928E-02 0. -1.
        1   -1    0    0  501    0  0.00000000000E+00  0.00000000000E+00 -0.86402365171E+03  0.86402365173E+03  0.50400001928E-02 0.  1.
    10030    2    1    2    0    0  0.00000000000E+00  0.00000000000E+00 -0.13719289973E+03  0.15908544037E+04  0.15849277088E+04 0.  0.
        5    1    3    3  502    0 -0.12330122853E+03  0.31740228954E+03  0.64964167251E+03  0.73348742254E+03  0.46999998093E+01 0. -1.
       -5    1    3    3    0  502  0.12330122853E+03 -0.31740228954E+03 -0.78683457224E+03  0.85736698119E+03  0.46999998093E+01 0.  1.
</event>
<event>
 5   0  0.3837251E-04  0.1613266E+04  0.7818609E-02  0.8812439E-01
       -1   -1    0    0    0  501  0.00000000000E+00  0.00000000000E+00  0.12163966035E+04  0.12163966035E+04  0.50400001928E-02 0. -1.
        1   -1    0    0  501    0  0.00000000000E+00  0.00000000000E+00 -0.53490523099E+03  0.53490523102E+03  0.50400001928E-02 0.  1.
    10030    2    1    2    0    0  0.00000000000E+00  0.00000000000E+00  0.68149137251E+03  0.17513018345E+04  0.16132661358E+04 0.  0.
        4    1    3    3  502    0  0.60178202664E+03 -0.66118667271E+02 -0.23791330726E+03  0.65047493451E+03  0.12699999809E+01 0.  1.
       -4    1    3    3    0  502 -0.60178202664E+03  0.66118667271E+02  0.91940467976E+03  0.11008269000E+04  0.12699999809E+01 0. -1.
</event>
<event>
 5   0  0.7488884E-04  0.1639913E+04  0.7818609E-02  0.8796396E-01
       -2   -1    0    0    0  501  0.00000000000E+00  0.00000000000E+00  0.10848133154E+04  0.10848133154E+04  0.25500000920E-02 0.  1.
        2   -1    0    0  501    0  0.00000000000E+00  0.00000000000E+00 -0.61976411423E+03  0.61976411424E+03  0.25500000920E-02 0. -1.
    10030    2    1    2    0    0  0.00000000000E+00  0.00000000000E+00  0.46504920119E+03  0.17045774297E+04  0.16399126361E+04 0.  0.
        3    1    3    3  502    0  0.34042017148E+03  0.23078557028E+03  0.96984782598E+03  0.10534479998E+04  0.10100000352E+00 0.  1.
       -3    1    3    3    0  502 -0.34042017148E+03 -0.23078557028E+03 -0.50479862479E+03  0.65112942983E+03  0.10100000352E+00 0. -1.
</event>
<event>
 5   0  0.3973227E-04  0.1666695E+04  0.7818609E-02  0.8780591E-01
        1   -1    0    0  501    0  0.00000000000E+00  0.00000000000E+00  0.12405494579E+04  0.12405494579E+04  0.50400001928E-02 0. -1.
       -1   -1    0    0    0  501  0.00000000000E+00  0.00000000000E+00 -0.55980685630E+03  0.55980685632E+03  0.50400001928E-02 0.  1.
    10030    2    1    2    0    0  0.00000000000E+00  0.00000000000E+00  0.68074260162E+03  0.18003563142E+04  0.16666950437E+04 0.  0.
        3    1    3    3  502    0 -0.25276366065E+03  0.78903817126E+03  0.24377152101E+03  0.86365228450E+03  0.10100000352E+00 0.  1.
       -3    1    3    3    0  502  0.25276366065E+03 -0.78903817126E+03  0.43697108061E+03  0.93670402975E+03  0.10100000352E+00 0. -1.
</event>
<event>
 5   0  0.3950195E-04  0.1607043E+04  0.7818609E-02  0.8816233E-01
       -1   -1    0    0    0  501  0.00000000000E+00  0.00000000000E+00  0.63257300133E+03  0.63257300135E+03  0.50400001928E-02 0. -1.
        1   -1    0    0  501    0  0.00000000000E+00  0.00000000000E+00 -0.10206675812E+04  0.10206675812E+04  0.50400001928E-02 0.  1.
    10030    2    1    2    0    0  0.00000000000E+00  0.00000000000E+00 -0.38809457986E+03  0.16532405826E+04  0.16070429431E+04 0.  0.
        2    1    3    3  502    0 -0.56659837916E+03 -0.41661394856E+03 -0.59386587135E+03  0.92047682130E+03  0.25500000920E-02 0. -1.
       -2    1    3    3    0  502  0.56659837916E+03  0.41661394856E+03  0.20577129149E+03  0.73276376125E+03  0.25500000920E-02 0.  1.
</event>
<event>
 5   0  0.3950195E-04  0.1570166E+04  0.7818609E-02  0.8839089E-01
        1   -1    0    0  501    0  0.00000000000E+00  0.00000000000E+00  0.90239713923E+03  0.90239713924E+03  0.50400001928E-02 0. -1.
       -1   -1    0    0    0  501  0.00000000000E+00  0.00000000000E+00 -0.68301989028E+03  0.68301989029E+03  0.50400001928E-02 0.  1.
    10030    2    1    2    0    0  0.00000000000E+00  0.00000000000E+00  0.21937724895E+03  0.15854170295E+04  0.15701658448E+04 0.  0.
        2    1    3    3  502    0  0.65918770026E+03  0.21339580206E+03 -0.26307059975E+03  0.74112909332E+03  0.25500000920E-02 0. -1.
       -2    1    3    3    0  502 -0.65918770026E+03 -0.21339580206E+03  0.48244784870E+03  0.84428793621E+03  0.25500000920E-02 0.  1.
</event>
<event>
 5   0  0.7553070E-04  0.1528764E+04  0.7818609E-02  0.8865548E-01
        2   -1    0    0  501    0  0.00000000000E+00  0.00000000000E+00  0.73022125547E+03  0.73022125548E+03  0.25500000920E-02 0.  1.
       -2   -1    0    0    0  501  0.00000000000E+00  0.00000000000E+00 -0.80014034680E+03  0.80014034680E+03  0.25500000920E-02 0. -1.
    10030    2    1    2    0    0  0.00000000000E+00  0.00000000000E+00 -0.69919091323E+02  0.15303616023E+04  0.15287635378E+04 0.  0.
        4    1    3    3  502    0 -0.31075458389E+03  0.48095628300E+03 -0.54183904260E+03  0.78833908856E+03  0.12699999809E+01 0. -1.
       -4    1    3    3    0  502  0.31075458389E+03 -0.48095628300E+03  0.47191995127E+03  0.74202251372E+03  0.12699999809E+01 0.  1.
</event>
<event>
 5   0  0.3837251E-04  0.1614016E+04  0.7818609E-02  0.8811983E-01
        1   -1    0    0  501    0  0.00000000000E+00  0.00000000000E+00  0.21936541992E+04  0.21936541992E+04  0.50400001928E-02 0.  1.
       -1   -1    0    0    0  501  0.00000000000E+00  0.00000000000E+00 -0.29688463616E+03  0.29688463620E+03  0.50400001928E-02 0. -1.
    10030    2    1    2    0    0  0.00000000000E+00  0.00000000000E+00  0.18967695631E+04  0.24905388354E+04  0.16140163926E+04 0.  0.
        4    1    3    3  502    0  0.36319163086E+03 -0.46761873870E+03  0.17945231362E+04  0.18896799583E+04  0.12699999809E+01 0.  1.
       -4    1    3    3    0  502 -0.36319163086E+03  0.46761873870E+03  0.10224642685E+03  0.60085887712E+03  0.12699999809E+01 0. -1.
</event>
<event>
 5   0  0.3889847E-04  0.1555077E+04  0.7818609E-02  0.8848631E-01
       -1   -1    0    0    0  501  0.00000000000E+00  0.00000000000E+00  0.86039722633E+03  0.86039722634E+03  0.50400001928E-02 0.  1.
        1   -1    0    0  501    0  0.00000000000E+00  0.00000000000E+00 -0.70265948281E+03  0.70265948283E+03  0.50400001928E-02 0. -1.
    10030    2    1    2    0    0  0.00000000000E+00  0.00000000000E+00  0.15773774352E+03  0.15630567092E+04  0.15550771943E+04 0.  0.
        1    1    3    3  502    0  0.24465979143E+02 -0.38085669899E+03  0.75977825100E+03  0.85024314170E+03  0.50400001928E-02 0.  1.
       -1    1    3    3    0  502 -0.24465979143E+02  0.38085669899E+03 -0.60204050748E+03  0.71281356747E+03  0.50400001928E-02 0. -1.
</event>
<event>
 5   0  0.7415102E-04  0.1593575E+04  0.7818609E-02  0.8824505E-01
       -2   -1    0    0    0  501  0.00000000000E+00  0.00000000000E+00  0.53026556020E+03  0.53026556021E+03  0.25500000920E-02 0. -1.
        2   -1    0    0  501    0  0.00000000000E+00  0.00000000000E+00 -0.11972691271E+04  0.11972691271E+04  0.25500000920E-02 0.  1.
    10030    2    1    2    0    0  0.00000000000E+00  0.00000000000E+00 -0.66700356689E+03  0.17275346873E+04  0.15935753316E+04 0.  0.
        5    1    3    3  502    0 -0.18621199347E+02 -0.12962089057E+03 -0.11855085394E+04  0.11927283477E+04  0.46999998093E+01 0.  1.
       -5    1    3    3    0  502  0.18621199347E+02  0.12962089057E+03  0.51850497254E+03  0.53480633960E+03  0.46999998093E+01 0. -1.
</event>
<event>
 5   0  0.7395088E-04  0.1629458E+04  0.7818609E-02  0.8802652E-01
       -2   -1    0    0    0  501  0.00000000000E+00  0.00000000000E+00  0.15390208347E+04  0.15390208347E+04  0.25500000920E-02 0.  1.
        2   -1    0    0  501    0  0.00000000000E+00  0.00000000000E+00 -0.43130249087E+03  0.43130249088E+03  0.25500000920E-02 0. -1.
    10030    2    1    2    0    0  0.00000000000E+00  0.00000000000E+00  0.11077183438E+04  0.19703233256E+04  0.16294582161E+04 0.  0.
        1    1    3    3  502    0  0.29703359732E+02 -0.34624366213E+03  0.14449065692E+04  0.14861096719E+04  0.50400001928E-02 0.  1.
       -1    1    3    3    0  502 -0.29703359732E+02  0.34624366213E+03 -0.33718822533E+03  0.48421365374E+03  0.50400001928E-02 0. -1.
</event>
<event>
 5   0  0.7395088E-04  0.1571650E+04  0.7818609E-02  0.8838156E-01
        2   -1    0    0  501    0  0.00000000000E+00  0.00000000000E+00  0.15760629130E+04  0.15760629130E+04  0.25500000920E-02 0. -1.
       -2   -1    0    0    0  501  0.00000000000E+00  0.00000000000E+00 -0.39181250178E+03  0.39181250178E+03  0.25500000920E-02 0.  1.
    10030    2    1    2    0    0  0.00000000000E+00  0.00000000000E+00  0.11842504112E+04  0.19678754148E+04  0.15716502829E+04 0.  0.
        1    1    3    3  502    0  0.18066177797E+03 -0.25296014544E+02  0.15491832767E+04  0.15598869803E+04  0.50400001928E-02 0. -1.
       -1    1    3    3    0  502 -0.18066177797E+03  0.25296014544E+02 -0.36493286548E+03  0.40798843452E+03  0.50400001928E-02 0.  1.
</event>
<event>
 5   0  0.3973227E-04  0.1603609E+04  0.7818609E-02  0.8818334E-01
        1   -1    0    0  501    0  0.00000000000E+00  0.00000000000E+00  0.65909878521E+03  0.65909878523E+03  0.50400001928E-02 0.  1.
       -1   -1    0    0    0  501  0.00000000000E+00  0.00000000000E+00 -0.97540848347E+03  0.97540848348E+03  0.50400001928E-02 0. -1.
    10030    2    1    2    0    0  0.00000000000E+00  0.00000000000E+00 -0.31630969826E+03  0.16345072687E+04  0.16036091127E+04 0.  0.
        3    1    3    3  502    0  0.23876612772E+03  0.73504884813E+03 -0.37577382621E+03  0.85936723905E+03  0.10100000352E+00 0.  1.
       -3    1    3    3    0  502 -0.23876612772E+03 -0.73504884813E+03  0.59464127948E+02  0.77514002967E+03  0.10100000352E+00 0. -1.
</event>
<event>
 5   0  0.7415102E-04  0.1597550E+04  0.7818609E-02  0.8822055E-01
       -2   -1    0    0    0  501  0.00000000000E+00  0.00000000000E+00  0.31905094343E+03  0.31905094344E+03  0.25500000920E-02 0.  1.
        2   -1    0    0  501    0  0.00000000000E+00  0.00000000000E+00 -0.19998108737E+04  0.19998108737E+04  0.25500000920E-02 0. -1.
    10030    2    1    2    0    0  0.00000000000E+00  0.00000000000E+00 -0.16807599302E+04  0.23188618171E+04  0.15975500567E+04 0.  0.
        5    1    3    3  502    0  0.71409146786E+03  0.24845528695E+03 -0.46645647268E+03  0.88840327835E+03  0.46999998093E+01 0.  1.
       -5    1    3    3    0  502 -0.71409146786E+03 -0.24845528695E+03 -0.12143034576E+04  0.14304585388E+04  0.46999998093E+01 0. -1.
</event>
<event>
 5   0  0.7770905E-04  0.1724510E+04  0.7818609E-02  0.8747508E-01
        2   -1    0    0  501    0  0.00000000000E+00  0.00000000000E+00  0.97077257542E+03  0.97077257542E+03  0.25500000920E-02 0. -1.
       -2   -1    0    0    0  501  0.00000000000E+00  0.00000000000E+00 -0.76586796597E+03  0.76586796597E+03  0.25500000920E-02 0.  1.
    10030    2    1    2    0    0  0.00000000000E+00  0.00000000000E+00  0.20490460945E+03  0.17366405414E+04  0.17245099220E+04 0.  0.
        2    1    3    3  502    0  0.14178083911E+02 -0.86209589125E+03  0.93832069024E+02  0.86730317707E+03  0.25500000920E-02 0.  1.
       -2    1    3    3    0  502 -0.14178083911E+02  0.86209589125E+03  0.11107254043E+03  0.86933736432E+03  0.25500000920E-02 0. -1.
</event>
<event>
 5   0  0.4110803E-04  0.1602008E+04  0.7818609E-02  0.8819315E-01
       -1   -1    0    0    0  501  0.00000000000E+00  0.00000000000E+00  0.47864556357E+03  0.47864556360E+03  0.50400001928E-02 0.  1.
        1   -1    0    0  501    0  0.00000000000E+00  0.00000000000E+00 -0.13404647377E+04  0.13404647377E+04  0.50400001928E-02 0. -1.
    10030    2    1    2    0    0  0.00000000000E+00  0.00000000000E+00 -0.86181917414E+03  0.18191103013E+04  0.16020081147E+04 0.  0.
        5    1    3    3  502    0 -0.28769273777E+03 -0.46469258795E+03  0.23400341692E+03  0.59454688780E+03  0.46999998093E+01 0.  1.
       -5    1    3    3    0  502  0.28769273777E+03  0.46469258795E+03 -0.10958225911E+04  0.12245634135E+04  0.46999998093E+01 0. -1.
</event>
<event>
 5   0  0.7395088E-04  0.1593858E+04  0.7818609E-02  0.8824330E-01
        2   -1    0    0  501    0  0.00000000000E+00  0.00000000000E+00  0.10429607676E+04  0.10429607676E+04  0.25500000920E-02 0. -1.
       -2   -1    0    0    0  501  0.00000000000E+00  0.00000000000E+00 -0.60893585400E+03  0.60893585400E+03  0.25500000920E-02 0.  1.
    10030    2    1    2    0    0  0.00000000000E+00  0.00000000000E+00  0.43402491358E+03  0.16518966216E+04  0.15938584701E+04 0.  0.
        1    1    3    3  502    0  0.53259939516E+03 -0.78130326044E+02 -0.39203355324E+03  0.66592549919E+03  0.50400001928E-02 0.  1.
       -1    1    3    3    0  502 -0.53259939516E+03  0.78130326044E+02  0.82605846682E+03  0.98597112240E+03  0.50400001928E-02 0. -1.
</event>
<event>
 5   0  0.7553070E-04  0.1605411E+04  0.7818609E-02  0.8817231E-01
        2   -1    0    0  501    0  0.00000000000E+00  0.00000000000E+00  0.15587033360E+04  0.15587033360E+04  0.25500000920E-02 0.  1.
       -2   -1    0    0    0  501  0.00000000000E+00  0.00000000000E+00 -0.41337968752E+03  0.41337968753E+03  0.25500000920E-02 0. -1.
    10030    2    1    2    0    0  0.00000000000E+00  0.00000000000E+00  0.11453236485E+04  0.19720830235E+04  0.16054112221E+04 0.  0.
        4    1    3    3  502    0 -0.39901808097E+03 -0.28023091807E+03  0.13559420941E+04  0.14409459989E+04  0.12699999809E+01 0.  1.
       -4    1    3    3    0  502  0.39901808097E+03  0.28023091807E+03 -0.21061844561E+03  0.53113702461E+03  0.12699999809E+01 0. -1.
</event>
<event>
 5   0  0.7395088E-04  0.1586076E+04  0.7818609E-02  0.8829148E-01
        2   -1    0    0  501    0  0.00000000000E+00  0.00000000000E+00  0.15874451307E+04  0.15874451307E+04  0.25500000920E-02 0.  1.
       -2   -1    0    0    0  501  0.00000000000E+00  0.00000000000E+00 -0.39617698423E+03  0.39617698423E+03  0.25500000920E-02 0. -1.
    10030    2    1    2    0    0  0.00000000000E+00  0.00000000000E+00  0.11912681464E+04  0.19836221149E+04  0.15860759433E+04 0.  0.
        1    1    3    3  502    0  0.38405669237E+03 -0.59005838351E+03  0.13912064605E+03  0.71765102459E+03  0.50400001928E-02 0. -1.
       -1    1    3    3    0  502 -0.38405669237E+03  0.59005838351E+03  0.10521475004E+04  0.12659710903E+04  0.50400001928E-02 0.  1.
</event>
<event>
 5   0  0.7770905E-04  0.1615642E+04  0.7818609E-02  0.8810995E-01
        2   -1    0    0  501    0  0.00000000000E+00  0.00000000000E+00  0.16278681326E+04  0.16278681327E+04  0.25500000920E-02 0. -1.
       -2   -1    0    0    0  501  0.00000000000E+00  0.00000000000E+00 -0.40087715542E+03  0.40087715543E+03  0.25500000920E-02 0.  1.
    10030    2    1    2    0    0  0.00000000000E+00  0.00000000000E+00  0.12269909772E+04  0.20287452881E+04  0.16156424684E+04 0.  0.
        2    1    3    3  502    0  0.33541085035E+03 -0.38098176205E+03 -0.17562080258E+03  0.53711284461E+03  0.25500000920E-02 0.  1.
       -2    1    3    3    0  502 -0.33541085035E+03  0.38098176205E+03  0.14026117798E+04  0.14916324435E+04  0.25500000920E-02 0. -1.
</event>
<event>
 5   0  0.3950195E-04  0.1595666E+04  0.7818609E-02  0.8823215E-01
        1   -1    0    0  501    0  0.00000000000E+00  0.00000000000E+00  0.61628492487E+03  0.61628492489E+03  0.50400001928E-02 0.  1.
       -1   -1    0    0    0  501  0.00000000000E+00  0.00000000000E+00 -0.10328624670E+04  0.10328624670E+04  0.50400001928E-02 0. -1.
    10030    2    1    2    0    0  0.00000000000E+00  0.00000000000E+00 -0.41657754213E+03  0.16491473919E+04  0.15956660903E+04 0.  0.
        2    1    3    3  502    0 -0.49597727915E+03 -0.84102947073E+02  0.43171658214E+03  0.66290721405E+03  0.25500000920E-02 0.  1.
       -2    1    3    3    0  502  0.49597727915E+03  0.84102947073E+02 -0.84829412426E+03  0.98624017785E+03  0.25500000920E-02 0. -1.
</event>
<event>
 5   0  0.3950195E-04  0.1611279E+04  0.7818609E-02  0.8813648E-01
        1   -1    0    0  501    0  0.00000000000E+00  0.00000000000E+00  0.29130178980E+04  0.29130178980E+04  0.50400001928E-02 0. -1.
       -1   -1    0    0    0  501  0.00000000000E+00  0.00000000000E+00 -0.22281199657E+03  0.22281199663E+03  0.50400001928E-02 0.  1.
    10030    2    1    2    0    0  0.00000000000E+00  0.00000000000E+00  0.26902059014E+04  0.31358298946E+04  0.16112794097E+04 0.  0.
        2    1    3    3  502    0 -0.54848174823E+02 -0.63625776262E+03  0.38925005545E+03  0.74789562671E+03  0.25500000920E-02 0.  1.
       -2    1    3    3    0  502  0.54848174823E+02  0.63625776262E+03  0.23009558460E+04  0.23879342679E+04  0.25500000920E-02 0. -1.
</event>
<event>
 5   0  0.7395088E-04  0.1603574E+04  0.7818609E-02  0.8818355E-01
        2   -1    0    0  501    0  0.00000000000E+00  0.00000000000E+00  0.21037556949E+04  0.21037556949E+04  0.25500000920E-02 0. -1.
       -2   -1    0    0    0  501  0.00000000000E+00  0.00000000000E+00 -0.30557837286E+03  0.30557837287E+03  0.25500000920E-02 0.  1.
    10030    2    1    2    0    0  0.00000000000E+00  0.00000000000E+00  0.17981773220E+04  0.24093340677E+04  0.16035738114E+04 0.  0.
        1    1    3    3  502    0  0.26522900984E+03  0.35196040845E+03 -0.10727955078E+03  0.45357629878E+03  0.50400001928E-02 0.  1.
       -1    1    3    3    0  502 -0.26522900984E+03 -0.35196040845E+03  0.19054568728E+04  0.19557577690E+04  0.50400001928E-02 0. -1.
</event>
<event>
 5   0  0.3889847E-04  0.1586348E+04  0.7818609E-02  0.8828979E-01
        1   -1    0    0  501    0  0.00000000000E+00  0.00000000000E+00  0.12918641650E+04  0.12918641650E+04  0.50400001928E-02 0. -1.
       -1   -1    0    0    0  501  0.00000000000E+00  0.00000000000E+00 -0.48699034734E+03  0.48699034737E+03  0.50400001928E-02 0.  1.
    10030    2    1    2    0    0  0.00000000000E+00  0.00000000000E+00  0.80487381764E+03  0.17788545124E+04  0.15863484844E+04 0.  0.
        1    1    3    3  502    0 -0.54824980992E+03  0.50634211772E+03  0.70367209163E+03  0.10257263801E+04  0.50400001928E-02 0. -1.
       -1    1    3    3    0  502  0.54824980992E+03 -0.50634211772E+03  0.10120172602E+03  0.75312813228E+03  0.50400001928E-02 0.  1.
</event>
<event>
 5   0  0.4110803E-04  0.1652640E+04  0.7818609E-02  0.8788846E-01
       -1   -1    0    0    0  501  0.00000000000E+00  0.00000000000E+00  0.43356284187E+03  0.43356284190E+03  0.50400001928E-02 0. -1.
        1   -1    0    0  501    0  0.00000000000E+00  0.00000000000E+00 -0.15748692676E+04  0.15748692676E+04  0.50400001928E-02 0.  1.
    10030    2    1    2    0    0  0.00000000000E+00  0.00000000000E+00 -0.11413064257E+04  0.20084321095E+04  0.16526400640E+04 0.  0.
        5    1    3    3  502    0  0.30736389682E+03  0.71261066957E+03 -0.91545261009E+03  0.12001508667E+04  0.46999998093E+01 0.  1.
       -5    1    3    3    0  502 -0.30736389682E+03 -0.71261066957E+03 -0.22585381560E+03  0.80828124280E+03  0.46999998093E+01 0. -1.
</event>
<event>
 5   0  0.7488884E-04  0.1596505E+04  0.7818609E-02  0.8822698E-01
       -2   -1    0    0    0  501  0.00000000000E+00  0.00000000000E+00  0.18298219229E+04  0.18298219229E+04  0.25500000920E-02 0.  1.
        2   -1    0    0  501    0  0.00000000000E+00  0.00000000000E+00 -0.34823462453E+03  0.34823462454E+03  0.25500000920E-02 0. -1.
    10030    2    1    2    0    0  0.00000000000E+00  0.00000000000E+00  0.14815872984E+04  0.21780565474E+04  0.15965053715E+04 0.  0.
        3    1    3    3  502    0  0.57016067041E+02  0.73773622343E+03  0.11493945126E+04  0.13669723198E+04  0.10100000352E+00 0.  1.
       -3    1    3    3    0  502 -0.57016067041E+02 -0.73773622343E+03  0.33219278579E+03  0.81108422768E+03  0.10100000352E+00 0. -1.
</event>
<event>
 5   0  0.3837251E-04  0.1574080E+04  0.7818609E-02  0.8836632E-01
        1   -1    0    0  501    0  0.00000000000E+00  0.00000000000E+00  0.15686420953E+04  0.15686420953E+04  0.50400001928E-02 0. -1.
       -1   -1    0    0    0  501  0.00000000000E+00  0.00000000000E+00 -0.39488419065E+03  0.39488419068E+03  0.50400001928E-02 0.  1.
    10030    2    1    2    0    0  0.00000000000E+00  0.00000000000E+00  0.11737579046E+04  0.19635262860E+04  0.15740800034E+04 0.  0.
        4    1    3    3  502    0  0.13156176997E+03 -0.43699805274E+03  0.13867361739E+04  0.14599022660E+04  0.12699999809E+01 0.  1.
       -4    1    3    3    0  502 -0.13156176997E+03  0.43699805274E+03 -0.21297826925E+03  0.50362401997E+03  0.12699999809E+01 0. -1.
</event>
<event>
 5   0  0.7770905E-04  0.1625637E+04  0.7818609E-02  0.8804951E-01
       -2   -1    0    0    0  501  0.00000000000E+00  0.00000000000E+00  0.51873073457E+03  0.51873073458E+03  0.25500000920E-02 0. -1.
        2   -1    0    0  501    0  0.00000000000E+00  0.00000000000E+00 -0.12736354227E+04  0.12736354227E+04  0.25500000920E-02 0.  1.
    10030    2    1    2    0    0  0.00000000000E+00  0.00000000000E+00 -0.75490468814E+03  0.17923661573E+04  0.16256369071E+04 0.  0.
        2    1    3    3  502    0  0.29406164060E+03 -0.75739609810E+03 -0.35153062330E+03  0.88526542744E+03  0.25500000920E-02 0. -1.
       -2    1    3    3    0  502 -0.29406164060E+03  0.75739609810E+03 -0.40337406484E+03  0.90710072985E+03  0.25500000920E-02 0.  1.
</event>
<event>
 5   0  0.3837251E-04  0.1583745E+04  0.7818609E-02  0.8830597E-01
       -1   -1    0    0    0  501  0.00000000000E+00  0.00000000000E+00  0.48779278172E+03  0.48779278175E+03  0.50400001928E-02 0. -1.
        1   -1    0    0  501    0  0.00000000000E+00  0.00000000000E+00 -0.12855093764E+04  0.12855093764E+04  0.50400001928E-02 0.  1.
    10030    2    1    2    0    0  0.00000000000E+00  0.00000000000E+00 -0.79771659470E+03  0.17733021582E+04  0.15837451748E+04 0.  0.
        4    1    3    3  502    0  0.28234507548E+02 -0.75423807724E+03 -0.66708942972E+03  0.10073143426E+04  0.12699999809E+01 0.  1.
       -4    1    3    3    0  502 -0.28234507548E+02  0.75423807724E+03 -0.13062716498E+03  0.76598781563E+03  0.12699999809E+01 0. -1.
</event>
<event>
 5   0  0.3889847E-04  0.1662057E+04  0.7818609E-02  0.8783306E-01
        1   -1    0    0  501    0  0.00000000000E+00  0.00000000000E+00  0.15892068177E+04  0.15892068177E+04  0.50400001928E-02 0.  1.
       -1   -1    0    0    0  501  0.00000000000E+00  0.00000000000E+00 -0.43456161618E+03  0.43456161621E+03  0.50400001928E-02 0. -1.
    10030    2    1    2    0    0  0.00000000000E+00  0.00000000000E+00  0.11546452015E+04  0.20237684339E+04  0.16620568981E+04 0.  0.
        1    1    3    3  502    0 -0.71820152595E+03  0.20874156598E+03  0.13624201538E+03  0.76022914968E+03  0.50400001928E-02 0. -1.
       -1    1    3    3    0  502  0.71820152595E+03 -0.20874156598E+03  0.10184031861E+04  0.12635392842E+04  0.50400001928E-02 0.  1.
</event>
<event>
 5   0  0.7415102E-04  0.1599324E+04  0.7818609E-02  0.8820963E-01
       -2   -1    0    0    0  501  0.00000000000E+00  0.00000000000E+00  0.39004615697E+03  0.39004615698E+03  0.25500000920E-02 0. -1.
        2   -1    0    0  501    0  0.00000000000E+00  0.00000000000E+00 -0.16394454586E+04  0.16394454586E+04  0.25500000920E-02 0.  1.
    10030    2    1    2    0    0  0.00000000000E+00  0.00000000000E+00 -0.12493993016E+04  0.20294916155E+04  0.15993241081E+04 0.  0.
        5    1    3    3  502    0 -0.62862551134E+03 -0.46128654805E+03 -0.84985481863E+03  0.11533562397E+04  0.46999998093E+01 0.  1.
       -5    1    3    3    0  502  0.62862551134E+03  0.46128654805E+03 -0.39954448295E+03  0.87613537583E+03  0.46999998093E+01 0. -1.
</event>
<event>
 5   0  0.3973227E-04  0.1613035E+04  0.7818609E-02  0.8812580E-01
        1   -1    0    0  501    0  0.00000000000E+00  0.00000000000E+00  0.18885567191E+04  0.18885567191E+04  0.50400001928E-02 0.  1.
       -1   -1    0    0    0  501  0.00000000000E+00  0.00000000000E+00 -0.34442723290E+03  0.34442723294E+03  0.50400001928E-02 0. -1.
    10030    2    1    2    0    0  0.00000000000E+00  0.00000000000E+00  0.15441294862E+04  0.22329839520E+04  0.16130348601E+04 0.  0.
        3    1    3    3  502    0  0.63183726185E+03 -0.43742940853E+03  0.43323416351E+03  0.88218743107E+03  0.10100000352E+00 0. -1.
       -3    1    3    3    0  502 -0.63183726185E+03  0.43742940853E+03  0.11108953227E+04  0.13507965210E+04  0.10100000352E+00 0.  1.
</event>
<event>
 5   0  0.3973227E-04  0.1596264E+04  0.7818609E-02  0.8822846E-01
       -1   -1    0    0    0  501  0.00000000000E+00  0.00000000000E+00  0.58768166169E+03  0.58768166171E+03  0.50400001928E-02 0. -1.
        1   -1    0    0  501    0  0.00000000000E+00  0.00000000000E+00 -0.10839455184E+04  0.10839455184E+04  0.50400001928E-02 0.  1.
    10030    2    1    2    0    0  0.00000000000E+00  0.00000000000E+00 -0.49626385670E+03  0.16716271801E+04  0.15962642682E+04 0.  0.
        3    1    3    3  502    0  0.21643446863E+03 -0.75344115490E+03 -0.40520480022E+03  0.88244455545E+03  0.10100000352E+00 0. -1.
       -3    1    3    3    0  502 -0.21643446863E+03  0.75344115490E+03 -0.91059056474E+02  0.78918262467E+03  0.10100000352E+00 0.  1.
</event>
<event>
 5   0  0.7770905E-04  0.1587671E+04  0.7818609E-02  0.8828158E-01
       -2   -1    0    0    0  501  0.00000000000E+00  0.00000000000E+00  0.87863234463E+03  0.87863234463E+03  0.25500000920E-02 0.  1.
        2   -1    0    0  501    0  0.00000000000E+00  0.00000000000E+00 -0.71722278219E+03  0.71722278220E+03  0.25500000920E-02 0. -1.
    10030    2    1    2    0    0  0.00000000000E+00  0.00000000000E+00  0.16140956244E+03  0.15958551268E+04  0.15876714203E+04 0.  0.
        2    1    3    3  502    0 -0.73821993060E+03 -0.19639501296E+03  0.29777038183E+03  0.81988222774E+03  0.25500000920E-02 0.  1.
       -2    1    3    3    0  502  0.73821993060E+03  0.19639501296E+03 -0.13636081940E+03  0.77597289909E+03  0.25500000920E-02 0. -1.
</event>
<event>
 5   0  0.7553070E-04  0.1585610E+04  0.7818609E-02  0.8829437E-01
        2   -1    0    0  501    0  0.00000000000E+00  0.00000000000E+00  0.13574490270E+04  0.13574490270E+04  0.25500000920E-02 0. -1.
       -2   -1    0    0    0  501  0.00000000000E+00  0.00000000000E+00 -0.46303026487E+03  0.46303026488E+03  0.25500000920E-02 0.  1.
    10030    2    1    2    0    0  0.00000000000E+00  0.00000000000E+00  0.89441876211E+03  0.18204792919E+04  0.15856102706E+04 0.  0.
        4    1    3    3  502    0 -0.18859464468E+03 -0.39591154941E+03  0.12055150577E+04  0.12828024252E+04  0.12699999809E+01 0. -1.
       -4    1    3    3    0  502  0.18859464468E+03  0.39591154941E+03 -0.31109629554E+03  0.53767686667E+03  0.12699999809E+01 0.  1.
</event>
<event>
 5   0  0.3973227E-04  0.1456147E+04  0.7818609E-02  0.8914150E-01
       -1   -1    0    0    0  501  0.00000000000E+00  0.00000000000E+00  0.31844524557E+03  0.31844524561E+03  0.50400001928E-02 0. -1.
        1   -1    0    0  501    0  0.00000000000E+00  0.00000000000E+00 -0.16646220310E+04  0.16646220310E+04  0.50400001928E-02 0.  1.
    10030    2    1    2    0    0  0.00000000000E+00  0.00000000000E+00 -0.13461767854E+04  0.19830672766E+04  0.14561469314E+04 0.  0.
        3    1    3    3  502    0 -0.32014721490E+03 -0.23340501542E+03 -0.15049590908E+04  0.15562371335E+04  0.10100000352E+00 0.  1.
       -3    1    3    3    0  502  0.32014721490E+03  0.23340501542E+03  0.15878230533E+03  0.42683014317E+03  0.10100000352E+00 0. -1.
</event>
<event>
 5   0  0.7770905E-04  0.1636461E+04  0.7818609E-02  0.8798456E-01
        2   -1    0    0  501    0  0.00000000000E+00  0.00000000000E+00  0.89454004041E+03  0.89454004041E+03  0.25500000920E-02 0.  1.
       -2   -1    0    0    0  501  0.00000000000E+00  0.00000000000E+00 -0.74843085711E+03  0.74843085711E+03  0.25500000920E-02 0. -1.
    10030    2    1    2    0    0  0.00000000000E+00  0.00000000000E+00  0.14610918330E+03  0.16429708975E+04  0.16364612665E+04 0.  0.
        2    1    3    3  502    0  0.43612793552E+03  0.60379728362E+03 -0.26700003953E+03  0.79124443566E+03  0.25500000920E-02 0. -1.
       -2    1    3    3    0  502 -0.43612793552E+03 -0.60379728362E+03  0.41310922283E+03  0.85172646186E+03  0.25500000920E-02 0.  1.
</event>
<event>
 5   0  0.7553070E-04  0.1407846E+04  0.7818609E-02  0.8948159E-01
       -2   -1    0    0    0  501  0.00000000000E+00  0.00000000000E+00  0.62019703911E+03  0.62019703912E+03  0.25500000920E-02 0. -1.
        2   -1    0    0  501    0  0.00000000000E+00  0.00000000000E+00 -0.79895191937E+03  0.79895191937E+03  0.25500000920E-02 0.  1.
    10030    2    1    2    0    0  0.00000000000E+00  0.00000000000E+00 -0.17875488026E+03  0.14191489585E+04  0.14078460353E+04 0.  0.
        4    1    3    3  502    0  0.69012741130E+03 -0.12442030426E+03 -0.15110423728E+03  0.71734953779E+03  0.12699999809E+01 0. -1.
       -4    1    3    3    0  502 -0.69012741130E+03  0.12442030426E+03 -0.27650642978E+02  0.70179942070E+03  0.12699999809E+01 0.  1.
</event>
<event>
 5   0  0.7488884E-04  0.1551559E+04  0.7818609E-02  0.8850873E-01
        2   -1    0    0  501    0  0.00000000000E+00  0.00000000000E+00  0.75429563511E+03  0.75429563511E+03  0.25500000920E-02 0. -1.
       -2   -1    0    0    0  501  0.00000000000E+00  0.00000000000E+00 -0.79787515528E+03  0.79787515528E+03  0.25500000920E-02 0.  1.
    10030    2    1    2    0    0  0.00000000000E+00  0.00000000000E+00 -0.43579520167E+02  0.15521707904E+04  0.15515588896E+04 0.  0.
        3    1    3    3  502    0  0.67469501992E+03  0.15244521090E+03 -0.37318435471E+03  0.78595132485E+03  0.10100000352E+00 0.  1.
       -3    1    3    3    0  502 -0.67469501992E+03 -0.15244521090E+03  0.32960483455E+03  0.76621946555E+03  0.10100000352E+00 0. -1.
</event>
<event>
 5   0  0.3973227E-04  0.1718773E+04  0.7818609E-02  0.8750729E-01
       -1   -1    0    0    0  501  0.00000000000E+00  0.00000000000E+00  0.76878538197E+03  0.76878538199E+03  0.50400001928E-02 0.  1.
        1   -1    0    0  501    0  0.00000000000E+00  0.00000000000E+00 -0.96066527289E+03  0.96066527290E+03  0.50400001928E-02 0. -1.
    10030    2    1    2    0    0  0.00000000000E+00  0.00000000000E+00 -0.19187989092E+03  0.17294506549E+04  0.17187733053E+04 0.  0.
        3    1    3    3  502    0  0.31581658347E+03 -0.52302690779E+03 -0.70405196350E+03  0.93219442080E+03  0.10100000352E+00 0. -1.
       -3    1    3    3    0  502 -0.31581658347E+03  0.52302690779E+03  0.51217207258E+03  0.79725623409E+03  0.10100000352E+00 0.  1.
</event>
<event>
 5   0  0.7770905E-04  0.1605402E+04  0.7818609E-02  0.8817236E-01
       -2   -1    0    0    0  501  0.00000000000E+00  0.00000000000E+00  0.58795314875E+03  0.58795314876E+03  0.25500000920E-02 0.  1.
        2   -1    0    0  501    0  0.00000000000E+00  0.00000000000E+00 -0.10958841554E+04  0.10958841554E+04  0.25500000920E-02 0. -1.
    10030    2    1    2    0    0  0.00000000000E+00  0.00000000000E+00 -0.50793100665E+03  0.16838373042E+04  0.16054015570E+04 0.  0.
        2    1    3    3  502    0 -0.21010752120E+03 -0.27775518434E+03 -0.10125116385E+04  0.10707347622E+04  0.25500000920E-02 0. -1.
       -2    1    3    3    0  502  0.21010752120E+03  0.27775518434E+03  0.50458063186E+03  0.61310254195E+03  0.25500000920E-02 0.  1.
</event>
<event>
 5   0  0.2781000E-04  0.1615386E+04  0.7818609E-02  0.8811151E-01
        3   -1    0    0  501    0  0.00000000000E+00  0.00000000000E+00  0.44690404548E+03  0.44690405690E+03  0.10100000352E+00 0.  1.
       -3   -1    0    0    0  501  0.00000000000E+00  0.00000000000E+00 -0.14597501013E+04  0.14597501048E+04  0.10100000352E+00 0. -1.
    10030    2    1    2    0    0  0.00000000000E+00  0.00000000000E+00 -0.10128460558E+04  0.19066541617E+04  0.16153863190E+04 0.  0.
        2    1    3    3  502    0 -0.16705168857E+03  0.97855298720E+02  0.41911216792E+03  0.46166755945E+03  0.25500000920E-02 0.  1.
       -2    1    3    3    0  502  0.16705168857E+03 -0.97855298720E+02 -0.14319582237E+04  0.14449866022E+04  0.25500000920E-02 0. -1.
</event>
<event>
 5   0  0.3837251E-04  0.1472187E+04  0.7818609E-02  0.8903162E-01
        1   -1    0    0  501    0  0.00000000000E+00  0.00000000000E+00  0.12111994364E+04  0.12111994364E+04  0.50400001928E-02 0. -1.
       -1   -1    0    0    0  501  0.00000000000E+00  0.00000000000E+00 -0.44735315276E+03  0.44735315279E+03  0.50400001928E-02 0.  1.
    10030    2    1    2    0    0  0.00000000000E+00  0.00000000000E+00  0.76384628367E+03  0.16585525892E+04  0.14721873339E+04 0.  0.
        4    1    3    3  502    0  0.50135545018E+03  0.15664663581E+03  0.96289541133E+03  0.10968430343E+04  0.12699999809E+01 0. -1.
       -4    1    3    3    0  502 -0.50135545018E+03 -0.15664663581E+03 -0.19904912766E+03  0.56170955489E+03  0.12699999809E+01 0.  1.
</event>
<event>
 5   0  0.7770905E-04  0.1610298E+04  0.7818609E-02  0.8814247E-01
        2   -1    0    0  501    0  0.00000000000E+00  0.00000000000E+00  0.21476148299E+04  0.21476148299E+04  0.25500000920E-02 0. -1.
       -2   -1    0    0    0  501  0.00000000000E+00  0.00000000000E+00 -0.30185331476E+03  0.30185331477E+03  0.25500000920E-02 0.  1.
    10030    2    1    2    0    0  0.00000000000E+00  0.00000000000E+00  0.18457615152E+04  0.24494681447E+04  0.16102976809E+04 0.  0.
        2    1    3    3  502    0 -0.39834229028E+03 -0.46392031381E+03  0.17196467478E+04  0.18251256327E+04  0.25500000920E-02 0. -1.
       -2    1    3    3    0  502  0.39834229028E+03  0.46392031381E+03  0.12611476737E+03  0.62434251204E+03  0.25500000920E-02 0.  1.
</event>
<event>
 5   0  0.4110803E-04  0.1600397E+04  0.7818609E-02  0.8820304E-01
        1   -1    0    0  501    0  0.00000000000E+00  0.00000000000E+00  0.12001890694E+04  0.12001890694E+04  0.50400001928E-02 0.  1.
       -1   -1    0    0    0  501  0.00000000000E+00  0.00000000000E+00 -0.53351428021E+03  0.53351428023E+03  0.50400001928E-02 0. -1.
    10030    2    1    2    0    0  0.00000000000E+00  0.00000000000E+00  0.66667478919E+03  0.17337033496E+04  0.16003974600E+04 0.  0.
        5    1    3    3  502    0 -0.36373163446E+03 -0.22913926238E+03  0.10644538446E+04  0.11479937199E+04  0.46999998093E+01 0.  1.
       -5    1    3    3    0  502  0.36373163446E+03  0.22913926238E+03 -0.39777905544E+03  0.58570962978E+03  0.46999998093E+01 0. -1.
</event>
<event>
 5   0  0.3973227E-04  0.1593297E+04  0.7818609E-02  0.8824677E-01
        1   -1    0    0  501    0  0.00000000000E+00  0.00000000000E+00  0.74913307957E+03  0.74913307959E+03  0.50400001928E-02 0.  1.
       -1   -1    0    0    0  501  0.00000000000E+00  0.00000000000E+00 -0.84717760786E+03  0.84717760788E+03  0.50400001928E-02 0. -1.
    10030    2    1    2    0    0  0.00000000000E+00  0.00000000000E+00 -0.98044528288E+02  0.15963106875E+04  0.15932969219E+04 0.  0.
        3    1    3    3  502    0 -0.29307586131E+03 -0.21498352486E+03  0.66121734941E+03  0.75453281559E+03  0.10100000352E+00 0.  1.
       -3    1    3    3    0  502  0.29307586131E+03  0.21498352486E+03 -0.75926187770E+03  0.84177787187E+03  0.10100000352E+00 0. -1.
</event>
<event>
 5   0  0.3973227E-04  0.1601295E+04  0.7818609E-02  0.8819753E-01
       -1   -1    0    0    0  501  0.00000000000E+00  0.00000000000E+00  0.33667695783E+03  0.33667695786E+03  0.50400001928E-02 0.  1.
        1   -1    0    0  501    0  0.00000000000E+00  0.00000000000E+00 -0.19040112874E+04  0.19040112874E+04  0.50400001928E-02 0. -1.
    10030    2    1    2    0    0  0.00000000000E+00  0.00000000000E+00 -0.15673343296E+04  0.22406882453E+04  0.16012953856E+04 0.  0.
        3    1    3    3  502    0 -0.30811903661E+03  0.16598490574E+03  0.22397104580E+03  0.41551338031E+03  0.10100000352E+00 0.  1.
       -3    1    3    3    0  502  0.30811903661E+03 -0.16598490574E+03 -0.17913053754E+04  0.18251748650E+04  0.10100000352E+00 0. -1.
</event>
<event>
 5   0  0.3950195E-04  0.1647284E+04  0.7818609E-02  0.8792015E-01
       -1   -1    0    0    0  501  0.00000000000E+00  0.00000000000E+00  0.49034352713E+03  0.49034352716E+03  0.50400001928E-02 0. -1.
        1   -1    0    0  501    0  0.00000000000E+00  0.00000000000E+00 -0.13834909623E+04  0.13834909623E+04  0.50400001928E-02 0.  1.
    10030    2    1    2    0    0  0.00000000000E+00  0.00000000000E+00 -0.89314743512E+03  0.18738344894E+04  0.16472836285E+04 0.  0.
        2    1    3    3  502    0 -0.72891806514E+03 -0.30094392889E+03 -0.71695443088E+03  0.10657919356E+04  0.25500000920E-02 0. -1.
       -2    1    3    3    0  502  0.72891806514E+03  0.30094392889E+03 -0.17619300424E+03  0.80804255381E+03  0.25500000920E-02 0.  1.
</event>
<event>
 5   0  0.7415102E-04  0.1623331E+04  0.7818609E-02  0.8806342E-01
        2   -1    0    0  501    0  0.00000000000E+00  0.00000000000E+00  0.16786403436E+04  0.16786403436E+04  0.25500000920E-02 0. -1.
       -2   -1    0    0    0  501  0.00000000000E+00  0.00000000000E+00 -0.39246083736E+03  0.39246083737E+03  0.25500000920E-02 0.  1.
    10030    2    1    2    0    0  0.00000000000E+00  0.00000000000E+00  0.12861795063E+04  0.20711011810E+04  0.16233306439E+04 0.  0.
        5    1    3    3  502    0 -0.61511076217E+03 -0.39598218937E+03  0.19451941761E+03  0.75698285176E+03  0.46999998093E+01 0.  1.
       -5    1    3    3    0  502  0.61511076217E+03  0.39598218937E+03  0.10916600887E+04  0.13141183292E+04  0.46999998093E+01 0. -1.
</event>
<event>
 5   0  0.3837251E-04  0.1566060E+04  0.7818609E-02  0.8841674E-01
        1   -1    0    0  501    0  0.00000000000E+00  0.00000000000E+00  0.72914204357E+03  0.72914204359E+03  0.50400001928E-02 0. -1.
       -1   -1    0    0    0  501  0.00000000000E+00  0.00000000000E+00 -0.84090070300E+03  0.84090070302E+03  0.50400001928E-02 0.  1.
    10030    2    1    2    0    0  0.00000000000E+00  0.00000000000E+00 -0.11175865943E+03  0.15700427466E+04  0.15660600973E+04 0.  0.
        4    1    3    3  502    0  0.70386118763E+03  0.16834025915E+03  0.24383818631E+03  0.76368690463E+03  0.12699999809E+01 0. -1.
       -4    1    3    3    0  502 -0.70386118763E+03 -0.16834025915E+03 -0.35559684574E+03  0.80635584198E+03  0.12699999809E+01 0.  1.
</event>
<event>
 5   0  0.3973227E-04  0.1593845E+04  0.7818609E-02  0.8824338E-01
        1   -1    0    0  501    0  0.00000000000E+00  0.00000000000E+00  0.81210570486E+03  0.81210570487E+03  0.50400001928E-02 0. -1.
       -1   -1    0    0    0  501  0.00000000000E+00  0.00000000000E+00 -0.78202354221E+03  0.78202354223E+03  0.50400001928E-02 0.  1.
    10030    2    1    2    0    0  0.00000000000E+00  0.00000000000E+00  0.30082162646E+02  0.15941292471E+04  0.15938453877E+04 0.  0.
        3    1    3    3  502    0 -0.38190465681E+03 -0.14872395038E+03  0.69862149965E+03  0.80996419074E+03  0.10100000352E+00 0. -1.
       -3    1    3    3    0  502  0.38190465681E+03  0.14872395038E+03 -0.66853933700E+03  0.78416505637E+03  0.10100000352E+00 0.  1.
</event>
<event>
 5   0  0.7770905E-04  0.1616747E+04  0.7818609E-02  0.8810325E-01
        2   -1    0    0  501    0  0.00000000000E+00  0.00000000000E+00  0.12360619744E+04  0.12360619744E+04  0.25500000920E-02 0.  1.
       -2   -1    0    0    0  501  0.00000000000E+00  0.00000000000E+00 -0.52866882054E+03  0.52866882054E+03  0.25500000920E-02 0. -1.
    10030    2    1    2    0    0  0.00000000000E+00  0.00000000000E+00  0.70739315381E+03  0.17647307949E+04  0.16167466420E+04 0.  0.
        2    1    3    3  502    0 -0.29634862575E+03  0.11197054770E+03  0.11654820515E+04  0.12077699797E+04  0.25500000920E-02 0.  1.
       -2    1    3    3    0  502  0.29634862575E+03 -0.11197054770E+03 -0.45808889765E+03  0.55696081522E+03  0.25500000920E-02 0. -1.
</event>
<event>
 5   0  0.3950195E-04  0.1618981E+04  0.7818609E-02  0.8808972E-01
        1   -1    0    0  501    0  0.00000000000E+00  0.00000000000E+00  0.16469545312E+04  0.16469545312E+04  0.50400001928E-02 0. -1.
       -1   -1    0    0    0  501  0.00000000000E+00  0.00000000000E+00 -0.39787045668E+03  0.39787045671E+03  0.50400001928E-02 0.  1.
    10030    2    1    2    0    0  0.00000000000E+00  0.00000000000E+00  0.12490840745E+04  0.20448249879E+04  0.16189806070E+04 0.  0.
        2    1    3    3  502    0 -0.41214540111E+03  0.11244633733E+03 -0.24389405292E+03  0.49192714857E+03  0.25500000920E-02 0.  1.
       -2    1    3    3    0  502  0.41214540111E+03 -0.11244633733E+03  0.14929781274E+04  0.15528978393E+04  0.25500000920E-02 0. -1.
</event>
<event>
 5   0  0.7415102E-04  0.1583183E+04  0.7818609E-02  0.8830947E-01
       -2   -1    0    0    0  501  0.00000000000E+00  0.00000000000E+00  0.21847808318E+03  0.21847808320E+03  0.25500000920E-02 0. -1.
        2   -1    0    0  501    0  0.00000000000E+00  0.00000000000E+00 -0.28680999038E+04  0.28680999038E+04  0.25500000920E-02 0.  1.
    10030    2    1    2    0    0  0.00000000000E+00  0.00000000000E+00 -0.26496218206E+04  0.30865779870E+04  0.15831828314E+04 0.  0.
        5    1    3    3  502    0  0.31705736909E+03  0.27478090878E+03 -0.26334650647E+04  0.26666815071E+04  0.46999998093E+01 0.  1.
       -5    1    3    3    0  502 -0.31705736909E+03 -0.27478090878E+03 -0.16156755941E+02  0.41989647996E+03  0.46999998093E+01 0. -1.
</event>
<event>
 5   0  0.3889847E-04  0.1622397E+04  0.7818609E-02  0.8806906E-01
       -1   -1    0    0    0  501  0.00000000000E+00  0.00000000000E+00  0.14060681890E+04  0.14060681890E+04  0.50400001928E-02 0. -1.
        1   -1    0    0  501    0  0.00000000000E+00  0.00000000000E+00 -0.46800227962E+03  0.46800227964E+03  0.50400001928E-02 0.  1.
    10030    2    1    2    0    0  0.00000000000E+00  0.00000000000E+00  0.93806590936E+03  0.18740704686E+04  0.16223971373E+04 0.  0.
        1    1    3    3  502    0 -0.52303667828E+03  0.60883142205E+03  0.33333631825E+03  0.86911228756E+03  0.50400001928E-02 0. -1.
       -1    1    3    3    0  502  0.52303667828E+03 -0.60883142205E+03  0.60472959111E+03  0.10049581811E+04  0.50400001928E-02 0.  1.
</event>
<event>
 5   0  0.7488884E-04  0.1554790E+04  0.7818609E-02  0.8848814E-01
       -2   -1    0    0    0  501  0.00000000000E+00  0.00000000000E+00  0.98112102615E+03  0.98112102615E+03  0.25500000920E-02 0.  1.
        2   -1    0    0  501    0  0.00000000000E+00  0.00000000000E+00 -0.61597183680E+03  0.61597183681E+03  0.25500000920E-02 0. -1.
    10030    2    1    2    0    0  0.00000000000E+00  0.00000000000E+00  0.36514918935E+03  0.15970928630E+04  0.15547899159E+04 0.  0.
        3    1    3    3  502    0  0.60475469087E+02  0.61670300004E+03 -0.29962609707E+03  0.68829912165E+03  0.10100000352E+00 0. -1.
       -3    1    3    3    0  502 -0.60475469087E+02 -0.61670300004E+03  0.66477528641E+03  0.90879374131E+03  0.10100000352E+00 0.  1.
</event>
<event>
 5   0  0.7415102E-04  0.1615288E+04  0.7818609E-02  0.8811211E-01
        2   -1    0    0  501    0  0.00000000000E+00  0.00000000000E+00  0.16487327268E+04  0.16487327268E+04  0.25500000920E-02 0.  1.
       -2   -1    0    0    0  501  0.00000000000E+00  0.00000000000E+00 -0.39563045550E+03  0.39563045551E+03  0.25500000920E-02 0. -1.
    10030    2    1    2    0    0  0.00000000000E+00  0.00000000000E+00  0.12531022713E+04  0.20443631823E+04  0.16152880607E+04 0.  0.
        5    1    3    3  502    0  0.46949523078E+03 -0.28288952158E+03 -0.12414634435E+03  0.56203795064E+03  0.46999998093E+01 0. -1.
       -5    1    3    3    0  502 -0.46949523078E+03  0.28288952158E+03  0.13772486157E+04  0.14823252317E+04  0.46999998093E+01 0.  1.
</event>
<event>
 5   0  0.3889847E-04  0.1587428E+04  0.7818609E-02  0.8828309E-01
       -1   -1    0    0    0  501  0.00000000000E+00  0.00000000000E+00  0.33494667827E+03  0.33494667831E+03  0.50400001928E-02 0.  1.
        1   -1    0    0  501    0  0.00000000000E+00  0.00000000000E+00 -0.18808428719E+04  0.18808428719E+04  0.50400001928E-02 0. -1.
    10030    2    1    2    0    0  0.00000000000E+00  0.00000000000E+00 -0.15458961936E+04  0.22157895502E+04  0.15874281997E+04 0.  0.
        1    1    3    3  502    0 -0.53669776384E+03  0.53053510925E+03 -0.11161934701E+04  0.13473677503E+04  0.50400001928E-02 0. -1.
       -1    1    3    3    0  502  0.53669776384E+03 -0.53053510925E+03 -0.42970272344E+03  0.86842179983E+03  0.50400001928E-02 0.  1.
</event>
<event>
 5   0  0.7770905E-04  0.1615487E+04  0.7818609E-02  0.8811090E-01
       -2   -1    0    0    0  501  0.00000000000E+00  0.00000000000E+00  0.36097914282E+03  0.36097914283E+03  0.25500000920E-02 0. -1.
        2   -1    0    0  501    0  0.00000000000E+00  0.00000000000E+00 -0.18074449011E+04  0.18074449011E+04  0.25500000920E-02 0.  1.
    10030    2    1    2    0    0  0.00000000000E+00  0.00000000000E+00 -0.14464657583E+04  0.21684240440E+04  0.16154874325E+04 0.  0.
        2    1    3    3  502    0 -0.42468941516E+03 -0.64305251781E+03 -0.10480857149E+04  0.13009078776E+04  0.25500000920E-02 0.  1.
       -2    1    3    3    0  502  0.42468941516E+03  0.64305251781E+03 -0.39838004337E+03  0.86751616641E+03  0.25500000920E-02 0. -1.
</event>
<event>
 5   0  0.7415102E-04  0.1621378E+04  0.7818609E-02  0.8807521E-01
        2   -1    0    0  501    0  0.00000000000E+00  0.00000000000E+00  0.13734175649E+04  0.13734175649E+04  0.25500000920E-02 0.  1.
       -2   -1    0    0    0  501  0.00000000000E+00  0.00000000000E+00 -0.47852662208E+03  0.47852662208E+03  0.25500000920E-02 0. -1.
    10030    2    1    2    0    0  0.00000000000E+00  0.00000000000E+00  0.89489094285E+03  0.18519441870E+04  0.16213782631E+04 0.  0.
        5    1    3    3  502    0  0.70024518901E+03  0.96265972655E+02 -0.59738710978E+01  0.70687215206E+03  0.46999998093E+01 0. -1.
       -5    1    3    3    0  502 -0.70024518901E+03 -0.96265972655E+02  0.90086481394E+03  0.11450720349E+04  0.46999998093E+01 0.  1.
</event>
<event>
 5   0  0.3950195E-04  0.1598058E+04  0.7818609E-02  0.8821742E-01
       -1   -1    0    0    0  501  0.00000000000E+00  0.00000000000E+00  0.88451333668E+03  0.88451333669E+03  0.50400001928E-02 0.  1.
        1   -1    0    0  501    0  0.00000000000E+00  0.00000000000E+00 -0.72180634402E+03  0.72180634404E+03  0.50400001928E-02 0. -1.
    10030    2    1    2    0    0  0.00000000000E+00  0.00000000000E+00  0.16270699266E+03  0.16063196807E+04  0.15980579937E+04 0.  0.
        2    1    3    3  502    0  0.53799219049E+03  0.55314276969E+03 -0.12719154985E+03  0.78203593974E+03  0.25500000920E-02 0.  1.
       -2    1    3    3    0  502 -0.53799219049E+03 -0.55314276969E+03  0.28989854251E+03  0.82428374098E+03  0.25500000920E-02 0. -1.
</event>
<event>
 5   0  0.7415102E-04  0.1609743E+04  0.7818609E-02  0.8814585E-01
       -2   -1    0    0    0  501  0.00000000000E+00  0.00000000000E+00  0.94216230050E+03  0.94216230050E+03  0.25500000920E-02 0. -1.
        2   -1    0    0  501    0  0.00000000000E+00  0.00000000000E+00 -0.68758627801E+03  0.68758627801E+03  0.25500000920E-02 0.  1.
    10030    2    1    2    0    0  0.00000000000E+00  0.00000000000E+00  0.25457602249E+03  0.16297485785E+04  0.16097426745E+04 0.  0.
        5    1    3    3  502    0  0.56194884201E+03  0.57431291462E+03  0.80082861016E+02  0.80750057558E+03  0.46999998093E+01 0. -1.
       -5    1    3    3    0  502 -0.56194884201E+03 -0.57431291462E+03  0.17449316148E+03  0.82224800294E+03  0.46999998093E+01 0.  1.
</event>
<event>
 5   0  0.3837251E-04  0.1613722E+04  0.7818609E-02  0.8812162E-01
        1   -1    0    0  501    0  0.00000000000E+00  0.00000000000E+00  0.83468483896E+03  0.83468483898E+03  0.50400001928E-02 0. -1.
       -1   -1    0    0    0  501  0.00000000000E+00  0.00000000000E+00 -0.77996445983E+03  0.77996445984E+03  0.50400001928E-02 0.  1.
    10030    2    1    2    0    0  0.00000000000E+00  0.00000000000E+00  0.54720379133E+02  0.16146492988E+04  0.16137217971E+04 0.  0.
        4    1    3    3  502    0  0.18236364432E+03  0.12897291592E+03 -0.74841271304E+03  0.78103374687E+03  0.12699999809E+01 0.  1.
       -4    1    3    3    0  502 -0.18236364432E+03 -0.12897291592E+03  0.80313309217E+03  0.83361555195E+03  0.12699999809E+01 0. -1.
</event>
<event>
 5   0  0.4110803E-04  0.1600412E+04  0.7818609E-02  0.8820295E-01
       -1   -1    0    0    0  501  0.00000000000E+00  0.00000000000E+00  0.49988834576E+03  0.49988834578E+03  0.50400001928E-02 0. -1.
        1   -1    0    0  501    0  0.00000000000E+00  0.00000000000E+00 -0.12809453304E+04  0.12809453304E+04  0.50400001928E-02 0.  1.
    10030    2    1    2    0    0  0.00000000000E+00  0.00000000000E+00 -0.78105698466E+03  0.17808336762E+04  0.16004119998E+04 0.  0.
        5    1    3    3  502    0  0.50565264162E+03 -0.22263549910E+03  0.25356737854E+03  0.60792241684E+03  0.46999998093E+01 0. -1.
       -5    1    3    3    0  502 -0.50565264162E+03  0.22263549910E+03 -0.10346243632E+04  0.11729112594E+04  0.46999998093E+01 0.  1.
</event>
<event>
 5   0  0.4110803E-04  0.1544876E+04  0.7818609E-02  0.8855147E-01
       -1   -1    0    0    0  501  0.00000000000E+00  0.00000000000E+00  0.51317007921E+03  0.51317007923E+03  0.50400001928E-02 0.  1.
        1   -1    0    0  501    0  0.00000000000E+00  0.00000000000E+00 -0.11626959254E+04  0.11626959254E+04  0.50400001928E-02 0. -1.
    10030    2    1    2    0    0  0.00000000000E+00  0.00000000000E+00 -0.64952584615E+03  0.16758660046E+04  0.15448763836E+04 0.  0.
        5    1    3    3  502    0  0.71127919641E+02 -0.76910691840E+03 -0.31678862955E+03  0.83484235560E+03  0.46999998093E+01 0.  1.
       -5    1    3    3    0  502 -0.71127919641E+02  0.76910691840E+03 -0.33273721661E+03  0.84102364901E+03  0.46999998093E+01 0. -1.
</event>
<event>
 5   0  0.2781000E-04  0.1602431E+04  0.7818609E-02  0.8819056E-01
       -3   -1    0    0    0  501  0.00000000000E+00  0.00000000000E+00  0.31603733720E+03  0.31603735334E+03  0.10100000352E+00 0.  1.
        3   -1    0    0  501    0  0.00000000000E+00  0.00000000000E+00 -0.20312351294E+04  0.20312351319E+04  0.10100000352E+00 0. -1.
    10030    2    1    2    0    0  0.00000000000E+00  0.00000000000E+00 -0.17151977922E+04  0.23472724852E+04  0.16024308577E+04 0.  0.
        4    1    3    3  502    0 -0.12916780255E+03 -0.77637346837E+03 -0.63785411302E+03  0.10130644432E+04  0.12699999809E+01 0.  1.
       -4    1    3    3    0  502  0.12916780255E+03  0.77637346837E+03 -0.10773436792E+04  0.13342080421E+04  0.12699999809E+01 0. -1.
</event>
<event>
 5   0  0.7488884E-04  0.1605927E+04  0.7818609E-02  0.8816915E-01
        2   -1    0    0  501    0  0.00000000000E+00  0.00000000000E+00  0.15526839697E+04  0.15526839697E+04  0.25500000920E-02 0. -1.
       -2   -1    0    0    0  501  0.00000000000E+00  0.00000000000E+00 -0.41524886270E+03  0.41524886270E+03  0.25500000920E-02 0.  1.
    10030    2    1    2    0    0  0.00000000000E+00  0.00000000000E+00  0.11374351070E+04  0.19679328324E+04  0.16059268384E+04 0.  0.
        3    1    3    3  502    0  0.15234030964E+03  0.59341664655E+03 -0.67320049055E+02  0.61634640061E+03  0.10100000352E+00 0.  1.
       -3    1    3    3    0  502 -0.15234030964E+03 -0.59341664655E+03  0.12047551560E+04  0.13515864318E+04  0.10100000352E+00 0. -1.
</event>
<event>
 5   0  0.4110803E-04  0.1608956E+04  0.7818609E-02  0.8815065E-01
       -1   -1    0    0    0  501  0.00000000000E+00  0.00000000000E+00  0.82188718056E+03  0.82188718057E+03  0.50400001928E-02 0.  1.
        1   -1    0    0  501    0  0.00000000000E+00  0.00000000000E+00 -0.78743802316E+03  0.78743802317E+03  0.50400001928E-02 0. -1.
    10030    2    1    2    0    0  0.00000000000E+00  0.00000000000E+00  0.34449157399E+02  0.16093252037E+04  0.16089564528E+04 0.  0.
        5    1    3    3  502    0  0.35024817659E+03  0.45163554861E+03 -0.54904532587E+03  0.79254104867E+03  0.46999998093E+01 0. -1.
       -5    1    3    3    0  502 -0.35024817659E+03 -0.45163554861E+03  0.58349448327E+03  0.81678415507E+03  0.46999998093E+01 0.  1.
</event>
<event>
 5   0  0.4110803E-04  0.1584535E+04  0.7818609E-02  0.8830106E-01
       -1   -1    0    0    0  501  0.00000000000E+00  0.00000000000E+00  0.10463814832E+04  0.10463814833E+04  0.50400001928E-02 0.  1.
        1   -1    0    0  501    0  0.00000000000E+00  0.00000000000E+00 -0.59986499435E+03  0.59986499438E+03  0.50400001928E-02 0. -1.
    10030    2    1    2    0    0  0.00000000000E+00  0.00000000000E+00  0.44651648889E+03  0.16462464776E+04  0.15845347867E+04 0.  0.
        5    1    3    3  502    0 -0.37816358569E+03 -0.39618663598E+03  0.81799847270E+03  0.98443645778E+03  0.46999998093E+01 0.  1.
       -5    1    3    3    0  502  0.37816358569E+03  0.39618663598E+03 -0.37148198381E+03  0.66181001985E+03  0.46999998093E+01 0. -1.
</event>
<event>
 5   0  0.7488884E-04  0.1598784E+04  0.7818609E-02  0.8821295E-01
       -2   -1    0    0    0  501  0.00000000000E+00  0.00000000000E+00  0.28932536732E+03  0.28932536733E+03  0.25500000920E-02 0.  1.
        2   -1    0    0  501    0  0.00000000000E+00  0.00000000000E+00 -0.22086821454E+04  0.22086821454E+04  0.25500000920E-02 0. -1.
    10030    2    1    2    0    0  0.00000000000E+00  0.00000000000E+00 -0.19193567781E+04  0.24980075127E+04  0.15987842544E+04 0.  0.
        3    1    3    3  502    0 -0.28385714776E+03  0.12283494947E+03 -0.21114052382E+04  0.21339389390E+04  0.10100000352E+00 0. -1.
       -3    1    3    3    0  502  0.28385714776E+03 -0.12283494947E+03  0.19204846014E+03  0.36406857375E+03  0.10100000352E+00 0.  1.
</event>
<event>
 5   0  0.7395088E-04  0.1417095E+04  0.7818609E-02  0.8941536E-01
        2   -1    0    0  501    0  0.00000000000E+00  0.00000000000E+00  0.68165034928E+03  0.68165034929E+03  0.25500000920E-02 0. -1.
       -2   -1    0    0    0  501  0.00000000000E+00  0.00000000000E+00 -0.73650625993E+03  0.73650625994E+03  0.25500000920E-02 0.  1.
    10030    2    1    2    0    0  0.00000000000E+00  0.00000000000E+00 -0.54855910650E+02  0.14181566092E+04  0.14170952676E+04 0.  0.
        1    1    3    3  502    0 -0.23289088006E+03  0.35987211352E+03  0.53716978065E+03  0.68723902202E+03  0.50400001928E-02 0. -1.
       -1    1    3    3    0  502  0.23289088006E+03 -0.35987211352E+03 -0.59202569130E+03  0.73091758721E+03  0.50400001928E-02 0.  1.
</event>
<event>
 5   0  0.7553070E-04  0.1579036E+04  0.7818609E-02  0.8833531E-01
        2   -1    0    0  501    0  0.00000000000E+00  0.00000000000E+00  0.16655951359E+04  0.16655951359E+04  0.25500000920E-02 0. -1.
       -2   -1    0    0    0  501  0.00000000000E+00  0.00000000000E+00 -0.37424389583E+03  0.37424389584E+03  0.25500000920E-02 0.  1.
    10030    2    1    2    0    0  0.00000000000E+00  0.00000000000E+00  0.12913512401E+04  0.20398390318E+04  0.15790361776E+04 0.  0.
        4    1    3    3  502    0  0.63413415602E+03 -0.45838886423E+03  0.50963026853E+03  0.93379392918E+03  0.12699999809E+01 0.  1.
       -4    1    3    3    0  502 -0.63413415602E+03  0.45838886423E+03  0.78172097157E+03  0.11060451026E+04  0.12699999809E+01 0. -1.
</event>
<event>
 5   0  0.3950195E-04  0.1606247E+04  0.7818609E-02  0.8816720E-01
       -1   -1    0    0    0  501  0.00000000000E+00  0.00000000000E+00  0.57994560064E+03  0.57994560066E+03  0.50400001928E-02 0. -1.
        1   -1    0    0  501    0  0.00000000000E+00  0.00000000000E+00 -0.11121852757E+04  0.11121852757E+04  0.50400001928E-02 0.  1.
    10030    2    1    2    0    0  0.00000000000E+00  0.00000000000E+00 -0.53223967508E+03  0.16921308764E+04  0.16062465038E+04 0.  0.
        2    1    3    3  502    0  0.42030815787E+03  0.59338254210E+03  0.93057735199E+02  0.73309039751E+03  0.25500000920E-02 0. -1.
       -2    1    3    3    0  502 -0.42030815787E+03 -0.59338254210E+03 -0.62529741028E+03  0.95904047889E+03  0.25500000920E-02 0.  1.
</event>
<event>
 5   0  0.7415102E-04  0.1878358E+04  0.7818609E-02  0.8665704E-01
        2   -1    0    0  501    0  0.00000000000E+00  0.00000000000E+00  0.66488549678E+03  0.66488549679E+03  0.25500000920E-02 0.  1.
       -2   -1    0    0    0  501  0.00000000000E+00  0.00000000000E+00 -0.13266308341E+04  0.13266308341E+04  0.25500000920E-02 0. -1.
    10030    2    1    2    0    0  0.00000000000E+00  0.00000000000E+00 -0.66174533736E+03  0.19915163309E+04  0.18783584335E+04 0.  0.
        5    1    3    3  502    0  0.92823910108E+03 -0.10920294156E+03 -0.42852098890E+03  0.10282049597E+04  0.46999998093E+01 0.  1.
       -5    1    3    3    0  502 -0.92823910108E+03  0.10920294156E+03 -0.23322434846E+03  0.96331137123E+03  0.46999998093E+01 0. -1.
</event>
<event>
 5   0  0.3837251E-04  0.1598164E+04  0.7818609E-02  0.8821677E-01
        1   -1    0    0  501    0  0.00000000000E+00  0.00000000000E+00  0.15579167466E+04  0.15579167466E+04  0.50400001928E-02 0. -1.
       -1   -1    0    0    0  501  0.00000000000E+00  0.00000000000E+00 -0.40986281103E+03  0.40986281106E+03  0.50400001928E-02 0.  1.
    10030    2    1    2    0    0  0.00000000000E+00  0.00000000000E+00  0.11480539355E+04  0.19677795576E+04  0.15981641182E+04 0.  0.
        4    1    3    3  502    0  0.61828295215E+03  0.44525242566E+03  0.87057513507E+03  0.11569037169E+04  0.12699999809E+01 0. -1.
       -4    1    3    3    0  502 -0.61828295215E+03 -0.44525242566E+03  0.27747880045E+03  0.81087584073E+03  0.12699999809E+01 0.  1.
</event>
<event>
 5   0  0.7395088E-04  0.1493829E+04  0.7818609E-02  0.8888567E-01
        2   -1    0    0  501    0  0.00000000000E+00  0.00000000000E+00  0.35180020048E+03  0.35180020049E+03  0.25500000920E-02 0.  1.
       -2   -1    0    0    0  501  0.00000000000E+00  0.00000000000E+00 -0.15857890470E+04  0.15857890470E+04  0.25500000920E-02 0. -1.
    10030    2    1    2    0    0  0.00000000000E+00  0.00000000000E+00 -0.12339888465E+04  0.19375892475E+04  0.14938285104E+04 0.  0.
        1    1    3    3  502    0 -0.22520100241E+03 -0.60660447368E+03 -0.11009160300E+04  0.12769888739E+04  0.50400001928E-02 0. -1.
       -1    1    3    3    0  502  0.22520100241E+03  0.60660447368E+03 -0.13307281645E+03  0.66060037351E+03  0.50400001928E-02 0.  1.
</event>
<event>
 5   0  0.7415102E-04  0.1616816E+04  0.7818609E-02  0.8810284E-01
        2   -1    0    0  501    0  0.00000000000E+00  0.00000000000E+00  0.62061298577E+03  0.62061298578E+03  0.25500000920E-02 0.  1.
       -2   -1    0    0    0  501  0.00000000000E+00  0.00000000000E+00 -0.10530284548E+04  0.10530284548E+04  0.25500000920E-02 0. -1.
    10030    2    1    2    0    0  0.00000000000E+00  0.00000000000E+00 -0.43241546904E+03  0.16736414406E+04  0.16168155534E+04 0.  0.
        5    1    3    3  502    0  0.62772560835E+03  0.47438704518E+03 -0.40825058153E+03  0.88643845547E+03  0.46999998093E+01 0.  1.
       -5    1    3    3    0  502 -0.62772560835E+03 -0.47438704518E+03 -0.24164887514E+02  0.78720298513E+03  0.46999998093E+01 0. -1.
</event>
<event>
 5   0  0.7770905E-04  0.1570078E+04  0.7818609E-02  0.8839144E-01
        2   -1    0    0  501    0  0.00000000000E+00  0.00000000000E+00  0.87870697551E+03  0.87870697552E+03  0.25500000920E-02 0.  1.
       -2   -1    0    0    0  501  0.00000000000E+00  0.00000000000E+00 -0.70135566773E+03  0.70135566774E+03  0.25500000920E-02 0. -1.
    10030    2    1    2    0    0  0.00000000000E+00  0.00000000000E+00  0.17735130778E+03  0.15800626433E+04  0.15700778548E+04 0.  0.
        2    1    3    3  502    0 -0.16075185537E+03 -0.41695528619E+03  0.73822063368E+03  0.86293833713E+03  0.25500000920E-02 0.  1.
       -2    1    3    3    0  502  0.16075185537E+03  0.41695528619E+03 -0.56086932590E+03  0.71712430612E+03  0.25500000920E-02 0. -1.
</event>
<event>
 5   0  0.3889847E-04  0.1585966E+04  0.7818609E-02  0.8829216E-01
       -1   -1    0    0    0  501  0.00000000000E+00  0.00000000000E+00  0.40989884388E+03  0.40989884391E+03  0.50400001928E-02 0. -1.
        1   -1    0    0  501    0  0.00000000000E+00  0.00000000000E+00 -0.15340906453E+04  0.15340906453E+04  0.50400001928E-02 0.  1.
    10030    2    1    2    0    0  0.00000000000E+00  0.00000000000E+00 -0.11241918015E+04  0.19439894892E+04  0.15859659290E+04 0.  0.
        1    1    3    3  502    0 -0.41295990929E+03 -0.27881344419E+03  0.19404972177E+03  0.53472246809E+03  0.50400001928E-02 0. -1.
       -1    1    3    3    0  502  0.41295990929E+03  0.27881344419E+03 -0.13182415232E+04  0.14092670212E+04  0.50400001928E-02 0.  1.
</event>
<event>
 5   0  0.3837251E-04  0.1626789E+04  0.7818609E-02  0.8804257E-01
       -1   -1    0    0    0  501  0.00000000000E+00  0.00000000000E+00  0.80656569868E+03  0.80656569869E+03  0.50400001928E-02 0. -1.
        1   -1    0    0  501    0  0.00000000000E+00  0.00000000000E+00 -0.82028130191E+03  0.82028130193E+03  0.50400001928E-02 0.  1.
    10030    2    1    2    0    0  0.00000000000E+00  0.00000000000E+00 -0.13715603232E+02  0.16268470006E+04  0.16267891829E+04 0.  0.
        4    1    3    3  502    0  0.57793708749E+03  0.55910195891E+03  0.11563275889E+03  0.81239080828E+03  0.12699999809E+01 0. -1.
       -4    1    3    3    0  502 -0.57793708749E+03 -0.55910195891E+03 -0.12934836212E+03  0.81445619234E+03  0.12699999809E+01 0.  1.
</event>
<event>
 5   0  0.7770905E-04  0.1596104E+04  0.7818609E-02  0.8822945E-01
        2   -1    0    0  501    0  0.00000000000E+00  0.00000000000E+00  0.14116074163E+04  0.14116074163E+04  0.25500000920E-02 0.  1.
       -2   -1    0    0    0  501  0.00000000000E+00  0.00000000000E+00 -0.45117843356E+03  0.45117843357E+03  0.25500000920E-02 0. -1.
    10030    2    1    2    0    0  0.00000000000E+00  0.00000000000E+00  0.96042898273E+03  0.18627858499E+04  0.15961037847E+04 0.  0.
        2    1    3    3  502    0 -0.24389678969E+03 -0.14718351360E+03  0.13502498940E+04  0.13799722486E+04  0.25500000920E-02 0.  1.
       -2    1    3    3    0  502  0.24389678969E+03  0.14718351360E+03 -0.38982091125E+03  0.48281360125E+03  0.25500000920E-02 0. -1.
</event>
<event>
 5   0  0.7415102E-04  0.1548494E+04  0.7818609E-02  0.8852830E-01
       -2   -1    0    0    0  501  0.00000000000E+00  0.00000000000E+00  0.64261081801E+03  0.64261081801E+03  0.25500000920E-02 0. -1.
        2   -1    0    0  501    0  0.00000000000E+00  0.00000000000E+00 -0.93284885285E+03  0.93284885286E+03  0.25500000920E-02 0.  1.
    10030    2    1    2    0    0  0.00000000000E+00  0.00000000000E+00 -0.29023803484E+03  0.15754596709E+04  0.15484944487E+04 0.  0.
        5    1    3    3  502    0 -0.23378170868E+03  0.44524290761E+03  0.45380990861E+03  0.67739254295E+03  0.46999998093E+01 0. -1.
       -5    1    3    3    0  502  0.23378170868E+03 -0.44524290761E+03 -0.74404794346E+03  0.89806712792E+03  0.46999998093E+01 0.  1.
</event>
<event>
 5   0  0.3837251E-04  0.1589175E+04  0.7818609E-02  0.8827226E-01
       -1   -1    0    0    0  501  0.00000000000E+00  0.00000000000E+00  0.80963048777E+03  0.80963048779E+03  0.50400001928E-02 0. -1.
        1   -1    0    0  501    0  0.00000000000E+00  0.00000000000E+00 -0.77982389013E+03  0.77982389015E+03  0.50400001928E-02 0.  1.
    10030    2    1    2    0    0  0.00000000000E+00  0.00000000000E+00  0.29806597638E+02  0.15894543779E+04  0.15891748759E+04 0.  0.
        4    1    3    3  502    0 -0.49412908109E+03  0.62222896288E+03  0.20833307894E+02  0.79483839278E+03  0.12699999809E+01 0. -1.
       -4    1    3    3    0  502  0.49412908109E+03 -0.62222896288E+03  0.89732897438E+01  0.79461598515E+03  0.12699999809E+01 0.  1.
</event>
<event>
 5   0  0.3950195E-04  0.1586729E+04  0.7818609E-02  0.8828742E-01
        1   -1    0    0  501    0  0.00000000000E+00  0.00000000000E+00  0.14624100338E+04  0.14624100338E+04  0.50400001928E-02 0. -1.
       -1   -1    0    0    0  501  0.00000000000E+00  0.00000000000E+00 -0.43040422115E+03  0.43040422118E+03  0.50400001928E-02 0.  1.
    10030    2    1    2    0    0  0.00000000000E+00  0.00000000000E+00  0.10320058126E+04  0.18928142550E+04  0.15867292795E+04 0.  0.
        2    1    3    3  502    0 -0.56316534161E+03  0.28160663033E+03  0.10917809775E+04  0.12603345584E+04  0.25500000920E-02 0. -1.
       -2    1    3    3    0  502  0.56316534161E+03 -0.28160663033E+03 -0.59775164871E+02  0.63247969658E+03  0.25500000920E-02 0.  1.
</event>
<event>
 5   0  0.7553070E-04  0.1551852E+04  0.7818609E-02  0.8850686E-01
        2   -1    0    0  501    0  0.00000000000E+00  0.00000000000E+00  0.10073839599E+04  0.10073839599E+04  0.25500000920E-02 0. -1.
       -2   -1    0    0    0  501  0.00000000000E+00  0.00000000000E+00 -0.59764807666E+03  0.59764807667E+03  0.25500000920E-02 0.  1.
    10030    2    1    2    0    0  0.00000000000E+00  0.00000000000E+00  0.40973588325E+03  0.16050320366E+04  0.15518519080E+04 0.  0.
        4    1    3    3  502    0  0.43685949666E+03  0.39589990415E+03 -0.31687584859E+03  0.66932418920E+03  0.12699999809E+01 0.  1.
       -4    1    3    3    0  502 -0.43685949666E+03 -0.39589990415E+03  0.72661173184E+03  0.93570784739E+03  0.12699999809E+01 0. -1.
</event>
<event>
 5   0  0.4110803E-04  0.1588285E+04  0.7818609E-02  0.8827777E-01
       -1   -1    0    0    0  501  0.00000000000E+00  0.00000000000E+00  0.62683777069E+03  0.62683777071E+03  0.50400001928E-02 0. -1.
        1   -1    0    0  501    0  0.00000000000E+00  0.00000000000E+00 -0.10061014067E+04  0.10061014067E+04  0.50400001928E-02 0.  1.
    10030    2    1    2    0    0  0.00000000000E+00  0.00000000000E+00 -0.37926363597E+03  0.16329391774E+04  0.15882850662E+04 0.  0.
        5    1    3    3  502    0 -0.23608135883E+03  0.49021631630E+03 -0.78433535178E+03  0.95459440539E+03  0.46999998093E+01 0.  1.
       -5    1    3    3    0  502  0.23608135883E+03 -0.49021631630E+03  0.40507171581E+03  0.67834477200E+03  0.46999998093E+01 0. -1.
</event>
<event>
 5   0  0.7553070E-04  0.1614366E+04  0.7818609E-02  0.8811771E-01
        2   -1    0    0  501    0  0.00000000000E+00  0.00000000000E+00  0.22506174048E+04  0.22506174048E+04  0.25500000920E-02 0.  1.
       -2   -1    0    0    0  501  0.00000000000E+00  0.00000000000E+00 -0.28949573943E+03  0.28949573944E+03  0.25500000920E-02 0. -1.
    10030    2    1    2    0    0  0.00000000000E+00  0.00000000000E+00  0.19611216653E+04  0.25401131442E+04  0.16143656956E+04 0.  0.
        4    1    3    3  502    0 -0.25887050694E+02  0.46921304085E+03 -0.52068328204E+02  0.47280412519E+03  0.12699999809E+01 0. -1.
       -4    1    3    3    0  502  0.25887050694E+02 -0.46921304085E+03  0.20131899935E+04  0.20673090190E+04  0.12699999809E+01 0.  1.
</event>
<event>
 5   0  0.7553070E-04  0.1605106E+04  0.7818609E-02  0.8817417E-01
        2   -1    0    0  501    0  0.00000000000E+00  0.00000000000E+00  0.16708405324E+04  0.16708405324E+04  0.25500000920E-02 0. -1.
       -2   -1    0    0    0  501  0.00000000000E+00  0.00000000000E+00 -0.38548942513E+03  0.38548942514E+03  0.25500000920E-02 0.  1.
    10030    2    1    2    0    0  0.00000000000E+00  0.00000000000E+00  0.12853511073E+04  0.20563299575E+04  0.16051060480E+04 0.  0.
        4    1    3    3  502    0 -0.15144350818E+03  0.55230963419E+03 -0.77614269541E+02  0.57793308949E+03  0.12699999809E+01 0.  1.
       -4    1    3    3    0  502  0.15144350818E+03 -0.55230963419E+03  0.13629653768E+04  0.14783968680E+04  0.12699999809E+01 0. -1.
</event>
<event>
 5   0  0.7488884E-04  0.1707302E+04  0.7818609E-02  0.8757211E-01
       -2   -1    0    0    0  501  0.00000000000E+00  0.00000000000E+00  0.28112534815E+03  0.28112534816E+03  0.25500000920E-02 0.  1.
        2   -1    0    0  501    0  0.00000000000E+00  0.00000000000E+00 -0.25921522565E+04  0.25921522565E+04  0.25500000920E-02 0. -1.
    10030    2    1    2    0    0  0.00000000000E+00  0.00000000000E+00 -0.23110269083E+04  0.28732776046E+04  0.17073016202E+04 0.  0.
        3    1    3    3  502    0 -0.36788548620E+03  0.76651469442E+03 -0.10269567445E+04  0.13332384157E+04  0.10100000352E+00 0.  1.
       -3    1    3    3    0  502  0.36788548620E+03 -0.76651469442E+03 -0.12840701638E+04  0.15400391889E+04  0.10100000352E+00 0. -1.
</event>
<event>
 5   0  0.3950195E-04  0.1631830E+04  0.7818609E-02  0.8801229E-01
       -1   -1    0    0    0  501  0.00000000000E+00  0.00000000000E+00  0.69810457612E+03  0.69810457614E+03  0.50400001928E-02 0.  1.
        1   -1    0    0  501    0  0.00000000000E+00  0.00000000000E+00 -0.95360646381E+03  0.95360646383E+03  0.50400001928E-02 0. -1.
    10030    2    1    2    0    0  0.00000000000E+00  0.00000000000E+00 -0.25550188769E+03  0.16517110400E+04  0.16318296924E+04 0.  0.
        2    1    3    3  502    0 -0.34777397332E+03 -0.51961131175E+03  0.40282476408E+03  0.74378117910E+03  0.25500000920E-02 0.  1.
       -2    1    3    3    0  502  0.34777397332E+03  0.51961131175E+03 -0.65832665177E+03  0.90792986087E+03  0.25500000920E-02 0. -1.
</event>
<event>
 5   0  0.3889847E-04  0.1558557E+04  0.7818609E-02  0.8846420E-01
        1   -1    0    0  501    0  0.00000000000E+00  0.00000000000E+00  0.11739150678E+04  0.11739150679E+04  0.50400001928E-02 0.  1.
       -1   -1    0    0    0  501  0.00000000000E+00  0.00000000000E+00 -0.51730771708E+03  0.51730771710E+03  0.50400001928E-02 0. -1.
    10030    2    1    2    0    0  0.00000000000E+00  0.00000000000E+00  0.65660735077E+03  0.16912227850E+04  0.15585574405E+04 0.  0.
        1    1    3    3  502    0  0.77010992471E+03 -0.57883664285E+02  0.21524520498E+03  0.80171710286E+03  0.50400001928E-02 0. -1.
       -1    1    3    3    0  502 -0.77010992471E+03  0.57883664285E+02  0.44136214579E+03  0.88950568210E+03  0.50400001928E-02 0.  1.
</event>
<event>
 5   0  0.4110803E-04  0.1594532E+04  0.7818609E-02  0.8823914E-01
       -1   -1    0    0    0  501  0.00000000000E+00  0.00000000000E+00  0.10324652680E+04  0.10324652680E+04  0.50400001928E-02 0. -1.
        1   -1    0    0  501    0  0.00000000000E+00  0.00000000000E+00 -0.61564630685E+03  0.61564630687E+03  0.50400001928E-02 0.  1.
    10030    2    1    2    0    0  0.00000000000E+00  0.00000000000E+00  0.41681896116E+03  0.16481115749E+04  0.15945324446E+04 0.  0.
        5    1    3    3  502    0 -0.14746451715E+02  0.38056557229E+03 -0.51552783860E+03  0.64096696875E+03  0.46999998093E+01 0.  1.
       -5    1    3    3    0  502  0.14746451715E+02 -0.38056557229E+03  0.93234679977E+03  0.10071446061E+04  0.46999998093E+01 0. -1.
</event>
<event>
 5   0  0.7395088E-04  0.1590072E+04  0.7818609E-02  0.8826670E-01
        2   -1    0    0  501    0  0.00000000000E+00  0.00000000000E+00  0.62941699137E+03  0.62941699138E+03  0.25500000920E-02 0.  1.
       -2   -1    0    0    0  501  0.00000000000E+00  0.00000000000E+00 -0.10042348130E+04  0.10042348130E+04  0.25500000920E-02 0. -1.
    10030    2    1    2    0    0  0.00000000000E+00  0.00000000000E+00 -0.37481782161E+03  0.16336518044E+04  0.15900722683E+04 0.  0.
        1    1    3    3  502    0 -0.55989686065E+03 -0.26171180463E+03 -0.70122029940E+03  0.93471250744E+03  0.50400001928E-02 0.  1.
       -1    1    3    3    0  502  0.55989686065E+03  0.26171180463E+03  0.32640247779E+03  0.69893929692E+03  0.50400001928E-02 0. -1.
</event>
<event>
 5   0  0.7415102E-04  0.1595427E+04  0.7818609E-02  0.8823362E-01
       -2   -1    0    0    0  501  0.00000000000E+00  0.00000000000E+00  0.12096072153E+04  0.12096072153E+04  0.25500000920E-02 0. -1.
        2   -1    0    0  501    0  0.00000000000E+00  0.00000000000E+00 -0.52607723965E+03  0.52607723965E+03  0.25500000920E-02 0.  1.
    10030    2    1    2    0    0  0.00000000000E+00  0.00000000000E+00  0.68352997565E+03  0.17356844550E+04  0.15954269960E+04 0.  0.
        5    1    3    3  502    0 -0.49318589479E+03  0.44008060975E+03  0.82758990873E+03  0.10591649621E+04  0.46999998093E+01 0. -1.
       -5    1    3    3    0  502  0.49318589479E+03 -0.44008060975E+03 -0.14405993308E+03  0.67651949286E+03  0.46999998093E+01 0.  1.
</event>
<event>
 5   0  0.7553070E-04  0.1592415E+04  0.7818609E-02  0.8825221E-01
       -2   -1    0    0    0  501  0.00000000000E+00  0.00000000000E+00  0.64318276689E+03  0.64318276690E+03  0.25500000920E-02 0.  1.
        2   -1    0    0  501    0  0.00000000000E+00  0.00000000000E+00 -0.98563962162E+03  0.98563962163E+03  0.25500000920E-02 0. -1.
    10030    2    1    2    0    0  0.00000000000E+00  0.00000000000E+00 -0.34245685473E+03  0.16288223885E+04  0.15924150451E+04 0.  0.
        4    1    3    3  502    0 -0.19822036342E+02  0.45604005387E+02  0.64159191637E+03  0.64351724024E+03  0.12699999809E+01 0.  1.
       -4    1    3    3    0  502  0.19822036342E+02 -0.45604005387E+02 -0.98404877110E+03  0.98530514829E+03  0.12699999809E+01 0. -1.
</event>
<event>
 5   0  0.4110803E-04  0.1623890E+04  0.7818609E-02  0.8806005E-01
       -1   -1    0    0    0  501  0.00000000000E+00  0.00000000000E+00  0.65201900664E+03  0.65201900665E+03  0.50400001928E-02 0. -1.
        1   -1    0    0  501    0  0.00000000000E+00  0.00000000000E+00 -0.10110969534E+04  0.10110969534E+04  0.50400001928E-02 0.  1.
    10030    2    1    2    0    0  0.00000000000E+00  0.00000000000E+00 -0.35907794675E+03  0.16631159601E+04  0.16238896898E+04 0.  0.
        5    1    3    3  502    0  0.62269791659E+02 -0.16373086718E+03  0.63242150685E+03  0.65625023896E+03  0.46999998093E+01 0. -1.
       -5    1    3    3    0  502 -0.62269791659E+02  0.16373086718E+03 -0.99149945360E+03  0.10068657211E+04  0.46999998093E+01 0.  1.
</event>
<event>
 5   0  0.3889847E-04  0.1520630E+04  0.7818609E-02  0.8870849E-01
       -1   -1    0    0    0  501  0.00000000000E+00  0.00000000000E+00  0.61547650197E+03  0.61547650199E+03  0.50400001928E-02 0. -1.
        1   -1    0    0  501    0  0.00000000000E+00  0.00000000000E+00 -0.93923797027E+03  0.93923797029E+03  0.50400001928E-02 0.  1.
    10030    2    1    2    0    0  0.00000000000E+00  0.00000000000E+00 -0.32376146830E+03  0.15547144723E+04  0.15206300017E+04 0.  0.
        1    1    3    3  502    0 -0.46182732469E+03  0.43971890543E+03  0.26145538816E+03  0.68919961814E+03  0.50400001928E-02 0. -1.
       -1    1    3    3    0  502  0.46182732469E+03 -0.43971890543E+03 -0.58521685646E+03  0.86551485414E+03  0.50400001928E-02 0.  1.
</event>
<event>
 5   0  0.3950195E-04  0.1597295E+04  0.7818609E-02  0.8822212E-01
        1   -1    0    0  501    0  0.00000000000E+00  0.00000000000E+00  0.95965112942E+03  0.95965112944E+03  0.50400001928E-02 0.  1.
       -1   -1    0    0    0  501  0.00000000000E+00  0.00000000000E+00 -0.66465554186E+03  0.66465554188E+03  0.50400001928E-02 0. -1.
    10030    2    1    2    0    0  0.00000000000E+00  0.00000000000E+00  0.29499558756E+03  0.16243066713E+04  0.15972945144E+04 0.  0.
        2    1    3    3  502    0 -0.28704192089E+03  0.62586723172E+03  0.55898206581E+03  0.88688432504E+03  0.25500000920E-02 0. -1.
       -2    1    3    3    0  502  0.28704192089E+03 -0.62586723172E+03 -0.26398647825E+03  0.73742234628E+03  0.25500000920E-02 0.  1.
</event>
<event>
 5   0  0.3950195E-04  0.1539797E+04  0.7818609E-02  0.8858412E-01
       -1   -1    0    0    0  501  0.00000000000E+00  0.00000000000E+00  0.11768443359E+04  0.11768443359E+04  0.50400001928E-02 0. -1.
        1   -1    0    0  501    0  0.00000000000E+00  0.00000000000E+00 -0.50367188527E+03  0.50367188530E+03  0.50400001928E-02 0.  1.
    10030    2    1    2    0    0  0.00000000000E+00  0.00000000000E+00  0.67317245061E+03  0.16805162212E+04  0.15397966169E+04 0.  0.
        2    1    3    3  502    0 -0.26781434514E+03  0.65073796549E+03  0.67747521800E+03  0.97680965095E+03  0.25500000920E-02 0. -1.
       -2    1    3    3    0  502  0.26781434514E+03 -0.65073796549E+03 -0.43027673905E+01  0.70370657024E+03  0.25500000920E-02 0.  1.
</event>
<event>
 5   0  0.4110803E-04  0.1600945E+04  0.7818609E-02  0.8819968E-01
        1   -1    0    0  501    0  0.00000000000E+00  0.00000000000E+00  0.12537462171E+04  0.12537462171E+04  0.50400001928E-02 0. -1.
       -1   -1    0    0    0  501  0.00000000000E+00  0.00000000000E+00 -0.51107335444E+03  0.51107335447E+03  0.50400001928E-02 0.  1.
    10030    2    1    2    0    0  0.00000000000E+00  0.00000000000E+00  0.74267286269E+03  0.17648195716E+04  0.16009450769E+04 0.  0.
        5    1    3    3  502    0  0.45827640707E+03  0.53155878384E+03  0.79565552149E+03  0.10609721037E+04  0.46999998093E+01 0. -1.
       -5    1    3    3    0  502 -0.45827640707E+03 -0.53155878384E+03 -0.52982658803E+02  0.70384746791E+03  0.46999998093E+01 0.  1.
</event>
<event>
 5   0  0.7395088E-04  0.1597510E+04  0.7818609E-02  0.8822079E-01
        2   -1    0    0  501    0  0.00000000000E+00  0.00000000000E+00  0.22139936121E+04  0.22139936121E+04  0.25500000920E-02 0. -1.
       -2   -1    0    0    0  501  0.00000000000E+00  0.00000000000E+00 -0.28817153263E+03  0.28817153264E+03  0.25500000920E-02 0.  1.
    10030    2    1    2    0    0  0.00000000000E+00  0.00000000000E+00  0.19258220795E+04  0.25021651448E+04  0.15975104788E+04 0.  0.
        1    1    3    3  502    0 -0.75161097500E+02  0.48964215946E+02 -0.28025707038E+03  0.29426299554E+03  0.50400001928E-02 0.  1.
       -1    1    3    3    0  502  0.75161097500E+02 -0.48964215946E+02  0.22060791499E+04  0.22079021492E+04  0.50400001928E-02 0. -1.
</event>
<event>
 5   0  0.3950195E-04  0.1618257E+04  0.7818609E-02  0.8809410E-01
        1   -1    0    0  501    0  0.00000000000E+00  0.00000000000E+00  0.98032317776E+03  0.98032317777E+03  0.50400001928E-02 0.  1.
       -1   -1    0    0    0  501  0.00000000000E+00  0.00000000000E+00 -0.66782928908E+03  0.66782928910E+03  0.50400001928E-02 0. -1.
    10030    2    1    2    0    0  0.00000000000E+00  0.00000000000E+00  0.31249388868E+03  0.16481524669E+04  0.16182565074E+04 0.  0.
        2    1    3    3  502    0  0.76002387625E+03  0.25264783899E+03  0.39138764260E+02  0.80187222542E+03  0.25500000920E-02 0. -1.
       -2    1    3    3    0  502 -0.76002387625E+03 -0.25264783899E+03  0.27335512442E+03  0.84628024145E+03  0.25500000920E-02 0.  1.
</event>
<event>
 5   0  0.3889847E-04  0.1596018E+04  0.7818609E-02  0.8822998E-01
        1   -1    0    0  501    0  0.00000000000E+00  0.00000000000E+00  0.67973839785E+03  0.67973839787E+03  0.50400001928E-02 0.  1.
       -1   -1    0    0    0  501  0.00000000000E+00  0.00000000000E+00 -0.93685750632E+03  0.93685750633E+03  0.50400001928E-02 0. -1.
    10030    2    1    2    0    0  0.00000000000E+00  0.00000000000E+00 -0.25711910847E+03  0.16165959042E+04  0.15960175693E+04 0.  0.
        1    1    3    3  502    0 -0.75870509988E+03  0.85115074533E+02  0.10668487144E+03  0.77088239461E+03  0.50400001928E-02 0.  1.
       -1    1    3    3    0  502  0.75870509988E+03 -0.85115074533E+02 -0.36380397991E+03  0.84571350960E+03  0.50400001928E-02 0. -1.
</event>
<event>
 5   0  0.7553070E-04  0.1595732E+04  0.7818609E-02  0.8823174E-01
        2   -1    0    0  501    0  0.00000000000E+00  0.00000000000E+00  0.17100807210E+04  0.17100807210E+04  0.25500000920E-02 0.  1.
       -2   -1    0    0    0  501  0.00000000000E+00  0.00000000000E+00 -0.37225737172E+03  0.37225737173E+03  0.25500000920E-02 0. -1.
    10030    2    1    2    0    0  0.00000000000E+00  0.00000000000E+00  0.13378233493E+04  0.20823380927E+04  0.15957320009E+04 0.  0.
        4    1    3    3  502    0  0.61624512544E+03 -0.36340000914E+03  0.20796787352E+03  0.74503011388E+03  0.12699999809E+01 0. -1.
       -4    1    3    3    0  502 -0.61624512544E+03  0.36340000914E+03  0.11298554757E+04  0.13373079788E+04  0.12699999809E+01 0.  1.
</event>
<event>
 5   0  0.4110803E-04  0.1631120E+04  0.7818609E-02  0.8801655E-01
       -1   -1    0    0    0  501  0.00000000000E+00  0.00000000000E+00  0.92502349802E+03  0.92502349803E+03  0.50400001928E-02 0.  1.
        1   -1    0    0  501    0  0.00000000000E+00  0.00000000000E+00 -0.71904984315E+03  0.71904984317E+03  0.50400001928E-02 0. -1.
    10030    2    1    2    0    0  0.00000000000E+00  0.00000000000E+00  0.20597365486E+03  0.16440733412E+04  0.16311198622E+04 0.  0.
        5    1    3    3  502    0  0.21817835220E+03 -0.13545975506E+03 -0.67721766531E+03  0.72429068392E+03  0.46999998093E+01 0. -1.
       -5    1    3    3    0  502 -0.21817835220E+03  0.13545975506E+03  0.88319132017E+03  0.91978265728E+03  0.46999998093E+01 0.  1.
</event>
<event>
 5   0  0.4110803E-04  0.1538628E+04  0.7818609E-02  0.8859165E-01
       -1   -1    0    0    0  501  0.00000000000E+00  0.00000000000E+00  0.94016774970E+03  0.94016774971E+03  0.50400001928E-02 0.  1.
        1   -1    0    0  501    0  0.00000000000E+00  0.00000000000E+00 -0.62950882550E+03  0.62950882552E+03  0.50400001928E-02 0. -1.
    10030    2    1    2    0    0  0.00000000000E+00  0.00000000000E+00  0.31065892420E+03  0.15696765752E+04  0.15386278249E+04 0.  0.
        5    1    3    3  502    0  0.64841952102E+03  0.41397332761E+03  0.15545315748E+03  0.78486276850E+03  0.46999998093E+01 0.  1.
       -5    1    3    3    0  502 -0.64841952102E+03 -0.41397332761E+03  0.15520576672E+03  0.78481380673E+03  0.46999998093E+01 0. -1.
</event>
<event>
 5   0  0.3950195E-04  0.1603886E+04  0.7818609E-02  0.8818164E-01
        1   -1    0    0  501    0  0.00000000000E+00  0.00000000000E+00  0.16365670684E+04  0.16365670684E+04  0.50400001928E-02 0.  1.
       -1   -1    0    0    0  501  0.00000000000E+00  0.00000000000E+00 -0.39296461100E+03  0.39296461103E+03  0.50400001928E-02 0. -1.
    10030    2    1    2    0    0  0.00000000000E+00  0.00000000000E+00  0.12436024574E+04  0.20295316794E+04  0.16038864566E+04 0.  0.
        2    1    3    3  502    0  0.57695633321E+03 -0.32493149377E+03  0.49358320019E+02  0.66399949536E+03  0.25500000920E-02 0. -1.
       -2    1    3    3    0  502 -0.57695633321E+03  0.32493149377E+03  0.11942441374E+04  0.13655321841E+04  0.25500000920E-02 0.  1.
</event>
<event>
 5   0  0.7395088E-04  0.1598085E+04  0.7818609E-02  0.8821726E-01
        2   -1    0    0  501    0  0.00000000000E+00  0.00000000000E+00  0.11185539966E+04  0.11185539966E+04  0.25500000920E-02 0.  1.
       -2   -1    0    0    0  501  0.00000000000E+00  0.00000000000E+00 -0.57079823537E+03  0.57079823537E+03  0.25500000920E-02 0. -1.
    10030    2    1    2    0    0  0.00000000000E+00  0.00000000000E+00  0.54775576124E+03  0.16893522320E+04  0.15980846629E+04 0.  0.
        1    1    3    3  502    0 -0.31552811787E+03 -0.13199293257E+03 -0.48950567888E+03  0.59715654320E+03  0.50400001928E-02 0. -1.
       -1    1    3    3    0  502  0.31552811787E+03  0.13199293257E+03  0.10372614401E+04  0.10921956888E+04  0.50400001928E-02 0.  1.
</event>
<event>
 5   0  0.3950195E-04  0.1591743E+04  0.7818609E-02  0.8825637E-01
        1   -1    0    0  501    0  0.00000000000E+00  0.00000000000E+00  0.77256187295E+03  0.77256187297E+03  0.50400001928E-02 0.  1.
       -1   -1    0    0    0  501  0.00000000000E+00  0.00000000000E+00 -0.81988437252E+03  0.81988437253E+03  0.50400001928E-02 0. -1.
    10030    2    1    2    0    0  0.00000000000E+00  0.00000000000E+00 -0.47322499563E+02  0.15924462455E+04  0.15917429522E+04 0.  0.
        2    1    3    3  502    0 -0.26738905278E+03 -0.49537455189E+03  0.53918714562E+03  0.77949703669E+03  0.25500000920E-02 0.  1.
       -2    1    3    3    0  502  0.26738905278E+03  0.49537455189E+03 -0.58650964518E+03  0.81294920881E+03  0.25500000920E-02 0. -1.
</event>
<event>
 5   0  0.7395088E-04  0.1535136E+04  0.7818609E-02  0.8861418E-01
       -2   -1    0    0    0  501  0.00000000000E+00  0.00000000000E+00  0.34141658864E+03  0.34141658865E+03  0.25500000920E-02 0.  1.
        2   -1    0    0  501    0  0.00000000000E+00  0.00000000000E+00 -0.17256350604E+04  0.17256350604E+04  0.25500000920E-02 0. -1.
    10030    2    1    2    0    0  0.00000000000E+00  0.00000000000E+00 -0.13842184717E+04  0.20670516490E+04  0.15351357407E+04 0.  0.
        1    1    3    3  502    0 -0.12145447597E+03  0.75766914592E+03 -0.66703726693E+03  0.10167361703E+04  0.50400001928E-02 0. -1.
       -1    1    3    3    0  502  0.12145447597E+03 -0.75766914592E+03 -0.71718120480E+03  0.10503154788E+04  0.50400001928E-02 0.  1.
</event>
<event>
 5   0  0.7488884E-04  0.1553647E+04  0.7818609E-02  0.8849541E-01
        2   -1    0    0  501    0  0.00000000000E+00  0.00000000000E+00  0.18486261564E+04  0.18486261564E+04  0.25500000920E-02 0.  1.
       -2   -1    0    0    0  501  0.00000000000E+00  0.00000000000E+00 -0.32643427083E+03  0.32643427084E+03  0.25500000920E-02 0. -1.
    10030    2    1    2    0    0  0.00000000000E+00  0.00000000000E+00  0.15221918856E+04  0.21750604273E+04  0.15536472333E+04 0.  0.
        3    1    3    3  502    0  0.48896183701E+03 -0.53123661352E+03  0.11623747543E+04  0.13683607336E+04  0.10100000352E+00 0.  1.
       -3    1    3    3    0  502 -0.48896183701E+03  0.53123661352E+03  0.35981713129E+03  0.80669969367E+03  0.10100000352E+00 0. -1.
</event>
<event>
 5   0  0.7488884E-04  0.1601299E+04  0.7818609E-02  0.8819750E-01
        2   -1    0    0  501    0  0.00000000000E+00  0.00000000000E+00  0.88185656237E+03  0.88185656238E+03  0.25500000920E-02 0.  1.
       -2   -1    0    0    0  501  0.00000000000E+00  0.00000000000E+00 -0.72692068547E+03  0.72692068547E+03  0.25500000920E-02 0. -1.
    10030    2    1    2    0    0  0.00000000000E+00  0.00000000000E+00  0.15493587690E+03  0.16087772478E+04  0.16012991935E+04 0.  0.
        3    1    3    3  502    0 -0.22929547414E+03  0.31544829356E+03  0.77998713988E+03  0.87204586402E+03  0.10100000352E+00 0.  1.
       -3    1    3    3    0  502  0.22929547414E+03 -0.31544829356E+03 -0.62505126298E+03  0.73673138383E+03  0.10100000352E+00 0. -1.
</event>
<event>
 5   0  0.3889847E-04  0.1601179E+04  0.7818609E-02  0.8819824E-01
       -1   -1    0    0    0  501  0.00000000000E+00  0.00000000000E+00  0.50502599743E+03  0.50502599745E+03  0.50400001928E-02 0. -1.
        1   -1    0    0  501    0  0.00000000000E+00  0.00000000000E+00 -0.12691302551E+04  0.12691302551E+04  0.50400001928E-02 0.  1.
    10030    2    1    2    0    0  0.00000000000E+00  0.00000000000E+00 -0.76410425765E+03  0.17741562525E+04  0.16011792816E+04 0.  0.
        1    1    3    3  502    0  0.34099055539E+02  0.42546044141E+03  0.36844109937E+03  0.56385120069E+03  0.50400001928E-02 0. -1.
       -1    1    3    3    0  502 -0.34099055539E+02 -0.42546044141E+03 -0.11325453570E+04  0.12103050518E+04  0.50400001928E-02 0.  1.
</event>
<event>
 5   0  0.4110803E-04  0.1581520E+04  0.7818609E-02  0.8831982E-01
        1   -1    0    0  501    0  0.00000000000E+00  0.00000000000E+00  0.58195827568E+03  0.58195827571E+03  0.50400001928E-02 0. -1.
       -1   -1    0    0    0  501  0.00000000000E+00  0.00000000000E+00 -0.10744778527E+04  0.10744778527E+04  0.50400001928E-02 0.  1.
    10030    2    1    2    0    0  0.00000000000E+00  0.00000000000E+00 -0.49251957699E+03  0.16564361284E+04  0.15815198746E+04 0.  0.
        5    1    3    3  502    0 -0.98757755156E+02 -0.30576170979E+03 -0.10030059267E+04  0.10532266121E+04  0.46999998093E+01 0.  1.
       -5    1    3    3    0  502  0.98757755156E+02  0.30576170979E+03  0.51048634969E+03  0.60320951634E+03  0.46999998093E+01 0. -1.
</event>
<event>
 5   0  0.7488884E-04  0.1549485E+04  0.7818609E-02  0.8852197E-01
       -2   -1    0    0    0  501  0.00000000000E+00  0.00000000000E+00  0.52428176273E+03  0.52428176274E+03  0.25500000920E-02 0. -1.
        2   -1    0    0  501    0  0.00000000000E+00  0.00000000000E+00 -0.11448532638E+04  0.11448532638E+04  0.25500000920E-02 0.  1.
    10030    2    1    2    0    0  0.00000000000E+00  0.00000000000E+00 -0.62057150103E+03  0.16691350265E+04  0.15494846720E+04 0.  0.
        3    1    3    3  502    0 -0.26677939293E+03  0.12434863395E+03  0.46170704615E+03  0.54754655868E+03  0.10100000352E+00 0. -1.
       -3    1    3    3    0  502  0.26677939293E+03 -0.12434863395E+03 -0.10822785472E+04  0.11215884678E+04  0.10100000352E+00 0.  1.
</event>
<event>
 5   0  0.4110803E-04  0.1600578E+04  0.7818609E-02  0.8820193E-01
        1   -1    0    0  501    0  0.00000000000E+00  0.00000000000E+00  0.62213057262E+03  0.62213057264E+03  0.50400001928E-02 0.  1.
       -1   -1    0    0    0  501  0.00000000000E+00  0.00000000000E+00 -0.10294660511E+04  0.10294660511E+04  0.50400001928E-02 0. -1.
    10030    2    1    2    0    0  0.00000000000E+00  0.00000000000E+00 -0.40733547846E+03  0.16515966237E+04  0.16005777755E+04 0.  0.
        5    1    3    3  502    0  0.61760533628E+02 -0.36692387164E+03  0.52743079769E+03  0.64548650446E+03  0.46999998093E+01 0.  1.
       -5    1    3    3    0  502 -0.61760533628E+02  0.36692387164E+03 -0.93476627615E+03  0.10061101193E+04  0.46999998093E+01 0. -1.
</event>
<event>
 5   0  0.7770905E-04  0.1593330E+04  0.7818609E-02  0.8824656E-01
        2   -1    0    0  501    0  0.00000000000E+00  0.00000000000E+00  0.59529511705E+03  0.59529511706E+03  0.25500000920E-02 0.  1.
       -2   -1    0    0    0  501  0.00000000000E+00  0.00000000000E+00 -0.10661522177E+04  0.10661522177E+04  0.25500000920E-02 0. -1.
    10030    2    1    2    0    0  0.00000000000E+00  0.00000000000E+00 -0.47085710061E+03  0.16614473347E+04  0.15933301092E+04 0.  0.
        2    1    3    3  502    0 -0.64690221478E+03  0.38056311850E+03 -0.51399048322E+03  0.90966860972E+03  0.25500000920E-02 0.  1.
       -2    1    3    3    0  502  0.64690221478E+03 -0.38056311850E+03  0.43133382615E+02  0.75177872500E+03  0.25500000920E-02 0. -1.
</event>
<event>
 5   0  0.3889847E-04  0.1617668E+04  0.7818609E-02  0.8809767E-01
       -1   -1    0    0    0  501  0.00000000000E+00  0.00000000000E+00  0.45230274600E+03  0.45230274602E+03  0.50400001928E-02 0.  1.
        1   -1    0    0  501    0  0.00000000000E+00  0.00000000000E+00 -0.14464038358E+04  0.14464038358E+04  0.50400001928E-02 0. -1.
    10030    2    1    2    0    0  0.00000000000E+00  0.00000000000E+00 -0.99410108982E+03  0.18987065818E+04  0.16176679842E+04 0.  0.
        1    1    3    3  502    0 -0.58326809220E+03  0.41379338199E+03 -0.94056825844E+03  0.11815647588E+04  0.50400001928E-02 0. -1.
       -1    1    3    3    0  502  0.58326809220E+03 -0.41379338199E+03 -0.53532831387E+02  0.71714182308E+03  0.50400001928E-02 0.  1.
</event>
<event>
 5   0  0.3889847E-04  0.1575384E+04  0.7818609E-02  0.8835815E-01
        1   -1    0    0  501    0  0.00000000000E+00  0.00000000000E+00  0.83437637977E+03  0.83437637979E+03  0.50400001928E-02 0.  1.
       -1   -1    0    0    0  501  0.00000000000E+00  0.00000000000E+00 -0.74361932469E+03  0.74361932471E+03  0.50400001928E-02 0. -1.
    10030    2    1    2    0    0  0.00000000000E+00  0.00000000000E+00  0.90757055081E+02  0.15779957045E+04  0.15753836359E+04 0.  0.
        1    1    3    3  502    0  0.36901321757E+03  0.67093725754E+03  0.23043018801E+03  0.79964093809E+03  0.50400001928E-02 0.  1.
       -1    1    3    3    0  502 -0.36901321757E+03 -0.67093725754E+03 -0.13967313293E+03  0.77835476640E+03  0.50400001928E-02 0. -1.
</event>
<event>
 5   0  0.3837251E-04  0.1593053E+04  0.7818609E-02  0.8824827E-01
        1   -1    0    0  501    0  0.00000000000E+00  0.00000000000E+00  0.13260135617E+04  0.13260135617E+04  0.50400001928E-02 0.  1.
       -1   -1    0    0    0  501  0.00000000000E+00  0.00000000000E+00 -0.47846746348E+03  0.47846746350E+03  0.50400001928E-02 0. -1.
    10030    2    1    2    0    0  0.00000000000E+00  0.00000000000E+00  0.84754609819E+03  0.18044810252E+04  0.15930528496E+04 0.  0.
        4    1    3    3  502    0 -0.16106457106E+02  0.79405872435E+03  0.35520792955E+03  0.87003618418E+03  0.12699999809E+01 0.  1.
       -4    1    3    3    0  502  0.16106457106E+02 -0.79405872435E+03  0.49233816863E+03  0.93444484100E+03  0.12699999809E+01 0. -1.
</event>
<event>
 5   0  0.7553070E-04  0.1614025E+04  0.7818609E-02  0.8811978E-01
        2   -1    0    0  501    0  0.00000000000E+00  0.00000000000E+00  0.11028831181E+04  0.11028831181E+04  0.25500000920E-02 0.  1.
       -2   -1    0    0    0  501  0.00000000000E+00  0.00000000000E+00 -0.59051513736E+03  0.59051513736E+03  0.25500000920E-02 0. -1.
    10030    2    1    2    0    0  0.00000000000E+00  0.00000000000E+00  0.51236798072E+03  0.16933982554E+04  0.16140250010E+04 0.  0.
        4    1    3    3  502    0  0.56376232277E+03  0.20547829663E+02 -0.34927162140E+03  0.66350768518E+03  0.12699999809E+01 0. -1.
       -4    1    3    3    0  502 -0.56376232277E+03 -0.20547829663E+02  0.86163960212E+03  0.10298905703E+04  0.12699999809E+01 0.  1.
</event>
<event>
 5   0  0.3973227E-04  0.1590985E+04  0.7818609E-02  0.8826106E-01
        1   -1    0    0  501    0  0.00000000000E+00  0.00000000000E+00  0.99729979815E+03  0.99729979816E+03  0.50400001928E-02 0.  1.
       -1   -1    0    0    0  501  0.00000000000E+00  0.00000000000E+00 -0.63452153167E+03  0.63452153169E+03  0.50400001928E-02 0. -1.
    10030    2    1    2    0    0  0.00000000000E+00  0.00000000000E+00  0.36277826648E+03  0.16318213299E+04  0.15909848465E+04 0.  0.
        3    1    3    3  502    0  0.34439902613E+02  0.79410547107E+03  0.21412350154E+03  0.82318800416E+03  0.10100000352E+00 0.  1.
       -3    1    3    3    0  502 -0.34439902613E+02 -0.79410547107E+03  0.14865476494E+03  0.80863332569E+03  0.10100000352E+00 0. -1.
</event>
<event>
 5   0  0.4110803E-04  0.1614123E+04  0.7818609E-02  0.8811918E-01
        1   -1    0    0  501    0  0.00000000000E+00  0.00000000000E+00  0.77712882514E+03  0.77712882516E+03  0.50400001928E-02 0. -1.
       -1   -1    0    0    0  501  0.00000000000E+00  0.00000000000E+00 -0.83814691392E+03  0.83814691394E+03  0.50400001928E-02 0.  1.
    10030    2    1    2    0    0  0.00000000000E+00  0.00000000000E+00 -0.61018088780E+02  0.16152757391E+04  0.16141228287E+04 0.  0.
        5    1    3    3  502    0  0.69131552427E+03 -0.33044239618E+03  0.22308210967E+03  0.79805829921E+03  0.46999998093E+01 0. -1.
       -5    1    3    3    0  502 -0.69131552427E+03  0.33044239618E+03 -0.28410019845E+03  0.81721743988E+03  0.46999998093E+01 0.  1.
</event>
<event>
 5   0  0.3837251E-04  0.1572524E+04  0.7818609E-02  0.8837608E-01
        1   -1    0    0  501    0  0.00000000000E+00  0.00000000000E+00  0.22968937496E+04  0.22968937496E+04  0.50400001928E-02 0. -1.
       -1   -1    0    0    0  501  0.00000000000E+00  0.00000000000E+00 -0.26914958120E+03  0.26914958125E+03  0.50400001928E-02 0.  1.
    10030    2    1    2    0    0  0.00000000000E+00  0.00000000000E+00  0.20277441684E+04  0.25660433308E+04  0.15725240740E+04 0.  0.
        4    1    3    3  502    0  0.15047283209E+03 -0.15632876018E+03 -0.21932504612E+03  0.30852203035E+03  0.12699999809E+01 0.  1.
       -4    1    3    3    0  502 -0.15047283209E+03  0.15632876018E+03  0.22470692145E+04  0.22575213005E+04  0.12699999809E+01 0. -1.
</event>
<event>
 5   0  0.7770905E-04  0.1422521E+04  0.7818609E-02  0.8937676E-01
       -2   -1    0    0    0  501  0.00000000000E+00  0.00000000000E+00  0.44013465906E+03  0.44013465907E+03  0.25500000920E-02 0.  1.
        2   -1    0    0  501    0  0.00000000000E+00  0.00000000000E+00 -0.11494009887E+04  0.11494009887E+04  0.25500000920E-02 0. -1.
    10030    2    1    2    0    0  0.00000000000E+00  0.00000000000E+00 -0.70926632968E+03  0.15895356478E+04  0.14225205971E+04 0.  0.
        2    1    3    3  502    0 -0.15785462203E+03  0.29325509387E+03 -0.10568904964E+04  0.11081219036E+04  0.25500000920E-02 0. -1.
       -2    1    3    3    0  502  0.15785462203E+03 -0.29325509387E+03  0.34762416677E+03  0.48141374420E+03  0.25500000920E-02 0.  1.
</event>
<event>
 5   0  0.7553070E-04  0.1605689E+04  0.7818609E-02  0.8817061E-01
       -2   -1    0    0    0  501  0.00000000000E+00  0.00000000000E+00  0.55350674800E+03  0.55350674801E+03  0.25500000920E-02 0. -1.
        2   -1    0    0  501    0  0.00000000000E+00  0.00000000000E+00 -0.11645008294E+04  0.11645008295E+04  0.25500000920E-02 0.  1.
    10030    2    1    2    0    0  0.00000000000E+00  0.00000000000E+00 -0.61099408144E+03  0.17180075775E+04  0.16056887210E+04 0.  0.
        4    1    3    3  502    0 -0.34587847104E+03 -0.46677577737E+03 -0.89837509844E+03  0.10698555853E+04  0.12699999809E+01 0.  1.
       -4    1    3    3    0  502  0.34587847104E+03  0.46677577737E+03  0.28738101700E+03  0.64815199213E+03  0.12699999809E+01 0. -1.
</event>
<event>
 5   0  0.7553070E-04  0.1555033E+04  0.7818609E-02  0.8848659E-01
       -2   -1    0    0    0  501  0.00000000000E+00  0.00000000000E+00  0.34614526236E+03  0.34614526237E+03  0.25500000920E-02 0.  1.
        2   -1    0    0  501    0  0.00000000000E+00  0.00000000000E+00 -0.17464693326E+04  0.17464693326E+04  0.25500000920E-02 0. -1.
    10030    2    1    2    0    0  0.00000000000E+00  0.00000000000E+00 -0.14003240702E+04  0.20926145949E+04  0.15550332284E+04 0.  0.
        4    1    3    3  502    0  0.49807959450E+03 -0.35457503264E+03 -0.53770419845E+02  0.61375859031E+03  0.12699999809E+01 0.  1.
       -4    1    3    3    0  502 -0.49807959450E+03  0.35457503264E+03 -0.13465536504E+04  0.14788560046E+04  0.12699999809E+01 0. -1.
</event>
<event>
 5   0  0.3837251E-04  0.1599605E+04  0.7818609E-02  0.8820790E-01
       -1   -1    0    0    0  501  0.00000000000E+00  0.00000000000E+00  0.39921320369E+03  0.39921320372E+03  0.50400001928E-02 0.  1.
        1   -1    0    0  501    0  0.00000000000E+00  0.00000000000E+00 -0.16023627817E+04  0.16023627817E+04  0.50400001928E-02 0. -1.
    10030    2    1    2    0    0  0.00000000000E+00  0.00000000000E+00 -0.12031495780E+04  0.20015759854E+04  0.15996054258E+04 0.  0.
        4    1    3    3  502    0  0.79573978358E+02 -0.18492402634E+03  0.36698936384E+03  0.41858299012E+03  0.12699999809E+01 0.  1.
       -4    1    3    3    0  502 -0.79573978358E+02  0.18492402634E+03 -0.15701389419E+04  0.15829929953E+04  0.12699999809E+01 0. -1.
</event>
<event>
 5   0  0.7770905E-04  0.1592284E+04  0.7818609E-02  0.8825302E-01
       -2   -1    0    0    0  501  0.00000000000E+00  0.00000000000E+00  0.96596364276E+03  0.96596364277E+03  0.25500000920E-02 0.  1.
        2   -1    0    0  501    0  0.00000000000E+00  0.00000000000E+00 -0.65617574305E+03  0.65617574305E+03  0.25500000920E-02 0. -1.
    10030    2    1    2    0    0  0.00000000000E+00  0.00000000000E+00  0.30978789972E+03  0.16221393858E+04  0.15922837826E+04 0.  0.
        2    1    3    3  502    0  0.68742951861E+03  0.20507737844E+03 -0.19687126180E+03  0.74389136837E+03  0.25500000920E-02 0. -1.
       -2    1    3    3    0  502 -0.68742951861E+03 -0.20507737844E+03  0.50665916152E+03  0.87824801745E+03  0.25500000920E-02 0.  1.
</event>
<event>
 5   0  0.7553070E-04  0.1585065E+04  0.7818609E-02  0.8829776E-01
        2   -1    0    0  501    0  0.00000000000E+00  0.00000000000E+00  0.10819324276E+04  0.10819324276E+04  0.25500000920E-02 0. -1.
       -2   -1    0    0    0  501  0.00000000000E+00  0.00000000000E+00 -0.58054222608E+03  0.58054222609E+03  0.25500000920E-02 0.  1.
    10030    2    1    2    0    0  0.00000000000E+00  0.00000000000E+00  0.50139020152E+03  0.16624746537E+04  0.15850646170E+04 0.  0.
        4    1    3    3  502    0 -0.52661126528E+03 -0.27221157305E+03  0.80239468892E+03  0.99762588927E+03  0.12699999809E+01 0. -1.
       -4    1    3    3    0  502  0.52661126528E+03  0.27221157305E+03 -0.30100448740E+03  0.66484876443E+03  0.12699999809E+01 0.  1.
</event>
<event>
 5   0  0.7415102E-04  0.1565518E+04  0.7818609E-02  0.8842016E-01
       -2   -1    0    0    0  501  0.00000000000E+00  0.00000000000E+00  0.62468782433E+03  0.62468782433E+03  0.25500000920E-02 0.  1.
        2   -1    0    0  501    0  0.00000000000E+00  0.00000000000E+00 -0.98082840694E+03  0.98082840694E+03  0.25500000920E-02 0. -1.
    10030    2    1    2    0    0  0.00000000000E+00  0.00000000000E+00 -0.35614058261E+03  0.16055162313E+04  0.15655178869E+04 0.  0.
        5    1    3    3  502    0 -0.57583331846E+03  0.48965383048E+03 -0.38659907360E+03  0.84901461593E+03  0.46999998093E+01 0.  1.
       -5    1    3    3    0  502  0.57583331846E+03 -0.48965383048E+03  0.30458490990E+02  0.75650161535E+03  0.46999998093E+01 0. -1.
</event>
<event>
 5   0  0.2781000E-04  0.1464765E+04  0.7818609E-02  0.8908228E-01
        4   -1    0    0  501    0  0.00000000000E+00  0.00000000000E+00  0.14375056277E+04  0.14375061887E+04  0.12699999809E+01 0. -1.
       -4   -1    0    0    0  501  0.00000000000E+00  0.00000000000E+00 -0.37313348161E+03  0.37313564289E+03  0.12699999809E+01 0.  1.
    10030    2    1    2    0    0  0.00000000000E+00  0.00000000000E+00  0.10643721460E+04  0.18106418316E+04  0.14647647514E+04 0.  0.
        3    1    3    3  502    0 -0.12097943463E+03  0.68272490172E+03  0.82375230775E+03  0.10767159281E+04  0.10100000352E+00 0. -1.
       -3    1    3    3    0  502  0.12097943463E+03 -0.68272490172E+03  0.24061983829E+03  0.73392590349E+03  0.10100000352E+00 0.  1.
</event>
<event>
 5   0  0.7415102E-04  0.1581405E+04  0.7818609E-02  0.8832054E-01
       -2   -1    0    0    0  501  0.00000000000E+00  0.00000000000E+00  0.55867270807E+03  0.55867270807E+03  0.25500000920E-02 0. -1.
        2   -1    0    0  501    0  0.00000000000E+00  0.00000000000E+00 -0.11191001012E+04  0.11191001012E+04  0.25500000920E-02 0.  1.
    10030    2    1    2    0    0  0.00000000000E+00  0.00000000000E+00 -0.56042739313E+03  0.16777728093E+04  0.15814053043E+04 0.  0.
        5    1    3    3  502    0 -0.47528406050E+03  0.53304328657E+03  0.79815714688E+02  0.71862557833E+03  0.46999998093E+01 0. -1.
       -5    1    3    3    0  502  0.47528406050E+03 -0.53304328657E+03 -0.64024310782E+03  0.95914723094E+03  0.46999998093E+01 0.  1.
</event>
<event>
 5   0  0.4110803E-04  0.1384434E+04  0.7818609E-02  0.8965164E-01
       -1   -1    0    0    0  501  0.00000000000E+00  0.00000000000E+00  0.69225210123E+03  0.69225210125E+03  0.50400001928E-02 0.  1.
        1   -1    0    0  501    0  0.00000000000E+00  0.00000000000E+00 -0.69218164132E+03  0.69218164134E+03  0.50400001928E-02 0. -1.
    10030    2    1    2    0    0  0.00000000000E+00  0.00000000000E+00  0.70459912612E-01  0.13844337426E+04  0.13844337408E+04 0.  0.
        5    1    3    3  502    0 -0.21729736702E+03  0.44220812775E+02 -0.65568458886E+03  0.69218349883E+03  0.46999998093E+01 0. -1.
       -5    1    3    3    0  502  0.21729736702E+03 -0.44220812775E+02  0.65575504877E+03  0.69225024376E+03  0.46999998093E+01 0.  1.
</event>
<event>
 5   0  0.3950195E-04  0.1595603E+04  0.7818609E-02  0.8823254E-01
        1   -1    0    0  501    0  0.00000000000E+00  0.00000000000E+00  0.23541224859E+04  0.23541224859E+04  0.50400001928E-02 0.  1.
       -1   -1    0    0    0  501  0.00000000000E+00  0.00000000000E+00 -0.27037142511E+03  0.27037142516E+03  0.50400001928E-02 0. -1.
    10030    2    1    2    0    0  0.00000000000E+00  0.00000000000E+00  0.20837510608E+04  0.26244939111E+04  0.15956032733E+04 0.  0.
        2    1    3    3  502    0  0.60888000082E+03  0.47738085948E+03  0.72183012799E+03  0.10581427475E+04  0.25500000920E-02 0.  1.
       -2    1    3    3    0  502 -0.60888000082E+03 -0.47738085948E+03  0.13619209328E+04  0.15663511636E+04  0.25500000920E-02 0. -1.
</event>
<event>
 5   0  0.7395088E-04  0.1613265E+04  0.7818609E-02  0.8812440E-01
       -2   -1    0    0    0  501  0.00000000000E+00  0.00000000000E+00  0.71503343852E+03  0.71503343853E+03  0.25500000920E-02 0.  1.
        2   -1    0    0  501    0  0.00000000000E+00  0.00000000000E+00 -0.90996534215E+03  0.90996534216E+03  0.25500000920E-02 0. -1.
    10030    2    1    2    0    0  0.00000000000E+00  0.00000000000E+00 -0.19493190363E+03  0.16249987807E+04  0.16132645754E+04 0.  0.
        1    1    3    3  502    0  0.25610255376E+03  0.46730510393E+03 -0.70742235213E+03  0.88566865278E+03  0.50400001928E-02 0. -1.
       -1    1    3    3    0  502 -0.25610255376E+03 -0.46730510393E+03  0.51249044850E+03  0.73933012790E+03  0.50400001928E-02 0.  1.
</event>
<event>
 5   0  0.3837251E-04  0.1563458E+04  0.7818609E-02  0.8843317E-01
        1   -1    0    0  501    0  0.00000000000E+00  0.00000000000E+00  0.93135212035E+03  0.93135212037E+03  0.50400001928E-02 0.  1.
       -1   -1    0    0    0  501  0.00000000000E+00  0.00000000000E+00 -0.65614315994E+03  0.65614315996E+03  0.50400001928E-02 0. -1.
    10030    2    1    2    0    0  0.00000000000E+00  0.00000000000E+00  0.27520896041E+03  0.15874952803E+04  0.15634581201E+04 0.  0.
        4    1    3    3  502    0  0.54581938775E+03  0.97376134093E+02 -0.42195596838E+03  0.69674196635E+03  0.12699999809E+01 0.  1.
       -4    1    3    3    0  502 -0.54581938775E+03 -0.97376134093E+02  0.69716492879E+03  0.89075331398E+03  0.12699999809E+01 0. -1.
</event>
<event>
 5   0  0.7488884E-04  0.1545074E+04  0.7818609E-02  0.8855020E-01
       -2   -1    0    0    0  501  0.00000000000E+00  0.00000000000E+00  0.26466087320E+03  0.26466087321E+03  0.25500000920E-02 0. -1.
        2   -1    0    0  501    0  0.00000000000E+00  0.00000000000E+00 -0.22550130095E+04  0.22550130095E+04  0.25500000920E-02 0.  1.
    10030    2    1    2    0    0  0.00000000000E+00  0.00000000000E+00 -0.19903521363E+04  0.25196738827E+04  0.15450743829E+04 0.  0.
        3    1    3    3  502    0 -0.38200393208E+03 -0.59457398438E+03 -0.48630925740E+03  0.85787057944E+03  0.10100000352E+00 0. -1.
       -3    1    3    3    0  502  0.38200393208E+03  0.59457398438E+03 -0.15040428789E+04  0.16618033033E+04  0.10100000352E+00 0.  1.
</event>
<event>
 5   0  0.4110803E-04  0.1587371E+04  0.7818609E-02  0.8828344E-01
       -1   -1    0    0    0  501  0.00000000000E+00  0.00000000000E+00  0.54566789083E+03  0.54566789085E+03  0.50400001928E-02 0.  1.
        1   -1    0    0  501    0  0.00000000000E+00  0.00000000000E+00 -0.11544329739E+04  0.11544329740E+04  0.50400001928E-02 0. -1.
    10030    2    1    2    0    0  0.00000000000E+00  0.00000000000E+00 -0.60876508312E+03  0.17001008648E+04  0.15873714197E+04 0.  0.
        5    1    3    3  502    0  0.26103705726E+03 -0.22658527967E+03  0.46080130589E+03  0.57605656643E+03  0.46999998093E+01 0.  1.
       -5    1    3    3    0  502 -0.26103705726E+03  0.22658527967E+03 -0.10695663890E+04  0.11240442984E+04  0.46999998093E+01 0. -1.
</event>
<event>
 5   0  0.3973227E-04  0.1582877E+04  0.7818609E-02  0.8831137E-01
        1   -1    0    0  501    0  0.00000000000E+00  0.00000000000E+00  0.52351911231E+03  0.52351911233E+03  0.50400001928E-02 0.  1.
       -1   -1    0    0    0  501  0.00000000000E+00  0.00000000000E+00 -0.11964695346E+04  0.11964695346E+04  0.50400001928E-02 0. -1.
    10030    2    1    2    0    0  0.00000000000E+00  0.00000000000E+00 -0.67295042230E+03  0.17199886470E+04  0.15828767086E+04 0.  0.
        3    1    3    3  502    0 -0.61468714880E+03 -0.49851969160E+03 -0.33263577854E+03  0.85849213461E+03  0.10100000352E+00 0.  1.
       -3    1    3    3    0  502  0.61468714880E+03  0.49851969160E+03 -0.34031464375E+03  0.86149651234E+03  0.10100000352E+00 0. -1.
</event>
<event>
 5   0  0.2781000E-04  0.1477865E+04  0.7818609E-02  0.8899307E-01
       -3   -1    0    0    0  501  0.00000000000E+00  0.00000000000E+00  0.43756938091E+03  0.43756939257E+03  0.10100000352E+00 0.  1.
        3   -1    0    0  501    0  0.00000000000E+00  0.00000000000E+00 -0.12478510260E+04  0.12478510301E+04  0.10100000352E+00 0. -1.
    10030    2    1    2    0    0  0.00000000000E+00  0.00000000000E+00 -0.81028164506E+03  0.16854204226E+04  0.14778652363E+04 0.  0.
        4    1    3    3  502    0  0.26672924262E+03  0.13733606600E+03  0.36498655509E+03  0.47246426551E+03  0.12699999809E+01 0.  1.
       -4    1    3    3    0  502 -0.26672924262E+03 -0.13733606600E+03 -0.11752682001E+04  0.12129561571E+04  0.12699999809E+01 0. -1.
</event>
<event>
 5   0  0.7770905E-04  0.1538812E+04  0.7818609E-02  0.8859046E-01
       -2   -1    0    0    0  501  0.00000000000E+00  0.00000000000E+00  0.32759336332E+03  0.32759336333E+03  0.25500000920E-02 0. -1.
        2   -1    0    0  501    0  0.00000000000E+00  0.00000000000E+00 -0.18070751939E+04  0.18070751939E+04  0.25500000920E-02 0.  1.
    10030    2    1    2    0    0  0.00000000000E+00  0.00000000000E+00 -0.14794818306E+04  0.21346685573E+04  0.15388123220E+04 0.  0.
        2    1    3    3  502    0 -0.44885232464E+03 -0.98510936751E+02 -0.15957939988E+04  0.16606418339E+04  0.25500000920E-02 0.  1.
       -2    1    3    3    0  502  0.44885232464E+03  0.98510936751E+02  0.11631216816E+03  0.47402672336E+03  0.25500000920E-02 0. -1.
</event>
<event>
 5   0  0.7415102E-04  0.1540233E+04  0.7818609E-02  0.8858130E-01
        2   -1    0    0  501    0  0.00000000000E+00  0.00000000000E+00  0.11335674114E+04  0.11335674114E+04  0.25500000920E-02 0.  1.
       -2   -1    0    0    0  501  0.00000000000E+00  0.00000000000E+00 -0.52319751951E+03  0.52319751951E+03  0.25500000920E-02 0. -1.
    10030    2    1    2    0    0  0.00000000000E+00  0.00000000000E+00  0.61036989189E+03  0.16567649309E+04  0.15402333042E+04 0.  0.
        5    1    3    3  502    0  0.65337478720E+03  0.86788240069E+02 -0.12322801937E+03  0.67055055434E+03  0.46999998093E+01 0. -1.
       -5    1    3    3    0  502 -0.65337478720E+03 -0.86788240069E+02  0.73359791125E+03  0.98621437657E+03  0.46999998093E+01 0.  1.
</event>
<event>
 5   0  0.3837251E-04  0.1641555E+04  0.7818609E-02  0.8795418E-01
       -1   -1    0    0    0  501  0.00000000000E+00  0.00000000000E+00  0.45464792171E+03  0.45464792173E+03  0.50400001928E-02 0.  1.
        1   -1    0    0  501    0  0.00000000000E+00  0.00000000000E+00 -0.14817533845E+04  0.14817533845E+04  0.50400001928E-02 0. -1.
    10030    2    1    2    0    0  0.00000000000E+00  0.00000000000E+00 -0.10271054628E+04  0.19364013062E+04  0.16415554779E+04 0.  0.
        4    1    3    3  502    0  0.48089204337E+03 -0.55005264372E+02 -0.12954789041E+04  0.13829497244E+04  0.12699999809E+01 0. -1.
       -4    1    3    3    0  502 -0.48089204337E+03  0.55005264372E+02  0.26837344131E+03  0.55345158179E+03  0.12699999809E+01 0.  1.
</event>
<event>
 5   0  0.7553070E-04  0.1599375E+04  0.7818609E-02  0.8820932E-01
        2   -1    0    0  501    0  0.00000000000E+00  0.00000000000E+00  0.81708338061E+03  0.81708338062E+03  0.25500000920E-02 0.  1.
       -2   -1    0    0    0  501  0.00000000000E+00  0.00000000000E+00 -0.78266245547E+03  0.78266245548E+03  0.25500000920E-02 0. -1.
    10030    2    1    2    0    0  0.00000000000E+00  0.00000000000E+00  0.34420925138E+02  0.15997458361E+04  0.15993754844E+04 0.  0.
        4    1    3    3  502    0  0.21695668337E+03 -0.74739831740E+03  0.20116722757E+03  0.80383102307E+03  0.12699999809E+01 0.  1.
       -4    1    3    3    0  502 -0.21695668337E+03  0.74739831740E+03 -0.16674630243E+03  0.79591481302E+03  0.12699999809E+01 0. -1.
</event>
<event>
 5   0  0.4110803E-04  0.1628601E+04  0.7818609E-02  0.8803167E-01
        1   -1    0    0  501    0  0.00000000000E+00  0.00000000000E+00  0.10178123973E+04  0.10178123973E+04  0.50400001928E-02 0. -1.
       -1   -1    0    0    0  501  0.00000000000E+00  0.00000000000E+00 -0.65148089487E+03  0.65148089489E+03  0.50400001928E-02 0.  1.
    10030    2    1    2    0    0  0.00000000000E+00  0.00000000000E+00  0.36633150238E+03  0.16692932922E+04  0.16286010333E+04 0.  0.
        5    1    3    3  502    0  0.30446647076E+03  0.38403825974E+03 -0.48337314935E+03  0.68837265218E+03  0.46999998093E+01 0.  1.
       -5    1    3    3    0  502 -0.30446647076E+03 -0.38403825974E+03  0.84970465174E+03  0.98092063998E+03  0.46999998093E+01 0. -1.
</event>
<event>
 5   0  0.7770905E-04  0.1660699E+04  0.7818609E-02  0.8784102E-01
       -2   -1    0    0    0  501  0.00000000000E+00  0.00000000000E+00  0.96410893531E+03  0.96410893531E+03  0.25500000920E-02 0. -1.
        2   -1    0    0  501    0  0.00000000000E+00  0.00000000000E+00 -0.71514774388E+03  0.71514774389E+03  0.25500000920E-02 0.  1.
    10030    2    1    2    0    0  0.00000000000E+00  0.00000000000E+00  0.24896119143E+03  0.16792566792E+04  0.16606990455E+04 0.  0.
        2    1    3    3  502    0 -0.65889562040E+03 -0.21023419853E+03 -0.34015217405E+03  0.77074338034E+03  0.25500000920E-02 0.  1.
       -2    1    3    3    0  502  0.65889562040E+03  0.21023419853E+03  0.58911336548E+03  0.90851329886E+03  0.25500000920E-02 0. -1.
</event>
<event>
 5   0  0.7488884E-04  0.1620567E+04  0.7818609E-02  0.8808011E-01
        2   -1    0    0  501    0  0.00000000000E+00  0.00000000000E+00  0.18162639447E+04  0.18162639447E+04  0.25500000920E-02 0.  1.
       -2   -1    0    0    0  501  0.00000000000E+00  0.00000000000E+00 -0.36148911433E+03  0.36148911434E+03  0.25500000920E-02 0. -1.
    10030    2    1    2    0    0  0.00000000000E+00  0.00000000000E+00  0.14547748304E+04  0.21777530590E+04  0.16205673633E+04 0.  0.
        3    1    3    3  502    0  0.58430785876E+03  0.55966746300E+03  0.78621382505E+03  0.11281735380E+04  0.10100000352E+00 0. -1.
       -3    1    3    3    0  502 -0.58430785876E+03 -0.55966746300E+03  0.66856100531E+03  0.10495795210E+04  0.10100000352E+00 0.  1.
</event>
<event>
 5   0  0.3950195E-04  0.1553417E+04  0.7818609E-02  0.8849688E-01
        1   -1    0    0  501    0  0.00000000000E+00  0.00000000000E+00  0.41326707271E+03  0.41326707274E+03  0.50400001928E-02 0.  1.
       -1   -1    0    0    0  501  0.00000000000E+00  0.00000000000E+00 -0.14597731069E+04  0.14597731069E+04  0.50400001928E-02 0. -1.
    10030    2    1    2    0    0  0.00000000000E+00  0.00000000000E+00 -0.10465060342E+04  0.18730401797E+04  0.15534170834E+04 0.  0.
        2    1    3    3  502    0 -0.57852829770E+03  0.38418523568E+03 -0.10386022500E+03  0.70219671952E+03  0.25500000920E-02 0. -1.
       -2    1    3    3    0  502  0.57852829770E+03 -0.38418523568E+03 -0.94264580921E+03  0.11708434602E+04  0.25500000920E-02 0.  1.
</event>
<event>
 5   0  0.4110803E-04  0.1615388E+04  0.7818609E-02  0.8811150E-01
       -1   -1    0    0    0  501  0.00000000000E+00  0.00000000000E+00  0.78953114902E+03  0.78953114904E+03  0.50400001928E-02 0. -1.
        1   -1    0    0  501    0  0.00000000000E+00  0.00000000000E+00 -0.82627470691E+03  0.82627470692E+03  0.50400001928E-02 0.  1.
    10030    2    1    2    0    0  0.00000000000E+00  0.00000000000E+00 -0.36743557885E+02  0.16158058560E+04  0.16153880262E+04 0.  0.
        5    1    3    3  502    0 -0.77662476155E+03 -0.11895638453E+02 -0.23992399609E+03  0.81294104360E+03  0.46999998093E+01 0. -1.
       -5    1    3    3    0  502  0.77662476155E+03  0.11895638453E+02  0.20318043820E+03  0.80286481237E+03  0.46999998093E+01 0.  1.
</event>
<event>
 5   0  0.7488884E-04  0.1623879E+04  0.7818609E-02  0.8806011E-01
        2   -1    0    0  501    0  0.00000000000E+00  0.00000000000E+00  0.83208287261E+03  0.83208287261E+03  0.25500000920E-02 0. -1.
       -2   -1    0    0    0  501  0.00000000000E+00  0.00000000000E+00 -0.79228371187E+03  0.79228371188E+03  0.25500000920E-02 0.  1.
    10030    2    1    2    0    0  0.00000000000E+00  0.00000000000E+00  0.39799160734E+02  0.16243665845E+04  0.16238789449E+04 0.  0.
        3    1    3    3  502    0 -0.35090598197E+03  0.43933118613E+03 -0.56602267449E+03  0.79782741087E+03  0.10100000352E+00 0.  1.
       -3    1    3    3    0  502  0.35090598197E+03 -0.43933118613E+03  0.60582183523E+03  0.82653917362E+03  0.10100000352E+00 0. -1.
</event>
<event>
 5   0  0.7488884E-04  0.1583634E+04  0.7818609E-02  0.8830666E-01
        2   -1    0    0  501    0  0.00000000000E+00  0.00000000000E+00  0.16849190641E+04  0.16849190641E+04  0.25500000920E-02 0.  1.
       -2   -1    0    0    0  501  0.00000000000E+00  0.00000000000E+00 -0.37210916203E+03  0.37210916204E+03  0.25500000920E-02 0. -1.
    10030    2    1    2    0    0  0.00000000000E+00  0.00000000000E+00  0.13128099020E+04  0.20570282261E+04  0.15836335700E+04 0.  0.
        3    1    3    3  502    0 -0.40094792147E+03  0.29271193220E+03 -0.14487164125E+03  0.51713374829E+03  0.10100000352E+00 0. -1.
       -3    1    3    3    0  502  0.40094792147E+03 -0.29271193220E+03  0.14576815433E+04  0.15398944778E+04  0.10100000352E+00 0.  1.
</event>
<event>
 5   0  0.7770905E-04  0.1604465E+04  0.7818609E-02  0.8817809E-01
        2   -1    0    0  501    0  0.00000000000E+00  0.00000000000E+00  0.10303291944E+04  0.10303291944E+04  0.25500000920E-02 0. -1.
       -2   -1    0    0    0  501  0.00000000000E+00  0.00000000000E+00 -0.62463271440E+03  0.62463271440E+03  0.25500000920E-02 0.  1.
    10030    2    1    2    0    0  0.00000000000E+00  0.00000000000E+00  0.40569648001E+03  0.16549619088E+04  0.16044654205E+04 0.  0.
        2    1    3    3  502    0  0.33381767014E+03 -0.72799679316E+03  0.15486809565E+03  0.81571912740E+03  0.25500000920E-02 0. -1.
       -2    1    3    3    0  502 -0.33381767014E+03  0.72799679316E+03  0.25082838436E+03  0.83924278142E+03  0.25500000920E-02 0.  1.
</event>
<event>
 5   0  0.3889847E-04  0.1649320E+04  0.7818609E-02  0.8790809E-01
       -1   -1    0    0    0  501  0.00000000000E+00  0.00000000000E+00  0.66239104217E+03  0.66239104219E+03  0.50400001928E-02 0. -1.
        1   -1    0    0  501    0  0.00000000000E+00  0.00000000000E+00 -0.10266805075E+04  0.10266805075E+04  0.50400001928E-02 0.  1.
    10030    2    1    2    0    0  0.00000000000E+00  0.00000000000E+00 -0.36428946534E+03  0.16890715497E+04  0.16493198251E+04 0.  0.
        1    1    3    3  502    0  0.11154436558E+03 -0.72814365897E+03  0.19750385479E+03  0.76265529977E+03  0.50400001928E-02 0.  1.
       -1    1    3    3    0  502 -0.11154436558E+03  0.72814365897E+03 -0.56179332014E+03  0.92641624995E+03  0.50400001928E-02 0. -1.
</event>
<event>
 5   0  0.7553070E-04  0.1597780E+04  0.7818609E-02  0.8821913E-01
       -2   -1    0    0    0  501  0.00000000000E+00  0.00000000000E+00  0.42274629674E+03  0.42274629675E+03  0.25500000920E-02 0. -1.
        2   -1    0    0  501    0  0.00000000000E+00  0.00000000000E+00 -0.15097116084E+04  0.15097116084E+04  0.25500000920E-02 0.  1.
    10030    2    1    2    0    0  0.00000000000E+00  0.00000000000E+00 -0.10869653117E+04  0.19324579052E+04  0.15977796990E+04 0.  0.
        4    1    3    3  502    0 -0.66385838527E+03  0.16068199685E+03 -0.10446400491E+04  0.12481190267E+04  0.12699999809E+01 0. -1.
       -4    1    3    3    0  502  0.66385838527E+03 -0.16068199685E+03 -0.42325262585E+02  0.68433887845E+03  0.12699999809E+01 0.  1.
</event>
<event>
 5   0  0.7488884E-04  0.1596339E+04  0.7818609E-02  0.8822800E-01
        2   -1    0    0  501    0  0.00000000000E+00  0.00000000000E+00  0.10312431858E+04  0.10312431858E+04  0.25500000920E-02 0.  1.
       -2   -1    0    0    0  501  0.00000000000E+00  0.00000000000E+00 -0.61777305281E+03  0.61777305281E+03  0.25500000920E-02 0. -1.
    10030    2    1    2    0    0  0.00000000000E+00  0.00000000000E+00  0.41347013303E+03  0.16490162387E+04  0.15963386246E+04 0.  0.
        3    1    3    3  502    0 -0.18694897822E+03 -0.67807022914E+03  0.59647162717E+03  0.92222967222E+03  0.10100000352E+00 0.  1.
       -3    1    3    3    0  502  0.18694897822E+03  0.67807022914E+03 -0.18300149413E+03  0.72678656644E+03  0.10100000352E+00 0. -1.
</event>
<event>
 5   0  0.3950195E-04  0.1498918E+04  0.7818609E-02  0.8885172E-01
       -1   -1    0    0    0  501  0.00000000000E+00  0.00000000000E+00  0.49513667582E+03  0.49513667585E+03  0.50400001928E-02 0. -1.
        1   -1    0    0  501    0  0.00000000000E+00  0.00000000000E+00 -0.11344122604E+04  0.11344122604E+04  0.50400001928E-02 0.  1.
    10030    2    1    2    0    0  0.00000000000E+00  0.00000000000E+00 -0.63927558459E+03  0.16295489363E+04  0.14989184310E+04 0.  0.
        2    1    3    3  502    0  0.66035869463E+03 -0.30342723967E+03 -0.12051591768E+03  0.73665852454E+03  0.25500000920E-02 0. -1.
       -2    1    3    3    0  502 -0.66035869463E+03  0.30342723967E+03 -0.51875966691E+03  0.89289041173E+03  0.25500000920E-02 0.  1.
</event>
<event>
 5   0  0.3889847E-04  0.1597616E+04  0.7818609E-02  0.8822014E-01
        1   -1    0    0  501    0  0.00000000000E+00  0.00000000000E+00  0.75176447844E+03  0.75176447845E+03  0.50400001928E-02 0.  1.
       -1   -1    0    0    0  501  0.00000000000E+00  0.00000000000E+00 -0.84879525477E+03  0.84879525479E+03  0.50400001928E-02 0. -1.
    10030    2    1    2    0    0  0.00000000000E+00  0.00000000000E+00 -0.97030776335E+02  0.16005597332E+04  0.15976158763E+04 0.  0.
        1    1    3    3  502    0 -0.68025807681E+03 -0.11834520994E+03 -0.45092389836E+03  0.82467508870E+03  0.50400001928E-02 0. -1.
       -1    1    3    3    0  502  0.68025807681E+03  0.11834520994E+03  0.35389312203E+03  0.77588464454E+03  0.50400001928E-02 0.  1.
</event>
<event>
 5   0  0.7395088E-04  0.1620959E+04  0.7818609E-02  0.8807774E-01
       -2   -1    0    0    0  501  0.00000000000E+00  0.00000000000E+00  0.44954044259E+03  0.44954044259E+03  0.25500000920E-02 0. -1.
        2   -1    0    0  501    0  0.00000000000E+00  0.00000000000E+00 -0.14612196186E+04  0.14612196186E+04  0.25500000920E-02 0.  1.
    10030    2    1    2    0    0  0.00000000000E+00  0.00000000000E+00 -0.10116791761E+04  0.19107600612E+04  0.16209593630E+04 0.  0.
        1    1    3    3  502    0 -0.58712633563E+03 -0.12222445996E+03  0.13680949354E+03  0.61512030543E+03  0.50400001928E-02 0. -1.
       -1    1    3    3    0  502  0.58712633563E+03  0.12222445996E+03 -0.11484886696E+04  0.12956397558E+04  0.50400001928E-02 0.  1.
</event>
<event>
 5   0  0.4110803E-04  0.1602727E+04  0.7818609E-02  0.8818875E-01
        1   -1    0    0  501    0  0.00000000000E+00  0.00000000000E+00  0.87327325971E+03  0.87327325973E+03  0.50400001928E-02 0. -1.
       -1   -1    0    0    0  501  0.00000000000E+00  0.00000000000E+00 -0.73537482768E+03  0.73537482770E+03  0.50400001928E-02 0.  1.
    10030    2    1    2    0    0  0.00000000000E+00  0.00000000000E+00  0.13789843203E+03  0.16086480874E+04  0.16027266428E+04 0.  0.
        5    1    3    3  502    0  0.51460575552E+02 -0.25493510217E+03 -0.69182281700E+03  0.73910824462E+03  0.46999998093E+01 0.  1.
       -5    1    3    3    0  502 -0.51460575552E+02  0.25493510217E+03  0.82972124902E+03  0.86953984281E+03  0.46999998093E+01 0. -1.
</event>
<event>
 5   0  0.3837251E-04  0.1605764E+04  0.7818609E-02  0.8817015E-01
       -1   -1    0    0    0  501  0.00000000000E+00  0.00000000000E+00  0.99293373950E+03  0.99293373951E+03  0.50400001928E-02 0. -1.
        1   -1    0    0  501    0  0.00000000000E+00  0.00000000000E+00 -0.64920683176E+03  0.64920683178E+03  0.50400001928E-02 0.  1.
    10030    2    1    2    0    0  0.00000000000E+00  0.00000000000E+00  0.34372690774E+03  0.16421405713E+04  0.16057638272E+04 0.  0.
        4    1    3    3  502    0 -0.99869416509E+02  0.51121187619E+03  0.79669263460E+03  0.95185726327E+03  0.12699999809E+01 0. -1.
       -4    1    3    3    0  502  0.99869416509E+02 -0.51121187619E+03 -0.45296572686E+03  0.69028330802E+03  0.12699999809E+01 0.  1.
</event>
<event>
 5   0  0.7488884E-04  0.1577342E+04  0.7818609E-02  0.8834590E-01
       -2   -1    0    0    0  501  0.00000000000E+00  0.00000000000E+00  0.50208055831E+03  0.50208055832E+03  0.25500000920E-02 0. -1.
        2   -1    0    0  501    0  0.00000000000E+00  0.00000000000E+00 -0.12388495543E+04  0.12388495543E+04  0.25500000920E-02 0.  1.
    10030    2    1    2    0    0  0.00000000000E+00  0.00000000000E+00 -0.73676899596E+03  0.17409301126E+04  0.15773424180E+04 0.  0.
        3    1    3    3  502    0  0.17813710123E+03 -0.31173413381E+03 -0.11434153855E+04  0.11984614099E+04  0.10100000352E+00 0.  1.
       -3    1    3    3    0  502 -0.17813710123E+03  0.31173413381E+03  0.40664638957E+03  0.54246870266E+03  0.10100000352E+00 0. -1.
</event>
<event>
 5   0  0.3837251E-04  0.1579703E+04  0.7818609E-02  0.8833115E-01
       -1   -1    0    0    0  501  0.00000000000E+00  0.00000000000E+00  0.40435339642E+03  0.40435339646E+03  0.50400001928E-02 0.  1.
        1   -1    0    0  501    0  0.00000000000E+00  0.00000000000E+00 -0.15428712231E+04  0.15428712231E+04  0.50400001928E-02 0. -1.
    10030    2    1    2    0    0  0.00000000000E+00  0.00000000000E+00 -0.11385178267E+04  0.19472246196E+04  0.15797027814E+04 0.  0.
        4    1    3    3  502    0  0.72341831919E+03 -0.20393544815E+03 -0.27000125454E+03  0.79864010787E+03  0.12699999809E+01 0.  1.
       -4    1    3    3    0  502 -0.72341831919E+03  0.20393544815E+03 -0.86851657217E+03  0.11485845117E+04  0.12699999809E+01 0. -1.
</event>
<event>
 5   0  0.3889847E-04  0.1384495E+04  0.7818609E-02  0.8965119E-01
       -1   -1    0    0    0  501  0.00000000000E+00  0.00000000000E+00  0.54638438867E+03  0.54638438870E+03  0.50400001928E-02 0.  1.
        1   -1    0    0  501    0  0.00000000000E+00  0.00000000000E+00 -0.87704979795E+03  0.87704979797E+03  0.50400001928E-02 0. -1.
    10030    2    1    2    0    0  0.00000000000E+00  0.00000000000E+00 -0.33066540928E+03  0.14234341867E+04  0.13844945904E+04 0.  0.
        1    1    3    3  502    0 -0.59456131621E+03 -0.32654509994E+02 -0.52830154759E+03  0.79603517571E+03  0.50400001928E-02 0. -1.
       -1    1    3    3    0  502  0.59456131621E+03  0.32654509994E+02  0.19763613831E+03  0.62739901095E+03  0.50400001928E-02 0.  1.
</event>
<event>
 5   0  0.3950195E-04  0.1578439E+04  0.7818609E-02  0.8833904E-01
        1   -1    0    0  501    0  0.00000000000E+00  0.00000000000E+00  0.17926445336E+04  0.17926445336E+04  0.50400001928E-02 0.  1.
       -1   -1    0    0    0  501  0.00000000000E+00  0.00000000000E+00 -0.34745745243E+03  0.34745745247E+03  0.50400001928E-02 0. -1.
    10030    2    1    2    0    0  0.00000000000E+00  0.00000000000E+00  0.14451870812E+04  0.21401019861E+04  0.15784393594E+04 0.  0.
        2    1    3    3  502    0  0.37878359260E+03 -0.69236437374E+03  0.71619567576E+03  0.10657305860E+04  0.25500000920E-02 0.  1.
       -2    1    3    3    0  502 -0.37878359260E+03  0.69236437374E+03  0.72899140542E+03  0.10743714000E+04  0.25500000920E-02 0. -1.
</event>
<event>
 5   0  0.7395088E-04  0.1590245E+04  0.7818609E-02  0.8826563E-01
       -2   -1    0    0    0  501  0.00000000000E+00  0.00000000000E+00  0.64974115820E+03  0.64974115821E+03  0.25500000920E-02 0.  1.
        2   -1    0    0  501    0  0.00000000000E+00  0.00000000000E+00 -0.97303332910E+03  0.97303332910E+03  0.25500000920E-02 0. -1.
    10030    2    1    2    0    0  0.00000000000E+00  0.00000000000E+00 -0.32329217090E+03  0.16227744873E+04  0.15902450154E+04 0.  0.
        1    1    3    3  502    0 -0.27915738307E+03 -0.63070391373E+02 -0.91865160719E+03  0.96219930067E+03  0.50400001928E-02 0. -1.
       -1    1    3    3    0  502  0.27915738307E+03  0.63070391373E+02  0.59535943630E+03  0.66057518664E+03  0.50400001928E-02 0.  1.
</event>
<event>
 5   0  0.2781000E-04  0.1603655E+04  0.7818609E-02  0.8818306E-01
        3   -1    0    0  501    0  0.00000000000E+00  0.00000000000E+00  0.60140442193E+03  0.60140443041E+03  0.10100000352E+00 0. -1.
       -3   -1    0    0    0  501  0.00000000000E+00  0.00000000000E+00 -0.10690429348E+04  0.10690429396E+04  0.10100000352E+00 0.  1.
    10030    2    1    2    0    0  0.00000000000E+00  0.00000000000E+00 -0.46763851290E+03  0.16704473700E+04  0.16036547750E+04 0.  0.
        4    1    3    3  502    0  0.28657791220E+03 -0.36859533430E+03 -0.91284109560E+03  0.10253145366E+04  0.12699999809E+01 0.  1.
       -4    1    3    3    0  502 -0.28657791220E+03  0.36859533430E+03  0.44520258270E+03  0.64513283343E+03  0.12699999809E+01 0. -1.
</event>
<event>
 5   0  0.7488884E-04  0.1605091E+04  0.7818609E-02  0.8817427E-01
       -2   -1    0    0    0  501  0.00000000000E+00  0.00000000000E+00  0.76780877998E+03  0.76780877999E+03  0.25500000920E-02 0. -1.
        2   -1    0    0  501    0  0.00000000000E+00  0.00000000000E+00 -0.83885323722E+03  0.83885323723E+03  0.25500000920E-02 0.  1.
    10030    2    1    2    0    0  0.00000000000E+00  0.00000000000E+00 -0.71044457240E+02  0.16066620172E+04  0.16050905029E+04 0.  0.
        3    1    3    3  502    0  0.12601380677E+03  0.63807075251E+03  0.43511372319E+03  0.78252011285E+03  0.10100000352E+00 0. -1.
       -3    1    3    3    0  502 -0.12601380677E+03 -0.63807075251E+03 -0.50615818043E+03  0.82414190436E+03  0.10100000352E+00 0.  1.
</event>
<event>
 5   0  0.7770905E-04  0.1615996E+04  0.7818609E-02  0.8810781E-01
        2   -1    0    0  501    0  0.00000000000E+00  0.00000000000E+00  0.33110424577E+03  0.33110424578E+03  0.25500000920E-02 0.  1.
       -2   -1    0    0    0  501  0.00000000000E+00  0.00000000000E+00 -0.19717672550E+04  0.19717672550E+04  0.25500000920E-02 0. -1.
    10030    2    1    2    0    0  0.00000000000E+00  0.00000000000E+00 -0.16406630092E+04  0.23028715007E+04  0.16159956804E+04 0.  0.
        2    1    3    3  502    0  0.29023349994E+03 -0.36418495546E+03 -0.17612888505E+04  0.18218135418E+04  0.25500000920E-02 0. -1.
       -2    1    3    3    0  502 -0.29023349994E+03  0.36418495546E+03  0.12062584129E+03  0.48105795894E+03  0.25500000920E-02 0.  1.
</event>
<event>
 5   0  0.7395088E-04  0.1610055E+04  0.7818609E-02  0.8814395E-01
        2   -1    0    0  501    0  0.00000000000E+00  0.00000000000E+00  0.95629735066E+03  0.95629735066E+03  0.25500000920E-02 0. -1.
       -2   -1    0    0    0  501  0.00000000000E+00  0.00000000000E+00 -0.67768570156E+03  0.67768570157E+03  0.25500000920E-02 0.  1.
    10030    2    1    2    0    0  0.00000000000E+00  0.00000000000E+00  0.27861164909E+03  0.16339830522E+04  0.16100547084E+04 0.  0.
        1    1    3    3  502    0  0.49787778575E+03  0.15207360446E+03  0.76248417779E+03  0.92325012435E+03  0.50400001928E-02 0. -1.
       -1    1    3    3    0  502 -0.49787778575E+03 -0.15207360446E+03 -0.48387252869E+03  0.71073292788E+03  0.50400001928E-02 0.  1.
</event>
<event>
 5   0  0.7488884E-04  0.1587973E+04  0.7818609E-02  0.8827971E-01
        2   -1    0    0  501    0  0.00000000000E+00  0.00000000000E+00  0.13852387844E+04  0.13852387844E+04  0.25500000920E-02 0. -1.
       -2   -1    0    0    0  501  0.00000000000E+00  0.00000000000E+00 -0.45509462593E+03  0.45509462594E+03  0.25500000920E-02 0.  1.
    10030    2    1    2    0    0  0.00000000000E+00  0.00000000000E+00  0.93014415843E+03  0.18403334103E+04  0.15879732068E+04 0.  0.
        3    1    3    3  502    0 -0.55902428909E+03 -0.36051535502E+03  0.96748112548E+03  0.11740950623E+04  0.10100000352E+00 0. -1.
       -3    1    3    3    0  502  0.55902428909E+03  0.36051535502E+03 -0.37336967056E+02  0.66623834797E+03  0.10100000352E+00 0.  1.
</event>
<event>
 5   0  0.3889847E-04  0.1569816E+04  0.7818609E-02  0.8839309E-01
        1   -1    0    0  501    0  0.00000000000E+00  0.00000000000E+00  0.19355371450E+04  0.19355371450E+04  0.50400001928E-02 0. -1.
       -1   -1    0    0    0  501  0.00000000000E+00  0.00000000000E+00 -0.31829956740E+03  0.31829956744E+03  0.50400001928E-02 0.  1.
    10030    2    1    2    0    0  0.00000000000E+00  0.00000000000E+00  0.16172375776E+04  0.22538367124E+04  0.15698160860E+04 0.  0.
        1    1    3    3  502    0 -0.64941448259E+03 -0.38011961554E+03  0.48805931008E+03  0.89690132261E+03  0.50400001928E-02 0.  1.
       -1    1    3    3    0  502  0.64941448259E+03  0.38011961554E+03  0.11291782675E+04  0.13569353898E+04  0.50400001928E-02 0. -1.
</event>
<event>
 5   0  0.2781000E-04  0.1597929E+04  0.7818609E-02  0.8821821E-01
        3   -1    0    0  501    0  0.00000000000E+00  0.00000000000E+00  0.11009691863E+04  0.11009691909E+04  0.10100000352E+00 0.  1.
       -3   -1    0    0    0  501  0.00000000000E+00  0.00000000000E+00 -0.57980218029E+03  0.57980218909E+03  0.10100000352E+00 0. -1.
    10030    2    1    2    0    0  0.00000000000E+00  0.00000000000E+00  0.52116700601E+03  0.16807713800E+04  0.15979290922E+04 0.  0.
        2    1    3    3  502    0  0.27949029275E+02  0.74242814522E+03  0.56969604544E+03  0.93623409639E+03  0.25500000920E-02 0.  1.
       -2    1    3    3    0  502 -0.27949029275E+02 -0.74242814522E+03 -0.48529039430E+02  0.74453728363E+03  0.25500000920E-02 0. -1.
</event>
<event>
 5   0  0.2781000E-04  0.1561997E+04  0.7818609E-02  0.8844241E-01
        3   -1    0    0  501    0  0.00000000000E+00  0.00000000000E+00  0.10697977363E+04  0.10697977410E+04  0.10100000352E+00 0. -1.
       -3   -1    0    0    0  501  0.00000000000E+00  0.00000000000E+00 -0.57016243874E+03  0.57016244768E+03  0.10100000352E+00 0.  1.
    10030    2    1    2    0    0  0.00000000000E+00  0.00000000000E+00  0.49963529752E+03  0.16399601887E+04  0.15619967958E+04 0.  0.
        3    1    3    3  502    0 -0.46807467577E+03  0.14036292359E+02 -0.40641350783E+03  0.62005069886E+03  0.10100000352E+00 0.  1.
       -3    1    3    3    0  502  0.46807467577E+03 -0.14036292359E+02  0.90604880535E+03  0.10199094898E+04  0.10100000352E+00 0. -1.
</event>
<event>
 5   0  0.7553070E-04  0.1618620E+04  0.7818609E-02  0.8809190E-01
        2   -1    0    0  501    0  0.00000000000E+00  0.00000000000E+00  0.14079223846E+04  0.14079223846E+04  0.25500000920E-02 0.  1.
       -2   -1    0    0    0  501  0.00000000000E+00  0.00000000000E+00 -0.46521199944E+03  0.46521199944E+03  0.25500000920E-02 0. -1.
    10030    2    1    2    0    0  0.00000000000E+00  0.00000000000E+00  0.94271038516E+03  0.18731343840E+04  0.16186196435E+04 0.  0.
        4    1    3    3  502    0  0.46535716489E+03 -0.55479843158E+03  0.88960196668E+03  0.11470622749E+04  0.12699999809E+01 0.  1.
       -4    1    3    3    0  502 -0.46535716489E+03  0.55479843158E+03  0.53108418486E+02  0.72607210910E+03  0.12699999809E+01 0. -1.
</event>
<event>
 5   0  0.7770905E-04  0.1564980E+04  0.7818609E-02  0.8842356E-01
        2   -1    0    0  501    0  0.00000000000E+00  0.00000000000E+00  0.13838158155E+04  0.13838158155E+04  0.25500000920E-02 0. -1.
       -2   -1    0    0    0  501  0.00000000000E+00  0.00000000000E+00 -0.44246526200E+03  0.44246526201E+03  0.25500000920E-02 0.  1.
    10030    2    1    2    0    0  0.00000000000E+00  0.00000000000E+00  0.94135055348E+03  0.18262810775E+04  0.15649797792E+04 0.  0.
        2    1    3    3  502    0  0.23800958957E+03  0.72715777559E+03  0.66201328310E+03  0.10117650826E+04  0.25500000920E-02 0.  1.
       -2    1    3    3    0  502 -0.23800958957E+03 -0.72715777559E+03  0.27933727038E+03  0.81451599490E+03  0.25500000920E-02 0. -1.
</event>
<event>
 5   0  0.3950195E-04  0.1543922E+04  0.7818609E-02  0.8855760E-01
       -1   -1    0    0    0  501  0.00000000000E+00  0.00000000000E+00  0.10020654424E+04  0.10020654425E+04  0.50400001928E-02 0.  1.
        1   -1    0    0  501    0  0.00000000000E+00  0.00000000000E+00 -0.59469534744E+03  0.59469534747E+03  0.50400001928E-02 0. -1.
    10030    2    1    2    0    0  0.00000000000E+00  0.00000000000E+00  0.40737009500E+03  0.15967607899E+04  0.15439218328E+04 0.  0.
        2    1    3    3  502    0  0.26303525493E+03  0.32485475972E+03 -0.46752981696E+03  0.62713817457E+03  0.25500000920E-02 0. -1.
       -2    1    3    3    0  502 -0.26303525493E+03 -0.32485475972E+03  0.87489991196E+03  0.96962261535E+03  0.25500000920E-02 0.  1.
</event>
<event>
 5   0  0.2781000E-04  0.1607073E+04  0.7818609E-02  0.8816214E-01
        4   -1    0    0  501    0  0.00000000000E+00  0.00000000000E+00  0.99809946284E+03  0.99810027082E+03  0.12699999809E+01 0.  1.
       -4   -1    0    0    0  501  0.00000000000E+00  0.00000000000E+00 -0.64689886131E+03  0.64690010795E+03  0.12699999809E+01 0. -1.
    10030    2    1    2    0    0  0.00000000000E+00  0.00000000000E+00  0.35120060152E+03  0.16450003788E+04  0.16070732353E+04 0.  0.
        5    1    3    3  502    0  0.79324150077E+03 -0.15498729482E+02  0.30578967055E+03  0.85029506747E+03  0.46999998093E+01 0.  1.
       -5    1    3    3    0  502 -0.79324150077E+03  0.15498729482E+02  0.45410930976E+02  0.79470531130E+03  0.46999998093E+01 0. -1.
</event>
<event>
 5   0  0.7395088E-04  0.1614571E+04  0.7818609E-02  0.8811646E-01
        2   -1    0    0  501    0  0.00000000000E+00  0.00000000000E+00  0.10666974063E+04  0.10666974063E+04  0.25500000920E-02 0. -1.
       -2   -1    0    0    0  501  0.00000000000E+00  0.00000000000E+00 -0.61096021791E+03  0.61096021792E+03  0.25500000920E-02 0.  1.
    10030    2    1    2    0    0  0.00000000000E+00  0.00000000000E+00  0.45573718835E+03  0.16776576242E+04  0.16145707538E+04 0.  0.
        1    1    3    3  502    0  0.75183712369E+03 -0.28188570051E+03  0.14098893450E+03  0.81522787513E+03  0.50400001928E-02 0.  1.
       -1    1    3    3    0  502 -0.75183712369E+03  0.28188570051E+03  0.31474825385E+03  0.86242974905E+03  0.50400001928E-02 0. -1.
</event>
<event>
 5   0  0.3837251E-04  0.1582798E+04  0.7818609E-02  0.8831186E-01
       -1   -1    0    0    0  501  0.00000000000E+00  0.00000000000E+00  0.65320842022E+03  0.65320842024E+03  0.50400001928E-02 0.  1.
        1   -1    0    0  501    0  0.00000000000E+00  0.00000000000E+00 -0.95882419624E+03  0.95882419626E+03  0.50400001928E-02 0. -1.
    10030    2    1    2    0    0  0.00000000000E+00  0.00000000000E+00 -0.30561577602E+03  0.16120326165E+04  0.15827975721E+04 0.  0.
        4    1    3    3  502    0 -0.21275115683E+03  0.99998451689E+02 -0.92244257920E+03  0.95192681961E+03  0.12699999809E+01 0. -1.
       -4    1    3    3    0  502  0.21275115683E+03 -0.99998451689E+02  0.61682680318E+03  0.66010579689E+03  0.12699999809E+01 0.  1.
</event>
<event>
 5   0  0.4110803E-04  0.1621279E+04  0.7818609E-02  0.8807581E-01
       -1   -1    0    0    0  501  0.00000000000E+00  0.00000000000E+00  0.27754613436E+03  0.27754613440E+03  0.50400001928E-02 0.  1.
        1   -1    0    0  501    0  0.00000000000E+00  0.00000000000E+00 -0.23676650935E+04  0.23676650935E+04  0.50400001928E-02 0. -1.
    10030    2    1    2    0    0  0.00000000000E+00  0.00000000000E+00 -0.20901189591E+04  0.26452112279E+04  0.16212788708E+04 0.  0.
        5    1    3    3  502    0 -0.44306494858E+03 -0.67200264041E+03 -0.88839497440E+03  0.11988168409E+04  0.46999998093E+01 0.  1.
       -5    1    3    3    0  502  0.44306494858E+03  0.67200264041E+03 -0.12017239847E+04  0.14463943871E+04  0.46999998093E+01 0. -1.
</event>
<event>
 5   0  0.3889847E-04  0.1560335E+04  0.7818609E-02  0.8845293E-01
        1   -1    0    0  501    0  0.00000000000E+00  0.00000000000E+00  0.18790677279E+04  0.18790677279E+04  0.50400001928E-02 0. -1.
       -1   -1    0    0    0  501  0.00000000000E+00  0.00000000000E+00 -0.32391674079E+03  0.32391674083E+03  0.50400001928E-02 0.  1.
    10030    2    1    2    0    0  0.00000000000E+00  0.00000000000E+00  0.15551509871E+04  0.22029844687E+04  0.15603352130E+04 0.  0.
        1    1    3    3  502    0  0.40582396191E+03 -0.58962897947E+03  0.12157230179E+04  0.14107933505E+04  0.50400001928E-02 0. -1.
       -1    1    3    3    0  502 -0.40582396191E+03  0.58962897947E+03  0.33942796914E+03  0.79219111820E+03  0.50400001928E-02 0.  1.
</event>
<event>
 5   0  0.3973227E-04  0.1583924E+04  0.7818609E-02  0.8830485E-01
       -1   -1    0    0    0  501  0.00000000000E+00  0.00000000000E+00  0.14346630108E+04  0.14346630108E+04  0.50400001928E-02 0.  1.
        1   -1    0    0  501    0  0.00000000000E+00  0.00000000000E+00 -0.43717848679E+03  0.43717848682E+03  0.50400001928E-02 0. -1.
    10030    2    1    2    0    0  0.00000000000E+00  0.00000000000E+00  0.99748452399E+03  0.18718414976E+04  0.15839239933E+04 0.  0.
        3    1    3    3  502    0 -0.31257166344E+02  0.38811676894E+03  0.13137318786E+04  0.13702200903E+04  0.10100000352E+00 0.  1.
       -3    1    3    3    0  502  0.31257166344E+02 -0.38811676894E+03 -0.31624735461E+03  0.50162140732E+03  0.10100000352E+00 0. -1.
</event>
<event>
 5   0  0.7488884E-04  0.1615548E+04  0.7818609E-02  0.8811053E-01
       -2   -1    0    0    0  501  0.00000000000E+00  0.00000000000E+00  0.14155069582E+04  0.14155069582E+04  0.25500000920E-02 0.  1.
        2   -1    0    0  501    0  0.00000000000E+00  0.00000000000E+00 -0.46096468487E+03  0.46096468488E+03  0.25500000920E-02 0. -1.
    10030    2    1    2    0    0  0.00000000000E+00  0.00000000000E+00  0.95454227332E+03  0.18764716431E+04  0.16155478562E+04 0.  0.
        3    1    3    3  502    0 -0.48924105893E+03  0.37673061245E+03  0.10821658435E+04  0.12459396820E+04  0.10100000352E+00 0.  1.
       -3    1    3    3    0  502  0.48924105893E+03 -0.37673061245E+03 -0.12762357017E+03  0.63053196110E+03  0.10100000352E+00 0. -1.
</event>
<event>
 5   0  0.7395088E-04  0.1606550E+04  0.7818609E-02  0.8816534E-01
        2   -1    0    0  501    0  0.00000000000E+00  0.00000000000E+00  0.13583654358E+04  0.13583654358E+04  0.25500000920E-02 0. -1.
       -2   -1    0    0    0  501  0.00000000000E+00  0.00000000000E+00 -0.47501971233E+03  0.47501971233E+03  0.25500000920E-02 0.  1.
    10030    2    1    2    0    0  0.00000000000E+00  0.00000000000E+00  0.88334572345E+03  0.18333851481E+04  0.16065495430E+04 0.  0.
        1    1    3    3  502    0  0.24394904990E+02 -0.60125088479E+02  0.13553699178E+04  0.13569221613E+04  0.50400001928E-02 0. -1.
       -1    1    3    3    0  502 -0.24394904990E+02  0.60125088479E+02 -0.47202419440E+03  0.47646298679E+03  0.50400001928E-02 0.  1.
</event>
<event>
 5   0  0.2781000E-04  0.1601896E+04  0.7818609E-02  0.8819384E-01
       -3   -1    0    0    0  501  0.00000000000E+00  0.00000000000E+00  0.68623034458E+03  0.68623035201E+03  0.10100000352E+00 0.  1.
        3   -1    0    0  501    0  0.00000000000E+00  0.00000000000E+00 -0.93484342863E+03  0.93484343409E+03  0.10100000352E+00 0. -1.
    10030    2    1    2    0    0  0.00000000000E+00  0.00000000000E+00 -0.24861308406E+03  0.16210737861E+04  0.16018962995E+04 0.  0.
        4    1    3    3  502    0 -0.42403399709E+03  0.65360976495E+02  0.56013314963E+03  0.70556902295E+03  0.12699999809E+01 0.  1.
       -4    1    3    3    0  502  0.42403399709E+03 -0.65360976495E+02 -0.80874623368E+03  0.91550476314E+03  0.12699999809E+01 0. -1.
</event>
<event>
 5   0  0.7553070E-04  0.1641830E+04  0.7818609E-02  0.8795254E-01
       -2   -1    0    0    0  501  0.00000000000E+00  0.00000000000E+00  0.50756249933E+03  0.50756249933E+03  0.25500000920E-02 0.  1.
        2   -1    0    0  501    0  0.00000000000E+00  0.00000000000E+00 -0.13277216156E+04  0.13277216156E+04  0.25500000920E-02 0. -1.
    10030    2    1    2    0    0  0.00000000000E+00  0.00000000000E+00 -0.82015911626E+03  0.18352841149E+04  0.16418303221E+04 0.  0.
        4    1    3    3  502    0  0.52674166131E+03 -0.10751829159E+03  0.28340927170E+03  0.60773299151E+03  0.12699999809E+01 0.  1.
       -4    1    3    3    0  502 -0.52674166131E+03  0.10751829159E+03 -0.11035683880E+04  0.12275511234E+04  0.12699999809E+01 0. -1.
</event>
<event>
 5   0  0.3950195E-04  0.1606172E+04  0.7818609E-02  0.8816765E-01
        1   -1    0    0  501    0  0.00000000000E+00  0.00000000000E+00  0.68397474547E+03  0.68397474549E+03  0.50400001928E-02 0. -1.
       -1   -1    0    0    0  501  0.00000000000E+00  0.00000000000E+00 -0.94294045195E+03  0.94294045197E+03  0.50400001928E-02 0.  1.
    10030    2    1    2    0    0  0.00000000000E+00  0.00000000000E+00 -0.25896570649E+03  0.16269151975E+04  0.16061724137E+04 0.  0.
        2    1    3    3  502    0  0.60860783962E+03  0.31628488116E+03 -0.55261907999E+03  0.88081069253E+03  0.25500000920E-02 0.  1.
       -2    1    3    3    0  502 -0.60860783962E+03 -0.31628488116E+03  0.29365337350E+03  0.74610450493E+03  0.25500000920E-02 0. -1.
</event>
<event>
 5   0  0.7415102E-04  0.1639012E+04  0.7818609E-02  0.8796934E-01
        2   -1    0    0  501    0  0.00000000000E+00  0.00000000000E+00  0.11700453920E+04  0.11700453920E+04  0.25500000920E-02 0.  1.
       -2   -1    0    0    0  501  0.00000000000E+00  0.00000000000E+00 -0.57398619594E+03  0.57398619595E+03  0.25500000920E-02 0. -1.
    10030    2    1    2    0    0  0.00000000000E+00  0.00000000000E+00  0.59605919608E+03  0.17440315880E+04  0.16390117799E+04 0.  0.
        5    1    3    3  502    0  0.17539668247E+03 -0.32046001350E+03  0.10785917317E+04  0.11387891948E+04  0.46999998093E+01 0.  1.
       -5    1    3    3    0  502 -0.17539668247E+03  0.32046001350E+03 -0.48253253567E+03  0.60524239314E+03  0.46999998093E+01 0. -1.
</event>
<event>
 5   0  0.7415102E-04  0.1573691E+04  0.7818609E-02  0.8836876E-01
        2   -1    0    0  501    0  0.00000000000E+00  0.00000000000E+00  0.17595042669E+04  0.17595042669E+04  0.25500000920E-02 0.  1.
       -2   -1    0    0    0  501  0.00000000000E+00  0.00000000000E+00 -0.35187506145E+03  0.35187506145E+03  0.25500000920E-02 0. -1.
    10030    2    1    2    0    0  0.00000000000E+00  0.00000000000E+00  0.14076292054E+04  0.21113793283E+04  0.15736907854E+04 0.  0.
        5    1    3    3  502    0 -0.35149797706E+03 -0.57954463206E+02  0.16450863778E+04  0.16832233446E+04  0.46999998093E+01 0.  1.
       -5    1    3    3    0  502  0.35149797706E+03  0.57954463206E+02 -0.23745717233E+03  0.42815598369E+03  0.46999998093E+01 0. -1.
</event>
<event>
 5   0  0.7488884E-04  0.1610962E+04  0.7818609E-02  0.8813842E-01
        2   -1    0    0  501    0  0.00000000000E+00  0.00000000000E+00  0.20650029688E+04  0.20650029688E+04  0.25500000920E-02 0.  1.
       -2   -1    0    0    0  501  0.00000000000E+00  0.00000000000E+00 -0.31418804809E+03  0.31418804810E+03  0.25500000920E-02 0. -1.
    10030    2    1    2    0    0  0.00000000000E+00  0.00000000000E+00  0.17508149207E+04  0.23791910169E+04  0.16109615167E+04 0.  0.
        3    1    3    3  502    0 -0.11187982920E+03 -0.28815461699E+03 -0.22310373862E+03  0.38121577599E+03  0.10100000352E+00 0. -1.
       -3    1    3    3    0  502  0.11187982920E+03  0.28815461699E+03  0.19739186593E+04  0.19979752409E+04  0.10100000352E+00 0.  1.
</event>
<event>
 5   0  0.7415102E-04  0.1588380E+04  0.7818609E-02  0.8827719E-01
        2   -1    0    0  501    0  0.00000000000E+00  0.00000000000E+00  0.21324115477E+04  0.21324115477E+04  0.25500000920E-02 0.  1.
       -2   -1    0    0    0  501  0.00000000000E+00  0.00000000000E+00 -0.29578595948E+03  0.29578595949E+03  0.25500000920E-02 0. -1.
    10030    2    1    2    0    0  0.00000000000E+00  0.00000000000E+00  0.18366255882E+04  0.24281975072E+04  0.15883795462E+04 0.  0.
        5    1    3    3  502    0 -0.31248413918E+03  0.72912041939E+03  0.86005282890E+03  0.11700324276E+04  0.46999998093E+01 0.  1.
       -5    1    3    3    0  502  0.31248413918E+03 -0.72912041939E+03  0.97657275935E+03  0.12581650796E+04  0.46999998093E+01 0. -1.
</event>
<event>
 5   0  0.7770905E-04  0.1589228E+04  0.7818609E-02  0.8827193E-01
        2   -1    0    0  501    0  0.00000000000E+00  0.00000000000E+00  0.28959468130E+04  0.28959468130E+04  0.25500000920E-02 0. -1.
       -2   -1    0    0    0  501  0.00000000000E+00  0.00000000000E+00 -0.21803274652E+03  0.21803274653E+03  0.25500000920E-02 0.  1.
    10030    2    1    2    0    0  0.00000000000E+00  0.00000000000E+00  0.26779140665E+04  0.31139795596E+04  0.15892277841E+04 0.  0.
        2    1    3    3  502    0  0.22578280036E+02  0.59179620446E+03  0.23770454501E+04  0.24497096967E+04  0.25500000920E-02 0. -1.
       -2    1    3    3    0  502 -0.22578280036E+02 -0.59179620446E+03  0.30086861643E+03  0.66426986286E+03  0.25500000920E-02 0.  1.
</event>
<event>
 5   0  0.7415102E-04  0.1604442E+04  0.7818609E-02  0.8817824E-01
       -2   -1    0    0    0  501  0.00000000000E+00  0.00000000000E+00  0.82124806875E+03  0.82124806876E+03  0.25500000920E-02 0. -1.
        2   -1    0    0  501    0  0.00000000000E+00  0.00000000000E+00 -0.78363508224E+03  0.78363508224E+03  0.25500000920E-02 0.  1.
    10030    2    1    2    0    0  0.00000000000E+00  0.00000000000E+00  0.37612986515E+02  0.16048831510E+04  0.16044423304E+04 0.  0.
        5    1    3    3  502    0 -0.73219656043E+02  0.35478065990E+03  0.73475888290E+03  0.81922105727E+03  0.46999998093E+01 0. -1.
       -5    1    3    3    0  502  0.73219656043E+02 -0.35478065990E+03 -0.69714589639E+03  0.78566209373E+03  0.46999998093E+01 0.  1.
</event>
<event>
 5   0  0.7770905E-04  0.1576871E+04  0.7818609E-02  0.8834884E-01
       -2   -1    0    0    0  501  0.00000000000E+00  0.00000000000E+00  0.28456739727E+03  0.28456739728E+03  0.25500000920E-02 0.  1.
        2   -1    0    0  501    0  0.00000000000E+00  0.00000000000E+00 -0.21844768810E+04  0.21844768810E+04  0.25500000920E-02 0. -1.
    10030    2    1    2    0    0  0.00000000000E+00  0.00000000000E+00 -0.18999094838E+04  0.24690442783E+04  0.15768714601E+04 0.  0.
        2    1    3    3  502    0 -0.26850612540E+03  0.54055246178E+03 -0.17442553247E+04  0.18457299751E+04  0.25500000920E-02 0. -1.
       -2    1    3    3    0  502  0.26850612540E+03 -0.54055246178E+03 -0.15565415905E+03  0.62331430318E+03  0.25500000920E-02 0.  1.
</event>
<event>
 5   0  0.7553070E-04  0.1601375E+04  0.7818609E-02  0.8819704E-01
       -2   -1    0    0    0  501  0.00000000000E+00  0.00000000000E+00  0.54616433954E+03  0.54616433955E+03  0.25500000920E-02 0.  1.
        2   -1    0    0  501    0  0.00000000000E+00  0.00000000000E+00 -0.11738232471E+04  0.11738232471E+04  0.25500000920E-02 0. -1.
    10030    2    1    2    0    0  0.00000000000E+00  0.00000000000E+00 -0.62765890752E+03  0.17199875866E+04  0.16013749074E+04 0.  0.
        4    1    3    3  502    0 -0.76105024247E+03  0.32059538232E+01 -0.58103543127E+03  0.95750275978E+03  0.12699999809E+01 0.  1.
       -4    1    3    3    0  502  0.76105024247E+03 -0.32059538232E+01 -0.46623476246E+02  0.76248482683E+03  0.12699999809E+01 0. -1.
</event>
<event>
 5   0  0.7395088E-04  0.1207196E+04  0.7818609E-02  0.9106581E-01
        2   -1    0    0  501    0  0.00000000000E+00  0.00000000000E+00  0.11050054506E+04  0.11050054506E+04  0.25500000920E-02 0.  1.
       -2   -1    0    0    0  501  0.00000000000E+00  0.00000000000E+00 -0.32970947586E+03  0.32970947587E+03  0.25500000920E-02 0. -1.
    10030    2    1    2    0    0  0.00000000000E+00  0.00000000000E+00  0.77529597476E+03  0.14347149265E+04  0.12071963684E+04 0.  0.
        1    1    3    3  502    0 -0.85159347226E+02 -0.12730758432E+03 -0.30622982280E+03  0.34239748808E+03  0.50400001928E-02 0. -1.
       -1    1    3    3    0  502  0.85159347226E+02  0.12730758432E+03  0.10815257976E+04  0.10923174384E+04  0.50400001928E-02 0.  1.
</event>
<event>
 5   0  0.3889847E-04  0.1571368E+04  0.7818609E-02  0.8838333E-01
       -1   -1    0    0    0  501  0.00000000000E+00  0.00000000000E+00  0.10181418170E+04  0.10181418171E+04  0.50400001928E-02 0.  1.
        1   -1    0    0  501    0  0.00000000000E+00  0.00000000000E+00 -0.60630009379E+03  0.60630009381E+03  0.50400001928E-02 0. -1.
    10030    2    1    2    0    0  0.00000000000E+00  0.00000000000E+00  0.41184172325E+03  0.16244419109E+04  0.15713681672E+04 0.  0.
        1    1    3    3  502    0 -0.53411375042E+03  0.25138935183E+03 -0.33007491130E+03  0.67633094835E+03  0.50400001928E-02 0. -1.
       -1    1    3    3    0  502  0.53411375042E+03 -0.25138935183E+03  0.74191663455E+03  0.94811096252E+03  0.50400001928E-02 0.  1.
</event>
<event>
 5   0  0.4110803E-04  0.1572108E+04  0.7818609E-02  0.8837869E-01
       -1   -1    0    0    0  501  0.00000000000E+00  0.00000000000E+00  0.85176155056E+03  0.85176155058E+03  0.50400001928E-02 0. -1.
        1   -1    0    0  501    0  0.00000000000E+00  0.00000000000E+00 -0.72541561524E+03  0.72541561525E+03  0.50400001928E-02 0.  1.
    10030    2    1    2    0    0  0.00000000000E+00  0.00000000000E+00  0.12634593533E+03  0.15771771658E+04  0.15721083032E+04 0.  0.
        5    1    3    3  502    0  0.68707778380E+03  0.10072083524E+03  0.43265171543E+03  0.81818712072E+03  0.46999998093E+01 0.  1.
       -5    1    3    3    0  502 -0.68707778380E+03 -0.10072083524E+03 -0.30630578011E+03  0.75899004511E+03  0.46999998093E+01 0. -1.
</event>
<event>
 5   0  0.3950195E-04  0.1601355E+04  0.7818609E-02  0.8819716E-01
        1   -1    0    0  501    0  0.00000000000E+00  0.00000000000E+00  0.11348597452E+04  0.11348597452E+04  0.50400001928E-02 0.  1.
       -1   -1    0    0    0  501  0.00000000000E+00  0.00000000000E+00 -0.56490182241E+03  0.56490182244E+03  0.50400001928E-02 0. -1.
    10030    2    1    2    0    0  0.00000000000E+00  0.00000000000E+00  0.56995792281E+03  0.16997615677E+04  0.16013548492E+04 0.  0.
        2    1    3    3  502    0  0.53789286094E+03 -0.39675716641E+03  0.75290887508E+03  0.10067853560E+04  0.25500000920E-02 0.  1.
       -2    1    3    3    0  502 -0.53789286094E+03  0.39675716641E+03 -0.18295095227E+03  0.69297621163E+03  0.25500000920E-02 0. -1.
</event>
<event>
 5   0  0.4110803E-04  0.1592223E+04  0.7818609E-02  0.8825340E-01
        1   -1    0    0  501    0  0.00000000000E+00  0.00000000000E+00  0.12276165425E+04  0.12276165425E+04  0.50400001928E-02 0.  1.
       -1   -1    0    0    0  501  0.00000000000E+00  0.00000000000E+00 -0.51627980176E+03  0.51627980179E+03  0.50400001928E-02 0. -1.
    10030    2    1    2    0    0  0.00000000000E+00  0.00000000000E+00  0.71133674075E+03  0.17438963443E+04  0.15922231316E+04 0.  0.
        5    1    3    3  502    0 -0.40822064993E+03  0.59001255666E+02 -0.39011059823E+03  0.56774432278E+03  0.46999998093E+01 0. -1.
       -5    1    3    3    0  502  0.40822064993E+03 -0.59001255666E+02  0.11014473390E+04  0.11761520215E+04  0.46999998093E+01 0.  1.
</event>
<event>
 5   0  0.7395088E-04  0.1609285E+04  0.7818609E-02  0.8814864E-01
       -2   -1    0    0    0  501  0.00000000000E+00  0.00000000000E+00  0.11859986019E+04  0.11859986019E+04  0.25500000920E-02 0.  1.
        2   -1    0    0  501    0  0.00000000000E+00  0.00000000000E+00 -0.54591113522E+03  0.54591113523E+03  0.25500000920E-02 0. -1.
    10030    2    1    2    0    0  0.00000000000E+00  0.00000000000E+00  0.64008746672E+03  0.17319097372E+04  0.16092853609E+04 0.  0.
        1    1    3    3  502    0 -0.66653104343E+03  0.30189603068E+03  0.68028082669E+03  0.99909301288E+03  0.50400001928E-02 0.  1.
       -1    1    3    3    0  502  0.66653104343E+03 -0.30189603068E+03 -0.40193359972E+02  0.73281672429E+03  0.50400001928E-02 0. -1.
</event>
<event>
 5   0  0.7553070E-04  0.1604394E+04  0.7818609E-02  0.8817853E-01
        2   -1    0    0  501    0  0.00000000000E+00  0.00000000000E+00  0.13344012100E+04  0.13344012100E+04  0.25500000920E-02 0.  1.
       -2   -1    0    0    0  501  0.00000000000E+00  0.00000000000E+00 -0.48225352093E+03  0.48225352094E+03  0.25500000920E-02 0. -1.
    10030    2    1    2    0    0  0.00000000000E+00  0.00000000000E+00  0.85214768902E+03  0.18166547309E+04  0.16043935700E+04 0.  0.
        4    1    3    3  502    0  0.58025046373E+03  0.42151866715E+03  0.19154988456E+02  0.71745181991E+03  0.12699999809E+01 0. -1.
       -4    1    3    3    0  502 -0.58025046373E+03 -0.42151866715E+03  0.83299270057E+03  0.10992029110E+04  0.12699999809E+01 0.  1.
</event>
<event>
 5   0  0.3837251E-04  0.1626914E+04  0.7818609E-02  0.8804182E-01
        1   -1    0    0  501    0  0.00000000000E+00  0.00000000000E+00  0.13721973481E+04  0.13721973481E+04  0.50400001928E-02 0.  1.
       -1   -1    0    0    0  501  0.00000000000E+00  0.00000000000E+00 -0.48222815927E+03  0.48222815930E+03  0.50400001928E-02 0. -1.
    10030    2    1    2    0    0  0.00000000000E+00  0.00000000000E+00  0.88996918880E+03  0.18544255074E+04  0.16269138900E+04 0.  0.
        4    1    3    3  502    0  0.63710504829E+03  0.45776706155E+03  0.19983349012E+03  0.80956072154E+03  0.12699999809E+01 0.  1.
       -4    1    3    3    0  502 -0.63710504829E+03 -0.45776706155E+03  0.69013569868E+03  0.10448647858E+04  0.12699999809E+01 0. -1.
</event>
<event>
 5   0  0.3950195E-04  0.1600650E+04  0.7818609E-02  0.8820149E-01
        1   -1    0    0  501    0  0.00000000000E+00  0.00000000000E+00  0.17864764642E+04  0.17864764642E+04  0.50400001928E-02 0.  1.
       -1   -1    0    0    0  501  0.00000000000E+00  0.00000000000E+00 -0.35853820772E+03  0.35853820776E+03  0.50400001928E-02 0. -1.
    10030    2    1    2    0    0  0.00000000000E+00  0.00000000000E+00  0.14279382565E+04  0.21450146720E+04  0.16006499551E+04 0.  0.
        2    1    3    3  502    0 -0.15633910627E+03 -0.62745962456E+03  0.82031070561E+02  0.65182558491E+03  0.25500000920E-02 0. -1.
       -2    1    3    3    0  502  0.15633910627E+03  0.62745962456E+03  0.13459071859E+04  0.14931890871E+04  0.25500000920E-02 0.  1.
</event>
<event>
 5   0  0.3950195E-04  0.1599144E+04  0.7818609E-02  0.8821074E-01
       -1   -1    0    0    0  501  0.00000000000E+00  0.00000000000E+00  0.50947201782E+03  0.50947201784E+03  0.50400001928E-02 0. -1.
        1   -1    0    0  501    0  0.00000000000E+00  0.00000000000E+00 -0.12548581135E+04  0.12548581135E+04  0.50400001928E-02 0.  1.
    10030    2    1    2    0    0  0.00000000000E+00  0.00000000000E+00 -0.74538609572E+03  0.17643301314E+04  0.15991436398E+04 0.  0.
        2    1    3    3  502    0 -0.52930858551E+03 -0.56455285649E+03 -0.15085742087E+03  0.78844496822E+03  0.25500000920E-02 0. -1.
       -2    1    3    3    0  502  0.52930858551E+03  0.56455285649E+03 -0.59452867484E+03  0.97588516316E+03  0.25500000920E-02 0.  1.
</event>
<event>
 5   0  0.7770905E-04  0.1751971E+04  0.7818609E-02  0.8732266E-01
       -2   -1    0    0    0  501  0.00000000000E+00  0.00000000000E+00  0.55605486828E+03  0.55605486829E+03  0.25500000920E-02 0. -1.
        2   -1    0    0  501    0  0.00000000000E+00  0.00000000000E+00 -0.13799912949E+04  0.13799912949E+04  0.25500000920E-02 0.  1.
    10030    2    1    2    0    0  0.00000000000E+00  0.00000000000E+00 -0.82393642662E+03  0.19360461632E+04  0.17519713214E+04 0.  0.
        2    1    3    3  502    0  0.96137550854E+02  0.76265622206E+03  0.52244143383E+02  0.77046504934E+03  0.25500000920E-02 0. -1.
       -2    1    3    3    0  502 -0.96137550854E+02 -0.76265622206E+03 -0.87618057001E+03  0.11655811139E+04  0.25500000920E-02 0.  1.
</event>
<event>
 5   0  0.3889847E-04  0.1612990E+04  0.7818609E-02  0.8812607E-01
        1   -1    0    0  501    0  0.00000000000E+00  0.00000000000E+00  0.84353800245E+03  0.84353800247E+03  0.50400001928E-02 0.  1.
       -1   -1    0    0    0  501  0.00000000000E+00  0.00000000000E+00 -0.77107867066E+03  0.77107867068E+03  0.50400001928E-02 0. -1.
    10030    2    1    2    0    0  0.00000000000E+00  0.00000000000E+00  0.72459331790E+02  0.16146166731E+04  0.16129899710E+04 0.  0.
        1    1    3    3  502    0 -0.61843780530E+03 -0.51334182321E+03  0.10299787175E+03  0.81030470076E+03  0.50400001928E-02 0.  1.
       -1    1    3    3    0  502  0.61843780530E+03  0.51334182321E+03 -0.30538539956E+02  0.80431197238E+03  0.50400001928E-02 0. -1.
</event>
<event>
 5   0  0.3950195E-04  0.1608205E+04  0.7818609E-02  0.8815523E-01
        1   -1    0    0  501    0  0.00000000000E+00  0.00000000000E+00  0.11054485584E+04  0.11054485584E+04  0.50400001928E-02 0. -1.
       -1   -1    0    0    0  501  0.00000000000E+00  0.00000000000E+00 -0.58490346461E+03  0.58490346463E+03  0.50400001928E-02 0.  1.
    10030    2    1    2    0    0  0.00000000000E+00  0.00000000000E+00  0.52054509381E+03  0.16903520231E+04  0.16082048275E+04 0.  0.
        2    1    3    3  502    0  0.35229061610E+02  0.30013361734E+02 -0.58350242170E+03  0.58533491678E+03  0.25500000920E-02 0.  1.
       -2    1    3    3    0  502 -0.35229061610E+02 -0.30013361734E+02  0.11040475155E+04  0.11050171063E+04  0.25500000920E-02 0. -1.
</event>
<event>
 5   0  0.3973227E-04  0.1593921E+04  0.7818609E-02  0.8824291E-01
        1   -1    0    0  501    0  0.00000000000E+00  0.00000000000E+00  0.64304056512E+03  0.64304056514E+03  0.50400001928E-02 0.  1.
       -1   -1    0    0    0  501  0.00000000000E+00  0.00000000000E+00 -0.98772275553E+03  0.98772275555E+03  0.50400001928E-02 0. -1.
    10030    2    1    2    0    0  0.00000000000E+00  0.00000000000E+00 -0.34468219041E+03  0.16307633207E+04  0.15939206993E+04 0.  0.
        3    1    3    3  502    0 -0.81648683439E+02 -0.77797651608E+03 -0.32828408503E+03  0.84834215843E+03  0.10100000352E+00 0. -1.
       -3    1    3    3    0  502  0.81648683439E+02  0.77797651608E+03 -0.16398105377E+02  0.78242116226E+03  0.10100000352E+00 0.  1.
</event>
<event>
 5   0  0.3837251E-04  0.1591451E+04  0.7818609E-02  0.8825817E-01
        1   -1    0    0  501    0  0.00000000000E+00  0.00000000000E+00  0.12593598308E+04  0.12593598309E+04  0.50400001928E-02 0. -1.
       -1   -1    0    0    0  501  0.00000000000E+00  0.00000000000E+00 -0.50277851422E+03  0.50277851425E+03  0.50400001928E-02 0.  1.
    10030    2    1    2    0    0  0.00000000000E+00  0.00000000000E+00  0.75658131663E+03  0.17621383451E+04  0.15914509916E+04 0.  0.
        4    1    3    3  502    0  0.39253867201E+03  0.15153659972E+03 -0.36951691964E+03  0.55999492576E+03  0.12699999809E+01 0.  1.
       -4    1    3    3    0  502 -0.39253867201E+03 -0.15153659972E+03  0.11260982363E+04  0.12021434194E+04  0.12699999809E+01 0. -1.
</event>
<event>
 5   0  0.7553070E-04  0.1598929E+04  0.7818609E-02  0.8821207E-01
        2   -1    0    0  501    0  0.00000000000E+00  0.00000000000E+00  0.13802170533E+04  0.13802170533E+04  0.25500000920E-02 0.  1.
       -2   -1    0    0    0  501  0.00000000000E+00  0.00000000000E+00 -0.46307434472E+03  0.46307434473E+03  0.25500000920E-02 0. -1.
    10030    2    1    2    0    0  0.00000000000E+00  0.00000000000E+00  0.91714270854E+03  0.18432913980E+04  0.15989285256E+04 0.  0.
        4    1    3    3  502    0 -0.42186615267E+03 -0.65296911427E+03  0.24350836778E+03  0.81463958474E+03  0.12699999809E+01 0.  1.
       -4    1    3    3    0  502  0.42186615267E+03  0.65296911427E+03  0.67363434076E+03  0.10286518133E+04  0.12699999809E+01 0. -1.
</event>
<event>
 5   0  0.7770905E-04  0.1568148E+04  0.7818609E-02  0.8840358E-01
       -2   -1    0    0    0  501  0.00000000000E+00  0.00000000000E+00  0.29811390170E+03  0.29811390171E+03  0.25500000920E-02 0. -1.
        2   -1    0    0  501    0  0.00000000000E+00  0.00000000000E+00 -0.20622056699E+04  0.20622056699E+04  0.25500000920E-02 0.  1.
    10030    2    1    2    0    0  0.00000000000E+00  0.00000000000E+00 -0.17640917682E+04  0.23603195716E+04  0.15681481797E+04 0.  0.
        2    1    3    3  502    0 -0.59330966502E+03  0.49191997700E+02 -0.11406431806E+03  0.60617396835E+03  0.25500000920E-02 0. -1.
       -2    1    3    3    0  502  0.59330966502E+03 -0.49191997700E+02 -0.16500274502E+04  0.17541456033E+04  0.25500000920E-02 0.  1.
</event>
<event>
 5   0  0.7415102E-04  0.1551956E+04  0.7818609E-02  0.8850619E-01
       -2   -1    0    0    0  501  0.00000000000E+00  0.00000000000E+00  0.53516991610E+03  0.53516991611E+03  0.25500000920E-02 0. -1.
        2   -1    0    0  501    0  0.00000000000E+00  0.00000000000E+00 -0.11251415178E+04  0.11251415178E+04  0.25500000920E-02 0.  1.
    10030    2    1    2    0    0  0.00000000000E+00  0.00000000000E+00 -0.58997160166E+03  0.16603114339E+04  0.15519560453E+04 0.  0.
        5    1    3    3  502    0  0.36566793517E+03  0.24273955307E+03  0.38960136751E+03  0.58689594052E+03  0.46999998093E+01 0. -1.
       -5    1    3    3    0  502 -0.36566793517E+03 -0.24273955307E+03 -0.97957296917E+03  0.10734154933E+04  0.46999998093E+01 0.  1.
</event>
<event>
 5   0  0.7488884E-04  0.1580512E+04  0.7818609E-02  0.8832611E-01
        2   -1    0    0  501    0  0.00000000000E+00  0.00000000000E+00  0.42505726851E+03  0.42505726852E+03  0.25500000920E-02 0. -1.
       -2   -1    0    0    0  501  0.00000000000E+00  0.00000000000E+00 -0.14692240956E+04  0.14692240956E+04  0.25500000920E-02 0.  1.
    10030    2    1    2    0    0  0.00000000000E+00  0.00000000000E+00 -0.10441668270E+04  0.18942813641E+04  0.15805117917E+04 0.  0.
        3    1    3    3  502    0  0.38781965097E+03 -0.31996861179E+03 -0.12528100365E+04  0.13499322176E+04  0.10100000352E+00 0.  1.
       -3    1    3    3    0  502 -0.38781965097E+03  0.31996861179E+03  0.20864320949E+03  0.54434914649E+03  0.10100000352E+00 0. -1.
</event>
<event>
 5   0  0.7395088E-04  0.1501165E+04  0.7818609E-02  0.8883678E-01
       -2   -1    0    0    0  501  0.00000000000E+00  0.00000000000E+00  0.63780469940E+03  0.63780469940E+03  0.25500000920E-02 0.  1.
        2   -1    0    0  501    0  0.00000000000E+00  0.00000000000E+00 -0.88330244415E+03  0.88330244415E+03  0.25500000920E-02 0. -1.
    10030    2    1    2    0    0  0.00000000000E+00  0.00000000000E+00 -0.24549774475E+03  0.15211071436E+04  0.15011654804E+04 0.  0.
        1    1    3    3  502    0 -0.43371910311E+03 -0.60868117561E+03 -0.19272724434E+03  0.77184766935E+03  0.50400001928E-02 0.  1.
       -1    1    3    3    0  502  0.43371910311E+03  0.60868117561E+03 -0.52770500418E+02  0.74925947420E+03  0.50400001928E-02 0. -1.
</event>
<event>
 5   0  0.3973227E-04  0.1236398E+04  0.7818609E-02  0.9081581E-01
       -1   -1    0    0    0  501  0.00000000000E+00  0.00000000000E+00  0.22302988885E+03  0.22302988891E+03  0.50400001928E-02 0.  1.
        1   -1    0    0  501    0  0.00000000000E+00  0.00000000000E+00 -0.17135368570E+04  0.17135368570E+04  0.50400001928E-02 0. -1.
    10030    2    1    2    0    0  0.00000000000E+00  0.00000000000E+00 -0.14905069681E+04  0.19365667459E+04  0.12363978887E+04 0.  0.
        3    1    3    3  502    0  0.17540877794E+03 -0.38690784170E+03 -0.14487006405E+04  0.15097017830E+04  0.10100000352E+00 0. -1.
       -3    1    3    3    0  502 -0.17540877794E+03  0.38690784170E+03 -0.41806327575E+02  0.42686496293E+03  0.10100000352E+00 0.  1.
</event>
<event>
 5   0  0.3973227E-04  0.1541594E+04  0.7818609E-02  0.8857255E-01
        1   -1    0    0  501    0  0.00000000000E+00  0.00000000000E+00  0.13170581403E+04  0.13170581403E+04  0.50400001928E-02 0.  1.
       -1   -1    0    0    0  501  0.00000000000E+00  0.00000000000E+00 -0.45110257686E+03  0.45110257689E+03  0.50400001928E-02 0. -1.
    10030    2    1    2    0    0  0.00000000000E+00  0.00000000000E+00  0.86595556347E+03  0.17681607172E+04  0.15415943967E+04 0.  0.
        3    1    3    3  502    0 -0.35061713512E+03  0.66433656999E+03  0.63115081918E+03  0.98113547506E+03  0.10100000352E+00 0.  1.
       -3    1    3    3    0  502  0.35061713512E+03 -0.66433656999E+03  0.23480474428E+03  0.78702524217E+03  0.10100000352E+00 0. -1.
</event>
<event>
 5   0  0.7415102E-04  0.1597236E+04  0.7818609E-02  0.8822248E-01
        2   -1    0    0  501    0  0.00000000000E+00  0.00000000000E+00  0.13292411241E+04  0.13292411241E+04  0.25500000920E-02 0. -1.
       -2   -1    0    0    0  501  0.00000000000E+00  0.00000000000E+00 -0.47981558605E+03  0.47981558605E+03  0.25500000920E-02 0.  1.
    10030    2    1    2    0    0  0.00000000000E+00  0.00000000000E+00  0.84942553804E+03  0.18090567101E+04  0.15972358736E+04 0.  0.
        5    1    3    3  502    0 -0.14888786442E+03 -0.54889118382E+03  0.10597054400E+04  0.12026831825E+04  0.46999998093E+01 0.  1.
       -5    1    3    3    0  502  0.14888786442E+03  0.54889118382E+03 -0.21027990198E+03  0.60637352764E+03  0.46999998093E+01 0. -1.
</event>
<event>
 5   0  0.3837251E-04  0.1401841E+04  0.7818609E-02  0.8952487E-01
        1   -1    0    0  501    0  0.00000000000E+00  0.00000000000E+00  0.75131425579E+03  0.75131425581E+03  0.50400001928E-02 0. -1.
       -1   -1    0    0    0  501  0.00000000000E+00  0.00000000000E+00 -0.65390654653E+03  0.65390654655E+03  0.50400001928E-02 0.  1.
    10030    2    1    2    0    0  0.00000000000E+00  0.00000000000E+00  0.97407709262E+02  0.14052208024E+04  0.14018406620E+04 0.  0.
        4    1    3    3  502    0  0.51715102428E+03 -0.29696871470E+03 -0.32049400520E+03  0.67701818269E+03  0.12699999809E+01 0.  1.
       -4    1    3    3    0  502 -0.51715102428E+03  0.29696871470E+03  0.41790171446E+03  0.72820261966E+03  0.12699999809E+01 0. -1.
</event>
<event>
 5   0  0.7395088E-04  0.1617072E+04  0.7818609E-02  0.8810128E-01
       -2   -1    0    0    0  501  0.00000000000E+00  0.00000000000E+00  0.83849928197E+03  0.83849928197E+03  0.25500000920E-02 0. -1.
        2   -1    0    0  501    0  0.00000000000E+00  0.00000000000E+00 -0.77964338592E+03  0.77964338593E+03  0.25500000920E-02 0.  1.
    10030    2    1    2    0    0  0.00000000000E+00  0.00000000000E+00  0.58855896046E+02  0.16181426679E+04  0.16170719456E+04 0.  0.
        1    1    3    3  502    0 -0.38193979531E+03  0.70540588531E+03 -0.71905826459E+02  0.80538557112E+03  0.50400001928E-02 0. -1.
       -1    1    3    3    0  502  0.38193979531E+03 -0.70540588531E+03  0.13076172251E+03  0.81275709678E+03  0.50400001928E-02 0.  1.
</event>
<event>
 5   0  0.7488884E-04  0.1593685E+04  0.7818609E-02  0.8824437E-01
       -2   -1    0    0    0  501  0.00000000000E+00  0.00000000000E+00  0.38636081144E+03  0.38636081144E+03  0.25500000920E-02 0. -1.
        2   -1    0    0  501    0  0.00000000000E+00  0.00000000000E+00 -0.16434325894E+04  0.16434325894E+04  0.25500000920E-02 0.  1.
    10030    2    1    2    0    0  0.00000000000E+00  0.00000000000E+00 -0.12570717779E+04  0.20297934008E+04  0.15936849736E+04 0.  0.
        3    1    3    3  502    0  0.16832731239E+03  0.48548179334E+03 -0.14042399929E+04  0.14952981721E+04  0.10100000352E+00 0.  1.
       -3    1    3    3    0  502 -0.16832731239E+03 -0.48548179334E+03  0.14716821498E+03  0.53449522866E+03  0.10100000352E+00 0. -1.
</event>
<event>
 5   0  0.3889847E-04  0.1361500E+04  0.7818609E-02  0.8982168E-01
       -1   -1    0    0    0  501  0.00000000000E+00  0.00000000000E+00  0.29757831996E+03  0.29757832000E+03  0.50400001928E-02 0. -1.
        1   -1    0    0  501    0  0.00000000000E+00  0.00000000000E+00 -0.15573053903E+04  0.15573053903E+04  0.50400001928E-02 0.  1.
    10030    2    1    2    0    0  0.00000000000E+00  0.00000000000E+00 -0.12597270703E+04  0.18548837103E+04  0.13614996463E+04 0.  0.
        1    1    3    3  502    0 -0.63913069967E+03  0.12880584244E+03 -0.36309616018E+03  0.74626926633E+03  0.50400001928E-02 0.  1.
       -1    1    3    3    0  502  0.63913069967E+03 -0.12880584244E+03 -0.89663091014E+03  0.11086144440E+04  0.50400001928E-02 0. -1.
</event>
<event>
 5   0  0.7488884E-04  0.1410868E+04  0.7818609E-02  0.8945989E-01
        2   -1    0    0  501    0  0.00000000000E+00  0.00000000000E+00  0.17060453091E+04  0.17060453091E+04  0.25500000920E-02 0. -1.
       -2   -1    0    0    0  501  0.00000000000E+00  0.00000000000E+00 -0.29169048138E+03  0.29169048139E+03  0.25500000920E-02 0.  1.
    10030    2    1    2    0    0  0.00000000000E+00  0.00000000000E+00  0.14143548278E+04  0.19977357905E+04  0.14108680696E+04 0.  0.
        3    1    3    3  502    0 -0.50519604203E+03 -0.19511655063E+02  0.14037867904E+04  0.14920526494E+04  0.10100000352E+00 0. -1.
       -3    1    3    3    0  502  0.50519604203E+03  0.19511655063E+02  0.10568037352E+02  0.50568314109E+03  0.10100000352E+00 0.  1.
</event>
<event>
 5   0  0.7395088E-04  0.1548538E+04  0.7818609E-02  0.8852802E-01
        2   -1    0    0  501    0  0.00000000000E+00  0.00000000000E+00  0.11128391773E+04  0.11128391773E+04  0.25500000920E-02 0. -1.
       -2   -1    0    0    0  501  0.00000000000E+00  0.00000000000E+00 -0.53870560940E+03  0.53870560941E+03  0.25500000920E-02 0.  1.
    10030    2    1    2    0    0  0.00000000000E+00  0.00000000000E+00  0.57413356791E+03  0.16515447867E+04  0.15485382878E+04 0.  0.
        1    1    3    3  502    0 -0.76257833148E+03  0.11346746015E+03  0.36317266043E+03  0.85222940425E+03  0.50400001928E-02 0.  1.
       -1    1    3    3    0  502  0.76257833148E+03 -0.11346746015E+03  0.21096090748E+03  0.79931538248E+03  0.50400001928E-02 0. -1.
</event>
<event>
 5   0  0.3950195E-04  0.1598312E+04  0.7818609E-02  0.8821586E-01
       -1   -1    0    0    0  501  0.00000000000E+00  0.00000000000E+00  0.40775263866E+03  0.40775263869E+03  0.50400001928E-02 0. -1.
        1   -1    0    0  501    0  0.00000000000E+00  0.00000000000E+00 -0.15662690164E+04  0.15662690164E+04  0.50400001928E-02 0.  1.
    10030    2    1    2    0    0  0.00000000000E+00  0.00000000000E+00 -0.11585163778E+04  0.19740216551E+04  0.15983120150E+04 0.  0.
        2    1    3    3  502    0  0.22387862315E+03  0.73392232789E+03 -0.30340198859E+03  0.82511598455E+03  0.25500000920E-02 0. -1.
       -2    1    3    3    0  502 -0.22387862315E+03 -0.73392232789E+03 -0.85511438917E+03  0.11489056706E+04  0.25500000920E-02 0.  1.
</event>
<event>
 5   0  0.7553070E-04  0.1622655E+04  0.7818609E-02  0.8806750E-01
        2   -1    0    0  501    0  0.00000000000E+00  0.00000000000E+00  0.11211577202E+04  0.11211577202E+04  0.25500000920E-02 0.  1.
       -2   -1    0    0    0  501  0.00000000000E+00  0.00000000000E+00 -0.58711803341E+03  0.58711803342E+03  0.25500000920E-02 0. -1.
    10030    2    1    2    0    0  0.00000000000E+00  0.00000000000E+00  0.53403968681E+03  0.17082757536E+04  0.16226545114E+04 0.  0.
        4    1    3    3  502    0 -0.95449503646E+02  0.60270699378E+03 -0.29587441797E+03  0.67816636027E+03  0.12699999809E+01 0. -1.
       -4    1    3    3    0  502  0.95449503646E+02 -0.60270699378E+03  0.82991410478E+03  0.10301093934E+04  0.12699999809E+01 0.  1.
</event>
<event>
 5   0  0.7770905E-04  0.1598014E+04  0.7818609E-02  0.8821769E-01
        2   -1    0    0  501    0  0.00000000000E+00  0.00000000000E+00  0.59843525850E+03  0.59843525850E+03  0.25500000920E-02 0. -1.
       -2   -1    0    0    0  501  0.00000000000E+00  0.00000000000E+00 -0.10668030054E+04  0.10668030054E+04  0.25500000920E-02 0.  1.
    10030    2    1    2    0    0  0.00000000000E+00  0.00000000000E+00 -0.46836774691E+03  0.16652382639E+04  0.15980144334E+04 0.  0.
        2    1    3    3  502    0  0.52034978995E+03  0.49525127167E+03 -0.59872093853E+03  0.93514944701E+03  0.25500000920E-02 0.  1.
       -2    1    3    3    0  502 -0.52034978995E+03 -0.49525127167E+03  0.13035319162E+03  0.73008881690E+03  0.25500000920E-02 0. -1.
</event>
<event>
 5   0  0.3973227E-04  0.1589094E+04  0.7818609E-02  0.8827276E-01
        1   -1    0    0  501    0  0.00000000000E+00  0.00000000000E+00  0.14506742203E+04  0.14506742203E+04  0.50400001928E-02 0.  1.
       -1   -1    0    0    0  501  0.00000000000E+00  0.00000000000E+00 -0.43518032661E+03  0.43518032664E+03  0.50400001928E-02 0. -1.
    10030    2    1    2    0    0  0.00000000000E+00  0.00000000000E+00  0.10154938937E+04  0.18858545469E+04  0.15890939318E+04 0.  0.
        3    1    3    3  502    0  0.67699023463E+03 -0.41047337437E+03  0.42813124070E+03  0.90005585289E+03  0.10100000352E+00 0.  1.
       -3    1    3    3    0  502 -0.67699023463E+03  0.41047337437E+03  0.58736265297E+03  0.98579869404E+03  0.10100000352E+00 0. -1.
</event>
<event>
 5   0  0.3837251E-04  0.1613753E+04  0.7818609E-02  0.8812143E-01
        1   -1    0    0  501    0  0.00000000000E+00  0.00000000000E+00  0.99901979513E+03  0.99901979515E+03  0.50400001928E-02 0. -1.
       -1   -1    0    0    0  501  0.00000000000E+00  0.00000000000E+00 -0.65168881886E+03  0.65168881888E+03  0.50400001928E-02 0.  1.
    10030    2    1    2    0    0  0.00000000000E+00  0.00000000000E+00  0.34733097627E+03  0.16507086140E+04  0.16137534264E+04 0.  0.
        4    1    3    3  502    0 -0.37116930775E+03 -0.48938075846E+03  0.70889571468E+03  0.93797384237E+03  0.12699999809E+01 0. -1.
       -4    1    3    3    0  502  0.37116930775E+03  0.48938075846E+03 -0.36156473841E+03  0.71273477166E+03  0.12699999809E+01 0.  1.
</event>
<event>
 5   0  0.4110803E-04  0.1604283E+04  0.7818609E-02  0.8817921E-01
        1   -1    0    0  501    0  0.00000000000E+00  0.00000000000E+00  0.10625991376E+04  0.10625991376E+04  0.50400001928E-02 0. -1.
       -1   -1    0    0    0  501  0.00000000000E+00  0.00000000000E+00 -0.60552593490E+03  0.60552593492E+03  0.50400001928E-02 0.  1.
    10030    2    1    2    0    0  0.00000000000E+00  0.00000000000E+00  0.45707320269E+03  0.16681250725E+04  0.16042834366E+04 0.  0.
        5    1    3    3  502    0 -0.32152791218E+03  0.27599934350E+03 -0.47963398960E+03  0.64002085115E+03  0.46999998093E+01 0.  1.
       -5    1    3    3    0  502  0.32152791218E+03 -0.27599934350E+03  0.93670719229E+03  0.10281042214E+04  0.46999998093E+01 0. -1.
</event>
<event>
 5   0  0.3837251E-04  0.1545757E+04  0.7818609E-02  0.8854582E-01
        1   -1    0    0  501    0  0.00000000000E+00  0.00000000000E+00  0.54190451866E+03  0.54190451868E+03  0.50400001928E-02 0. -1.
       -1   -1    0    0    0  501  0.00000000000E+00  0.00000000000E+00 -0.11023001503E+04  0.11023001503E+04  0.50400001928E-02 0.  1.
    10030    2    1    2    0    0  0.00000000000E+00  0.00000000000E+00 -0.56039563168E+03  0.16442046690E+04  0.15457573321E+04 0.  0.
        4    1    3    3  502    0 -0.15738350741E+03 -0.23418181371E+03  0.48516236265E+03  0.56124399445E+03  0.12699999809E+01 0. -1.
       -4    1    3    3    0  502  0.15738350741E+03  0.23418181371E+03 -0.10455579943E+04  0.10829606746E+04  0.12699999809E+01 0.  1.
</event>
<event>
 5   0  0.3889847E-04  0.1627943E+04  0.7818609E-02  0.8803563E-01
        1   -1    0    0  501    0  0.00000000000E+00  0.00000000000E+00  0.16919729542E+04  0.16919729542E+04  0.50400001928E-02 0.  1.
       -1   -1    0    0    0  501  0.00000000000E+00  0.00000000000E+00 -0.39158426935E+03  0.39158426939E+03  0.50400001928E-02 0. -1.
    10030    2    1    2    0    0  0.00000000000E+00  0.00000000000E+00  0.13003886848E+04  0.20835572236E+04  0.16279434794E+04 0.  0.
        1    1    3    3  502    0  0.64678283661E+03  0.48191005565E+03  0.51008120679E+03  0.95433127216E+03  0.50400001928E-02 0.  1.
       -1    1    3    3    0  502 -0.64678283661E+03 -0.48191005565E+03  0.79030747803E+03  0.11292259514E+04  0.50400001928E-02 0. -1.
</event>
<event>
 5   0  0.7415102E-04  0.1266737E+04  0.7818609E-02  0.9056367E-01
       -2   -1    0    0    0  501  0.00000000000E+00  0.00000000000E+00  0.31646703755E+03  0.31646703756E+03  0.25500000920E-02 0. -1.
        2   -1    0    0  501    0  0.00000000000E+00  0.00000000000E+00 -0.12676059031E+04  0.12676059031E+04  0.25500000920E-02 0.  1.
    10030    2    1    2    0    0  0.00000000000E+00  0.00000000000E+00 -0.95113886558E+03  0.15840729407E+04  0.12667367287E+04 0.  0.
        5    1    3    3  502    0  0.13810023405E+03  0.10094006450E+03 -0.12381505252E+04  0.12499197512E+04  0.46999998093E+01 0.  1.
       -5    1    3    3    0  502 -0.13810023405E+03 -0.10094006450E+03  0.28701165966E+03  0.33415318949E+03  0.46999998093E+01 0. -1.
</event>
<event>
 5   0  0.3837251E-04  0.1613756E+04  0.7818609E-02  0.8812142E-01
       -1   -1    0    0    0  501  0.00000000000E+00  0.00000000000E+00  0.47096600558E+03  0.47096600560E+03  0.50400001928E-02 0. -1.
        1   -1    0    0  501    0  0.00000000000E+00  0.00000000000E+00 -0.13823756128E+04  0.13823756129E+04  0.50400001928E-02 0.  1.
    10030    2    1    2    0    0  0.00000000000E+00  0.00000000000E+00 -0.91140960727E+03  0.18533416185E+04  0.16137557692E+04 0.  0.
        4    1    3    3  502    0  0.41378391000E+03  0.46088012014E+03  0.13819995329E+03  0.63460889475E+03  0.12699999809E+01 0. -1.
       -4    1    3    3    0  502 -0.41378391000E+03 -0.46088012014E+03 -0.10496095606E+04  0.12187327237E+04  0.12699999809E+01 0.  1.
</event>
<event>
 5   0  0.2781000E-04  0.1606595E+04  0.7818609E-02  0.8816507E-01
        4   -1    0    0  501    0  0.00000000000E+00  0.00000000000E+00  0.73844493944E+03  0.73844603153E+03  0.12699999809E+01 0.  1.
       -4   -1    0    0    0  501  0.00000000000E+00  0.00000000000E+00 -0.87384299009E+03  0.87384391297E+03  0.12699999809E+01 0. -1.
    10030    2    1    2    0    0  0.00000000000E+00  0.00000000000E+00 -0.13539805066E+03  0.16122899445E+04  0.16065946075E+04 0.  0.
        4    1    3    3  502    0  0.28780999626E+03 -0.50250447186E+03  0.49099673995E+03  0.75922641533E+03  0.12699999809E+01 0.  1.
       -4    1    3    3    0  502 -0.28780999626E+03  0.50250447186E+03 -0.62639479061E+03  0.85306352917E+03  0.12699999809E+01 0. -1.
</event>
<event>
 5   0  0.7488884E-04  0.1599144E+04  0.7818609E-02  0.8821074E-01
        2   -1    0    0  501    0  0.00000000000E+00  0.00000000000E+00  0.90614864418E+03  0.90614864418E+03  0.25500000920E-02 0.  1.
       -2   -1    0    0    0  501  0.00000000000E+00  0.00000000000E+00 -0.70553034401E+03  0.70553034401E+03  0.25500000920E-02 0. -1.
    10030    2    1    2    0    0  0.00000000000E+00  0.00000000000E+00  0.20061830017E+03  0.16116789882E+04  0.15991439768E+04 0.  0.
        3    1    3    3  502    0  0.32432810814E+03  0.67010711588E+03 -0.19366733572E+03  0.76924593961E+03  0.10100000352E+00 0. -1.
       -3    1    3    3    0  502 -0.32432810814E+03 -0.67010711588E+03  0.39428563589E+03  0.84243304858E+03  0.10100000352E+00 0.  1.
</event>
<event>
 5   0  0.7488884E-04  0.1599481E+04  0.7818609E-02  0.8820867E-01
       -2   -1    0    0    0  501  0.00000000000E+00  0.00000000000E+00  0.48126651449E+03  0.48126651450E+03  0.25500000920E-02 0.  1.
        2   -1    0    0  501    0  0.00000000000E+00  0.00000000000E+00 -0.13289615959E+04  0.13289615959E+04  0.25500000920E-02 0. -1.
    10030    2    1    2    0    0  0.00000000000E+00  0.00000000000E+00 -0.84769508136E+03  0.18102281104E+04  0.15994808097E+04 0.  0.
        3    1    3    3  502    0 -0.86088818657E+01  0.79968733381E+03 -0.42756002805E+03  0.90685254176E+03  0.10100000352E+00 0.  1.
       -3    1    3    3    0  502  0.86088818657E+01 -0.79968733381E+03 -0.42013505331E+03  0.90337556860E+03  0.10100000352E+00 0. -1.
</event>
<event>
 5   0  0.4110803E-04  0.1582194E+04  0.7818609E-02  0.8831562E-01
       -1   -1    0    0    0  501  0.00000000000E+00  0.00000000000E+00  0.48543429003E+03  0.48543429006E+03  0.50400001928E-02 0. -1.
        1   -1    0    0  501    0  0.00000000000E+00  0.00000000000E+00 -0.12892253363E+04  0.12892253363E+04  0.50400001928E-02 0.  1.
    10030    2    1    2    0    0  0.00000000000E+00  0.00000000000E+00 -0.80379104626E+03  0.17746596264E+04  0.15821936491E+04 0.  0.
        5    1    3    3  502    0  0.13645127495E+03 -0.56925482549E+03 -0.99873514735E+03  0.11576545216E+04  0.46999998093E+01 0.  1.
       -5    1    3    3    0  502 -0.13645127495E+03  0.56925482549E+03  0.19494410108E+03  0.61700510478E+03  0.46999998093E+01 0. -1.
</event>
<event>
 5   0  0.7415102E-04  0.1609167E+04  0.7818609E-02  0.8814936E-01
       -2   -1    0    0    0  501  0.00000000000E+00  0.00000000000E+00  0.76836128243E+03  0.76836128243E+03  0.25500000920E-02 0. -1.
        2   -1    0    0  501    0  0.00000000000E+00  0.00000000000E+00 -0.84251322497E+03  0.84251322498E+03  0.25500000920E-02 0.  1.
    10030    2    1    2    0    0  0.00000000000E+00  0.00000000000E+00 -0.74151942543E+02  0.16108745074E+04  0.16091669174E+04 0.  0.
        5    1    3    3  502    0  0.78490988418E+03 -0.93162697408E+02 -0.18746733780E+03  0.81236008470E+03  0.46999998093E+01 0.  1.
       -5    1    3    3    0  502 -0.78490988418E+03  0.93162697408E+02  0.11331539525E+03  0.79851442271E+03  0.46999998093E+01 0. -1.
</event>
<event>
 5   0  0.7488884E-04  0.1561755E+04  0.7818609E-02  0.8844394E-01
       -2   -1    0    0    0  501  0.00000000000E+00  0.00000000000E+00  0.77345077956E+03  0.77345077957E+03  0.25500000920E-02 0.  1.
        2   -1    0    0  501    0  0.00000000000E+00  0.00000000000E+00 -0.78837512849E+03  0.78837512849E+03  0.25500000920E-02 0. -1.
    10030    2    1    2    0    0  0.00000000000E+00  0.00000000000E+00 -0.14924348924E+02  0.15618259081E+04  0.15617546001E+04 0.  0.
        3    1    3    3  502    0 -0.77178096194E+03 -0.38988510887E+02 -0.11973212266E+03  0.78198577263E+03  0.10100000352E+00 0. -1.
       -3    1    3    3    0  502  0.77178096194E+03  0.38988510887E+02  0.10480777374E+03  0.77984013543E+03  0.10100000352E+00 0.  1.
</event>
<event>
 5   0  0.3973227E-04  0.1614340E+04  0.7818609E-02  0.8811787E-01
        1   -1    0    0  501    0  0.00000000000E+00  0.00000000000E+00  0.91914133867E+03  0.91914133869E+03  0.50400001928E-02 0.  1.
       -1   -1    0    0    0  501  0.00000000000E+00  0.00000000000E+00 -0.70883886840E+03  0.70883886842E+03  0.50400001928E-02 0. -1.
    10030    2    1    2    0    0  0.00000000000E+00  0.00000000000E+00  0.21030247027E+03  0.16279802071E+04  0.16143396253E+04 0.  0.
        3    1    3    3  502    0 -0.92179775790E+02  0.78782774710E+03  0.25592516735E+03  0.83346707892E+03  0.10100000352E+00 0.  1.
       -3    1    3    3    0  502  0.92179775790E+02 -0.78782774710E+03 -0.45622697079E+02  0.79451312818E+03  0.10100000352E+00 0. -1.
</event>
<event>
 5   0  0.3973227E-04  0.1602763E+04  0.7818609E-02  0.8818852E-01
       -1   -1    0    0    0  501  0.00000000000E+00  0.00000000000E+00  0.34609922760E+03  0.34609922764E+03  0.50400001928E-02 0. -1.
        1   -1    0    0  501    0  0.00000000000E+00  0.00000000000E+00 -0.18555725089E+04  0.18555725090E+04  0.50400001928E-02 0.  1.
    10030    2    1    2    0    0  0.00000000000E+00  0.00000000000E+00 -0.15094732813E+04  0.22016717366E+04  0.16027628797E+04 0.  0.
        3    1    3    3  502    0  0.12562941021E+03  0.79226046961E+02  0.32702756378E+03  0.35917482220E+03  0.10100000352E+00 0. -1.
       -3    1    3    3    0  502 -0.12562941021E+03 -0.79226046961E+02 -0.18365008451E+04  0.18424969144E+04  0.10100000352E+00 0.  1.
</event>
<event>
 5   0  0.3837251E-04  0.1594772E+04  0.7818609E-02  0.8823766E-01
        1   -1    0    0  501    0  0.00000000000E+00  0.00000000000E+00  0.16184808864E+04  0.16184808864E+04  0.50400001928E-02 0. -1.
       -1   -1    0    0    0  501  0.00000000000E+00  0.00000000000E+00 -0.39285247529E+03  0.39285247532E+03  0.50400001928E-02 0.  1.
    10030    2    1    2    0    0  0.00000000000E+00  0.00000000000E+00  0.12256284111E+04  0.20113333617E+04  0.15947717360E+04 0.  0.
        4    1    3    3  502    0  0.50706690539E+03  0.30984660206E+03 -0.57763455052E+02  0.59704270617E+03  0.12699999809E+01 0.  1.
       -4    1    3    3    0  502 -0.50706690539E+03 -0.30984660206E+03  0.12833918662E+04  0.14142906556E+04  0.12699999809E+01 0. -1.
</event>
<event>
 5   0  0.7395088E-04  0.1601515E+04  0.7818609E-02  0.8819618E-01
       -2   -1    0    0    0  501  0.00000000000E+00  0.00000000000E+00  0.61360558981E+03  0.61360558981E+03  0.25500000920E-02 0.  1.
        2   -1    0    0  501    0  0.00000000000E+00  0.00000000000E+00 -0.10449908126E+04  0.10449908126E+04  0.25500000920E-02 0. -1.
    10030    2    1    2    0    0  0.00000000000E+00  0.00000000000E+00 -0.43138522278E+03  0.16585964024E+04  0.16015145381E+04 0.  0.
        1    1    3    3  502    0  0.59102913784E+03 -0.37907174133E+03  0.18299794891E+03  0.72560256076E+03  0.50400001928E-02 0.  1.
       -1    1    3    3    0  502 -0.59102913784E+03  0.37907174133E+03 -0.61438317169E+03  0.93299384164E+03  0.50400001928E-02 0. -1.
</event>
<event>
 5   0  0.2781000E-04  0.1623269E+04  0.7818609E-02  0.8806379E-01
       -4   -1    0    0    0  501  0.00000000000E+00  0.00000000000E+00  0.10349659899E+04  0.10349667691E+04  0.12699999809E+01 0.  1.
        4   -1    0    0  501    0  0.00000000000E+00  0.00000000000E+00 -0.63649293890E+03  0.63649420592E+03  0.12699999809E+01 0. -1.
    10030    2    1    2    0    0  0.00000000000E+00  0.00000000000E+00  0.39847305102E+03  0.16714609751E+04  0.16232686219E+04 0.  0.
        2    1    3    3  502    0 -0.30641790756E+03  0.43962200236E+02  0.97179500700E+03  0.10199069295E+04  0.25500000920E-02 0.  1.
       -2    1    3    3    0  502  0.30641790756E+03 -0.43962200236E+02 -0.57332195597E+03  0.65155404559E+03  0.25500000920E-02 0. -1.
</event>
<event>
 5   0  0.7770905E-04  0.1683806E+04  0.7818609E-02  0.8770655E-01
        2   -1    0    0  501    0  0.00000000000E+00  0.00000000000E+00  0.10343903490E+04  0.10343903490E+04  0.25500000920E-02 0. -1.
       -2   -1    0    0    0  501  0.00000000000E+00  0.00000000000E+00 -0.68523529272E+03  0.68523529272E+03  0.25500000920E-02 0.  1.
    10030    2    1    2    0    0  0.00000000000E+00  0.00000000000E+00  0.34915505628E+03  0.17196256417E+04  0.16838061332E+04 0.  0.
        2    1    3    3  502    0  0.50807645931E+03 -0.16335210555E+03 -0.49040776290E+03  0.72479333111E+03  0.25500000920E-02 0.  1.
       -2    1    3    3    0  502 -0.50807645931E+03  0.16335210555E+03  0.83956281918E+03  0.99483231062E+03  0.25500000920E-02 0. -1.
</event>
<event>
 5   0  0.7488884E-04  0.1704930E+04  0.7818609E-02  0.8758557E-01
       -2   -1    0    0    0  501  0.00000000000E+00  0.00000000000E+00  0.93434562171E+03  0.93434562171E+03  0.25500000920E-02 0.  1.
        2   -1    0    0  501    0  0.00000000000E+00  0.00000000000E+00 -0.77776028054E+03  0.77776028054E+03  0.25500000920E-02 0. -1.
    10030    2    1    2    0    0  0.00000000000E+00  0.00000000000E+00  0.15658534117E+03  0.17121059023E+04  0.17049303949E+04 0.  0.
        3    1    3    3  502    0  0.39743843581E+03  0.24193633264E+03  0.79558621729E+03  0.92165499980E+03  0.10100000352E+00 0.  1.
       -3    1    3    3    0  502 -0.39743843581E+03 -0.24193633264E+03 -0.63900087612E+03  0.79045090246E+03  0.10100000352E+00 0. -1.
</event>
<event>
 5   0  0.3950195E-04  0.1450664E+04  0.7818609E-02  0.8917940E-01
        1   -1    0    0  501    0  0.00000000000E+00  0.00000000000E+00  0.73447139397E+03  0.73447139399E+03  0.50400001928E-02 0.  1.
       -1   -1    0    0    0  501  0.00000000000E+00  0.00000000000E+00 -0.71630670271E+03  0.71630670272E+03  0.50400001928E-02 0. -1.
    10030    2    1    2    0    0  0.00000000000E+00  0.00000000000E+00  0.18164691266E+02  0.14507780967E+04  0.14506643753E+04 0.  0.
        2    1    3    3  502    0 -0.33433811771E+03 -0.36002783433E+03  0.54270150127E+03  0.73207030943E+03  0.25500000920E-02 0.  1.
       -2    1    3    3    0  502  0.33433811771E+03  0.36002783433E+03 -0.52453681001E+03  0.71870778729E+03  0.25500000920E-02 0. -1.
</event>
<event>
 5   0  0.3889847E-04  0.1605874E+04  0.7818609E-02  0.8816948E-01
       -1   -1    0    0    0  501  0.00000000000E+00  0.00000000000E+00  0.12890106908E+04  0.12890106908E+04  0.50400001928E-02 0. -1.
        1   -1    0    0  501    0  0.00000000000E+00  0.00000000000E+00 -0.50015685647E+03  0.50015685649E+03  0.50400001928E-02 0.  1.
    10030    2    1    2    0    0  0.00000000000E+00  0.00000000000E+00  0.78885383433E+03  0.17891675473E+04  0.16058736377E+04 0.  0.
        1    1    3    3  502    0  0.33588219230E+03 -0.70663890899E+03  0.19341147690E+03  0.80595495794E+03  0.50400001928E-02 0.  1.
       -1    1    3    3    0  502 -0.33588219230E+03  0.70663890899E+03  0.59544235743E+03  0.98321258935E+03  0.50400001928E-02 0. -1.
</event>
<event>
 5   0  0.7488884E-04  0.1652233E+04  0.7818609E-02  0.8789087E-01
       -2   -1    0    0    0  501  0.00000000000E+00  0.00000000000E+00  0.12379753596E+04  0.12379753596E+04  0.25500000920E-02 0. -1.
        2   -1    0    0  501    0  0.00000000000E+00  0.00000000000E+00 -0.55127786056E+03  0.55127786056E+03  0.25500000920E-02 0.  1.
    10030    2    1    2    0    0  0.00000000000E+00  0.00000000000E+00  0.68669749908E+03  0.17892532202E+04  0.16522329227E+04 0.  0.
        3    1    3    3  502    0 -0.61988342737E+03  0.15805350894E+03  0.90941378979E+03  0.11118767137E+04  0.10100000352E+00 0. -1.
       -3    1    3    3    0  502  0.61988342737E+03 -0.15805350894E+03 -0.22271629071E+03  0.67737650650E+03  0.10100000352E+00 0.  1.
</event>
<event>
 5   0  0.7415102E-04  0.1597397E+04  0.7818609E-02  0.8822149E-01
        2   -1    0    0  501    0  0.00000000000E+00  0.00000000000E+00  0.12022297470E+04  0.12022297470E+04  0.25500000920E-02 0.  1.
       -2   -1    0    0    0  501  0.00000000000E+00  0.00000000000E+00 -0.53061350772E+03  0.53061350773E+03  0.25500000920E-02 0. -1.
    10030    2    1    2    0    0  0.00000000000E+00  0.00000000000E+00  0.67161623925E+03  0.17328432547E+04  0.15973970616E+04 0.  0.
        5    1    3    3  502    0 -0.57387382953E+03  0.50134255384E+03  0.59530185065E+03  0.96699633500E+03  0.46999998093E+01 0.  1.
       -5    1    3    3    0  502  0.57387382953E+03 -0.50134255384E+03  0.76314388600E+02  0.76584691970E+03  0.46999998093E+01 0. -1.
</event>
<event>
 5   0  0.3973227E-04  0.1670571E+04  0.7818609E-02  0.8778329E-01
       -1   -1    0    0    0  501  0.00000000000E+00  0.00000000000E+00  0.53527402598E+03  0.53527402601E+03  0.50400001928E-02 0. -1.
        1   -1    0    0  501    0  0.00000000000E+00  0.00000000000E+00 -0.13034486502E+04  0.13034486502E+04  0.50400001928E-02 0.  1.
    10030    2    1    2    0    0  0.00000000000E+00  0.00000000000E+00 -0.76817462425E+03  0.18387226763E+04  0.16705714073E+04 0.  0.
        3    1    3    3  502    0 -0.91593857209E+01 -0.25666923014E+03  0.49073550967E+03  0.55388115936E+03  0.10100000352E+00 0. -1.
       -3    1    3    3    0  502  0.91593857209E+01  0.25666923014E+03 -0.12589101339E+04  0.12848415169E+04  0.10100000352E+00 0.  1.
</event>
<event>
 5   0  0.3950195E-04  0.1592989E+04  0.7818609E-02  0.8824867E-01
        1   -1    0    0  501    0  0.00000000000E+00  0.00000000000E+00  0.13775640846E+04  0.13775640846E+04  0.50400001928E-02 0.  1.
       -1   -1    0    0    0  501  0.00000000000E+00  0.00000000000E+00 -0.46052570638E+03  0.46052570641E+03  0.50400001928E-02 0. -1.
    10030    2    1    2    0    0  0.00000000000E+00  0.00000000000E+00  0.91703837821E+03  0.18380897910E+04  0.15929892318E+04 0.  0.
        2    1    3    3  502    0  0.19587352579E+03  0.25827057140E+03 -0.38097673552E+03  0.50021335365E+03  0.25500000920E-02 0. -1.
       -2    1    3    3    0  502 -0.19587352579E+03 -0.25827057140E+03  0.12980151137E+04  0.13378764374E+04  0.25500000920E-02 0.  1.
</event>
<event>
 5   0  0.3950195E-04  0.1602791E+04  0.7818609E-02  0.8818835E-01
        1   -1    0    0  501    0  0.00000000000E+00  0.00000000000E+00  0.10105233673E+04  0.10105233673E+04  0.50400001928E-02 0.  1.
       -1   -1    0    0    0  501  0.00000000000E+00  0.00000000000E+00 -0.63554680493E+03  0.63554680495E+03  0.50400001928E-02 0. -1.
    10030    2    1    2    0    0  0.00000000000E+00  0.00000000000E+00  0.37497656237E+03  0.16460701723E+04  0.16027911872E+04 0.  0.
        2    1    3    3  502    0 -0.48592077581E+03  0.83786162522E+02 -0.46131041004E+03  0.67523804382E+03  0.25500000920E-02 0. -1.
       -2    1    3    3    0  502  0.48592077581E+03 -0.83786162522E+02  0.83628697241E+03  0.97083212845E+03  0.25500000920E-02 0.  1.
</event>
<event>
 5   0  0.7553070E-04  0.1611382E+04  0.7818609E-02  0.8813586E-01
        2   -1    0    0  501    0  0.00000000000E+00  0.00000000000E+00  0.11223759694E+04  0.11223759694E+04  0.25500000920E-02 0. -1.
       -2   -1    0    0    0  501  0.00000000000E+00  0.00000000000E+00 -0.57836024270E+03  0.57836024270E+03  0.25500000920E-02 0.  1.
    10030    2    1    2    0    0  0.00000000000E+00  0.00000000000E+00  0.54401572675E+03  0.17007362121E+04  0.16113815663E+04 0.  0.
        4    1    3    3  502    0 -0.23883361753E+03  0.15237764270E+03 -0.52405472471E+03  0.59573098816E+03  0.12699999809E+01 0.  1.
       -4    1    3    3    0  502  0.23883361753E+03 -0.15237764270E+03  0.10680704515E+04  0.11050052240E+04  0.12699999809E+01 0. -1.
</event>
<event>
 5   0  0.4110803E-04  0.1598280E+04  0.7818609E-02  0.8821606E-01
       -1   -1    0    0    0  501  0.00000000000E+00  0.00000000000E+00  0.11431570281E+04  0.11431570281E+04  0.50400001928E-02 0. -1.
        1   -1    0    0  501    0  0.00000000000E+00  0.00000000000E+00 -0.55864981009E+03  0.55864981011E+03  0.50400001928E-02 0.  1.
    10030    2    1    2    0    0  0.00000000000E+00  0.00000000000E+00  0.58450721799E+03  0.17018068382E+04  0.15982796459E+04 0.  0.
        5    1    3    3  502    0  0.43344804792E+03 -0.33973968148E+03 -0.32430680239E+03  0.63913789866E+03  0.46999998093E+01 0.  1.
       -5    1    3    3    0  502 -0.43344804792E+03  0.33973968148E+03  0.90881402039E+03  0.10626689395E+04  0.46999998093E+01 0. -1.
</event>
<event>
 5   0  0.7415102E-04  0.1575591E+04  0.7818609E-02  0.8835685E-01
        2   -1    0    0  501    0  0.00000000000E+00  0.00000000000E+00  0.21653154180E+04  0.21653154180E+04  0.25500000920E-02 0.  1.
       -2   -1    0    0    0  501  0.00000000000E+00  0.00000000000E+00 -0.28661948084E+03  0.28661948085E+03  0.25500000920E-02 0. -1.
    10030    2    1    2    0    0  0.00000000000E+00  0.00000000000E+00  0.18786959371E+04  0.24519348988E+04  0.15755907857E+04 0.  0.
        5    1    3    3  502    0 -0.48428716438E+03 -0.52350574945E+03  0.41852706974E+03  0.82690950254E+03  0.46999998093E+01 0. -1.
       -5    1    3    3    0  502  0.48428716438E+03  0.52350574945E+03  0.14601688674E+04  0.16250253963E+04  0.46999998093E+01 0.  1.
</event>
<event>
 5   0  0.3950195E-04  0.1604620E+04  0.7818609E-02  0.8817715E-01
        1   -1    0    0  501    0  0.00000000000E+00  0.00000000000E+00  0.18181459109E+04  0.18181459109E+04  0.50400001928E-02 0.  1.
       -1   -1    0    0    0  501  0.00000000000E+00  0.00000000000E+00 -0.35404271593E+03  0.35404271597E+03  0.50400001928E-02 0. -1.
    10030    2    1    2    0    0  0.00000000000E+00  0.00000000000E+00  0.14641031950E+04  0.21721886269E+04  0.16046199753E+04 0.  0.
        2    1    3    3  502    0  0.14224222656E+03 -0.50959570624E+03  0.15485308574E+04  0.16364193995E+04  0.25500000920E-02 0.  1.
       -2    1    3    3    0  502 -0.14224222656E+03  0.50959570624E+03 -0.84427662388E+02  0.53576922739E+03  0.25500000920E-02 0. -1.
</event>
<event>
 5   0  0.7395088E-04  0.1576375E+04  0.7818609E-02  0.8835195E-01
        2   -1    0    0  501    0  0.00000000000E+00  0.00000000000E+00  0.68866106794E+03  0.68866106794E+03  0.25500000920E-02 0. -1.
       -2   -1    0    0    0  501  0.00000000000E+00  0.00000000000E+00 -0.90209747690E+03  0.90209747690E+03  0.25500000920E-02 0.  1.
    10030    2    1    2    0    0  0.00000000000E+00  0.00000000000E+00 -0.21343640896E+03  0.15907585448E+04  0.15763748435E+04 0.  0.
        1    1    3    3  502    0 -0.59851027286E+03  0.67508955360E+02 -0.61975399238E+03  0.86421468217E+03  0.50400001928E-02 0.  1.
       -1    1    3    3    0  502  0.59851027286E+03 -0.67508955360E+02  0.40631758343E+03  0.72654386268E+03  0.50400001928E-02 0. -1.
</event>
<event>
 5   0  0.4110803E-04  0.1580508E+04  0.7818609E-02  0.8832613E-01
        1   -1    0    0  501    0  0.00000000000E+00  0.00000000000E+00  0.64105801973E+03  0.64105801975E+03  0.50400001928E-02 0. -1.
       -1   -1    0    0    0  501  0.00000000000E+00  0.00000000000E+00 -0.97417308140E+03  0.97417308141E+03  0.50400001928E-02 0.  1.
    10030    2    1    2    0    0  0.00000000000E+00  0.00000000000E+00 -0.33311506166E+03  0.16152311012E+04  0.15805081037E+04 0.  0.
        5    1    3    3  502    0  0.33483814842E+03 -0.50431638663E+02  0.56314547878E+03  0.65712621016E+03  0.46999998093E+01 0. -1.
       -5    1    3    3    0  502 -0.33483814842E+03  0.50431638663E+02 -0.89626054044E+03  0.95810489100E+03  0.46999998093E+01 0.  1.
</event>
<event>
 5   0  0.3950195E-04  0.1585304E+04  0.7818609E-02  0.8829627E-01
        1   -1    0    0  501    0  0.00000000000E+00  0.00000000000E+00  0.12371393024E+04  0.12371393024E+04  0.50400001928E-02 0.  1.
       -1   -1    0    0    0  501  0.00000000000E+00  0.00000000000E+00 -0.50786298820E+03  0.50786298823E+03  0.50400001928E-02 0. -1.
    10030    2    1    2    0    0  0.00000000000E+00  0.00000000000E+00  0.72927631415E+03  0.17450022906E+04  0.15853040881E+04 0.  0.
        2    1    3    3  502    0  0.44263324536E+02 -0.31137063077E+03 -0.43624616457E+03  0.53779329460E+03  0.25500000920E-02 0. -1.
       -2    1    3    3    0  502 -0.44263324536E+02  0.31137063077E+03  0.11655224787E+04  0.12072089960E+04  0.25500000920E-02 0.  1.
</event>
<event>
 5   0  0.7770905E-04  0.1600978E+04  0.7818609E-02  0.8819948E-01
       -2   -1    0    0    0  501  0.00000000000E+00  0.00000000000E+00  0.70515072584E+03  0.70515072585E+03  0.25500000920E-02 0.  1.
        2   -1    0    0  501    0  0.00000000000E+00  0.00000000000E+00 -0.90871671237E+03  0.90871671237E+03  0.25500000920E-02 0. -1.
    10030    2    1    2    0    0  0.00000000000E+00  0.00000000000E+00 -0.20356598653E+03  0.16138674382E+04  0.16009775130E+04 0.  0.
        2    1    3    3  502    0  0.43151247166E+03 -0.45742342704E+03 -0.60109211761E+03  0.86991432834E+03  0.25500000920E-02 0. -1.
       -2    1    3    3    0  502 -0.43151247166E+03  0.45742342704E+03  0.39752613108E+03  0.74395310988E+03  0.25500000920E-02 0.  1.
</event>
<event>
 5   0  0.7770905E-04  0.1587484E+04  0.7818609E-02  0.8828274E-01
       -2   -1    0    0    0  501  0.00000000000E+00  0.00000000000E+00  0.84792505105E+03  0.84792505106E+03  0.25500000920E-02 0. -1.
        2   -1    0    0  501    0  0.00000000000E+00  0.00000000000E+00 -0.74302165117E+03  0.74302165117E+03  0.25500000920E-02 0.  1.
    10030    2    1    2    0    0  0.00000000000E+00  0.00000000000E+00  0.10490339989E+03  0.15909467022E+04  0.15874843892E+04 0.  0.
        2    1    3    3  502    0  0.37661292663E+03 -0.32856349718E+03  0.67042888675E+03  0.83622135849E+03  0.25500000920E-02 0. -1.
       -2    1    3    3    0  502 -0.37661292663E+03  0.32856349718E+03 -0.56552548687E+03  0.75472534374E+03  0.25500000920E-02 0.  1.
</event>
<event>
 5   0  0.7553070E-04  0.1630317E+04  0.7818609E-02  0.8802137E-01
       -2   -1    0    0    0  501  0.00000000000E+00  0.00000000000E+00  0.46303546859E+03  0.46303546859E+03  0.25500000920E-02 0.  1.
        2   -1    0    0  501    0  0.00000000000E+00  0.00000000000E+00 -0.14350593894E+04  0.14350593894E+04  0.25500000920E-02 0. -1.
    10030    2    1    2    0    0  0.00000000000E+00  0.00000000000E+00 -0.97202392083E+03  0.18980948580E+04  0.16303170205E+04 0.  0.
        4    1    3    3  502    0  0.31146001061E+03 -0.47112684123E+03  0.19833862061E+03  0.59858805540E+03  0.12699999809E+01 0.  1.
       -4    1    3    3    0  502 -0.31146001061E+03  0.47112684123E+03 -0.11703625414E+04  0.12995068026E+04  0.12699999809E+01 0. -1.
</event>
<event>
 5   0  0.7770905E-04  0.1607268E+04  0.7818609E-02  0.8816095E-01
       -2   -1    0    0    0  501  0.00000000000E+00  0.00000000000E+00  0.50540001670E+03  0.50540001671E+03  0.25500000920E-02 0.  1.
        2   -1    0    0  501    0  0.00000000000E+00  0.00000000000E+00 -0.12778541318E+04  0.12778541318E+04  0.25500000920E-02 0. -1.
    10030    2    1    2    0    0  0.00000000000E+00  0.00000000000E+00 -0.77245411507E+03  0.17832541485E+04  0.16072678676E+04 0.  0.
        2    1    3    3  502    0  0.78926362637E+03 -0.14885613852E+03 -0.35620345005E+03  0.87862171594E+03  0.25500000920E-02 0.  1.
       -2    1    3    3    0  502 -0.78926362637E+03  0.14885613852E+03 -0.41625066502E+03  0.90463243255E+03  0.25500000920E-02 0. -1.
</event>
<event>
 5   0  0.7770905E-04  0.1629033E+04  0.7818609E-02  0.8802908E-01
       -2   -1    0    0    0  501  0.00000000000E+00  0.00000000000E+00  0.92436479498E+03  0.92436479498E+03  0.25500000920E-02 0. -1.
        2   -1    0    0  501    0  0.00000000000E+00  0.00000000000E+00 -0.71772211947E+03  0.71772211948E+03  0.25500000920E-02 0.  1.
    10030    2    1    2    0    0  0.00000000000E+00  0.00000000000E+00  0.20664267550E+03  0.16420869145E+04  0.16290329154E+04 0.  0.
        2    1    3    3  502    0  0.13568002167E+01  0.80103227212E+03  0.25209303611E+03  0.83976511046E+03  0.25500000920E-02 0. -1.
       -2    1    3    3    0  502 -0.13568002167E+01 -0.80103227212E+03 -0.45450360611E+02  0.80232180400E+03  0.25500000920E-02 0.  1.
</event>
<event>
 5   0  0.7488884E-04  0.1608735E+04  0.7818609E-02  0.8815200E-01
       -2   -1    0    0    0  501  0.00000000000E+00  0.00000000000E+00  0.42566942941E+03  0.42566942942E+03  0.25500000920E-02 0.  1.
        2   -1    0    0  501    0  0.00000000000E+00  0.00000000000E+00 -0.15199755775E+04  0.15199755775E+04  0.25500000920E-02 0. -1.
    10030    2    1    2    0    0  0.00000000000E+00  0.00000000000E+00 -0.10943061481E+04  0.19456450069E+04  0.16087350767E+04 0.  0.
        3    1    3    3  502    0 -0.29367816202E+03  0.17136283274E+02  0.35827497743E+03  0.46357468083E+03  0.10100000352E+00 0.  1.
       -3    1    3    3    0  502  0.29367816202E+03 -0.17136283274E+02 -0.14525811255E+04  0.14820703261E+04  0.10100000352E+00 0. -1.
</event>
<event>
 5   0  0.3837251E-04  0.1422595E+04  0.7818609E-02  0.8937624E-01
       -1   -1    0    0    0  501  0.00000000000E+00  0.00000000000E+00  0.52714384436E+03  0.52714384438E+03  0.50400001928E-02 0.  1.
        1   -1    0    0  501    0  0.00000000000E+00  0.00000000000E+00 -0.95978400206E+03  0.95978400207E+03  0.50400001928E-02 0. -1.
    10030    2    1    2    0    0  0.00000000000E+00  0.00000000000E+00 -0.43264015770E+03  0.14869278465E+04  0.14225951337E+04 0.  0.
        4    1    3    3  502    0 -0.63392493225E+03  0.23021945730E+03 -0.45255136282E+03  0.81219835456E+03  0.12699999809E+01 0. -1.
       -4    1    3    3    0  502  0.63392493225E+03 -0.23021945730E+03  0.19911205119E+02  0.67472949190E+03  0.12699999809E+01 0.  1.
</event>
<event>
 5   0  0.3889847E-04  0.1597041E+04  0.7818609E-02  0.8822368E-01
        1   -1    0    0  501    0  0.00000000000E+00  0.00000000000E+00  0.18191834663E+04  0.18191834663E+04  0.50400001928E-02 0.  1.
       -1   -1    0    0    0  501  0.00000000000E+00  0.00000000000E+00 -0.35050636375E+03  0.35050636378E+03  0.50400001928E-02 0. -1.
    10030    2    1    2    0    0  0.00000000000E+00  0.00000000000E+00  0.14686771026E+04  0.21696898301E+04  0.15970414920E+04 0.  0.
        1    1    3    3  502    0 -0.63298502448E+03  0.44757851526E+03  0.99438573389E+03  0.12608725377E+04  0.50400001928E-02 0.  1.
       -1    1    3    3    0  502  0.63298502448E+03 -0.44757851526E+03  0.47429136867E+03  0.90881729240E+03  0.50400001928E-02 0. -1.
</event>
<event>
 5   0  0.3973227E-04  0.1543822E+04  0.7818609E-02  0.8855824E-01
       -1   -1    0    0    0  501  0.00000000000E+00  0.00000000000E+00  0.36927471065E+03  0.36927471068E+03  0.50400001928E-02 0. -1.
        1   -1    0    0  501    0  0.00000000000E+00  0.00000000000E+00 -0.16135594065E+04  0.16135594065E+04  0.50400001928E-02 0.  1.
    10030    2    1    2    0    0  0.00000000000E+00  0.00000000000E+00 -0.12442846959E+04  0.19828341172E+04  0.15438221180E+04 0.  0.
        3    1    3    3  502    0 -0.57014877346E+03  0.47770478420E+03 -0.88715549031E+03  0.11577203285E+04  0.10100000352E+00 0.  1.
       -3    1    3    3    0  502  0.57014877346E+03 -0.47770478420E+03 -0.35712920557E+03  0.82511378876E+03  0.10100000352E+00 0. -1.
</event>
<event>
 5   0  0.3950195E-04  0.1625897E+04  0.7818609E-02  0.8804795E-01
       -1   -1    0    0    0  501  0.00000000000E+00  0.00000000000E+00  0.81299892039E+03  0.81299892041E+03  0.50400001928E-02 0.  1.
        1   -1    0    0  501    0  0.00000000000E+00  0.00000000000E+00 -0.81289809732E+03  0.81289809733E+03  0.50400001928E-02 0. -1.
    10030    2    1    2    0    0  0.00000000000E+00  0.00000000000E+00  0.10082307360E+00  0.16258970177E+04  0.16258970146E+04 0.  0.
        2    1    3    3  502    0  0.78071659515E+03 -0.22374215478E+03 -0.36092661968E+02  0.81294626761E+03  0.25500000920E-02 0.  1.
       -2    1    3    3    0  502 -0.78071659515E+03  0.22374215478E+03  0.36193485041E+02  0.81295075013E+03  0.25500000920E-02 0. -1.
</event>
<event>
 5   0  0.3889847E-04  0.1533977E+04  0.7818609E-02  0.8862168E-01
       -1   -1    0    0    0  501  0.00000000000E+00  0.00000000000E+00  0.13105593545E+04  0.13105593545E+04  0.50400001928E-02 0.  1.
        1   -1    0    0  501    0  0.00000000000E+00  0.00000000000E+00 -0.44887024731E+03  0.44887024734E+03  0.50400001928E-02 0. -1.
    10030    2    1    2    0    0  0.00000000000E+00  0.00000000000E+00  0.86168910717E+03  0.17594296018E+04  0.15339766642E+04 0.  0.
        1    1    3    3  502    0 -0.47173332341E+03 -0.72231608518E+02 -0.25783731118E+03  0.54242954634E+03  0.50400001928E-02 0. -1.
       -1    1    3    3    0  502  0.47173332341E+03  0.72231608518E+02  0.11195264183E+04  0.12170000555E+04  0.50400001928E-02 0.  1.
</event>
<event>
 5   0  0.7553070E-04  0.1617402E+04  0.7818609E-02  0.8809928E-01
       -2   -1    0    0    0  501  0.00000000000E+00  0.00000000000E+00  0.35664510069E+03  0.35664510070E+03  0.25500000920E-02 0. -1.
        2   -1    0    0  501    0  0.00000000000E+00  0.00000000000E+00 -0.18337473679E+04  0.18337473679E+04  0.25500000920E-02 0.  1.
    10030    2    1    2    0    0  0.00000000000E+00  0.00000000000E+00 -0.14771022672E+04  0.21903924686E+04  0.16174016380E+04 0.  0.
        4    1    3    3  502    0  0.73104675397E+02 -0.46782698365E+03  0.14928275457E+03  0.49648095020E+03  0.12699999809E+01 0. -1.
       -4    1    3    3    0  502 -0.73104675397E+02  0.46782698365E+03 -0.16263850218E+04  0.16939115184E+04  0.12699999809E+01 0.  1.
</event>
<event>
 5   0  0.7553070E-04  0.1470491E+04  0.7818609E-02  0.8904317E-01
       -2   -1    0    0    0  501  0.00000000000E+00  0.00000000000E+00  0.63635632627E+03  0.63635632628E+03  0.25500000920E-02 0. -1.
        2   -1    0    0  501    0  0.00000000000E+00  0.00000000000E+00 -0.84950138667E+03  0.84950138667E+03  0.25500000920E-02 0.  1.
    10030    2    1    2    0    0  0.00000000000E+00  0.00000000000E+00 -0.21314506040E+03  0.14858577130E+04  0.14704905054E+04 0.  0.
        4    1    3    3  502    0  0.66926668116E+03  0.14187480949E+03  0.16557013843E+03  0.70389021567E+03  0.12699999809E+01 0. -1.
       -4    1    3    3    0  502 -0.66926668116E+03 -0.14187480949E+03 -0.37871519883E+03  0.78196749728E+03  0.12699999809E+01 0.  1.
</event>
<event>
 5   0  0.7770905E-04  0.1640484E+04  0.7818609E-02  0.8796056E-01
        2   -1    0    0  501    0  0.00000000000E+00  0.00000000000E+00  0.10708553406E+04  0.10708553406E+04  0.25500000920E-02 0. -1.
       -2   -1    0    0    0  501  0.00000000000E+00  0.00000000000E+00 -0.62827967738E+03  0.62827967739E+03  0.25500000920E-02 0.  1.
    10030    2    1    2    0    0  0.00000000000E+00  0.00000000000E+00  0.44257566320E+03  0.16991350180E+04  0.16404836457E+04 0.  0.
        2    1    3    3  502    0 -0.28692663396E+03  0.63168736919E+03  0.67447046713E+03  0.96760851418E+03  0.25500000920E-02 0. -1.
       -2    1    3    3    0  502  0.28692663396E+03 -0.63168736919E+03 -0.23189480393E+03  0.73152650380E+03  0.25500000920E-02 0.  1.
</event>
<event>
 5   0  0.2781000E-04  0.1599880E+04  0.7818609E-02  0.8820622E-01
        3   -1    0    0  501    0  0.00000000000E+00  0.00000000000E+00  0.87967931862E+03  0.87967932442E+03  0.10100000352E+00 0. -1.
       -3   -1    0    0    0  501  0.00000000000E+00  0.00000000000E+00 -0.72742852473E+03  0.72742853174E+03  0.10100000352E+00 0.  1.
    10030    2    1    2    0    0  0.00000000000E+00  0.00000000000E+00  0.15225079390E+03  0.16071078562E+04  0.15998797946E+04 0.  0.
        2    1    3    3  502    0 -0.47819844071E+03 -0.59900460555E+03 -0.15387097202E+03  0.78176501725E+03  0.25500000920E-02 0.  1.
       -2    1    3    3    0  502  0.47819844071E+03  0.59900460555E+03  0.30612176592E+03  0.82534283891E+03  0.25500000920E-02 0. -1.
</event>
<event>
 5   0  0.3837251E-04  0.1575024E+04  0.7818609E-02  0.8836040E-01
       -1   -1    0    0    0  501  0.00000000000E+00  0.00000000000E+00  0.51318002224E+03  0.51318002226E+03  0.50400001928E-02 0.  1.
        1   -1    0    0  501    0  0.00000000000E+00  0.00000000000E+00 -0.12084939866E+04  0.12084939866E+04  0.50400001928E-02 0. -1.
    10030    2    1    2    0    0  0.00000000000E+00  0.00000000000E+00 -0.69531396436E+03  0.17216740089E+04  0.15750237724E+04 0.  0.
        4    1    3    3  502    0 -0.21518984948E+03 -0.71449931052E+03 -0.62280257374E+03  0.97195709515E+03  0.12699999809E+01 0. -1.
       -4    1    3    3    0  502  0.21518984948E+03  0.71449931052E+03 -0.72511390614E+02  0.74971691372E+03  0.12699999809E+01 0.  1.
</event>
<event>
 5   0  0.3973227E-04  0.1606044E+04  0.7818609E-02  0.8816843E-01
        1   -1    0    0  501    0  0.00000000000E+00  0.00000000000E+00  0.13865593780E+04  0.13865593781E+04  0.50400001928E-02 0.  1.
       -1   -1    0    0    0  501  0.00000000000E+00  0.00000000000E+00 -0.46506814392E+03  0.46506814395E+03  0.50400001928E-02 0. -1.
    10030    2    1    2    0    0  0.00000000000E+00  0.00000000000E+00  0.92149123412E+03  0.18516275220E+04  0.16060443287E+04 0.  0.
        3    1    3    3  502    0 -0.49995675156E+03  0.79874100695E+02  0.11793602566E+04  0.12834435128E+04  0.10100000352E+00 0.  1.
       -3    1    3    3    0  502  0.49995675156E+03 -0.79874100695E+02 -0.25786902249E+03  0.56818400924E+03  0.10100000352E+00 0. -1.
</event>
<event>
 5   0  0.3837251E-04  0.1669554E+04  0.7818609E-02  0.8778922E-01
        1   -1    0    0  501    0  0.00000000000E+00  0.00000000000E+00  0.12817537266E+04  0.12817537266E+04  0.50400001928E-02 0.  1.
       -1   -1    0    0    0  501  0.00000000000E+00  0.00000000000E+00 -0.54367145957E+03  0.54367145959E+03  0.50400001928E-02 0. -1.
    10030    2    1    2    0    0  0.00000000000E+00  0.00000000000E+00  0.73808226704E+03  0.18254251862E+04  0.16695543350E+04 0.  0.
        4    1    3    3  502    0 -0.33866624571E+02  0.60055806873E+03 -0.26381961150E+03  0.65682519934E+03  0.12699999809E+01 0. -1.
       -4    1    3    3    0  502  0.33866624571E+02 -0.60055806873E+03  0.10019018785E+04  0.11685999869E+04  0.12699999809E+01 0.  1.
</event>
<event>
 5   0  0.3837251E-04  0.1239331E+04  0.7818609E-02  0.9079110E-01
        1   -1    0    0  501    0  0.00000000000E+00  0.00000000000E+00  0.11393011281E+04  0.11393011281E+04  0.50400001928E-02 0. -1.
       -1   -1    0    0    0  501  0.00000000000E+00  0.00000000000E+00 -0.33703580191E+03  0.33703580195E+03  0.50400001928E-02 0.  1.
    10030    2    1    2    0    0  0.00000000000E+00  0.00000000000E+00  0.80226532614E+03  0.14763369300E+04  0.12393308991E+04 0.  0.
        4    1    3    3  502    0  0.55471361896E+03  0.26044386212E+03  0.51060632785E+03  0.79765822212E+03  0.12699999809E+01 0.  1.
       -4    1    3    3    0  502 -0.55471361896E+03 -0.26044386212E+03  0.29165899829E+03  0.67867870790E+03  0.12699999809E+01 0. -1.
</event>
<event>
 5   0  0.7395088E-04  0.1579890E+04  0.7818609E-02  0.8832999E-01
        2   -1    0    0  501    0  0.00000000000E+00  0.00000000000E+00  0.18712966028E+04  0.18712966028E+04  0.25500000920E-02 0. -1.
       -2   -1    0    0    0  501  0.00000000000E+00  0.00000000000E+00 -0.33346553127E+03  0.33346553128E+03  0.25500000920E-02 0.  1.
    10030    2    1    2    0    0  0.00000000000E+00  0.00000000000E+00  0.15378310715E+04  0.22047621340E+04  0.15798897630E+04 0.  0.
        1    1    3    3  502    0  0.73308535453E+03  0.27232242921E+03  0.92455956372E+03  0.12109434460E+04  0.50400001928E-02 0.  1.
       -1    1    3    3    0  502 -0.73308535453E+03 -0.27232242921E+03  0.61327150777E+03  0.99381868806E+03  0.50400001928E-02 0. -1.
</event>
<event>
 5   0  0.7770905E-04  0.1595772E+04  0.7818609E-02  0.8823150E-01
        2   -1    0    0  501    0  0.00000000000E+00  0.00000000000E+00  0.11793660223E+04  0.11793660223E+04  0.25500000920E-02 0. -1.
       -2   -1    0    0    0  501  0.00000000000E+00  0.00000000000E+00 -0.53980006557E+03  0.53980006557E+03  0.25500000920E-02 0.  1.
    10030    2    1    2    0    0  0.00000000000E+00  0.00000000000E+00  0.63956595673E+03  0.17191660879E+04  0.15957717333E+04 0.  0.
        2    1    3    3  502    0  0.24491093850E+03 -0.48472950308E+03  0.94951452075E+03  0.10938564275E+04  0.25500000920E-02 0. -1.
       -2    1    3    3    0  502 -0.24491093850E+03  0.48472950308E+03 -0.30994856402E+03  0.62530966033E+03  0.25500000920E-02 0.  1.
</event>
<event>
 5   0  0.7488884E-04  0.1593640E+04  0.7818609E-02  0.8824465E-01
       -2   -1    0    0    0  501  0.00000000000E+00  0.00000000000E+00  0.83117131479E+03  0.83117131479E+03  0.25500000920E-02 0.  1.
        2   -1    0    0  501    0  0.00000000000E+00  0.00000000000E+00 -0.76388847102E+03  0.76388847102E+03  0.25500000920E-02 0. -1.
    10030    2    1    2    0    0  0.00000000000E+00  0.00000000000E+00  0.67282843771E+02  0.15950597858E+04  0.15936400909E+04 0.  0.
        3    1    3    3  502    0 -0.26653503063E+03  0.45978316553E+03  0.62787116503E+03  0.82259570381E+03  0.10100000352E+00 0.  1.
       -3    1    3    3    0  502  0.26653503063E+03 -0.45978316553E+03 -0.56058832126E+03  0.77246408200E+03  0.10100000352E+00 0. -1.
</event>
<event>
 5   0  0.7415102E-04  0.1552858E+04  0.7818609E-02  0.8850044E-01
        2   -1    0    0  501    0  0.00000000000E+00  0.00000000000E+00  0.10299534271E+04  0.10299534271E+04  0.25500000920E-02 0.  1.
       -2   -1    0    0    0  501  0.00000000000E+00  0.00000000000E+00 -0.58531010044E+03  0.58531010045E+03  0.25500000920E-02 0. -1.
    10030    2    1    2    0    0  0.00000000000E+00  0.00000000000E+00  0.44464332669E+03  0.16152635276E+04  0.15528581956E+04 0.  0.
        5    1    3    3  502    0 -0.22280179909E+03  0.53468616670E+03  0.76009967071E+03  0.95566915716E+03  0.46999998093E+01 0.  1.
       -5    1    3    3    0  502  0.22280179909E+03 -0.53468616670E+03 -0.31545634401E+03  0.65959437043E+03  0.46999998093E+01 0. -1.
</event>
<event>
 5   0  0.4110803E-04  0.1594029E+04  0.7818609E-02  0.8824225E-01
        1   -1    0    0  501    0  0.00000000000E+00  0.00000000000E+00  0.46255321008E+03  0.46255321010E+03  0.50400001928E-02 0. -1.
       -1   -1    0    0    0  501  0.00000000000E+00  0.00000000000E+00 -0.13733170113E+04  0.13733170113E+04  0.50400001928E-02 0.  1.
    10030    2    1    2    0    0  0.00000000000E+00  0.00000000000E+00 -0.91076380125E+03  0.18358702214E+04  0.15940290989E+04 0.  0.
        5    1    3    3  502    0  0.67830540600E+02  0.79104576295E+03 -0.37512681104E+03  0.87812105981E+03  0.46999998093E+01 0. -1.
       -5    1    3    3    0  502 -0.67830540600E+02 -0.79104576295E+03 -0.53563699021E+03  0.95774916163E+03  0.46999998093E+01 0.  1.
</event>
<event>
 5   0  0.3950195E-04  0.1601888E+04  0.7818609E-02  0.8819389E-01
        1   -1    0    0  501    0  0.00000000000E+00  0.00000000000E+00  0.98663610827E+03  0.98663610828E+03  0.50400001928E-02 0. -1.
       -1   -1    0    0    0  501  0.00000000000E+00  0.00000000000E+00 -0.65020021453E+03  0.65020021455E+03  0.50400001928E-02 0.  1.
    10030    2    1    2    0    0  0.00000000000E+00  0.00000000000E+00  0.33643589374E+03  0.16368363228E+04  0.16018876481E+04 0.  0.
        2    1    3    3  502    0  0.44882481302E+03  0.41653451449E+03  0.69578275648E+03  0.92685401157E+03  0.25500000920E-02 0. -1.
       -2    1    3    3    0  502 -0.44882481302E+03 -0.41653451449E+03 -0.35934686274E+03  0.70998231126E+03  0.25500000920E-02 0.  1.
</event>
<event>
 5   0  0.4110803E-04  0.1615213E+04  0.7818609E-02  0.8811256E-01
       -1   -1    0    0    0  501  0.00000000000E+00  0.00000000000E+00  0.15630499469E+04  0.15630499469E+04  0.50400001928E-02 0. -1.
        1   -1    0    0  501    0  0.00000000000E+00  0.00000000000E+00 -0.41727930081E+03  0.41727930084E+03  0.50400001928E-02 0.  1.
    10030    2    1    2    0    0  0.00000000000E+00  0.00000000000E+00  0.11457706461E+04  0.19803292478E+04  0.16152131612E+04 0.  0.
        5    1    3    3  502    0 -0.78207697220E+03  0.17507319331E+02  0.81887656368E+03  0.11324892111E+04  0.46999998093E+01 0. -1.
       -5    1    3    3    0  502  0.78207697220E+03 -0.17507319331E+02  0.32689408241E+03  0.84784003667E+03  0.46999998093E+01 0.  1.
</event>
<event>
 5   0  0.7770905E-04  0.1598679E+04  0.7818609E-02  0.8821360E-01
       -2   -1    0    0    0  501  0.00000000000E+00  0.00000000000E+00  0.39282166078E+03  0.39282166079E+03  0.25500000920E-02 0. -1.
        2   -1    0    0  501    0  0.00000000000E+00  0.00000000000E+00 -0.16265497054E+04  0.16265497054E+04  0.25500000920E-02 0.  1.
    10030    2    1    2    0    0  0.00000000000E+00  0.00000000000E+00 -0.12337280446E+04  0.20193713662E+04  0.15986794008E+04 0.  0.
        2    1    3    3  502    0 -0.75249670119E+03  0.14876363189E+03 -0.33283209211E+03  0.83615734466E+03  0.25500000920E-02 0. -1.
       -2    1    3    3    0  502  0.75249670119E+03 -0.14876363189E+03 -0.90089595247E+03  0.11832140215E+04  0.25500000920E-02 0.  1.
</event>
<event>
 5   0  0.7395088E-04  0.1599813E+04  0.7818609E-02  0.8820663E-01
        2   -1    0    0  501    0  0.00000000000E+00  0.00000000000E+00  0.11374353037E+04  0.11374353037E+04  0.25500000920E-02 0.  1.
       -2   -1    0    0    0  501  0.00000000000E+00  0.00000000000E+00 -0.56253756960E+03  0.56253756961E+03  0.25500000920E-02 0. -1.
    10030    2    1    2    0    0  0.00000000000E+00  0.00000000000E+00  0.57489773412E+03  0.16999728733E+04  0.15998126032E+04 0.  0.
        1    1    3    3  502    0  0.23065136888E+03  0.12813431767E+03  0.10898629287E+04  0.11213472526E+04  0.50400001928E-02 0.  1.
       -1    1    3    3    0  502 -0.23065136888E+03 -0.12813431767E+03 -0.51496519462E+03  0.57862562079E+03  0.50400001928E-02 0. -1.
</event>
<event>
 5   0  0.7395088E-04  0.1604937E+04  0.7818609E-02  0.8817521E-01
        2   -1    0    0  501    0  0.00000000000E+00  0.00000000000E+00  0.10028813887E+04  0.10028813887E+04  0.25500000920E-02 0.  1.
       -2   -1    0    0    0  501  0.00000000000E+00  0.00000000000E+00 -0.64210578291E+03  0.64210578292E+03  0.25500000920E-02 0. -1.
    10030    2    1    2    0    0  0.00000000000E+00  0.00000000000E+00  0.36077560580E+03  0.16449871716E+04  0.16049373063E+04 0.  0.
        1    1    3    3  502    0  0.52677175812E+03  0.52116533091E+03  0.49605729830E+03  0.89172564756E+03  0.50400001928E-02 0.  1.
       -1    1    3    3    0  502 -0.52677175812E+03 -0.52116533091E+03 -0.13528169249E+03  0.75326152407E+03  0.50400001928E-02 0. -1.
</event>
<event>
 5   0  0.7488884E-04  0.1599037E+04  0.7818609E-02  0.8821140E-01
        2   -1    0    0  501    0  0.00000000000E+00  0.00000000000E+00  0.22167792127E+04  0.22167792127E+04  0.25500000920E-02 0.  1.
       -2   -1    0    0    0  501  0.00000000000E+00  0.00000000000E+00 -0.28835980914E+03  0.28835980915E+03  0.25500000920E-02 0. -1.
    10030    2    1    2    0    0  0.00000000000E+00  0.00000000000E+00  0.19284194035E+04  0.25051390218E+04  0.15990372487E+04 0.  0.
        3    1    3    3  502    0 -0.42998323436E+03  0.38949261458E+03  0.18260690047E+04  0.19160162053E+04  0.10100000352E+00 0.  1.
       -3    1    3    3    0  502  0.42998323436E+03 -0.38949261458E+03  0.10235039880E+03  0.58912281655E+03  0.10100000352E+00 0. -1.
</event>
<event>
 5   0  0.3837251E-04  0.1572922E+04  0.7818609E-02  0.8837358E-01
        1   -1    0    0  501    0  0.00000000000E+00  0.00000000000E+00  0.14332315682E+04  0.14332315682E+04  0.50400001928E-02 0. -1.
       -1   -1    0    0    0  501  0.00000000000E+00  0.00000000000E+00 -0.43155666585E+03  0.43155666588E+03  0.50400001928E-02 0.  1.
    10030    2    1    2    0    0  0.00000000000E+00  0.00000000000E+00  0.10016749023E+04  0.18647882341E+04  0.15729216598E+04 0.  0.
        4    1    3    3  502    0  0.35098632200E+03  0.58472083739E+03  0.96522053654E+03  0.11818384631E+04  0.12699999809E+01 0. -1.
       -4    1    3    3    0  502 -0.35098632200E+03 -0.58472083739E+03  0.36454365791E+02  0.68294977092E+03  0.12699999809E+01 0.  1.
</event>
<event>
 5   0  0.7488884E-04  0.1601189E+04  0.7818609E-02  0.8819818E-01
       -2   -1    0    0    0  501  0.00000000000E+00  0.00000000000E+00  0.51907796459E+03  0.51907796459E+03  0.25500000920E-02 0.  1.
        2   -1    0    0  501    0  0.00000000000E+00  0.00000000000E+00 -0.12347881157E+04  0.12347881157E+04  0.25500000920E-02 0. -1.
    10030    2    1    2    0    0  0.00000000000E+00  0.00000000000E+00 -0.71571015115E+03  0.17538660803E+04  0.16011886857E+04 0.  0.
        3    1    3    3  502    0 -0.21530908353E+03  0.57528141009E+03  0.20456828077E+03  0.64742172805E+03  0.10100000352E+00 0.  1.
       -3    1    3    3    0  502  0.21530908353E+03 -0.57528141009E+03 -0.92027843192E+03  0.11064443523E+04  0.10100000352E+00 0. -1.
</event>
<event>
 5   0  0.3950195E-04  0.1637109E+04  0.7818609E-02  0.8798069E-01
       -1   -1    0    0    0  501  0.00000000000E+00  0.00000000000E+00  0.86497018111E+03  0.86497018113E+03  0.50400001928E-02 0.  1.
        1   -1    0    0  501    0  0.00000000000E+00  0.00000000000E+00 -0.77462948563E+03  0.77462948565E+03  0.50400001928E-02 0. -1.
    10030    2    1    2    0    0  0.00000000000E+00  0.00000000000E+00  0.90340695480E+02  0.16395996668E+04  0.16371089231E+04 0.  0.
        2    1    3    3  502    0 -0.19377143341E+02  0.21629662229E+03 -0.74525261179E+03  0.77624812907E+03  0.25500000920E-02 0. -1.
       -2    1    3    3    0  502  0.19377143341E+02 -0.21629662229E+03  0.83559330727E+03  0.86335153771E+03  0.25500000920E-02 0.  1.
</event>
<event>
 5   0  0.7415102E-04  0.1579280E+04  0.7818609E-02  0.8833379E-01
       -2   -1    0    0    0  501  0.00000000000E+00  0.00000000000E+00  0.46144459128E+03  0.46144459128E+03  0.25500000920E-02 0.  1.
        2   -1    0    0  501    0  0.00000000000E+00  0.00000000000E+00 -0.13512589748E+04  0.13512589748E+04  0.25500000920E-02 0. -1.
    10030    2    1    2    0    0  0.00000000000E+00  0.00000000000E+00 -0.88981438353E+03  0.18127035661E+04  0.15792797667E+04 0.  0.
        5    1    3    3  502    0 -0.17218291193E+03  0.21543724980E+03  0.40435053755E+03  0.48947074579E+03  0.46999998093E+01 0.  1.
       -5    1    3    3    0  502  0.17218291193E+03 -0.21543724980E+03 -0.12941649211E+04  0.13232328203E+04  0.46999998093E+01 0. -1.
</event>
<event>
 5   0  0.7488884E-04  0.1598097E+04  0.7818609E-02  0.8821718E-01
        2   -1    0    0  501    0  0.00000000000E+00  0.00000000000E+00  0.24284999489E+04  0.24284999489E+04  0.25500000920E-02 0.  1.
       -2   -1    0    0    0  501  0.00000000000E+00  0.00000000000E+00 -0.26291058408E+03  0.26291058409E+03  0.25500000920E-02 0. -1.
    10030    2    1    2    0    0  0.00000000000E+00  0.00000000000E+00  0.21655893648E+04  0.26914105330E+04  0.15980967931E+04 0.  0.
        3    1    3    3  502    0  0.45292675744E+03 -0.50243861952E+03  0.17990790722E+04  0.19220490972E+04  0.10100000352E+00 0.  1.
       -3    1    3    3    0  502 -0.45292675744E+03  0.50243861952E+03  0.36651029258E+03  0.76936143571E+03  0.10100000352E+00 0. -1.
</event>
<event>
 5   0  0.3950195E-04  0.1599712E+04  0.7818609E-02  0.8820725E-01
        1   -1    0    0  501    0  0.00000000000E+00  0.00000000000E+00  0.11132981203E+04  0.11132981203E+04  0.50400001928E-02 0. -1.
       -1   -1    0    0    0  501  0.00000000000E+00  0.00000000000E+00 -0.57466123586E+03  0.57466123588E+03  0.50400001928E-02 0.  1.
    10030    2    1    2    0    0  0.00000000000E+00  0.00000000000E+00  0.53863688445E+03  0.16879593562E+04  0.15997115662E+04 0.  0.
        2    1    3    3  502    0  0.35216393109E+03 -0.15444956952E+03 -0.47072391764E+03  0.60782819162E+03  0.25500000920E-02 0.  1.
       -2    1    3    3    0  502 -0.35216393109E+03  0.15444956952E+03  0.10093608021E+04  0.10801311646E+04  0.25500000920E-02 0. -1.
</event>
<event>
 5   0  0.3950195E-04  0.1652588E+04  0.7818609E-02  0.8788877E-01
        1   -1    0    0  501    0  0.00000000000E+00  0.00000000000E+00  0.50985940941E+03  0.50985940944E+03  0.50400001928E-02 0.  1.
       -1   -1    0    0    0  501  0.00000000000E+00  0.00000000000E+00 -0.13391182385E+04  0.13391182385E+04  0.50400001928E-02 0. -1.
    10030    2    1    2    0    0  0.00000000000E+00  0.00000000000E+00 -0.82925882912E+03  0.18489776480E+04  0.16525883144E+04 0.  0.
        2    1    3    3  502    0 -0.31137883967E+03 -0.75292683391E+03 -0.56847031362E+03  0.99348583104E+03  0.25500000920E-02 0. -1.
       -2    1    3    3    0  502  0.31137883967E+03  0.75292683391E+03 -0.26078851550E+03  0.85549181693E+03  0.25500000920E-02 0.  1.
</event>
<event>
 5   0  0.4110803E-04  0.1267440E+04  0.7818609E-02  0.9055792E-01
        1   -1    0    0  501    0  0.00000000000E+00  0.00000000000E+00  0.12838568135E+04  0.12838568135E+04  0.50400001928E-02 0.  1.
       -1   -1    0    0    0  501  0.00000000000E+00  0.00000000000E+00 -0.31280803702E+03  0.31280803707E+03  0.50400001928E-02 0. -1.
    10030    2    1    2    0    0  0.00000000000E+00  0.00000000000E+00  0.97104877649E+03  0.15966648506E+04  0.12674395129E+04 0.  0.
        5    1    3    3  502    0 -0.98314774594E+02  0.59617989863E+03  0.72614236111E+03  0.94466982858E+03  0.46999998093E+01 0.  1.
       -5    1    3    3    0  502  0.98314774594E+02 -0.59617989863E+03  0.24490641538E+03  0.65199502201E+03  0.46999998093E+01 0. -1.
</event>
<event>
 5   0  0.7770905E-04  0.1600059E+04  0.7818609E-02  0.8820512E-01
       -2   -1    0    0    0  501  0.00000000000E+00  0.00000000000E+00  0.17497637810E+04  0.17497637810E+04  0.25500000920E-02 0. -1.
        2   -1    0    0  501    0  0.00000000000E+00  0.00000000000E+00 -0.36579051858E+03  0.36579051859E+03  0.25500000920E-02 0.  1.
    10030    2    1    2    0    0  0.00000000000E+00  0.00000000000E+00  0.13839732625E+04  0.21155542996E+04  0.16000587500E+04 0.  0.
        2    1    3    3  502    0  0.65659959620E+03 -0.45558988378E+03  0.64319452955E+03  0.10258578726E+04  0.25500000920E-02 0. -1.
       -2    1    3    3    0  502 -0.65659959620E+03  0.45558988378E+03  0.74077873292E+03  0.10896964270E+04  0.25500000920E-02 0.  1.
</event>
<event>
 5   0  0.7770905E-04  0.1605348E+04  0.7818609E-02  0.8817269E-01
        2   -1    0    0  501    0  0.00000000000E+00  0.00000000000E+00  0.17609174346E+04  0.17609174346E+04  0.25500000920E-02 0. -1.
       -2   -1    0    0    0  501  0.00000000000E+00  0.00000000000E+00 -0.36588055422E+03  0.36588055423E+03  0.25500000920E-02 0.  1.
    10030    2    1    2    0    0  0.00000000000E+00  0.00000000000E+00  0.13950368804E+04  0.21267979888E+04  0.16053478712E+04 0.  0.
        2    1    3    3  502    0 -0.24790608923E+03  0.76153569380E+03  0.62628046921E+03  0.10166716619E+04  0.25500000920E-02 0.  1.
       -2    1    3    3    0  502  0.24790608923E+03 -0.76153569380E+03  0.76875641115E+03  0.11101263269E+04  0.25500000920E-02 0. -1.
</event>
<event>
 5   0  0.3973227E-04  0.1599013E+04  0.7818609E-02  0.8821154E-01
       -1   -1    0    0    0  501  0.00000000000E+00  0.00000000000E+00  0.56402968447E+03  0.56402968449E+03  0.50400001928E-02 0.  1.
        1   -1    0    0  501    0  0.00000000000E+00  0.00000000000E+00 -0.11332932311E+04  0.11332932311E+04  0.50400001928E-02 0. -1.
    10030    2    1    2    0    0  0.00000000000E+00  0.00000000000E+00 -0.56926354664E+03  0.16973229156E+04  0.15990134753E+04 0.  0.
        3    1    3    3  502    0 -0.20067277937E+03  0.69459407035E+03 -0.64690731408E+03  0.97016471290E+03  0.10100000352E+00 0.  1.
       -3    1    3    3    0  502  0.20067277937E+03 -0.69459407035E+03  0.77643767442E+02  0.72715820271E+03  0.10100000352E+00 0. -1.
</event>
<event>
 5   0  0.7553070E-04  0.1614265E+04  0.7818609E-02  0.8811832E-01
       -2   -1    0    0    0  501  0.00000000000E+00  0.00000000000E+00  0.41217721181E+03  0.41217721182E+03  0.25500000920E-02 0.  1.
        2   -1    0    0  501    0  0.00000000000E+00  0.00000000000E+00 -0.15805404189E+04  0.15805404189E+04  0.25500000920E-02 0. -1.
    10030    2    1    2    0    0  0.00000000000E+00  0.00000000000E+00 -0.11683632071E+04  0.19927176307E+04  0.16142648395E+04 0.  0.
        4    1    3    3  502    0  0.76254535541E+03  0.24631969094E+03 -0.46505741844E+03  0.92651434126E+03  0.12699999809E+01 0.  1.
       -4    1    3    3    0  502 -0.76254535541E+03 -0.24631969094E+03 -0.70330578863E+03  0.10662032894E+04  0.12699999809E+01 0. -1.
</event>
<event>
 5   0  0.3889847E-04  0.1310258E+04  0.7818609E-02  0.9021470E-01
        1   -1    0    0  501    0  0.00000000000E+00  0.00000000000E+00  0.53284866631E+03  0.53284866633E+03  0.50400001928E-02 0.  1.
       -1   -1    0    0    0  501  0.00000000000E+00  0.00000000000E+00 -0.80547112756E+03  0.80547112758E+03  0.50400001928E-02 0. -1.
    10030    2    1    2    0    0  0.00000000000E+00  0.00000000000E+00 -0.27262246126E+03  0.13383197939E+04  0.13102583197E+04 0.  0.
        1    1    3    3  502    0 -0.25212733413E+02  0.24666885241E+03  0.48306919193E+03  0.54298899519E+03  0.50400001928E-02 0.  1.
       -1    1    3    3    0  502  0.25212733413E+02 -0.24666885241E+03 -0.75569165319E+03  0.79533079872E+03  0.50400001928E-02 0. -1.
</event>
<event>
 5   0  0.7770905E-04  0.1611983E+04  0.7818609E-02  0.8813220E-01
       -2   -1    0    0    0  501  0.00000000000E+00  0.00000000000E+00  0.33200556650E+03  0.33200556651E+03  0.25500000920E-02 0. -1.
        2   -1    0    0  501    0  0.00000000000E+00  0.00000000000E+00 -0.19566607647E+04  0.19566607647E+04  0.25500000920E-02 0.  1.
    10030    2    1    2    0    0  0.00000000000E+00  0.00000000000E+00 -0.16246551982E+04  0.22886663312E+04  0.16119829597E+04 0.  0.
        2    1    3    3  502    0  0.97061407193E+02  0.70736041842E+03 -0.13432630927E+04  0.15212282585E+04  0.25500000920E-02 0.  1.
       -2    1    3    3    0  502 -0.97061407193E+02 -0.70736041842E+03 -0.28139210546E+03  0.76743807264E+03  0.25500000920E-02 0. -1.
</event>
<event>
 5   0  0.3973227E-04  0.1493635E+04  0.7818609E-02  0.8888697E-01
        1   -1    0    0  501    0  0.00000000000E+00  0.00000000000E+00  0.15375268306E+04  0.15375268306E+04  0.50400001928E-02 0. -1.
       -1   -1    0    0    0  501  0.00000000000E+00  0.00000000000E+00 -0.36274884725E+03  0.36274884729E+03  0.50400001928E-02 0.  1.
    10030    2    1    2    0    0  0.00000000000E+00  0.00000000000E+00  0.11747779833E+04  0.19002756779E+04  0.14936346079E+04 0.  0.
        3    1    3    3  502    0  0.51963047872E+02  0.67021856461E+03  0.17348149043E+03  0.69425421887E+03  0.10100000352E+00 0.  1.
       -3    1    3    3    0  502 -0.51963047872E+02 -0.67021856461E+03  0.10012964929E+04  0.12060214590E+04  0.10100000352E+00 0. -1.
</event>
<event>
 5   0  0.7395088E-04  0.1616429E+04  0.7818609E-02  0.8810518E-01
       -2   -1    0    0    0  501  0.00000000000E+00  0.00000000000E+00  0.36534274017E+03  0.36534274017E+03  0.25500000920E-02 0.  1.
        2   -1    0    0  501    0  0.00000000000E+00  0.00000000000E+00 -0.17879403715E+04  0.17879403715E+04  0.25500000920E-02 0. -1.
    10030    2    1    2    0    0  0.00000000000E+00  0.00000000000E+00 -0.14225976313E+04  0.21532831116E+04  0.16164294412E+04 0.  0.
        1    1    3    3  502    0 -0.52652989201E+03  0.61304782115E+03 -0.72759631540E+03  0.10874087347E+04  0.50400001928E-02 0. -1.
       -1    1    3    3    0  502  0.52652989201E+03 -0.61304782115E+03 -0.69500131590E+03  0.10658743769E+04  0.50400001928E-02 0.  1.
</event>
<event>
 5   0  0.7415102E-04  0.1615142E+04  0.7818609E-02  0.8811300E-01
        2   -1    0    0  501    0  0.00000000000E+00  0.00000000000E+00  0.14878342793E+04  0.14878342793E+04  0.25500000920E-02 0. -1.
       -2   -1    0    0    0  501  0.00000000000E+00  0.00000000000E+00 -0.43833546848E+03  0.43833546849E+03  0.25500000920E-02 0.  1.
    10030    2    1    2    0    0  0.00000000000E+00  0.00000000000E+00  0.10494988108E+04  0.19261697477E+04  0.16151415242E+04 0.  0.
        5    1    3    3  502    0 -0.41125812269E+03  0.68887859438E+03  0.63444956467E+03  0.10228564422E+04  0.46999998093E+01 0.  1.
       -5    1    3    3    0  502  0.41125812269E+03 -0.68887859438E+03  0.41504924610E+03  0.90331330553E+03  0.46999998093E+01 0. -1.
</event>
<event>
 5   0  0.3889847E-04  0.1593079E+04  0.7818609E-02  0.8824811E-01
        1   -1    0    0  501    0  0.00000000000E+00  0.00000000000E+00  0.34622234704E+04  0.34622234704E+04  0.50400001928E-02 0.  1.
       -1   -1    0    0    0  501  0.00000000000E+00  0.00000000000E+00 -0.18325645682E+03  0.18325645689E+03  0.50400001928E-02 0. -1.
    10030    2    1    2    0    0  0.00000000000E+00  0.00000000000E+00  0.32789670136E+04  0.36454799273E+04  0.15930785367E+04 0.  0.
        1    1    3    3  502    0  0.63957293444E+03  0.47433571351E+03  0.15922032519E+04  0.17802132184E+04  0.50400001928E-02 0.  1.
       -1    1    3    3    0  502 -0.63957293444E+03 -0.47433571351E+03  0.16867637617E+04  0.18652667089E+04  0.50400001928E-02 0. -1.
</event>
<event>
 5   0  0.3837251E-04  0.1616133E+04  0.7818609E-02  0.8810698E-01
       -1   -1    0    0    0  501  0.00000000000E+00  0.00000000000E+00  0.45829468022E+03  0.45829468025E+03  0.50400001928E-02 0. -1.
        1   -1    0    0  501    0  0.00000000000E+00  0.00000000000E+00 -0.14247852855E+04  0.14247852855E+04  0.50400001928E-02 0.  1.
    10030    2    1    2    0    0  0.00000000000E+00  0.00000000000E+00 -0.96649060529E+03  0.18830799658E+04  0.16161330599E+04 0.  0.
        4    1    3    3  502    0  0.29824723708E+03  0.65398092011E+03 -0.53032532772E+02  0.72073332151E+03  0.12699999809E+01 0. -1.
       -4    1    3    3    0  502 -0.29824723708E+03 -0.65398092011E+03 -0.91345807252E+03  0.11623466443E+04  0.12699999809E+01 0.  1.
</event>
<event>
 5   0  0.3837251E-04  0.1600990E+04  0.7818609E-02  0.8819940E-01
       -1   -1    0    0    0  501  0.00000000000E+00  0.00000000000E+00  0.80258946202E+03  0.80258946203E+03  0.50400001928E-02 0. -1.
        1   -1    0    0  501    0  0.00000000000E+00  0.00000000000E+00 -0.79840576166E+03  0.79840576167E+03  0.50400001928E-02 0.  1.
    10030    2    1    2    0    0  0.00000000000E+00  0.00000000000E+00  0.41837003595E+01  0.16009952237E+04  0.16009897573E+04 0.  0.
        4    1    3    3  502    0 -0.67065716512E+03  0.27199336007E+03  0.34418805882E+03  0.80139157331E+03  0.12699999809E+01 0. -1.
       -4    1    3    3    0  502  0.67065716512E+03 -0.27199336007E+03 -0.34000435846E+03  0.79960365039E+03  0.12699999809E+01 0.  1.
</event>
<event>
 5   0  0.7770905E-04  0.1613558E+04  0.7818609E-02  0.8812262E-01
        2   -1    0    0  501    0  0.00000000000E+00  0.00000000000E+00  0.58892437546E+03  0.58892437546E+03  0.25500000920E-02 0. -1.
       -2   -1    0    0    0  501  0.00000000000E+00  0.00000000000E+00 -0.11052226236E+04  0.11052226236E+04  0.25500000920E-02 0.  1.
    10030    2    1    2    0    0  0.00000000000E+00  0.00000000000E+00 -0.51629824814E+03  0.16941469991E+04  0.16135582337E+04 0.  0.
        2    1    3    3  502    0  0.17631854973E+02  0.73561012771E+03 -0.60551966161E+03  0.95293609592E+03  0.25500000920E-02 0.  1.
       -2    1    3    3    0  502 -0.17631854973E+02 -0.73561012771E+03  0.89221413473E+02  0.74121090314E+03  0.25500000920E-02 0. -1.
</event>
<event>
 5   0  0.7770905E-04  0.1633955E+04  0.7818609E-02  0.8799955E-01
       -2   -1    0    0    0  501  0.00000000000E+00  0.00000000000E+00  0.82997677684E+03  0.82997677685E+03  0.25500000920E-02 0.  1.
        2   -1    0    0  501    0  0.00000000000E+00  0.00000000000E+00 -0.80418184176E+03  0.80418184177E+03  0.25500000920E-02 0. -1.
    10030    2    1    2    0    0  0.00000000000E+00  0.00000000000E+00  0.25794935082E+02  0.16341586186E+04  0.16339550214E+04 0.  0.
        2    1    3    3  502    0 -0.53293084301E+03 -0.16553054729E+03 -0.58386491409E+03  0.80765950959E+03  0.25500000920E-02 0. -1.
       -2    1    3    3    0  502  0.53293084301E+03  0.16553054729E+03  0.60965984917E+03  0.82649910902E+03  0.25500000920E-02 0.  1.
</event>
<event>
 5   0  0.7553070E-04  0.1612737E+04  0.7818609E-02  0.8812761E-01
       -2   -1    0    0    0  501  0.00000000000E+00  0.00000000000E+00  0.47969903562E+03  0.47969903563E+03  0.25500000920E-02 0. -1.
        2   -1    0    0  501    0  0.00000000000E+00  0.00000000000E+00 -0.13554968469E+04  0.13554968469E+04  0.25500000920E-02 0.  1.
    10030    2    1    2    0    0  0.00000000000E+00  0.00000000000E+00 -0.87579781125E+03  0.18351958825E+04  0.16127374619E+04 0.  0.
        4    1    3    3  502    0  0.39116711621E+03 -0.19466312334E+03  0.33332071850E+03  0.54955414536E+03  0.12699999809E+01 0. -1.
       -4    1    3    3    0  502 -0.39116711621E+03  0.19466312334E+03 -0.12091185298E+04  0.12856417371E+04  0.12699999809E+01 0.  1.
</event>
<event>
 5   0  0.7415102E-04  0.1604699E+04  0.7818609E-02  0.8817666E-01
        2   -1    0    0  501    0  0.00000000000E+00  0.00000000000E+00  0.14378078460E+04  0.14378078460E+04  0.25500000920E-02 0.  1.
       -2   -1    0    0    0  501  0.00000000000E+00  0.00000000000E+00 -0.44774054980E+03  0.44774054981E+03  0.25500000920E-02 0. -1.
    10030    2    1    2    0    0  0.00000000000E+00  0.00000000000E+00  0.99006729619E+03  0.18855483958E+04  0.16046991936E+04 0.  0.
        5    1    3    3  502    0 -0.63774373448E+03  0.43695877549E+03  0.24276671519E+03  0.81031340255E+03  0.46999998093E+01 0.  1.
       -5    1    3    3    0  502  0.63774373448E+03 -0.43695877549E+03  0.74730058100E+03  0.10752349932E+04  0.46999998093E+01 0. -1.
</event>
<event>
 5   0  0.7770905E-04  0.1576835E+04  0.7818609E-02  0.8834907E-01
       -2   -1    0    0    0  501  0.00000000000E+00  0.00000000000E+00  0.54179278649E+03  0.54179278650E+03  0.25500000920E-02 0. -1.
        2   -1    0    0  501    0  0.00000000000E+00  0.00000000000E+00 -0.11473054259E+04  0.11473054259E+04  0.25500000920E-02 0.  1.
    10030    2    1    2    0    0  0.00000000000E+00  0.00000000000E+00 -0.60551263945E+03  0.16890982124E+04  0.15768345553E+04 0.  0.
        2    1    3    3  502    0  0.72957238413E+03 -0.16656389243E+03 -0.36930529773E+02  0.74925513544E+03  0.25500000920E-02 0. -1.
       -2    1    3    3    0  502 -0.72957238413E+03  0.16656389243E+03 -0.56858210968E+03  0.93984307701E+03  0.25500000920E-02 0.  1.
</event>
<event>
 5   0  0.7395088E-04  0.1636639E+04  0.7818609E-02  0.8798350E-01
        2   -1    0    0  501    0  0.00000000000E+00  0.00000000000E+00  0.79125442926E+03  0.79125442927E+03  0.25500000920E-02 0.  1.
       -2   -1    0    0    0  501  0.00000000000E+00  0.00000000000E+00 -0.84631065351E+03  0.84631065351E+03  0.25500000920E-02 0. -1.
    10030    2    1    2    0    0  0.00000000000E+00  0.00000000000E+00 -0.55056224241E+02  0.16375650828E+04  0.16366393043E+04 0.  0.
        1    1    3    3  502    0 -0.21001194287E+03  0.36725314896E+03  0.67334449994E+03  0.79521865370E+03  0.50400001928E-02 0.  1.
       -1    1    3    3    0  502  0.21001194287E+03 -0.36725314896E+03 -0.72840072418E+03  0.84234642908E+03  0.50400001928E-02 0. -1.
</event>
<event>
 5   0  0.7553070E-04  0.1596564E+04  0.7818609E-02  0.8822662E-01
       -2   -1    0    0    0  501  0.00000000000E+00  0.00000000000E+00  0.41606719813E+03  0.41606719813E+03  0.25500000920E-02 0. -1.
        2   -1    0    0  501    0  0.00000000000E+00  0.00000000000E+00 -0.15316131346E+04  0.15316131346E+04  0.25500000920E-02 0.  1.
    10030    2    1    2    0    0  0.00000000000E+00  0.00000000000E+00 -0.11155459364E+04  0.19476803327E+04  0.15965637920E+04 0.  0.
        4    1    3    3  502    0 -0.14886105871E+03 -0.52329518644E+03 -0.12704140501E+04  0.13820097462E+04  0.12699999809E+01 0.  1.
       -4    1    3    3    0  502  0.14886105871E+03  0.52329518644E+03  0.15486811364E+03  0.56567058654E+03  0.12699999809E+01 0. -1.
</event>
<event>
 5   0  0.7553070E-04  0.1606838E+04  0.7818609E-02  0.8816358E-01
        2   -1    0    0  501    0  0.00000000000E+00  0.00000000000E+00  0.40066595124E+03  0.40066595125E+03  0.25500000920E-02 0. -1.
       -2   -1    0    0    0  501  0.00000000000E+00  0.00000000000E+00 -0.16110221417E+04  0.16110221417E+04  0.25500000920E-02 0.  1.
    10030    2    1    2    0    0  0.00000000000E+00  0.00000000000E+00 -0.12103561905E+04  0.20116880930E+04  0.16068375386E+04 0.  0.
        4    1    3    3  502    0 -0.63290227046E+03  0.43444768058E+03 -0.30846205605E+03  0.82732129433E+03  0.12699999809E+01 0. -1.
       -4    1    3    3    0  502  0.63290227046E+03 -0.43444768058E+03 -0.90189413443E+03  0.11843667987E+04  0.12699999809E+01 0.  1.
</event>
<event>
 5   0  0.7415102E-04  0.1690244E+04  0.7818609E-02  0.8766948E-01
        2   -1    0    0  501    0  0.00000000000E+00  0.00000000000E+00  0.13034201939E+04  0.13034201939E+04  0.25500000920E-02 0.  1.
       -2   -1    0    0    0  501  0.00000000000E+00  0.00000000000E+00 -0.54796682999E+03  0.54796682999E+03  0.25500000920E-02 0. -1.
    10030    2    1    2    0    0  0.00000000000E+00  0.00000000000E+00  0.75545336392E+03  0.18513870239E+04  0.16902438070E+04 0.  0.
        5    1    3    3  502    0  0.19409875002E+03 -0.38299439521E+03 -0.41957796385E+03  0.60035555237E+03  0.46999998093E+01 0. -1.
       -5    1    3    3    0  502 -0.19409875002E+03  0.38299439521E+03  0.11750313278E+04  0.12510314715E+04  0.46999998093E+01 0.  1.
</event>
<event>
 5   0  0.3837251E-04  0.1567079E+04  0.7818609E-02  0.8841032E-01
        1   -1    0    0  501    0  0.00000000000E+00  0.00000000000E+00  0.27761449726E+03  0.27761449730E+03  0.50400001928E-02 0.  1.
       -1   -1    0    0    0  501  0.00000000000E+00  0.00000000000E+00 -0.22114627245E+04  0.22114627245E+04  0.50400001928E-02 0. -1.
    10030    2    1    2    0    0  0.00000000000E+00  0.00000000000E+00 -0.19338482272E+04  0.24890772218E+04  0.15670789547E+04 0.  0.
        4    1    3    3  502    0  0.62711779240E+03 -0.44329285297E+03 -0.12137445223E+04  0.14363017292E+04  0.12699999809E+01 0. -1.
       -4    1    3    3    0  502 -0.62711779240E+03  0.44329285297E+03 -0.72010370495E+03  0.10527754926E+04  0.12699999809E+01 0.  1.
</event>
<event>
 5   0  0.7415102E-04  0.1585230E+04  0.7818609E-02  0.8829674E-01
       -2   -1    0    0    0  501  0.00000000000E+00  0.00000000000E+00  0.70869667913E+03  0.70869667914E+03  0.25500000920E-02 0.  1.
        2   -1    0    0  501    0  0.00000000000E+00  0.00000000000E+00 -0.88647021271E+03  0.88647021271E+03  0.25500000920E-02 0. -1.
    10030    2    1    2    0    0  0.00000000000E+00  0.00000000000E+00 -0.17777353357E+03  0.15951668918E+04  0.15852299466E+04 0.  0.
        5    1    3    3  502    0 -0.66060618674E+03  0.32513456999E+03 -0.38415992388E+03  0.83049019241E+03  0.46999998093E+01 0.  1.
       -5    1    3    3    0  502  0.66060618674E+03 -0.32513456999E+03  0.20638639031E+03  0.76467669944E+03  0.46999998093E+01 0. -1.
</event>
<event>
 5   0  0.7488884E-04  0.1610831E+04  0.7818609E-02  0.8813921E-01
       -2   -1    0    0    0  501  0.00000000000E+00  0.00000000000E+00  0.27840593977E+03  0.27840593978E+03  0.25500000920E-02 0.  1.
        2   -1    0    0  501    0  0.00000000000E+00  0.00000000000E+00 -0.23300308517E+04  0.23300308517E+04  0.25500000920E-02 0. -1.
    10030    2    1    2    0    0  0.00000000000E+00  0.00000000000E+00 -0.20516249120E+04  0.26084367915E+04  0.16108313742E+04 0.  0.
        3    1    3    3  502    0 -0.11971018338E+03 -0.75248722582E+03 -0.14484707951E+04  0.16366536614E+04  0.10100000352E+00 0.  1.
       -3    1    3    3    0  502  0.11971018338E+03  0.75248722582E+03 -0.60315411688E+03  0.97178313010E+03  0.10100000352E+00 0. -1.
</event>
<event>
 5   0  0.2781000E-04  0.1694687E+04  0.7818609E-02  0.8764400E-01
       -4   -1    0    0    0  501  0.00000000000E+00  0.00000000000E+00  0.12309995215E+04  0.12310001766E+04  0.12699999809E+01 0.  1.
        4   -1    0    0  501    0  0.00000000000E+00  0.00000000000E+00 -0.58325736292E+03  0.58325874558E+03  0.12699999809E+01 0. -1.
    10030    2    1    2    0    0  0.00000000000E+00  0.00000000000E+00  0.64774215857E+03  0.18142589222E+04  0.16946874440E+04 0.  0.
        4    1    3    3  502    0 -0.83945752529E+03 -0.60814758144E+01  0.44716578922E+03  0.95114918759E+03  0.12699999809E+01 0. -1.
       -4    1    3    3    0  502  0.83945752529E+03  0.60814758144E+01  0.20057636935E+03  0.86310973460E+03  0.12699999809E+01 0.  1.
</event>
<event>
 5   0  0.3889847E-04  0.1581130E+04  0.7818609E-02  0.8832225E-01
       -1   -1    0    0    0  501  0.00000000000E+00  0.00000000000E+00  0.13005938812E+04  0.13005938812E+04  0.50400001928E-02 0. -1.
        1   -1    0    0  501    0  0.00000000000E+00  0.00000000000E+00 -0.48054453711E+03  0.48054453714E+03  0.50400001928E-02 0.  1.
    10030    2    1    2    0    0  0.00000000000E+00  0.00000000000E+00  0.82004934406E+03  0.17811384183E+04  0.15811303357E+04 0.  0.
        1    1    3    3  502    0 -0.23611046177E+03 -0.10422442597E+03  0.12517993591E+04  0.12781285212E+04  0.50400001928E-02 0. -1.
       -1    1    3    3    0  502  0.23611046177E+03  0.10422442597E+03 -0.43175001504E+03  0.50300989716E+03  0.50400001928E-02 0.  1.
</event>
<event>
 5   0  0.4110803E-04  0.1596965E+04  0.7818609E-02  0.8822415E-01
       -1   -1    0    0    0  501  0.00000000000E+00  0.00000000000E+00  0.55534082844E+03  0.55534082846E+03  0.50400001928E-02 0. -1.
        1   -1    0    0  501    0  0.00000000000E+00  0.00000000000E+00 -0.11480777384E+04  0.11480777384E+04  0.50400001928E-02 0.  1.
    10030    2    1    2    0    0  0.00000000000E+00  0.00000000000E+00 -0.59273690997E+03  0.17034185669E+04  0.15969651748E+04 0.  0.
        5    1    3    3  502    0 -0.53719502789E+03 -0.72212595693E+01 -0.92644008587E+03  0.10709546990E+04  0.46999998093E+01 0.  1.
       -5    1    3    3    0  502  0.53719502789E+03  0.72212595693E+01  0.33370317590E+03  0.63246386789E+03  0.46999998093E+01 0. -1.
</event>
<event>
 5   0  0.4110803E-04  0.1682892E+04  0.7818609E-02  0.8771183E-01
        1   -1    0    0  501    0  0.00000000000E+00  0.00000000000E+00  0.10927574360E+04  0.10927574360E+04  0.50400001928E-02 0.  1.
       -1   -1    0    0    0  501  0.00000000000E+00  0.00000000000E+00 -0.64793061426E+03  0.64793061428E+03  0.50400001928E-02 0. -1.
    10030    2    1    2    0    0  0.00000000000E+00  0.00000000000E+00  0.44482682174E+03  0.17406880503E+04  0.16828915554E+04 0.  0.
        5    1    3    3  502    0 -0.36554627974E+03 -0.31130991808E+03  0.93713729896E+03  0.10529892473E+04  0.46999998093E+01 0.  1.
       -5    1    3    3    0  502  0.36554627974E+03  0.31130991808E+03 -0.49231047722E+03  0.68769880304E+03  0.46999998093E+01 0. -1.
</event>
<event>
 5   0  0.7395088E-04  0.1507783E+04  0.7818609E-02  0.8879294E-01
        2   -1    0    0  501    0  0.00000000000E+00  0.00000000000E+00  0.13147866192E+04  0.13147866192E+04  0.25500000920E-02 0.  1.
       -2   -1    0    0    0  501  0.00000000000E+00  0.00000000000E+00 -0.43227749906E+03  0.43227749906E+03  0.25500000920E-02 0. -1.
    10030    2    1    2    0    0  0.00000000000E+00  0.00000000000E+00  0.88250912014E+03  0.17470641183E+04  0.15077833685E+04 0.  0.
        1    1    3    3  502    0 -0.45665306563E+02 -0.73039286997E+03  0.65108306593E+03  0.97952448846E+03  0.50400001928E-02 0.  1.
       -1    1    3    3    0  502  0.45665306563E+02  0.73039286997E+03  0.23142605421E+03  0.76753962981E+03  0.50400001928E-02 0. -1.
</event>
<event>
 5   0  0.7395088E-04  0.1581189E+04  0.7818609E-02  0.8832189E-01
        2   -1    0    0  501    0  0.00000000000E+00  0.00000000000E+00  0.15131240449E+04  0.15131240449E+04  0.25500000920E-02 0.  1.
       -2   -1    0    0    0  501  0.00000000000E+00  0.00000000000E+00 -0.41307881698E+03  0.41307881698E+03  0.25500000920E-02 0. -1.
    10030    2    1    2    0    0  0.00000000000E+00  0.00000000000E+00  0.11000452279E+04  0.19262028619E+04  0.15811887812E+04 0.  0.
        1    1    3    3  502    0 -0.35741130281E+03 -0.46951756971E+02  0.14071815052E+04  0.14526207680E+04  0.50400001928E-02 0.  1.
       -1    1    3    3    0  502  0.35741130281E+03  0.46951756971E+02 -0.30713627728E+03  0.47358209394E+03  0.50400001928E-02 0. -1.
</event>
<event>
 5   0  0.3837251E-04  0.1567268E+04  0.7818609E-02  0.8840913E-01
       -1   -1    0    0    0  501  0.00000000000E+00  0.00000000000E+00  0.15114326929E+04  0.15114326929E+04  0.50400001928E-02 0.  1.
        1   -1    0    0  501    0  0.00000000000E+00  0.00000000000E+00 -0.40629155155E+03  0.40629155158E+03  0.50400001928E-02 0. -1.
    10030    2    1    2    0    0  0.00000000000E+00  0.00000000000E+00  0.11051411413E+04  0.19177242445E+04  0.15672681122E+04 0.  0.
        4    1    3    3  502    0 -0.18057609397E+03 -0.26236637428E+03  0.14286586784E+04  0.14637318990E+04  0.12699999809E+01 0.  1.
       -4    1    3    3    0  502  0.18057609397E+03  0.26236637428E+03 -0.32351753702E+03  0.45399234545E+03  0.12699999809E+01 0. -1.
</event>
<event>
 5   0  0.7770905E-04  0.1606135E+04  0.7818609E-02  0.8816788E-01
        2   -1    0    0  501    0  0.00000000000E+00  0.00000000000E+00  0.12657253098E+04  0.12657253098E+04  0.25500000920E-02 0. -1.
       -2   -1    0    0    0  501  0.00000000000E+00  0.00000000000E+00 -0.50952392145E+03  0.50952392146E+03  0.25500000920E-02 0.  1.
    10030    2    1    2    0    0  0.00000000000E+00  0.00000000000E+00  0.75620138839E+03  0.17752492313E+04  0.16061348927E+04 0.  0.
        2    1    3    3  502    0  0.50383171240E+03 -0.16953953102E+03  0.10434164844E+04  0.11710286107E+04  0.25500000920E-02 0. -1.
       -2    1    3    3    0  502 -0.50383171240E+03  0.16953953102E+03 -0.28721509605E+03  0.60422062063E+03  0.25500000920E-02 0.  1.
</event>
<event>
 5   0  0.2781000E-04  0.1598148E+04  0.7818609E-02  0.8821687E-01
        3   -1    0    0  501    0  0.00000000000E+00  0.00000000000E+00  0.57882871057E+03  0.57882871938E+03  0.10100000352E+00 0. -1.
       -3   -1    0    0    0  501  0.00000000000E+00  0.00000000000E+00 -0.11031228748E+04  0.11031228794E+04  0.10100000352E+00 0.  1.
    10030    2    1    2    0    0  0.00000000000E+00  0.00000000000E+00 -0.52429416419E+03  0.16819515988E+04  0.15981479312E+04 0.  0.
        1    1    3    3  502    0 -0.49507137628E+03  0.52333610984E+03 -0.62602719573E+03  0.95440368886E+03  0.50400001928E-02 0.  1.
       -1    1    3    3    0  502  0.49507137628E+03 -0.52333610984E+03  0.10173303155E+03  0.72754790991E+03  0.50400001928E-02 0. -1.
</event>
<event>
 5   0  0.7415102E-04  0.1614742E+04  0.7818609E-02  0.8811543E-01
       -2   -1    0    0    0  501  0.00000000000E+00  0.00000000000E+00  0.59034698041E+03  0.59034698042E+03  0.25500000920E-02 0. -1.
        2   -1    0    0  501    0  0.00000000000E+00  0.00000000000E+00 -0.11041769955E+04  0.11041769955E+04  0.25500000920E-02 0.  1.
    10030    2    1    2    0    0  0.00000000000E+00  0.00000000000E+00 -0.51383001508E+03  0.16945239759E+04  0.16147415337E+04 0.  0.
        5    1    3    3  502    0  0.34350783451E+03  0.71594841569E+03 -0.40987583082E+03  0.89364425416E+03  0.46999998093E+01 0. -1.
       -5    1    3    3    0  502 -0.34350783451E+03 -0.71594841569E+03 -0.10395418427E+03  0.80087972176E+03  0.46999998093E+01 0.  1.
</event>
<event>
 5   0  0.7415102E-04  0.1606360E+04  0.7818609E-02  0.8816650E-01
        2   -1    0    0  501    0  0.00000000000E+00  0.00000000000E+00  0.15741242345E+04  0.15741242345E+04  0.25500000920E-02 0.  1.
       -2   -1    0    0    0  501  0.00000000000E+00  0.00000000000E+00 -0.40981410567E+03  0.40981410568E+03  0.25500000920E-02 0. -1.
    10030    2    1    2    0    0  0.00000000000E+00  0.00000000000E+00  0.11643101288E+04  0.19839383402E+04  0.16063602527E+04 0.  0.
        5    1    3    3  502    0 -0.39578916337E+03  0.49973885098E+02 -0.27878313169E+03  0.48671200473E+03  0.46999998093E+01 0. -1.
       -5    1    3    3    0  502  0.39578916337E+03 -0.49973885098E+02  0.14430932605E+04  0.14972263355E+04  0.46999998093E+01 0.  1.
</event>
<event>
 5   0  0.3889847E-04  0.1584929E+04  0.7818609E-02  0.8829861E-01
       -1   -1    0    0    0  501  0.00000000000E+00  0.00000000000E+00  0.55034195523E+03  0.55034195525E+03  0.50400001928E-02 0. -1.
        1   -1    0    0  501    0  0.00000000000E+00  0.00000000000E+00 -0.11411081434E+04  0.11411081434E+04  0.50400001928E-02 0.  1.
    10030    2    1    2    0    0  0.00000000000E+00  0.00000000000E+00 -0.59076618816E+03  0.16914500987E+04  0.15849286253E+04 0.  0.
        1    1    3    3  502    0 -0.69417648784E+03  0.37061296918E+03 -0.39529527608E+03  0.88062098800E+03  0.50400001928E-02 0.  1.
       -1    1    3    3    0  502  0.69417648784E+03 -0.37061296918E+03 -0.19547091207E+03  0.81082911065E+03  0.50400001928E-02 0. -1.
</event>
<event>
 5   0  0.3837251E-04  0.1613107E+04  0.7818609E-02  0.8812536E-01
        1   -1    0    0  501    0  0.00000000000E+00  0.00000000000E+00  0.69196971064E+03  0.69196971066E+03  0.50400001928E-02 0. -1.
       -1   -1    0    0    0  501  0.00000000000E+00  0.00000000000E+00 -0.94011083815E+03  0.94011083817E+03  0.50400001928E-02 0.  1.
    10030    2    1    2    0    0  0.00000000000E+00  0.00000000000E+00 -0.24814112752E+03  0.16320805488E+04  0.16131065987E+04 0.  0.
        4    1    3    3  502    0 -0.32456806843E+03  0.24547018106E+03 -0.82862817651E+03  0.92316104155E+03  0.12699999809E+01 0.  1.
       -4    1    3    3    0  502  0.32456806843E+03 -0.24547018106E+03  0.58048704900E+03  0.70891950727E+03  0.12699999809E+01 0. -1.
</event>
<event>
 5   0  0.7488884E-04  0.1586394E+04  0.7818609E-02  0.8828951E-01
        2   -1    0    0  501    0  0.00000000000E+00  0.00000000000E+00  0.91690084635E+03  0.91690084635E+03  0.25500000920E-02 0.  1.
       -2   -1    0    0    0  501  0.00000000000E+00  0.00000000000E+00 -0.68618253114E+03  0.68618253114E+03  0.25500000920E-02 0. -1.
    10030    2    1    2    0    0  0.00000000000E+00  0.00000000000E+00  0.23071831521E+03  0.16030833775E+04  0.15863938270E+04 0.  0.
        3    1    3    3  502    0 -0.68950605051E+03  0.38815801361E+03  0.59313102150E+02  0.79347545110E+03  0.10100000352E+00 0.  1.
       -3    1    3    3    0  502  0.68950605051E+03 -0.38815801361E+03  0.17140521306E+03  0.80960792639E+03  0.10100000352E+00 0. -1.
</event>
<event>
 5   0  0.7395088E-04  0.1619717E+04  0.7818609E-02  0.8808526E-01
       -2   -1    0    0    0  501  0.00000000000E+00  0.00000000000E+00  0.56120156931E+03  0.56120156932E+03  0.25500000920E-02 0. -1.
        2   -1    0    0  501    0  0.00000000000E+00  0.00000000000E+00 -0.11686897916E+04  0.11686897916E+04  0.25500000920E-02 0.  1.
    10030    2    1    2    0    0  0.00000000000E+00  0.00000000000E+00 -0.60748822231E+03  0.17298913609E+04  0.16197166976E+04 0.  0.
        1    1    3    3  502    0  0.65590644385E+02 -0.70418705452E+03  0.11766967751E+03  0.71695724657E+03  0.50400001928E-02 0. -1.
       -1    1    3    3    0  502 -0.65590644385E+02  0.70418705452E+03 -0.72515789981E+03  0.10129341144E+04  0.50400001928E-02 0.  1.
</event>
<event>
 5   0  0.7415102E-04  0.1632223E+04  0.7818609E-02  0.8800993E-01
        2   -1    0    0  501    0  0.00000000000E+00  0.00000000000E+00  0.82390188103E+03  0.82390188103E+03  0.25500000920E-02 0. -1.
       -2   -1    0    0    0  501  0.00000000000E+00  0.00000000000E+00 -0.80839498125E+03  0.80839498126E+03  0.25500000920E-02 0.  1.
    10030    2    1    2    0    0  0.00000000000E+00  0.00000000000E+00  0.15506899775E+02  0.16322968623E+04  0.16322232025E+04 0.  0.
        5    1    3    3  502    0 -0.33673048026E+03 -0.73287288484E+03 -0.11685543974E+03  0.81496464062E+03  0.46999998093E+01 0.  1.
       -5    1    3    3    0  502  0.33673048026E+03  0.73287288484E+03  0.13236233952E+03  0.81733222167E+03  0.46999998093E+01 0. -1.
</event>
<event>
 5   0  0.2781000E-04  0.1635517E+04  0.7818609E-02  0.8799021E-01
       -4   -1    0    0    0  501  0.00000000000E+00  0.00000000000E+00  0.10276652224E+04  0.10276660071E+04  0.12699999809E+01 0.  1.
        4   -1    0    0  501    0  0.00000000000E+00  0.00000000000E+00 -0.65072464345E+03  0.65072588276E+03  0.12699999809E+01 0. -1.
    10030    2    1    2    0    0  0.00000000000E+00  0.00000000000E+00  0.37694057896E+03  0.16783918899E+04  0.16355167795E+04 0.  0.
        1    1    3    3  502    0  0.14944017809E+03  0.11770757143E+03 -0.62770384432E+03  0.65589599434E+03  0.50400001928E-02 0. -1.
       -1    1    3    3    0  502 -0.14944017809E+03 -0.11770757143E+03  0.10046444233E+04  0.10224958956E+04  0.50400001928E-02 0.  1.
</event>
<event>
 5   0  0.7488884E-04  0.1563317E+04  0.7818609E-02  0.8843406E-01
       -2   -1    0    0    0  501  0.00000000000E+00  0.00000000000E+00  0.11234150300E+04  0.11234150300E+04  0.25500000920E-02 0. -1.
        2   -1    0    0  501    0  0.00000000000E+00  0.00000000000E+00 -0.54386829508E+03  0.54386829509E+03  0.25500000920E-02 0.  1.
    10030    2    1    2    0    0  0.00000000000E+00  0.00000000000E+00  0.57954673491E+03  0.16672833251E+04  0.15633167523E+04 0.  0.
        3    1    3    3  502    0 -0.42066766277E+03  0.58358913266E+03  0.61580317133E+03  0.94696943682E+03  0.10100000352E+00 0. -1.
       -3    1    3    3    0  502  0.42066766277E+03 -0.58358913266E+03 -0.36256436410E+02  0.72031388827E+03  0.10100000352E+00 0.  1.
</event>
<event>
 5   0  0.7553070E-04  0.1610980E+04  0.7818609E-02  0.8813831E-01
        2   -1    0    0  501    0  0.00000000000E+00  0.00000000000E+00  0.16200177935E+04  0.16200177935E+04  0.25500000920E-02 0. -1.
       -2   -1    0    0    0  501  0.00000000000E+00  0.00000000000E+00 -0.40049793103E+03  0.40049793104E+03  0.25500000920E-02 0.  1.
    10030    2    1    2    0    0  0.00000000000E+00  0.00000000000E+00  0.12195198625E+04  0.20205157245E+04  0.16109795462E+04 0.  0.
        4    1    3    3  502    0  0.48265303105E+03  0.64486825453E+03  0.61198508155E+03  0.10116008932E+04  0.12699999809E+01 0.  1.
       -4    1    3    3    0  502 -0.48265303105E+03 -0.64486825453E+03  0.60753478091E+03  0.10089148314E+04  0.12699999809E+01 0. -1.
</event>
<event>
 5   0  0.2781000E-04  0.1636192E+04  0.7818609E-02  0.8798617E-01
        3   -1    0    0  501    0  0.00000000000E+00  0.00000000000E+00  0.10222701604E+04  0.10222701654E+04  0.10100000352E+00 0. -1.
       -3   -1    0    0    0  501  0.00000000000E+00  0.00000000000E+00 -0.65470084415E+03  0.65470085194E+03  0.10100000352E+00 0.  1.
    10030    2    1    2    0    0  0.00000000000E+00  0.00000000000E+00  0.36756931629E+03  0.16769710174E+04  0.16361921008E+04 0.  0.
        2    1    3    3  502    0  0.41675578430E+03 -0.38044835648E+03  0.79087732061E+03  0.97155199138E+03  0.25500000920E-02 0. -1.
       -2    1    3    3    0  502 -0.41675578430E+03  0.38044835648E+03 -0.42330800432E+03  0.70541902599E+03  0.25500000920E-02 0.  1.
</event>
<event>
 5   0  0.7488884E-04  0.1612500E+04  0.7818609E-02  0.8812906E-01
       -2   -1    0    0    0  501  0.00000000000E+00  0.00000000000E+00  0.36727548010E+03  0.36727548011E+03  0.25500000920E-02 0. -1.
        2   -1    0    0  501    0  0.00000000000E+00  0.00000000000E+00 -0.17698942415E+04  0.17698942415E+04  0.25500000920E-02 0.  1.
    10030    2    1    2    0    0  0.00000000000E+00  0.00000000000E+00 -0.14026187614E+04  0.21371697216E+04  0.16124996215E+04 0.  0.
        3    1    3    3  502    0  0.15707817780E+03  0.59829964208E+03 -0.13866749940E+04  0.15183884763E+04  0.10100000352E+00 0.  1.
       -3    1    3    3    0  502 -0.15707817780E+03 -0.59829964208E+03 -0.15943767373E+02  0.61878124533E+03  0.10100000352E+00 0. -1.
</event>
<event>
 5   0  0.7553070E-04  0.1603446E+04  0.7818609E-02  0.8818434E-01
       -2   -1    0    0    0  501  0.00000000000E+00  0.00000000000E+00  0.32296550522E+03  0.32296550523E+03  0.25500000920E-02 0.  1.
        2   -1    0    0  501    0  0.00000000000E+00  0.00000000000E+00 -0.19901796806E+04  0.19901796806E+04  0.25500000920E-02 0. -1.
    10030    2    1    2    0    0  0.00000000000E+00  0.00000000000E+00 -0.16672141754E+04  0.23131451859E+04  0.16034455227E+04 0.  0.
        4    1    3    3  502    0 -0.74780483482E+03  0.14898706798E+03 -0.47629241147E+03  0.89903575654E+03  0.12699999809E+01 0.  1.
       -4    1    3    3    0  502  0.74780483482E+03 -0.14898706798E+03 -0.11909217639E+04  0.14141094293E+04  0.12699999809E+01 0. -1.
</event>
<event>
 5   0  0.7395088E-04  0.1606444E+04  0.7818609E-02  0.8816599E-01
       -2   -1    0    0    0  501  0.00000000000E+00  0.00000000000E+00  0.14311865413E+04  0.14311865413E+04  0.25500000920E-02 0.  1.
        2   -1    0    0  501    0  0.00000000000E+00  0.00000000000E+00 -0.45079053980E+03  0.45079053981E+03  0.25500000920E-02 0. -1.
    10030    2    1    2    0    0  0.00000000000E+00  0.00000000000E+00  0.98039600153E+03  0.18819770811E+04  0.16064437164E+04 0.  0.
        1    1    3    3  502    0  0.27521203810E+02  0.78877567972E+03  0.31548523349E+03  0.84997377733E+03  0.50400001928E-02 0. -1.
       -1    1    3    3    0  502 -0.27521203810E+02 -0.78877567972E+03  0.66491076804E+03  0.10320033038E+04  0.50400001928E-02 0.  1.
</event>
<event>
 5   0  0.3837251E-04  0.1639724E+04  0.7818609E-02  0.8796509E-01
        1   -1    0    0  501    0  0.00000000000E+00  0.00000000000E+00  0.50933973269E+03  0.50933973271E+03  0.50400001928E-02 0.  1.
       -1   -1    0    0    0  501  0.00000000000E+00  0.00000000000E+00 -0.13196955486E+04  0.13196955487E+04  0.50400001928E-02 0. -1.
    10030    2    1    2    0    0  0.00000000000E+00  0.00000000000E+00 -0.81035581595E+03  0.18290352814E+04  0.16397236084E+04 0.  0.
        4    1    3    3  502    0  0.38598299367E+02  0.18833763794E+03  0.48383976432E+03  0.52063751788E+03  0.12699999809E+01 0.  1.
       -4    1    3    3    0  502 -0.38598299367E+02 -0.18833763794E+03 -0.12941955803E+04  0.13083977635E+04  0.12699999809E+01 0. -1.
</event>
<event>
 5   0  0.7488884E-04  0.1593137E+04  0.7818609E-02  0.8824775E-01
        2   -1    0    0  501    0  0.00000000000E+00  0.00000000000E+00  0.78369026031E+03  0.78369026032E+03  0.25500000920E-02 0.  1.
       -2   -1    0    0    0  501  0.00000000000E+00  0.00000000000E+00 -0.80965886517E+03  0.80965886517E+03  0.25500000920E-02 0. -1.
    10030    2    1    2    0    0  0.00000000000E+00  0.00000000000E+00 -0.25968604853E+02  0.15933491255E+04  0.15931374916E+04 0.  0.
        3    1    3    3  502    0  0.53759211776E+02 -0.71266775068E+03 -0.36479285491E+03  0.80240838287E+03  0.10100000352E+00 0. -1.
       -3    1    3    3    0  502 -0.53759211776E+02  0.71266775068E+03  0.33882425006E+03  0.79094074262E+03  0.10100000352E+00 0.  1.
</event>
<event>
 5   0  0.7415102E-04  0.1578972E+04  0.7818609E-02  0.8833571E-01
        2   -1    0    0  501    0  0.00000000000E+00  0.00000000000E+00  0.18863226509E+04  0.18863226509E+04  0.25500000920E-02 0. -1.
       -2   -1    0    0    0  501  0.00000000000E+00  0.00000000000E+00 -0.33042519240E+03  0.33042519241E+03  0.25500000920E-02 0.  1.
    10030    2    1    2    0    0  0.00000000000E+00  0.00000000000E+00  0.15558974585E+04  0.22167478433E+04  0.15789724822E+04 0.  0.
        5    1    3    3  502    0 -0.20667807729E+03  0.36665012902E+03  0.17156548434E+04  0.17665338311E+04  0.46999998093E+01 0. -1.
       -5    1    3    3    0  502  0.20667807729E+03 -0.36665012902E+03 -0.15975738492E+03  0.45021401220E+03  0.46999998093E+01 0.  1.
</event>
<event>
 5   0  0.3973227E-04  0.1591207E+04  0.7818609E-02  0.8825968E-01
        1   -1    0    0  501    0  0.00000000000E+00  0.00000000000E+00  0.99722037153E+03  0.99722037154E+03  0.50400001928E-02 0.  1.
       -1   -1    0    0    0  501  0.00000000000E+00  0.00000000000E+00 -0.63474893146E+03  0.63474893148E+03  0.50400001928E-02 0. -1.
    10030    2    1    2    0    0  0.00000000000E+00  0.00000000000E+00  0.36247144006E+03  0.16319693030E+04  0.15912065426E+04 0.  0.
        3    1    3    3  502    0 -0.68532190576E+03 -0.31366287402E+03  0.44258520503E+03  0.87403214298E+03  0.10100000352E+00 0.  1.
       -3    1    3    3    0  502  0.68532190576E+03  0.31366287402E+03 -0.80113764964E+02  0.75793716005E+03  0.10100000352E+00 0. -1.
</event>
<event>
 5   0  0.3837251E-04  0.1574623E+04  0.7818609E-02  0.8836292E-01
        1   -1    0    0  501    0  0.00000000000E+00  0.00000000000E+00  0.10975381718E+04  0.10975381719E+04  0.50400001928E-02 0.  1.
       -1   -1    0    0    0  501  0.00000000000E+00  0.00000000000E+00 -0.56477243831E+03  0.56477243833E+03  0.50400001928E-02 0. -1.
    10030    2    1    2    0    0  0.00000000000E+00  0.00000000000E+00  0.53276573353E+03  0.16623106102E+04  0.15746228875E+04 0.  0.
        4    1    3    3  502    0 -0.34593801414E+03 -0.20477441311E+03 -0.44825794510E+03  0.60211499577E+03  0.12699999809E+01 0. -1.
       -4    1    3    3    0  502  0.34593801414E+03  0.20477441311E+03  0.98102367863E+03  0.10601956144E+04  0.12699999809E+01 0.  1.
</event>
<event>
 5   0  0.7553070E-04  0.1595015E+04  0.7818609E-02  0.8823616E-01
        2   -1    0    0  501    0  0.00000000000E+00  0.00000000000E+00  0.15885159351E+04  0.15885159352E+04  0.25500000920E-02 0. -1.
       -2   -1    0    0    0  501  0.00000000000E+00  0.00000000000E+00 -0.40038504086E+03  0.40038504087E+03  0.25500000920E-02 0.  1.
    10030    2    1    2    0    0  0.00000000000E+00  0.00000000000E+00  0.11881308943E+04  0.19889009760E+04  0.15950147556E+04 0.  0.
        4    1    3    3  502    0  0.65729763509E+03  0.42037321347E+03  0.38817700277E+03  0.87145672186E+03  0.12699999809E+01 0.  1.
       -4    1    3    3    0  502 -0.65729763509E+03 -0.42037321347E+03  0.79995389152E+03  0.11174442542E+04  0.12699999809E+01 0. -1.
</event>
<event>
 5   0  0.3973227E-04  0.1593535E+04  0.7818609E-02  0.8824530E-01
        1   -1    0    0  501    0  0.00000000000E+00  0.00000000000E+00  0.51305260551E+03  0.51305260554E+03  0.50400001928E-02 0.  1.
       -1   -1    0    0    0  501  0.00000000000E+00  0.00000000000E+00 -0.12373743730E+04  0.12373743730E+04  0.50400001928E-02 0. -1.
    10030    2    1    2    0    0  0.00000000000E+00  0.00000000000E+00 -0.72432176748E+03  0.17504269785E+04  0.15935346198E+04 0.  0.
        3    1    3    3  502    0 -0.29161850898E+03 -0.38142883043E+02  0.45124669058E+03  0.53862771955E+03  0.10100000352E+00 0.  1.
       -3    1    3    3    0  502  0.29161850898E+03  0.38142883043E+02 -0.11755684581E+04  0.12117992590E+04  0.10100000352E+00 0. -1.
</event>
<event>
 5   0  0.7415102E-04  0.1609229E+04  0.7818609E-02  0.8814898E-01
        2   -1    0    0  501    0  0.00000000000E+00  0.00000000000E+00  0.10221621553E+04  0.10221621553E+04  0.25500000920E-02 0. -1.
       -2   -1    0    0    0  501  0.00000000000E+00  0.00000000000E+00 -0.63336752551E+03  0.63336752551E+03  0.25500000920E-02 0.  1.
    10030    2    1    2    0    0  0.00000000000E+00  0.00000000000E+00  0.38879462984E+03  0.16555296809E+04  0.16092287780E+04 0.  0.
        5    1    3    3  502    0  0.24895357956E+03  0.70639912201E+03  0.49680140775E+03  0.89878325145E+03  0.46999998093E+01 0. -1.
       -5    1    3    3    0  502 -0.24895357956E+03 -0.70639912201E+03 -0.10800677791E+03  0.75674642941E+03  0.46999998093E+01 0.  1.
</event>
<event>
 5   0  0.7770905E-04  0.1606431E+04  0.7818609E-02  0.8816607E-01
        2   -1    0    0  501    0  0.00000000000E+00  0.00000000000E+00  0.74056927302E+03  0.74056927302E+03  0.25500000920E-02 0. -1.
       -2   -1    0    0    0  501  0.00000000000E+00  0.00000000000E+00 -0.87116077408E+03  0.87116077408E+03  0.25500000920E-02 0.  1.
    10030    2    1    2    0    0  0.00000000000E+00  0.00000000000E+00 -0.13059150106E+03  0.16117300471E+04  0.16064307033E+04 0.  0.
        2    1    3    3  502    0  0.33783187616E+03 -0.18427538659E+03  0.64205988612E+03  0.74855106174E+03  0.25500000920E-02 0. -1.
       -2    1    3    3    0  502 -0.33783187616E+03  0.18427538659E+03 -0.77265138719E+03  0.86317898537E+03  0.25500000920E-02 0.  1.
</event>
<event>
 5   0  0.7415102E-04  0.1601234E+04  0.7818609E-02  0.8819790E-01
       -2   -1    0    0    0  501  0.00000000000E+00  0.00000000000E+00  0.55652797243E+03  0.55652797244E+03  0.25500000920E-02 0. -1.
        2   -1    0    0  501    0  0.00000000000E+00  0.00000000000E+00 -0.11517614081E+04  0.11517614081E+04  0.25500000920E-02 0.  1.
    10030    2    1    2    0    0  0.00000000000E+00  0.00000000000E+00 -0.59523343562E+03  0.17082893805E+04  0.16012338257E+04 0.  0.
        5    1    3    3  502    0 -0.59056381899E+03 -0.14780871999E+01 -0.87431009565E+03  0.10550867464E+04  0.46999998093E+01 0.  1.
       -5    1    3    3    0  502  0.59056381899E+03  0.14780871999E+01  0.27907666003E+03  0.65320263411E+03  0.46999998093E+01 0. -1.
</event>
<event>
 5   0  0.4110803E-04  0.1504684E+04  0.7818609E-02  0.8881344E-01
        1   -1    0    0  501    0  0.00000000000E+00  0.00000000000E+00  0.12263644376E+04  0.12263644376E+04  0.50400001928E-02 0.  1.
       -1   -1    0    0    0  501  0.00000000000E+00  0.00000000000E+00 -0.46154205920E+03  0.46154205923E+03  0.50400001928E-02 0. -1.
    10030    2    1    2    0    0  0.00000000000E+00  0.00000000000E+00  0.76482237839E+03  0.16879064968E+04  0.15046843761E+04 0.  0.
        5    1    3    3  502    0  0.73794692924E+03 -0.14308634303E+03  0.41711909057E+03  0.85968005540E+03  0.46999998093E+01 0. -1.
       -5    1    3    3    0  502 -0.73794692924E+03  0.14308634303E+03  0.34770328782E+03  0.82822644143E+03  0.46999998093E+01 0.  1.
</event>
<event>
 5   0  0.3837251E-04  0.1603946E+04  0.7818609E-02  0.8818128E-01
        1   -1    0    0  501    0  0.00000000000E+00  0.00000000000E+00  0.97020651477E+03  0.97020651479E+03  0.50400001928E-02 0. -1.
       -1   -1    0    0    0  501  0.00000000000E+00  0.00000000000E+00 -0.66291107013E+03  0.66291107015E+03  0.50400001928E-02 0.  1.
    10030    2    1    2    0    0  0.00000000000E+00  0.00000000000E+00  0.30729544464E+03  0.16331175849E+04  0.16039459330E+04 0.  0.
        4    1    3    3  502    0  0.64270431020E+03  0.44109818784E+03  0.34554994638E+03  0.85266805969E+03  0.12699999809E+01 0.  1.
       -4    1    3    3    0  502 -0.64270431020E+03 -0.44109818784E+03 -0.38254501742E+02  0.78044952525E+03  0.12699999809E+01 0. -1.
</event>
<event>
 5   0  0.7488884E-04  0.1638620E+04  0.7818609E-02  0.8797167E-01
        2   -1    0    0  501    0  0.00000000000E+00  0.00000000000E+00  0.12715872288E+04  0.12715872288E+04  0.25500000920E-02 0.  1.
       -2   -1    0    0    0  501  0.00000000000E+00  0.00000000000E+00 -0.52789834414E+03  0.52789834415E+03  0.25500000920E-02 0. -1.
    10030    2    1    2    0    0  0.00000000000E+00  0.00000000000E+00  0.74368888462E+03  0.17994855729E+04  0.16386198980E+04 0.  0.
        3    1    3    3  502    0  0.15343467606E+03 -0.73530184442E+03  0.73116268062E+03  0.10482413262E+04  0.10100000352E+00 0.  1.
       -3    1    3    3    0  502 -0.15343467606E+03  0.73530184442E+03  0.12526204001E+02  0.75124424671E+03  0.10100000352E+00 0. -1.
</event>
<event>
 5   0  0.3950195E-04  0.1509337E+04  0.7818609E-02  0.8878268E-01
       -1   -1    0    0    0  501  0.00000000000E+00  0.00000000000E+00  0.70144721947E+03  0.70144721949E+03  0.50400001928E-02 0.  1.
        1   -1    0    0  501    0  0.00000000000E+00  0.00000000000E+00 -0.81192754880E+03  0.81192754882E+03  0.50400001928E-02 0. -1.
    10030    2    1    2    0    0  0.00000000000E+00  0.00000000000E+00 -0.11048032933E+03  0.15133747683E+04  0.15093367040E+04 0.  0.
        2    1    3    3  502    0  0.58991478857E+03 -0.17620972071E+03 -0.49284221134E+03  0.78863348187E+03  0.25500000920E-02 0. -1.
       -2    1    3    3    0  502 -0.58991478857E+03  0.17620972071E+03  0.38236188201E+03  0.72474128644E+03  0.25500000920E-02 0.  1.
</event>
<event>
 5   0  0.7553070E-04  0.1572030E+04  0.7818609E-02  0.8837917E-01
        2   -1    0    0  501    0  0.00000000000E+00  0.00000000000E+00  0.15296296430E+04  0.15296296430E+04  0.25500000920E-02 0.  1.
       -2   -1    0    0    0  501  0.00000000000E+00  0.00000000000E+00 -0.40390160451E+03  0.40390160452E+03  0.25500000920E-02 0. -1.
    10030    2    1    2    0    0  0.00000000000E+00  0.00000000000E+00  0.11257280385E+04  0.19335312475E+04  0.15720303650E+04 0.  0.
        4    1    3    3  502    0  0.13127588436E+03 -0.44761911151E+03 -0.21524555361E+03  0.51373970846E+03  0.12699999809E+01 0. -1.
       -4    1    3    3    0  502 -0.13127588436E+03  0.44761911151E+03  0.13409735921E+04  0.14197915390E+04  0.12699999809E+01 0.  1.
</event>
<event>
 5   0  0.3837251E-04  0.1576005E+04  0.7818609E-02  0.8835426E-01
       -1   -1    0    0    0  501  0.00000000000E+00  0.00000000000E+00  0.61141979881E+03  0.61141979883E+03  0.50400001928E-02 0. -1.
        1   -1    0    0  501    0  0.00000000000E+00  0.00000000000E+00 -0.10155833316E+04  0.10155833316E+04  0.50400001928E-02 0.  1.
    10030    2    1    2    0    0  0.00000000000E+00  0.00000000000E+00 -0.40416353275E+03  0.16270031304E+04  0.15760047668E+04 0.  0.
        4    1    3    3  502    0  0.76786330927E+03 -0.72593318858E+02 -0.36874398641E+03  0.85490209502E+03  0.12699999809E+01 0.  1.
       -4    1    3    3    0  502 -0.76786330927E+03  0.72593318858E+02 -0.35419546334E+02  0.77210103537E+03  0.12699999809E+01 0. -1.
</event>
<event>
 5   0  0.3889847E-04  0.1587457E+04  0.7818609E-02  0.8828291E-01
       -1   -1    0    0    0  501  0.00000000000E+00  0.00000000000E+00  0.46384839700E+03  0.46384839703E+03  0.50400001928E-02 0.  1.
        1   -1    0    0  501    0  0.00000000000E+00  0.00000000000E+00 -0.13582126741E+04  0.13582126741E+04  0.50400001928E-02 0. -1.
    10030    2    1    2    0    0  0.00000000000E+00  0.00000000000E+00 -0.89436427706E+03  0.18220610711E+04  0.15874567984E+04 0.  0.
        1    1    3    3  502    0 -0.62369232350E+03  0.24348612216E+03 -0.93647732209E+03  0.11512025803E+04  0.50400001928E-02 0. -1.
       -1    1    3    3    0  502  0.62369232350E+03 -0.24348612216E+03  0.42113045037E+02  0.67085849079E+03  0.50400001928E-02 0.  1.
</event>
<event>
 5   0  0.4110803E-04  0.1579788E+04  0.7818609E-02  0.8833062E-01
       -1   -1    0    0    0  501  0.00000000000E+00  0.00000000000E+00  0.27710000469E+03  0.27710000474E+03  0.50400001928E-02 0.  1.
        1   -1    0    0  501    0  0.00000000000E+00  0.00000000000E+00 -0.22516511062E+04  0.22516511062E+04  0.50400001928E-02 0. -1.
    10030    2    1    2    0    0  0.00000000000E+00  0.00000000000E+00 -0.19745511015E+04  0.25287511110E+04  0.15797880012E+04 0.  0.
        5    1    3    3  502    0 -0.12820948552E+03  0.56344756665E+03 -0.12527809838E+03  0.59129309523E+03  0.46999998093E+01 0.  1.
       -5    1    3    3    0  502  0.12820948552E+03 -0.56344756665E+03 -0.18492730031E+04  0.19374580157E+04  0.46999998093E+01 0. -1.
</event>
<event>
 5   0  0.3973227E-04  0.1649917E+04  0.7818609E-02  0.8790455E-01
        1   -1    0    0  501    0  0.00000000000E+00  0.00000000000E+00  0.22431277803E+04  0.22431277803E+04  0.50400001928E-02 0. -1.
       -1   -1    0    0    0  501  0.00000000000E+00  0.00000000000E+00 -0.30339631514E+03  0.30339631519E+03  0.50400001928E-02 0.  1.
    10030    2    1    2    0    0  0.00000000000E+00  0.00000000000E+00  0.19397314652E+04  0.25465240955E+04  0.16499172137E+04 0.  0.
        3    1    3    3  502    0 -0.13138588059E+03  0.44215670726E+03 -0.85764890147E+02  0.46916993721E+03  0.10100000352E+00 0.  1.
       -3    1    3    3    0  502  0.13138588059E+03 -0.44215670726E+03  0.20254963553E+04  0.20773541583E+04  0.10100000352E+00 0. -1.
</event>
<event>
 5   0  0.7770905E-04  0.1623190E+04  0.7818609E-02  0.8806427E-01
       -2   -1    0    0    0  501  0.00000000000E+00  0.00000000000E+00  0.11733249902E+04  0.11733249902E+04  0.25500000920E-02 0.  1.
        2   -1    0    0  501    0  0.00000000000E+00  0.00000000000E+00 -0.56138479170E+03  0.56138479170E+03  0.25500000920E-02 0. -1.
    10030    2    1    2    0    0  0.00000000000E+00  0.00000000000E+00  0.61194019851E+03  0.17347097819E+04  0.16231904451E+04 0.  0.
        2    1    3    3  502    0  0.17927156346E+02 -0.64031076476E+03  0.83857452846E+03  0.10552376501E+04  0.25500000920E-02 0.  1.
       -2    1    3    3    0  502 -0.17927156346E+02  0.64031076476E+03 -0.22663432995E+03  0.67947213182E+03  0.25500000920E-02 0. -1.
</event>
<event>
 5   0  0.3837251E-04  0.1602612E+04  0.7818609E-02  0.8818945E-01
       -1   -1    0    0    0  501  0.00000000000E+00  0.00000000000E+00  0.45776925092E+03  0.45776925095E+03  0.50400001928E-02 0.  1.
        1   -1    0    0  501    0  0.00000000000E+00  0.00000000000E+00 -0.14026520626E+04  0.14026520626E+04  0.50400001928E-02 0. -1.
    10030    2    1    2    0    0  0.00000000000E+00  0.00000000000E+00 -0.94488281164E+03  0.18604213135E+04  0.16026115986E+04 0.  0.
        4    1    3    3  502    0 -0.61669427706E+03 -0.17195822957E+03 -0.10318402011E+04  0.12143217356E+04  0.12699999809E+01 0. -1.
       -4    1    3    3    0  502  0.61669427706E+03  0.17195822957E+03  0.86957389471E+02  0.64609957789E+03  0.12699999809E+01 0.  1.
</event>
<event>
 5   0  0.7415102E-04  0.1612458E+04  0.7818609E-02  0.8812931E-01
       -2   -1    0    0    0  501  0.00000000000E+00  0.00000000000E+00  0.13265356805E+04  0.13265356805E+04  0.25500000920E-02 0. -1.
        2   -1    0    0  501    0  0.00000000000E+00  0.00000000000E+00 -0.49000205169E+03  0.49000205170E+03  0.25500000920E-02 0.  1.
    10030    2    1    2    0    0  0.00000000000E+00  0.00000000000E+00  0.83653362880E+03  0.18165377322E+04  0.16124580058E+04 0.  0.
        5    1    3    3  502    0  0.56755459884E+03  0.56485498438E+03  0.52397036871E+03  0.95694640045E+03  0.46999998093E+01 0. -1.
       -5    1    3    3    0  502 -0.56755459884E+03 -0.56485498438E+03  0.31256326009E+03  0.85959133174E+03  0.46999998093E+01 0.  1.
</event>
<event>
 5   0  0.7553070E-04  0.1667815E+04  0.7818609E-02  0.8779936E-01
        2   -1    0    0  501    0  0.00000000000E+00  0.00000000000E+00  0.27468091691E+04  0.27468091691E+04  0.25500000920E-02 0.  1.
       -2   -1    0    0    0  501  0.00000000000E+00  0.00000000000E+00 -0.25316718075E+03  0.25316718076E+03  0.25500000920E-02 0. -1.
    10030    2    1    2    0    0  0.00000000000E+00  0.00000000000E+00  0.24936419884E+04  0.29999763499E+04  0.16678152577E+04 0.  0.
        4    1    3    3  502    0 -0.43129184588E+03  0.68647221269E+03  0.89551906783E+03  0.12079787949E+04  0.12699999809E+01 0. -1.
       -4    1    3    3    0  502  0.43129184588E+03 -0.68647221269E+03  0.15981229206E+04  0.17919975550E+04  0.12699999809E+01 0.  1.
</event>
<event>
 5   0  0.3889847E-04  0.1578920E+04  0.7818609E-02  0.8833604E-01
        1   -1    0    0  501    0  0.00000000000E+00  0.00000000000E+00  0.12214715372E+04  0.12214715372E+04  0.50400001928E-02 0.  1.
       -1   -1    0    0    0  501  0.00000000000E+00  0.00000000000E+00 -0.51024253670E+03  0.51024253673E+03  0.50400001928E-02 0. -1.
    10030    2    1    2    0    0  0.00000000000E+00  0.00000000000E+00  0.71122900049E+03  0.17317140739E+04  0.15789195492E+04 0.  0.
        1    1    3    3  502    0  0.49871761608E+03 -0.16255287755E+03 -0.29148447877E+03  0.60008824349E+03  0.50400001928E-02 0. -1.
       -1    1    3    3    0  502 -0.49871761608E+03  0.16255287755E+03  0.10027134793E+04  0.11316258304E+04  0.50400001928E-02 0.  1.
</event>
<event>
 5   0  0.7415102E-04  0.1612360E+04  0.7818609E-02  0.8812991E-01
       -2   -1    0    0    0  501  0.00000000000E+00  0.00000000000E+00  0.49719142217E+03  0.49719142218E+03  0.25500000920E-02 0. -1.
        2   -1    0    0  501    0  0.00000000000E+00  0.00000000000E+00 -0.13071949768E+04  0.13071949768E+04  0.25500000920E-02 0.  1.
    10030    2    1    2    0    0  0.00000000000E+00  0.00000000000E+00 -0.81000355467E+03  0.18043863990E+04  0.16123599221E+04 0.  0.
        5    1    3    3  502    0 -0.70166509257E+03 -0.26955729129E+03 -0.73109699074E+03  0.10485799613E+04  0.46999998093E+01 0.  1.
       -5    1    3    3    0  502  0.70166509257E+03  0.26955729129E+03 -0.78906563929E+02  0.75580643769E+03  0.46999998093E+01 0. -1.
</event>
<event>
 5   0  0.2781000E-04  0.1593292E+04  0.7818609E-02  0.8824679E-01
       -3   -1    0    0    0  501  0.00000000000E+00  0.00000000000E+00  0.68247878340E+03  0.68247879088E+03  0.10100000352E+00 0.  1.
        3   -1    0    0  501    0  0.00000000000E+00  0.00000000000E+00 -0.92991178235E+03  0.92991178783E+03  0.10100000352E+00 0. -1.
    10030    2    1    2    0    0  0.00000000000E+00  0.00000000000E+00 -0.24743299894E+03  0.16123905787E+04  0.15932922800E+04 0.  0.
        5    1    3    3  502    0  0.48162548210E+03  0.19626334615E+03 -0.73439036973E+03  0.89990761259E+03  0.46999998093E+01 0. -1.
       -5    1    3    3    0  502 -0.48162548210E+03 -0.19626334615E+03  0.48695737078E+03  0.71248296612E+03  0.46999998093E+01 0.  1.
</event>
<event>
 5   0  0.7395088E-04  0.1587794E+04  0.7818609E-02  0.8828082E-01
       -2   -1    0    0    0  501  0.00000000000E+00  0.00000000000E+00  0.46177430988E+03  0.46177430988E+03  0.25500000920E-02 0. -1.
        2   -1    0    0  501    0  0.00000000000E+00  0.00000000000E+00 -0.13648923998E+04  0.13648923998E+04  0.25500000920E-02 0.  1.
    10030    2    1    2    0    0  0.00000000000E+00  0.00000000000E+00 -0.90311808992E+03  0.18266667097E+04  0.15877937473E+04 0.  0.
        1    1    3    3  502    0 -0.19685639341E+03 -0.37947417157E+02 -0.13352910844E+04  0.13502572815E+04  0.50400001928E-02 0.  1.
       -1    1    3    3    0  502  0.19685639341E+03  0.37947417157E+02  0.43217299448E+03  0.47640942820E+03  0.50400001928E-02 0. -1.
</event>
<event>
 5   0  0.7488884E-04  0.1594123E+04  0.7818609E-02  0.8824167E-01
       -2   -1    0    0    0  501  0.00000000000E+00  0.00000000000E+00  0.27245628514E+03  0.27245628515E+03  0.25500000920E-02 0. -1.
        2   -1    0    0  501    0  0.00000000000E+00  0.00000000000E+00 -0.23317755025E+04  0.23317755025E+04  0.25500000920E-02 0.  1.
    10030    2    1    2    0    0  0.00000000000E+00  0.00000000000E+00 -0.20593192174E+04  0.26042317877E+04  0.15941228199E+04 0.  0.
        3    1    3    3  502    0 -0.55329122954E+03  0.26091959526E+01 -0.19669350708E+04  0.20432747186E+04  0.10100000352E+00 0.  1.
       -3    1    3    3    0  502  0.55329122954E+03 -0.26091959526E+01 -0.92384146530E+02  0.56095706905E+03  0.10100000352E+00 0. -1.
</event>
<event>
 5   0  0.3889847E-04  0.1621849E+04  0.7818609E-02  0.8807236E-01
       -1   -1    0    0    0  501  0.00000000000E+00  0.00000000000E+00  0.10159721593E+04  0.10159721593E+04  0.50400001928E-02 0.  1.
        1   -1    0    0  501    0  0.00000000000E+00  0.00000000000E+00 -0.64726067896E+03  0.64726067898E+03  0.50400001928E-02 0. -1.
    10030    2    1    2    0    0  0.00000000000E+00  0.00000000000E+00  0.36871148031E+03  0.16632328383E+04  0.16218493514E+04 0.  0.
        1    1    3    3  502    0 -0.43463303575E+03  0.68459384796E+03  0.18940240375E+03  0.83273518179E+03  0.50400001928E-02 0.  1.
       -1    1    3    3    0  502  0.43463303575E+03 -0.68459384796E+03  0.17930907656E+03  0.83049765646E+03  0.50400001928E-02 0. -1.
</event>
<event>
 5   0  0.3950195E-04  0.1520154E+04  0.7818609E-02  0.8871160E-01
       -1   -1    0    0    0  501  0.00000000000E+00  0.00000000000E+00  0.64315617604E+03  0.64315617606E+03  0.50400001928E-02 0. -1.
        1   -1    0    0  501    0  0.00000000000E+00  0.00000000000E+00 -0.89825335198E+03  0.89825335199E+03  0.50400001928E-02 0.  1.
    10030    2    1    2    0    0  0.00000000000E+00  0.00000000000E+00 -0.25509717594E+03  0.15414095281E+04  0.15201541909E+04 0.  0.
        2    1    3    3  502    0  0.37995436966E+03 -0.61285943938E+03 -0.37123193555E+03  0.81103339354E+03  0.25500000920E-02 0.  1.
       -2    1    3    3    0  502 -0.37995436966E+03  0.61285943938E+03  0.11613475961E+03  0.73037613451E+03  0.25500000920E-02 0. -1.
</event>
<event>
 5   0  0.7395088E-04  0.1585045E+04  0.7818609E-02  0.8829788E-01
       -2   -1    0    0    0  501  0.00000000000E+00  0.00000000000E+00  0.67665027719E+03  0.67665027719E+03  0.25500000920E-02 0. -1.
        2   -1    0    0  501    0  0.00000000000E+00  0.00000000000E+00 -0.92823765848E+03  0.92823765849E+03  0.25500000920E-02 0.  1.
    10030    2    1    2    0    0  0.00000000000E+00  0.00000000000E+00 -0.25158738130E+03  0.16048879357E+04  0.15850454491E+04 0.  0.
        1    1    3    3  502    0 -0.23177391534E+02  0.44915462127E+03 -0.78650779019E+03  0.90601962966E+03  0.50400001928E-02 0.  1.
       -1    1    3    3    0  502  0.23177391534E+02 -0.44915462127E+03  0.53492040889E+03  0.69886830602E+03  0.50400001928E-02 0. -1.
</event>
<event>
 5   0  0.7488884E-04  0.1617772E+04  0.7818609E-02  0.8809704E-01
       -2   -1    0    0    0  501  0.00000000000E+00  0.00000000000E+00  0.39397613250E+03  0.39397613251E+03  0.25500000920E-02 0. -1.
        2   -1    0    0  501    0  0.00000000000E+00  0.00000000000E+00 -0.16607510948E+04  0.16607510948E+04  0.25500000920E-02 0.  1.
    10030    2    1    2    0    0  0.00000000000E+00  0.00000000000E+00 -0.12667749623E+04  0.20547272273E+04  0.16177716691E+04 0.  0.
        3    1    3    3  502    0  0.61118962695E+03 -0.48234872903E+03 -0.91189296566E+03  0.11990670738E+04  0.10100000352E+00 0.  1.
       -3    1    3    3    0  502 -0.61118962695E+03  0.48234872903E+03 -0.35488199660E+03  0.85566015345E+03  0.10100000352E+00 0. -1.
</event>
<event>
 5   0  0.4110803E-04  0.1548528E+04  0.7818609E-02  0.8852809E-01
       -1   -1    0    0    0  501  0.00000000000E+00  0.00000000000E+00  0.61387044554E+03  0.61387044556E+03  0.50400001928E-02 0.  1.
        1   -1    0    0  501    0  0.00000000000E+00  0.00000000000E+00 -0.97656546970E+03  0.97656546971E+03  0.50400001928E-02 0. -1.
    10030    2    1    2    0    0  0.00000000000E+00  0.00000000000E+00 -0.36269502416E+03  0.15904359153E+04  0.15485279203E+04 0.  0.
        5    1    3    3  502    0  0.49904303908E+03  0.19879860032E+03 -0.75401947975E+03  0.92581440051E+03  0.46999998093E+01 0. -1.
       -5    1    3    3    0  502 -0.49904303908E+03 -0.19879860032E+03  0.39132445559E+03  0.66462151477E+03  0.46999998093E+01 0.  1.
</event>
<event>
 5   0  0.7488884E-04  0.1624812E+04  0.7818609E-02  0.8805448E-01
       -2   -1    0    0    0  501  0.00000000000E+00  0.00000000000E+00  0.35452814141E+03  0.35452814142E+03  0.25500000920E-02 0. -1.
        2   -1    0    0  501    0  0.00000000000E+00  0.00000000000E+00 -0.18616398906E+04  0.18616398906E+04  0.25500000920E-02 0.  1.
    10030    2    1    2    0    0  0.00000000000E+00  0.00000000000E+00 -0.15071117492E+04  0.22161680320E+04  0.16248122727E+04 0.  0.
        3    1    3    3  502    0 -0.16040382090E+03  0.13927338244E+03  0.31597594767E+03  0.38074567696E+03  0.10100000352E+00 0. -1.
       -3    1    3    3    0  502  0.16040382090E+03 -0.13927338244E+03 -0.18230876968E+04  0.18354223550E+04  0.10100000352E+00 0.  1.
</event>
<event>
 5   0  0.3837251E-04  0.1681702E+04  0.7818609E-02  0.8771870E-01
        1   -1    0    0  501    0  0.00000000000E+00  0.00000000000E+00  0.97326848575E+03  0.97326848576E+03  0.50400001928E-02 0.  1.
       -1   -1    0    0    0  501  0.00000000000E+00  0.00000000000E+00 -0.72644974582E+03  0.72644974584E+03  0.50400001928E-02 0. -1.
    10030    2    1    2    0    0  0.00000000000E+00  0.00000000000E+00  0.24681873993E+03  0.16997182316E+04  0.16817022853E+04 0.  0.
        4    1    3    3  502    0  0.68113275798E+03 -0.15655519181E+03  0.59594081426E+03  0.91847614508E+03  0.12699999809E+01 0.  1.
       -4    1    3    3    0  502 -0.68113275798E+03  0.15655519181E+03 -0.34912207434E+03  0.78124208653E+03  0.12699999809E+01 0. -1.
</event>
<event>
 5   0  0.3837251E-04  0.1561242E+04  0.7818609E-02  0.8844719E-01
        1   -1    0    0  501    0  0.00000000000E+00  0.00000000000E+00  0.69245043785E+03  0.69245043787E+03  0.50400001928E-02 0. -1.
       -1   -1    0    0    0  501  0.00000000000E+00  0.00000000000E+00 -0.88001866455E+03  0.88001866456E+03  0.50400001928E-02 0.  1.
    10030    2    1    2    0    0  0.00000000000E+00  0.00000000000E+00 -0.18756822670E+03  0.15724691024E+04  0.15612422100E+04 0.  0.
        4    1    3    3  502    0 -0.43045213881E+03  0.24052349021E+03  0.51573464713E+03  0.71352955951E+03  0.12699999809E+01 0. -1.
       -4    1    3    3    0  502  0.43045213881E+03 -0.24052349021E+03 -0.70330287382E+03  0.85893954292E+03  0.12699999809E+01 0.  1.
</event>
<event>
 5   0  0.7488884E-04  0.1584329E+04  0.7818609E-02  0.8830234E-01
       -2   -1    0    0    0  501  0.00000000000E+00  0.00000000000E+00  0.31145888789E+03  0.31145888790E+03  0.25500000920E-02 0. -1.
        2   -1    0    0  501    0  0.00000000000E+00  0.00000000000E+00 -0.20147902699E+04  0.20147902699E+04  0.25500000920E-02 0.  1.
    10030    2    1    2    0    0  0.00000000000E+00  0.00000000000E+00 -0.17033313820E+04  0.23262491578E+04  0.15843286740E+04 0.  0.
        3    1    3    3  502    0 -0.16871042126E+03 -0.43800053872E+03 -0.17886314264E+04  0.18491917337E+04  0.10100000352E+00 0.  1.
       -3    1    3    3    0  502  0.16871042126E+03  0.43800053872E+03  0.85300044376E+02  0.47705742414E+03  0.10100000352E+00 0. -1.
</event>
<event>
 5   0  0.3973227E-04  0.1586251E+04  0.7818609E-02  0.8829040E-01
        1   -1    0    0  501    0  0.00000000000E+00  0.00000000000E+00  0.10011022238E+04  0.10011022238E+04  0.50400001928E-02 0. -1.
       -1   -1    0    0    0  501  0.00000000000E+00  0.00000000000E+00 -0.62835522397E+03  0.62835522399E+03  0.50400001928E-02 0.  1.
    10030    2    1    2    0    0  0.00000000000E+00  0.00000000000E+00  0.37274699978E+03  0.16294574478E+04  0.15862506890E+04 0.  0.
        3    1    3    3  502    0  0.53517144672E+03  0.46406415838E+03 -0.18011279157E+03  0.73089304852E+03  0.10100000352E+00 0.  1.
       -3    1    3    3    0  502 -0.53517144672E+03 -0.46406415838E+03  0.55285979135E+03  0.89856439924E+03  0.10100000352E+00 0. -1.
</event>
<event>
 5   0  0.3889847E-04  0.1587650E+04  0.7818609E-02  0.8828171E-01
       -1   -1    0    0    0  501  0.00000000000E+00  0.00000000000E+00  0.90720925767E+03  0.90720925768E+03  0.50400001928E-02 0.  1.
        1   -1    0    0  501    0  0.00000000000E+00  0.00000000000E+00 -0.69461184714E+03  0.69461184716E+03  0.50400001928E-02 0. -1.
    10030    2    1    2    0    0  0.00000000000E+00  0.00000000000E+00  0.21259741053E+03  0.16018211048E+04  0.15876502111E+04 0.  0.
        1    1    3    3  502    0  0.58657926665E+03  0.37343034071E+02  0.64462326484E+03  0.87235823596E+03  0.50400001928E-02 0.  1.
       -1    1    3    3    0  502 -0.58657926665E+03 -0.37343034071E+02 -0.43202585431E+03  0.72946286888E+03  0.50400001928E-02 0. -1.
</event>
<event>
 5   0  0.3837251E-04  0.1486169E+04  0.7818609E-02  0.8893703E-01
        1   -1    0    0  501    0  0.00000000000E+00  0.00000000000E+00  0.13244542512E+04  0.13244542512E+04  0.50400001928E-02 0. -1.
       -1   -1    0    0    0  501  0.00000000000E+00  0.00000000000E+00 -0.41690714575E+03  0.41690714578E+03  0.50400001928E-02 0.  1.
    10030    2    1    2    0    0  0.00000000000E+00  0.00000000000E+00  0.90754710544E+03  0.17413613970E+04  0.14861688216E+04 0.  0.
        4    1    3    3  502    0 -0.40421171300E+03 -0.29400996830E+03 -0.19050154004E+03  0.53490318754E+03  0.12699999809E+01 0.  1.
       -4    1    3    3    0  502  0.40421171300E+03  0.29400996830E+03  0.10980486455E+04  0.12064582094E+04  0.12699999809E+01 0. -1.
</event>
<event>
 5   0  0.7770905E-04  0.1563304E+04  0.7818609E-02  0.8843414E-01
       -2   -1    0    0    0  501  0.00000000000E+00  0.00000000000E+00  0.10563315488E+04  0.10563315488E+04  0.25500000920E-02 0.  1.
        2   -1    0    0  501    0  0.00000000000E+00  0.00000000000E+00 -0.57839791235E+03  0.57839791236E+03  0.25500000920E-02 0. -1.
    10030    2    1    2    0    0  0.00000000000E+00  0.00000000000E+00  0.47793363648E+03  0.16347294612E+04  0.15633041452E+04 0.  0.
        2    1    3    3  502    0 -0.41976481550E+03 -0.62132312776E+03  0.46981318471E+03  0.88485555768E+03  0.25500000920E-02 0. -1.
       -2    1    3    3    0  502  0.41976481550E+03  0.62132312776E+03  0.81204517697E+01  0.74987390351E+03  0.25500000920E-02 0.  1.
</event>
<event>
 5   0  0.7770905E-04  0.1590026E+04  0.7818609E-02  0.8826699E-01
        2   -1    0    0  501    0  0.00000000000E+00  0.00000000000E+00  0.16364659602E+04  0.16364659602E+04  0.25500000920E-02 0. -1.
       -2   -1    0    0    0  501  0.00000000000E+00  0.00000000000E+00 -0.38622587364E+03  0.38622587365E+03  0.25500000920E-02 0.  1.
    10030    2    1    2    0    0  0.00000000000E+00  0.00000000000E+00  0.12502400865E+04  0.20226918338E+04  0.15900257799E+04 0.  0.
        2    1    3    3  502    0  0.18410798160E+03  0.29970547401E+03 -0.28185821694E+03  0.45073625825E+03  0.25500000920E-02 0.  1.
       -2    1    3    3    0  502 -0.18410798160E+03 -0.29970547401E+03  0.15320983035E+04  0.15719555756E+04  0.25500000920E-02 0. -1.
</event>
<event>
 5   0  0.7770905E-04  0.1591814E+04  0.7818609E-02  0.8825593E-01
       -2   -1    0    0    0  501  0.00000000000E+00  0.00000000000E+00  0.75217412630E+03  0.75217412630E+03  0.25500000920E-02 0.  1.
        2   -1    0    0  501    0  0.00000000000E+00  0.00000000000E+00 -0.84218302791E+03  0.84218302791E+03  0.25500000920E-02 0. -1.
    10030    2    1    2    0    0  0.00000000000E+00  0.00000000000E+00 -0.90008901608E+02  0.15943571542E+04  0.15918144153E+04 0.  0.
        2    1    3    3  502    0  0.24933263498E+03  0.36586229992E+03 -0.70745818766E+03  0.83457718197E+03  0.25500000920E-02 0. -1.
       -2    1    3    3    0  502 -0.24933263498E+03 -0.36586229992E+03  0.61744928605E+03  0.75977997225E+03  0.25500000920E-02 0.  1.
</event>
<event>
 5   0  0.3950195E-04  0.1598461E+04  0.7818609E-02  0.8821494E-01
       -1   -1    0    0    0  501  0.00000000000E+00  0.00000000000E+00  0.65712511973E+03  0.65712511975E+03  0.50400001928E-02 0.  1.
        1   -1    0    0  501    0  0.00000000000E+00  0.00000000000E+00 -0.97206705975E+03  0.97206705976E+03  0.50400001928E-02 0. -1.
    10030    2    1    2    0    0  0.00000000000E+00  0.00000000000E+00 -0.31494194002E+03  0.16291921795E+04  0.15984613640E+04 0.  0.
        2    1    3    3  502    0 -0.32954520962E+03 -0.38405485283E+03  0.47302633857E+03  0.69271357151E+03  0.25500000920E-02 0.  1.
       -2    1    3    3    0  502  0.32954520962E+03  0.38405485283E+03 -0.78796827859E+03  0.93647860800E+03  0.25500000920E-02 0. -1.
</event>
<event>
 5   0  0.3837251E-04  0.1681356E+04  0.7818609E-02  0.8772070E-01
        1   -1    0    0  501    0  0.00000000000E+00  0.00000000000E+00  0.13356527484E+04  0.13356527484E+04  0.50400001928E-02 0. -1.
       -1   -1    0    0    0  501  0.00000000000E+00  0.00000000000E+00 -0.52913401939E+03  0.52913401941E+03  0.50400001928E-02 0.  1.
    10030    2    1    2    0    0  0.00000000000E+00  0.00000000000E+00  0.80651872902E+03  0.18647867678E+04  0.16813557712E+04 0.  0.
        4    1    3    3  502    0  0.45441505317E+03 -0.50567309642E+03  0.95171809931E+03  0.11696013314E+04  0.12699999809E+01 0. -1.
       -4    1    3    3    0  502 -0.45441505317E+03  0.50567309642E+03 -0.14519937029E+03  0.69518543642E+03  0.12699999809E+01 0.  1.
</event>
<event>
 5   0  0.3973227E-04  0.1612099E+04  0.7818609E-02  0.8813149E-01
        1   -1    0    0  501    0  0.00000000000E+00  0.00000000000E+00  0.61427883483E+03  0.61427883485E+03  0.50400001928E-02 0.  1.
       -1   -1    0    0    0  501  0.00000000000E+00  0.00000000000E+00 -0.10576893394E+04  0.10576893394E+04  0.50400001928E-02 0. -1.
    10030    2    1    2    0    0  0.00000000000E+00  0.00000000000E+00 -0.44341050454E+03  0.16719681742E+04  0.16120994697E+04 0.  0.
        3    1    3    3  502    0  0.63637816693E+03  0.45003962754E+03 -0.86415268481E+01  0.77947900799E+03  0.10100000352E+00 0.  1.
       -3    1    3    3    0  502 -0.63637816693E+03 -0.45003962754E+03 -0.43476897769E+03  0.89248916624E+03  0.10100000352E+00 0. -1.
</event>
<event>
 5   0  0.7415102E-04  0.1577686E+04  0.7818609E-02  0.8834375E-01
       -2   -1    0    0    0  501  0.00000000000E+00  0.00000000000E+00  0.55126550513E+03  0.55126550514E+03  0.25500000920E-02 0. -1.
        2   -1    0    0  501    0  0.00000000000E+00  0.00000000000E+00 -0.11288081403E+04  0.11288081403E+04  0.25500000920E-02 0.  1.
    10030    2    1    2    0    0  0.00000000000E+00  0.00000000000E+00 -0.57754263512E+03  0.16800736454E+04  0.15776856336E+04 0.  0.
        5    1    3    3  502    0 -0.54097634279E+03  0.20836925422E+03 -0.85844450722E+03  0.10358678543E+04  0.46999998093E+01 0.  1.
       -5    1    3    3    0  502  0.54097634279E+03 -0.20836925422E+03  0.28090187209E+03  0.64420579112E+03  0.46999998093E+01 0. -1.
</event>
<event>
 5   0  0.3837251E-04  0.1546908E+04  0.7818609E-02  0.8853845E-01
        1   -1    0    0  501    0  0.00000000000E+00  0.00000000000E+00  0.10321635227E+04  0.10321635227E+04  0.50400001928E-02 0.  1.
       -1   -1    0    0    0  501  0.00000000000E+00  0.00000000000E+00 -0.57958961834E+03  0.57958961836E+03  0.50400001928E-02 0. -1.
    10030    2    1    2    0    0  0.00000000000E+00  0.00000000000E+00  0.45257390433E+03  0.16117531410E+04  0.15469082225E+04 0.  0.
        4    1    3    3  502    0  0.44527207971E+01 -0.65741275537E+03  0.65082043402E+03  0.92508389235E+03  0.12699999809E+01 0.  1.
       -4    1    3    3    0  502 -0.44527207971E+01  0.65741275537E+03 -0.19824652969E+03  0.68666924868E+03  0.12699999809E+01 0. -1.
</event>
<event>
 5   0  0.7415102E-04  0.1602159E+04  0.7818609E-02  0.8819223E-01
        2   -1    0    0  501    0  0.00000000000E+00  0.00000000000E+00  0.96033582707E+03  0.96033582707E+03  0.25500000920E-02 0.  1.
       -2   -1    0    0    0  501  0.00000000000E+00  0.00000000000E+00 -0.66823335077E+03  0.66823335077E+03  0.25500000920E-02 0. -1.
    10030    2    1    2    0    0  0.00000000000E+00  0.00000000000E+00  0.29210247630E+03  0.16285691778E+04  0.16021590777E+04 0.  0.
        5    1    3    3  502    0  0.39458620495E+03  0.33021158100E+03 -0.47804711380E+03  0.70234542383E+03  0.46999998093E+01 0. -1.
       -5    1    3    3    0  502 -0.39458620495E+03 -0.33021158100E+03  0.77014959010E+03  0.92622375401E+03  0.46999998093E+01 0.  1.
</event>
<event>
 5   0  0.3837251E-04  0.1595711E+04  0.7818609E-02  0.8823187E-01
       -1   -1    0    0    0  501  0.00000000000E+00  0.00000000000E+00  0.57523911379E+03  0.57523911381E+03  0.50400001928E-02 0. -1.
        1   -1    0    0  501    0  0.00000000000E+00  0.00000000000E+00 -0.11066241562E+04  0.11066241562E+04  0.50400001928E-02 0.  1.
    10030    2    1    2    0    0  0.00000000000E+00  0.00000000000E+00 -0.53138504244E+03  0.16818632700E+04  0.15957111254E+04 0.  0.
        4    1    3    3  502    0 -0.35264550968E+03  0.33103480459E+03 -0.93448123164E+03  0.10522355642E+04  0.12699999809E+01 0.  1.
       -4    1    3    3    0  502  0.35264550968E+03 -0.33103480459E+03  0.40309618920E+03  0.62962770586E+03  0.12699999809E+01 0. -1.
</event>
<event>
 5   0  0.4110803E-04  0.1595013E+04  0.7818609E-02  0.8823617E-01
       -1   -1    0    0    0  501  0.00000000000E+00  0.00000000000E+00  0.67378725023E+03  0.67378725025E+03  0.50400001928E-02 0. -1.
        1   -1    0    0  501    0  0.00000000000E+00  0.00000000000E+00 -0.94394319380E+03  0.94394319382E+03  0.50400001928E-02 0.  1.
    10030    2    1    2    0    0  0.00000000000E+00  0.00000000000E+00 -0.27015594357E+03  0.16177304441E+04  0.15950133403E+04 0.  0.
        5    1    3    3  502    0  0.75562184920E+03 -0.18345288397E+03  0.44576025652E+02  0.77886356423E+03  0.46999998093E+01 0. -1.
       -5    1    3    3    0  502 -0.75562184920E+03  0.18345288397E+03 -0.31473196922E+03  0.83886687983E+03  0.46999998093E+01 0.  1.
</event>
<event>
 5   0  0.3973227E-04  0.1587002E+04  0.7818609E-02  0.8828573E-01
        1   -1    0    0  501    0  0.00000000000E+00  0.00000000000E+00  0.16032190081E+04  0.16032190081E+04  0.50400001928E-02 0. -1.
       -1   -1    0    0    0  501  0.00000000000E+00  0.00000000000E+00 -0.39273729506E+03  0.39273729509E+03  0.50400001928E-02 0.  1.
    10030    2    1    2    0    0  0.00000000000E+00  0.00000000000E+00  0.12104817130E+04  0.19959563032E+04  0.15870020752E+04 0.  0.
        3    1    3    3  502    0  0.17133756035E+03  0.67113129025E+03  0.11835062729E+03  0.70269527501E+03  0.10100000352E+00 0.  1.
       -3    1    3    3    0  502 -0.17133756035E+03 -0.67113129025E+03  0.10921310857E+04  0.12932610282E+04  0.10100000352E+00 0. -1.
</event>
<event>
 5   0  0.3889847E-04  0.1588381E+04  0.7818609E-02  0.8827718E-01
       -1   -1    0    0    0  501  0.00000000000E+00  0.00000000000E+00  0.96745701354E+03  0.96745701356E+03  0.50400001928E-02 0.  1.
        1   -1    0    0  501    0  0.00000000000E+00  0.00000000000E+00 -0.65195503159E+03  0.65195503161E+03  0.50400001928E-02 0. -1.
    10030    2    1    2    0    0  0.00000000000E+00  0.00000000000E+00  0.31550198195E+03  0.16194120452E+04  0.15883808962E+04 0.  0.
        1    1    3    3  502    0  0.42412588564E+03  0.12567017413E+03 -0.51472787403E+03  0.67869031514E+03  0.50400001928E-02 0. -1.
       -1    1    3    3    0  502 -0.42412588564E+03 -0.12567017413E+03  0.83022985599E+03  0.94072173002E+03  0.50400001928E-02 0.  1.
</event>
<event>
 5   0  0.7553070E-04  0.1520056E+04  0.7818609E-02  0.8871224E-01
       -2   -1    0    0    0  501  0.00000000000E+00  0.00000000000E+00  0.58739026130E+03  0.58739026130E+03  0.25500000920E-02 0.  1.
        2   -1    0    0  501    0  0.00000000000E+00  0.00000000000E+00 -0.98340570287E+03  0.98340570287E+03  0.25500000920E-02 0. -1.
    10030    2    1    2    0    0  0.00000000000E+00  0.00000000000E+00 -0.39601544157E+03  0.15707959642E+04  0.15200564894E+04 0.  0.
        4    1    3    3  502    0  0.61597177318E+03  0.79997125147E+02  0.25458505756E+03  0.67129422001E+03  0.12699999809E+01 0.  1.
       -4    1    3    3    0  502 -0.61597177318E+03 -0.79997125147E+02 -0.65060049913E+03  0.89950174417E+03  0.12699999809E+01 0. -1.
</event>
<event>
 5   0  0.7770905E-04  0.1989855E+04  0.7818609E-02  0.8611378E-01
       -2   -1    0    0    0  501  0.00000000000E+00  0.00000000000E+00  0.49732451331E+03  0.49732451332E+03  0.25500000920E-02 0. -1.
        2   -1    0    0  501    0  0.00000000000E+00  0.00000000000E+00 -0.19904126927E+04  0.19904126927E+04  0.25500000920E-02 0.  1.
    10030    2    1    2    0    0  0.00000000000E+00  0.00000000000E+00 -0.14930881793E+04  0.24877372060E+04  0.19898552949E+04 0.  0.
        2    1    3    3  502    0  0.23190050069E+03 -0.95253258252E+03 -0.95865600825E+03  0.13711737691E+04  0.25500000920E-02 0.  1.
       -2    1    3    3    0  502 -0.23190050069E+03  0.95253258252E+03 -0.53443217109E+03  0.11165634368E+04  0.25500000920E-02 0. -1.
</event>
<event>
 5   0  0.3973227E-04  0.1620320E+04  0.7818609E-02  0.8808161E-01
       -1   -1    0    0    0  501  0.00000000000E+00  0.00000000000E+00  0.13634866432E+04  0.13634866432E+04  0.50400001928E-02 0.  1.
        1   -1    0    0  501    0  0.00000000000E+00  0.00000000000E+00 -0.48138324743E+03  0.48138324745E+03  0.50400001928E-02 0. -1.
    10030    2    1    2    0    0  0.00000000000E+00  0.00000000000E+00  0.88210339579E+03  0.18448698907E+04  0.16203204969E+04 0.  0.
        3    1    3    3  502    0 -0.13526696271E+03  0.28507886651E+03  0.12906458376E+04  0.13286586468E+04  0.10100000352E+00 0.  1.
       -3    1    3    3    0  502  0.13526696271E+03 -0.28507886651E+03 -0.40854244183E+03  0.51621124388E+03  0.10100000352E+00 0. -1.
</event>
<event>
 5   0  0.7488884E-04  0.1651858E+04  0.7818609E-02  0.8789308E-01
        2   -1    0    0  501    0  0.00000000000E+00  0.00000000000E+00  0.20365540930E+04  0.20365540930E+04  0.25500000920E-02 0. -1.
       -2   -1    0    0    0  501  0.00000000000E+00  0.00000000000E+00 -0.33495749495E+03  0.33495749496E+03  0.25500000920E-02 0.  1.
    10030    2    1    2    0    0  0.00000000000E+00  0.00000000000E+00  0.17015965980E+04  0.23715115879E+04  0.16518584168E+04 0.  0.
        3    1    3    3  502    0  0.32587171751E+03  0.72017339508E+03  0.50708686974E+03  0.93913747605E+03  0.10100000352E+00 0.  1.
       -3    1    3    3    0  502 -0.32587171751E+03 -0.72017339508E+03  0.11945097283E+04  0.14323741119E+04  0.10100000352E+00 0. -1.
</event>
<event>
 5   0  0.3889847E-04  0.1608815E+04  0.7818609E-02  0.8815151E-01
       -1   -1    0    0    0  501  0.00000000000E+00  0.00000000000E+00  0.10901643255E+04  0.10901643255E+04  0.50400001928E-02 0. -1.
        1   -1    0    0  501    0  0.00000000000E+00  0.00000000000E+00 -0.59355413973E+03  0.59355413976E+03  0.50400001928E-02 0.  1.
    10030    2    1    2    0    0  0.00000000000E+00  0.00000000000E+00  0.49661018575E+03  0.16837184653E+04  0.16088151521E+04 0.  0.
        1    1    3    3  502    0 -0.60847593478E+03  0.30903900962E+03 -0.19734124760E+03  0.71041652621E+03  0.50400001928E-02 0.  1.
       -1    1    3    3    0  502  0.60847593478E+03 -0.30903900962E+03  0.69395143336E+03  0.97330193905E+03  0.50400001928E-02 0. -1.
</event>
<event>
 5   0  0.3837251E-04  0.1580278E+04  0.7818609E-02  0.8832756E-01
       -1   -1    0    0    0  501  0.00000000000E+00  0.00000000000E+00  0.37723763524E+03  0.37723763527E+03  0.50400001928E-02 0.  1.
        1   -1    0    0  501    0  0.00000000000E+00  0.00000000000E+00 -0.16549771426E+04  0.16549771426E+04  0.50400001928E-02 0. -1.
    10030    2    1    2    0    0  0.00000000000E+00  0.00000000000E+00 -0.12777395073E+04  0.20322147778E+04  0.15802780308E+04 0.  0.
        4    1    3    3  502    0  0.28066550138E+03 -0.73733267481E+03 -0.58302992886E+03  0.98099852592E+03  0.12699999809E+01 0. -1.
       -4    1    3    3    0  502 -0.28066550138E+03  0.73733267481E+03 -0.69470957845E+03  0.10512162519E+04  0.12699999809E+01 0.  1.
</event>
<event>
 5   0  0.4110803E-04  0.1574934E+04  0.7818609E-02  0.8836096E-01
       -1   -1    0    0    0  501  0.00000000000E+00  0.00000000000E+00  0.10663029456E+04  0.10663029456E+04  0.50400001928E-02 0. -1.
        1   -1    0    0  501    0  0.00000000000E+00  0.00000000000E+00 -0.58154632032E+03  0.58154632034E+03  0.50400001928E-02 0.  1.
    10030    2    1    2    0    0  0.00000000000E+00  0.00000000000E+00  0.48475662531E+03  0.16478492660E+04  0.15749343534E+04 0.  0.
        5    1    3    3  502    0 -0.42099661901E+03  0.31290129432E+03 -0.37212605643E+03  0.64315259859E+03  0.46999998093E+01 0.  1.
       -5    1    3    3    0  502  0.42099661901E+03 -0.31290129432E+03  0.85688268173E+03  0.10046966674E+04  0.46999998093E+01 0. -1.
</event>
<event>
 5   0  0.7488884E-04  0.1602014E+04  0.7818609E-02  0.8819312E-01
        2   -1    0    0  501    0  0.00000000000E+00  0.00000000000E+00  0.11155232866E+04  0.11155232866E+04  0.25500000920E-02 0.  1.
       -2   -1    0    0    0  501  0.00000000000E+00  0.00000000000E+00 -0.57516721488E+03  0.57516721489E+03  0.25500000920E-02 0. -1.
    10030    2    1    2    0    0  0.00000000000E+00  0.00000000000E+00  0.54035607167E+03  0.16906905014E+04  0.16020142595E+04 0.  0.
        3    1    3    3  502    0 -0.27807798240E+03 -0.32672445231E+03 -0.44367770442E+03  0.61719214806E+03  0.10100000352E+00 0. -1.
       -3    1    3    3    0  502  0.27807798240E+03  0.32672445231E+03  0.98403377609E+03  0.10734983534E+04  0.10100000352E+00 0.  1.
</event>
<event>
 5   0  0.3889847E-04  0.1653211E+04  0.7818609E-02  0.8788509E-01
       -1   -1    0    0    0  501  0.00000000000E+00  0.00000000000E+00  0.48460613177E+03  0.48460613180E+03  0.50400001928E-02 0.  1.
        1   -1    0    0  501    0  0.00000000000E+00  0.00000000000E+00 -0.14099632744E+04  0.14099632744E+04  0.50400001928E-02 0. -1.
    10030    2    1    2    0    0  0.00000000000E+00  0.00000000000E+00 -0.92535714266E+03  0.18945694062E+04  0.16532112368E+04 0.  0.
        1    1    3    3  502    0  0.18661955062E+03 -0.62069963848E+03  0.12523058227E+03  0.66013452920E+03  0.50400001928E-02 0.  1.
       -1    1    3    3    0  502 -0.18661955062E+03  0.62069963848E+03 -0.10505877249E+04  0.12344348770E+04  0.50400001928E-02 0. -1.
</event>
<event>
 5   0  0.7395088E-04  0.1618564E+04  0.7818609E-02  0.8809224E-01
       -2   -1    0    0    0  501  0.00000000000E+00  0.00000000000E+00  0.73218376330E+03  0.73218376331E+03  0.25500000920E-02 0. -1.
        2   -1    0    0  501    0  0.00000000000E+00  0.00000000000E+00 -0.89449866433E+03  0.89449866433E+03  0.25500000920E-02 0.  1.
    10030    2    1    2    0    0  0.00000000000E+00  0.00000000000E+00 -0.16231490103E+03  0.16266824276E+04  0.16185640529E+04 0.  0.
        1    1    3    3  502    0 -0.20624506267E+03 -0.60553258392E+03  0.41704121503E+03  0.76362956407E+03  0.50400001928E-02 0. -1.
       -1    1    3    3    0  502  0.20624506267E+03  0.60553258392E+03 -0.57935611605E+03  0.86305286356E+03  0.50400001928E-02 0.  1.
</event>
<event>
 5   0  0.3837251E-04  0.1614870E+04  0.7818609E-02  0.8811464E-01
       -1   -1    0    0    0  501  0.00000000000E+00  0.00000000000E+00  0.56323303423E+03  0.56323303426E+03  0.50400001928E-02 0. -1.
        1   -1    0    0  501    0  0.00000000000E+00  0.00000000000E+00 -0.11575162641E+04  0.11575162641E+04  0.50400001928E-02 0.  1.
    10030    2    1    2    0    0  0.00000000000E+00  0.00000000000E+00 -0.59428322986E+03  0.17207492984E+04  0.16148701466E+04 0.  0.
        4    1    3    3  502    0 -0.24186907654E+03 -0.28075257023E+03  0.46726833852E+03  0.59637569448E+03  0.12699999809E+01 0. -1.
       -4    1    3    3    0  502  0.24186907654E+03  0.28075257023E+03 -0.10615515684E+04  0.11243736039E+04  0.12699999809E+01 0.  1.
</event>
<event>
 5   0  0.4110803E-04  0.1597219E+04  0.7818609E-02  0.8822258E-01
        1   -1    0    0  501    0  0.00000000000E+00  0.00000000000E+00  0.72960515622E+03  0.72960515624E+03  0.50400001928E-02 0.  1.
       -1   -1    0    0    0  501  0.00000000000E+00  0.00000000000E+00 -0.87414059246E+03  0.87414059247E+03  0.50400001928E-02 0. -1.
    10030    2    1    2    0    0  0.00000000000E+00  0.00000000000E+00 -0.14453543623E+03  0.16037457487E+04  0.15972194383E+04 0.  0.
        5    1    3    3  502    0  0.11765829983E+03 -0.70230105895E+03  0.29071340154E+03  0.76915968742E+03  0.46999998093E+01 0.  1.
       -5    1    3    3    0  502 -0.11765829983E+03  0.70230105895E+03 -0.43524883777E+03  0.83458606129E+03  0.46999998093E+01 0. -1.
</event>
<event>
 5   0  0.3950195E-04  0.1615543E+04  0.7818609E-02  0.8811056E-01
       -1   -1    0    0    0  501  0.00000000000E+00  0.00000000000E+00  0.43335162272E+03  0.43335162274E+03  0.50400001928E-02 0.  1.
        1   -1    0    0  501    0  0.00000000000E+00  0.00000000000E+00 -0.15056940106E+04  0.15056940106E+04  0.50400001928E-02 0. -1.
    10030    2    1    2    0    0  0.00000000000E+00  0.00000000000E+00 -0.10723423879E+04  0.19390456333E+04  0.16155431815E+04 0.  0.
        2    1    3    3  502    0 -0.22518895776E+03  0.75954764584E+02 -0.14627840625E+04  0.14819636995E+04  0.25500000920E-02 0. -1.
       -2    1    3    3    0  502  0.22518895776E+03 -0.75954764584E+02  0.39044167465E+03  0.45708193387E+03  0.25500000920E-02 0.  1.
</event>
<event>
 5   0  0.3950195E-04  0.1578351E+04  0.7818609E-02  0.8833959E-01
       -1   -1    0    0    0  501  0.00000000000E+00  0.00000000000E+00  0.40829497309E+03  0.40829497312E+03  0.50400001928E-02 0. -1.
        1   -1    0    0  501    0  0.00000000000E+00  0.00000000000E+00 -0.15253624004E+04  0.15253624004E+04  0.50400001928E-02 0.  1.
    10030    2    1    2    0    0  0.00000000000E+00  0.00000000000E+00 -0.11170674273E+04  0.19336573736E+04  0.15783507852E+04 0.  0.
        2    1    3    3  502    0  0.56665743369E+02 -0.78512446649E+03 -0.62747137460E+03  0.10066537440E+04  0.25500000920E-02 0. -1.
       -2    1    3    3    0  502 -0.56665743369E+02  0.78512446649E+03 -0.48959605274E+03  0.92700362956E+03  0.25500000920E-02 0.  1.
</event>
<event>
 5   0  0.4110803E-04  0.1580074E+04  0.7818609E-02  0.8832884E-01
       -1   -1    0    0    0  501  0.00000000000E+00  0.00000000000E+00  0.43726752514E+03  0.43726752517E+03  0.50400001928E-02 0. -1.
        1   -1    0    0  501    0  0.00000000000E+00  0.00000000000E+00 -0.14274060233E+04  0.14274060233E+04  0.50400001928E-02 0.  1.
    10030    2    1    2    0    0  0.00000000000E+00  0.00000000000E+00 -0.99013849813E+03  0.18646735484E+04  0.15800737947E+04 0.  0.
        5    1    3    3  502    0 -0.43251637721E+02 -0.31826328664E+03  0.35672255793E+03  0.48003676643E+03  0.46999998093E+01 0. -1.
       -5    1    3    3    0  502  0.43251637721E+02  0.31826328664E+03 -0.13468610561E+04  0.13846367820E+04  0.46999998093E+01 0.  1.
</event>
<event>
 5   0  0.7770905E-04  0.1600107E+04  0.7818609E-02  0.8820483E-01
       -2   -1    0    0    0  501  0.00000000000E+00  0.00000000000E+00  0.26607769141E+03  0.26607769143E+03  0.25500000920E-02 0.  1.
        2   -1    0    0  501    0  0.00000000000E+00  0.00000000000E+00 -0.24056328629E+04  0.24056328629E+04  0.25500000920E-02 0. -1.
    10030    2    1    2    0    0  0.00000000000E+00  0.00000000000E+00 -0.21395551715E+04  0.26717105544E+04  0.16001065447E+04 0.  0.
        2    1    3    3  502    0 -0.23720456462E+02  0.79932179630E+03 -0.11109230808E+04  0.13688053498E+04  0.25500000920E-02 0.  1.
       -2    1    3    3    0  502  0.23720456462E+02 -0.79932179630E+03 -0.10286320907E+04  0.13029052046E+04  0.25500000920E-02 0. -1.
</event>
<event>
 5   0  0.3889847E-04  0.1604230E+04  0.7818609E-02  0.8817954E-01
       -1   -1    0    0    0  501  0.00000000000E+00  0.00000000000E+00  0.79993145009E+03  0.79993145011E+03  0.50400001928E-02 0.  1.
        1   -1    0    0  501    0  0.00000000000E+00  0.00000000000E+00 -0.80430446375E+03  0.80430446377E+03  0.50400001928E-02 0. -1.
    10030    2    1    2    0    0  0.00000000000E+00  0.00000000000E+00 -0.43730136633E+01  0.16042359139E+04  0.16042299536E+04 0.  0.
        1    1    3    3  502    0 -0.32788281519E+02  0.78237429083E+03  0.17160664055E+03  0.80164421127E+03  0.50400001928E-02 0. -1.
       -1    1    3    3    0  502  0.32788281519E+02 -0.78237429083E+03 -0.17597965421E+03  0.80259170260E+03  0.50400001928E-02 0.  1.
</event>
<event>
 5   0  0.3889847E-04  0.1627331E+04  0.7818609E-02  0.8803931E-01
        1   -1    0    0  501    0  0.00000000000E+00  0.00000000000E+00  0.11566439034E+04  0.11566439034E+04  0.50400001928E-02 0. -1.
       -1   -1    0    0    0  501  0.00000000000E+00  0.00000000000E+00 -0.57239032623E+03  0.57239032625E+03  0.50400001928E-02 0.  1.
    10030    2    1    2    0    0  0.00000000000E+00  0.00000000000E+00  0.58425357713E+03  0.17290342296E+04  0.16273312892E+04 0.  0.
        1    1    3    3  502    0 -0.61098371135E+03 -0.41211768086E+03  0.65851058882E+03  0.98832093676E+03  0.50400001928E-02 0. -1.
       -1    1    3    3    0  502  0.61098371135E+03  0.41211768086E+03 -0.74257011699E+02  0.74071329286E+03  0.50400001928E-02 0.  1.
</event>
<event>
 5   0  0.3889847E-04  0.1592251E+04  0.7818609E-02  0.8825323E-01
        1   -1    0    0  501    0  0.00000000000E+00  0.00000000000E+00  0.41747018616E+03  0.41747018619E+03  0.50400001928E-02 0.  1.
       -1   -1    0    0    0  501  0.00000000000E+00  0.00000000000E+00 -0.15182300316E+04  0.15182300316E+04  0.50400001928E-02 0. -1.
    10030    2    1    2    0    0  0.00000000000E+00  0.00000000000E+00 -0.11007598454E+04  0.19357002178E+04  0.15922509526E+04 0.  0.
        1    1    3    3  502    0  0.45429964350E+03  0.19911689602E+03  0.20666094291E+03  0.53734946703E+03  0.50400001928E-02 0.  1.
       -1    1    3    3    0  502 -0.45429964350E+03 -0.19911689602E+03 -0.13074207884E+04  0.13983507508E+04  0.50400001928E-02 0. -1.
</event>
<event>
 5   0  0.7553070E-04  0.1654436E+04  0.7818609E-02  0.8787787E-01
       -2   -1    0    0    0  501  0.00000000000E+00  0.00000000000E+00  0.81724336607E+03  0.81724336607E+03  0.25500000920E-02 0. -1.
        2   -1    0    0  501    0  0.00000000000E+00  0.00000000000E+00 -0.83731423895E+03  0.83731423895E+03  0.25500000920E-02 0.  1.
    10030    2    1    2    0    0  0.00000000000E+00  0.00000000000E+00 -0.20070872880E+02  0.16545576050E+04  0.16544358641E+04 0.  0.
        4    1    3    3  502    0 -0.65645852094E+03  0.33366330018E+03 -0.38691712630E+03  0.83185062549E+03  0.12699999809E+01 0.  1.
       -4    1    3    3    0  502  0.65645852094E+03 -0.33366330018E+03  0.36684625342E+03  0.82270697952E+03  0.12699999809E+01 0. -1.
</event>
<event>
 5   0  0.3973227E-04  0.1347742E+04  0.7818609E-02  0.8992539E-01
        1   -1    0    0  501    0  0.00000000000E+00  0.00000000000E+00  0.54282815804E+03  0.54282815806E+03  0.50400001928E-02 0.  1.
       -1   -1    0    0    0  501  0.00000000000E+00  0.00000000000E+00 -0.83654874216E+03  0.83654874218E+03  0.50400001928E-02 0. -1.
    10030    2    1    2    0    0  0.00000000000E+00  0.00000000000E+00 -0.29372058412E+03  0.13793769002E+04  0.13477421309E+04 0.  0.
        3    1    3    3  502    0 -0.96138301577E+02  0.38483852114E+03  0.41068230183E+03  0.57096691990E+03  0.10100000352E+00 0.  1.
       -3    1    3    3    0  502  0.96138301577E+02 -0.38483852114E+03 -0.70440288595E+03  0.80840998034E+03  0.10100000352E+00 0. -1.
</event>
<event>
 5   0  0.7553070E-04  0.1595175E+04  0.7818609E-02  0.8823518E-01
        2   -1    0    0  501    0  0.00000000000E+00  0.00000000000E+00  0.81426065245E+03  0.81426065246E+03  0.25500000920E-02 0.  1.
       -2   -1    0    0    0  501  0.00000000000E+00  0.00000000000E+00 -0.78125530104E+03  0.78125530104E+03  0.25500000920E-02 0. -1.
    10030    2    1    2    0    0  0.00000000000E+00  0.00000000000E+00  0.33005351418E+02  0.15955159535E+04  0.15951745374E+04 0.  0.
        4    1    3    3  502    0  0.37609392166E+03 -0.68242932941E+03  0.18679601211E+03  0.80128071897E+03  0.12699999809E+01 0.  1.
       -4    1    3    3    0  502 -0.37609392166E+03  0.68242932941E+03 -0.15379066069E+03  0.79423523453E+03  0.12699999809E+01 0. -1.
</event>
<event>
 5   0  0.7488884E-04  0.1661069E+04  0.7818609E-02  0.8783885E-01
       -2   -1    0    0    0  501  0.00000000000E+00  0.00000000000E+00  0.52926296080E+03  0.52926296080E+03  0.25500000920E-02 0.  1.
        2   -1    0    0  501    0  0.00000000000E+00  0.00000000000E+00 -0.13032982166E+04  0.13032982166E+04  0.25500000920E-02 0. -1.
    10030    2    1    2    0    0  0.00000000000E+00  0.00000000000E+00 -0.77403525584E+03  0.18325611774E+04  0.16610689004E+04 0.  0.
        3    1    3    3  502    0  0.18230925605E+03 -0.48290163923E+03 -0.11048517640E+04  0.12194786134E+04  0.10100000352E+00 0. -1.
       -3    1    3    3    0  502 -0.18230925605E+03  0.48290163923E+03  0.33081650816E+03  0.61308256401E+03  0.10100000352E+00 0.  1.
</event>
<event>
 5   0  0.7395088E-04  0.1585140E+04  0.7818609E-02  0.8829729E-01
       -2   -1    0    0    0  501  0.00000000000E+00  0.00000000000E+00  0.43210004875E+03  0.43210004876E+03  0.25500000920E-02 0.  1.
        2   -1    0    0  501    0  0.00000000000E+00  0.00000000000E+00 -0.14537538449E+04  0.14537538449E+04  0.25500000920E-02 0. -1.
    10030    2    1    2    0    0  0.00000000000E+00  0.00000000000E+00 -0.10216537962E+04  0.18858538937E+04  0.15851398768E+04 0.  0.
        1    1    3    3  502    0 -0.17112277980E+03  0.57685750780E+02  0.40729832697E+03  0.44553628223E+03  0.50400001928E-02 0.  1.
       -1    1    3    3    0  502  0.17112277980E+03 -0.57685750780E+02 -0.14289521231E+04  0.14403176115E+04  0.50400001928E-02 0. -1.
</event>
<event>
 5   0  0.7553070E-04  0.1524122E+04  0.7818609E-02  0.8868568E-01
       -2   -1    0    0    0  501  0.00000000000E+00  0.00000000000E+00  0.39130609855E+03  0.39130609856E+03  0.25500000920E-02 0.  1.
        2   -1    0    0  501    0  0.00000000000E+00  0.00000000000E+00 -0.14840996796E+04  0.14840996796E+04  0.25500000920E-02 0. -1.
    10030    2    1    2    0    0  0.00000000000E+00  0.00000000000E+00 -0.10927935810E+04  0.18754057781E+04  0.15241223776E+04 0.  0.
        4    1    3    3  502    0  0.13898839288E+03 -0.64088277186E+03 -0.68742692526E+02  0.65937521283E+03  0.12699999809E+01 0.  1.
       -4    1    3    3    0  502 -0.13898839288E+03  0.64088277186E+03 -0.10240508885E+04  0.12160305653E+04  0.12699999809E+01 0. -1.
</event>
<event>
 5   0  0.3973227E-04  0.1476767E+04  0.7818609E-02  0.8900051E-01
        1   -1    0    0  501    0  0.00000000000E+00  0.00000000000E+00  0.65214774541E+03  0.65214774543E+03  0.50400001928E-02 0.  1.
       -1   -1    0    0    0  501  0.00000000000E+00  0.00000000000E+00 -0.83602286089E+03  0.83602286090E+03  0.50400001928E-02 0. -1.
    10030    2    1    2    0    0  0.00000000000E+00  0.00000000000E+00 -0.18387511548E+03  0.14881706063E+04  0.14767673126E+04 0.  0.
        3    1    3    3  502    0 -0.25510730659E+03 -0.59996988676E+03 -0.44126517287E+03  0.78724746166E+03  0.10100000352E+00 0. -1.
       -3    1    3    3    0  502  0.25510730659E+03  0.59996988676E+03  0.25739005740E+03  0.70092314468E+03  0.10100000352E+00 0.  1.
</event>
<event>
 5   0  0.7488884E-04  0.1665653E+04  0.7818609E-02  0.8781200E-01
        2   -1    0    0  501    0  0.00000000000E+00  0.00000000000E+00  0.15732921304E+04  0.15732921304E+04  0.25500000920E-02 0.  1.
       -2   -1    0    0    0  501  0.00000000000E+00  0.00000000000E+00 -0.44085883212E+03  0.44085883213E+03  0.25500000920E-02 0. -1.
    10030    2    1    2    0    0  0.00000000000E+00  0.00000000000E+00  0.11324332983E+04  0.20141509625E+04  0.16656527023E+04 0.  0.
        3    1    3    3  502    0 -0.22776013624E+03  0.48401122901E+02  0.15331307504E+04  0.15507118547E+04  0.10100000352E+00 0.  1.
       -3    1    3    3    0  502  0.22776013624E+03 -0.48401122901E+02 -0.40069745209E+03  0.46343910783E+03  0.10100000352E+00 0. -1.
</event>
<event>
 5   0  0.3889847E-04  0.1606532E+04  0.7818609E-02  0.8816545E-01
       -1   -1    0    0    0  501  0.00000000000E+00  0.00000000000E+00  0.55598566356E+03  0.55598566358E+03  0.50400001928E-02 0.  1.
        1   -1    0    0  501    0  0.00000000000E+00  0.00000000000E+00 -0.11605271923E+04  0.11605271923E+04  0.50400001928E-02 0. -1.
    10030    2    1    2    0    0  0.00000000000E+00  0.00000000000E+00 -0.60454152874E+03  0.17165128559E+04  0.16065322669E+04 0.  0.
        1    1    3    3  502    0  0.73123661294E+03  0.33086741855E+03 -0.33699563418E+03  0.87048623783E+03  0.50400001928E-02 0. -1.
       -1    1    3    3    0  502 -0.73123661294E+03 -0.33086741855E+03 -0.26754589456E+03  0.84602661807E+03  0.50400001928E-02 0.  1.
</event>
<event>
 5   0  0.7553070E-04  0.1612221E+04  0.7818609E-02  0.8813075E-01
       -2   -1    0    0    0  501  0.00000000000E+00  0.00000000000E+00  0.90441537062E+03  0.90441537063E+03  0.25500000920E-02 0.  1.
        2   -1    0    0  501    0  0.00000000000E+00  0.00000000000E+00 -0.71849094977E+03  0.71849094977E+03  0.25500000920E-02 0. -1.
    10030    2    1    2    0    0  0.00000000000E+00  0.00000000000E+00  0.18592442086E+03  0.16229063204E+04  0.16122211494E+04 0.  0.
        4    1    3    3  502    0  0.17561788492E+03 -0.40812013213E+03 -0.58410913982E+03  0.73388608372E+03  0.12699999809E+01 0. -1.
       -4    1    3    3    0  502 -0.17561788492E+03  0.40812013213E+03  0.77003356067E+03  0.88902023668E+03  0.12699999809E+01 0.  1.
</event>
<event>
 5   0  0.7770905E-04  0.1598903E+04  0.7818609E-02  0.8821222E-01
        2   -1    0    0  501    0  0.00000000000E+00  0.00000000000E+00  0.10992441621E+04  0.10992441621E+04  0.25500000920E-02 0. -1.
       -2   -1    0    0    0  501  0.00000000000E+00  0.00000000000E+00 -0.58142004445E+03  0.58142004446E+03  0.25500000920E-02 0.  1.
    10030    2    1    2    0    0  0.00000000000E+00  0.00000000000E+00  0.51782411762E+03  0.16806642065E+04  0.15989028608E+04 0.  0.
        2    1    3    3  502    0 -0.38457130648E+03  0.40298064337E+03  0.86167604408E+03  0.10260478028E+04  0.25500000920E-02 0. -1.
       -2    1    3    3    0  502  0.38457130648E+03 -0.40298064337E+03 -0.34385192646E+03  0.65461640373E+03  0.25500000920E-02 0.  1.
</event>
<event>
 5   0  0.7395088E-04  0.1602094E+04  0.7818609E-02  0.8819262E-01
       -2   -1    0    0    0  501  0.00000000000E+00  0.00000000000E+00  0.73998730949E+03  0.73998730950E+03  0.25500000920E-02 0. -1.
        2   -1    0    0  501    0  0.00000000000E+00  0.00000000000E+00 -0.86714548627E+03  0.86714548627E+03  0.25500000920E-02 0.  1.
    10030    2    1    2    0    0  0.00000000000E+00  0.00000000000E+00 -0.12715817678E+03  0.16071327958E+04  0.16020944483E+04 0.  0.
        1    1    3    3  502    0  0.73418365618E+03 -0.19470930432E+03  0.19166027423E+03  0.78337156888E+03  0.50400001928E-02 0. -1.
       -1    1    3    3    0  502 -0.73418365618E+03  0.19470930432E+03 -0.31881845101E+03  0.82376122688E+03  0.50400001928E-02 0.  1.
</event>
<event>
 5   0  0.7488884E-04  0.1606615E+04  0.7818609E-02  0.8816495E-01
       -2   -1    0    0    0  501  0.00000000000E+00  0.00000000000E+00  0.60906970373E+03  0.60906970373E+03  0.25500000920E-02 0.  1.
        2   -1    0    0  501    0  0.00000000000E+00  0.00000000000E+00 -0.10594891695E+04  0.10594891696E+04  0.25500000920E-02 0. -1.
    10030    2    1    2    0    0  0.00000000000E+00  0.00000000000E+00 -0.45041946582E+03  0.16685588733E+04  0.16066147698E+04 0.  0.
        3    1    3    3  502    0 -0.59333454862E+03  0.19087683450E+03  0.30110635542E+03  0.69220293268E+03  0.10100000352E+00 0.  1.
       -3    1    3    3    0  502  0.59333454862E+03 -0.19087683450E+03 -0.75152582125E+03  0.97635594060E+03  0.10100000352E+00 0. -1.
</event>
<event>
 5   0  0.7770905E-04  0.1594495E+04  0.7818609E-02  0.8823937E-01
        2   -1    0    0  501    0  0.00000000000E+00  0.00000000000E+00  0.34761467372E+03  0.34761467373E+03  0.25500000920E-02 0.  1.
       -2   -1    0    0    0  501  0.00000000000E+00  0.00000000000E+00 -0.18284707326E+04  0.18284707326E+04  0.25500000920E-02 0. -1.
    10030    2    1    2    0    0  0.00000000000E+00  0.00000000000E+00 -0.14808560589E+04  0.21760854064E+04  0.15944945997E+04 0.  0.
        2    1    3    3  502    0 -0.19527568524E+03  0.63902251607E+03 -0.13339306389E+04  0.14919293947E+04  0.25500000920E-02 0. -1.
       -2    1    3    3    0  502  0.19527568524E+03 -0.63902251607E+03 -0.14692542003E+03  0.68415601170E+03  0.25500000920E-02 0.  1.
</event>
<event>
 5   0  0.3950195E-04  0.1592435E+04  0.7818609E-02  0.8825209E-01
        1   -1    0    0  501    0  0.00000000000E+00  0.00000000000E+00  0.37446522546E+03  0.37446522549E+03  0.50400001928E-02 0.  1.
       -1   -1    0    0    0  501  0.00000000000E+00  0.00000000000E+00 -0.16929796475E+04  0.16929796475E+04  0.50400001928E-02 0. -1.
    10030    2    1    2    0    0  0.00000000000E+00  0.00000000000E+00 -0.13185144220E+04  0.20674448730E+04  0.15924346209E+04 0.  0.
        2    1    3    3  502    0  0.49535712687E+03 -0.61958242209E+03 -0.74827255824E+03  0.10904920368E+04  0.25500000920E-02 0. -1.
       -2    1    3    3    0  502 -0.49535712687E+03  0.61958242209E+03 -0.57024186379E+03  0.97695283619E+03  0.25500000920E-02 0.  1.
</event>
<event>
 5   0  0.3950195E-04  0.1591529E+04  0.7818609E-02  0.8825769E-01
        1   -1    0    0  501    0  0.00000000000E+00  0.00000000000E+00  0.10628744353E+04  0.10628744353E+04  0.50400001928E-02 0.  1.
       -1   -1    0    0    0  501  0.00000000000E+00  0.00000000000E+00 -0.59578137691E+03  0.59578137693E+03  0.50400001928E-02 0. -1.
    10030    2    1    2    0    0  0.00000000000E+00  0.00000000000E+00  0.46709305841E+03  0.16586558123E+04  0.15915285666E+04 0.  0.
        2    1    3    3  502    0  0.29288205486E+02  0.70698995950E+03 -0.14588091636E+03  0.72247757306E+03  0.25500000920E-02 0. -1.
       -2    1    3    3    0  502 -0.29288205486E+02 -0.70698995950E+03  0.61297397476E+03  0.93617823920E+03  0.25500000920E-02 0.  1.
</event>
<event>
 5   0  0.3837251E-04  0.1576361E+04  0.7818609E-02  0.8835203E-01
        1   -1    0    0  501    0  0.00000000000E+00  0.00000000000E+00  0.77859528100E+03  0.77859528102E+03  0.50400001928E-02 0.  1.
       -1   -1    0    0    0  501  0.00000000000E+00  0.00000000000E+00 -0.79788380707E+03  0.79788380709E+03  0.50400001928E-02 0. -1.
    10030    2    1    2    0    0  0.00000000000E+00  0.00000000000E+00 -0.19288526068E+02  0.15764790881E+04  0.15763610843E+04 0.  0.
        4    1    3    3  502    0  0.69924371831E+03  0.30843354458E+03  0.18312370074E+03  0.78588099079E+03  0.12699999809E+01 0.  1.
       -4    1    3    3    0  502 -0.69924371831E+03 -0.30843354458E+03 -0.20241222681E+03  0.79059809731E+03  0.12699999809E+01 0. -1.
</event>
<event>
 5   0  0.4110803E-04  0.1518088E+04  0.7818609E-02  0.8872513E-01
        1   -1    0    0  501    0  0.00000000000E+00  0.00000000000E+00  0.10171202964E+04  0.10171202964E+04  0.50400001928E-02 0.  1.
       -1   -1    0    0    0  501  0.00000000000E+00  0.00000000000E+00 -0.56645006733E+03  0.56645006735E+03  0.50400001928E-02 0. -1.
    10030    2    1    2    0    0  0.00000000000E+00  0.00000000000E+00  0.45067022909E+03  0.15835703638E+04  0.15180880876E+04 0.  0.
        5    1    3    3  502    0 -0.75393922562E+03 -0.50625945409E+02  0.15056026693E+03  0.77050491644E+03  0.46999998093E+01 0.  1.
       -5    1    3    3    0  502  0.75393922562E+03  0.50625945409E+02  0.30010996216E+03  0.81306544734E+03  0.46999998093E+01 0. -1.
</event>
<event>
 5   0  0.4110803E-04  0.1554746E+04  0.7818609E-02  0.8848842E-01
        1   -1    0    0  501    0  0.00000000000E+00  0.00000000000E+00  0.10224921151E+04  0.10224921151E+04  0.50400001928E-02 0.  1.
       -1   -1    0    0    0  501  0.00000000000E+00  0.00000000000E+00 -0.59101570242E+03  0.59101570245E+03  0.50400001928E-02 0. -1.
    10030    2    1    2    0    0  0.00000000000E+00  0.00000000000E+00  0.43147641271E+03  0.16135078176E+04  0.15547461473E+04 0.  0.
        5    1    3    3  502    0  0.35309389676E+03 -0.43823078441E+03  0.77225697204E+03  0.95557545028E+03  0.46999998093E+01 0.  1.
       -5    1    3    3    0  502 -0.35309389676E+03  0.43823078441E+03 -0.34078055933E+03  0.65793236730E+03  0.46999998093E+01 0. -1.
</event>
<event>
 5   0  0.7488884E-04  0.1479327E+04  0.7818609E-02  0.8898318E-01
        2   -1    0    0  501    0  0.00000000000E+00  0.00000000000E+00  0.13502980570E+04  0.13502980570E+04  0.25500000920E-02 0. -1.
       -2   -1    0    0    0  501  0.00000000000E+00  0.00000000000E+00 -0.40517108124E+03  0.40517108125E+03  0.25500000920E-02 0.  1.
    10030    2    1    2    0    0  0.00000000000E+00  0.00000000000E+00  0.94512697579E+03  0.17554691383E+04  0.14793265005E+04 0.  0.
        3    1    3    3  502    0  0.22608434073E+03 -0.45474478046E+03  0.11107158458E+04  0.12213093976E+04  0.10100000352E+00 0. -1.
       -3    1    3    3    0  502 -0.22608434073E+03  0.45474478046E+03 -0.16558886999E+03  0.53415974066E+03  0.10100000352E+00 0.  1.
</event>
<event>
 5   0  0.7488884E-04  0.1583066E+04  0.7818609E-02  0.8831019E-01
       -2   -1    0    0    0  501  0.00000000000E+00  0.00000000000E+00  0.10550304881E+04  0.10550304881E+04  0.25500000920E-02 0.  1.
        2   -1    0    0  501    0  0.00000000000E+00  0.00000000000E+00 -0.59384525114E+03  0.59384525114E+03  0.25500000920E-02 0. -1.
    10030    2    1    2    0    0  0.00000000000E+00  0.00000000000E+00  0.46118523694E+03  0.16488757392E+04  0.15830664486E+04 0.  0.
        3    1    3    3  502    0 -0.60612273642E+03 -0.49932393364E+03  0.33378528064E+03  0.85330052507E+03  0.10100000352E+00 0.  1.
       -3    1    3    3    0  502  0.60612273642E+03  0.49932393364E+03  0.12739995630E+03  0.79557521416E+03  0.10100000352E+00 0. -1.
</event>
<event>
 5   0  0.4110803E-04  0.1588971E+04  0.7818609E-02  0.8827352E-01
       -1   -1    0    0    0  501  0.00000000000E+00  0.00000000000E+00  0.27836192734E+03  0.27836192738E+03  0.50400001928E-02 0.  1.
        1   -1    0    0  501    0  0.00000000000E+00  0.00000000000E+00 -0.22675787935E+04  0.22675787935E+04  0.50400001928E-02 0. -1.
    10030    2    1    2    0    0  0.00000000000E+00  0.00000000000E+00 -0.19892168661E+04  0.25459407209E+04  0.15889714955E+04 0.  0.
        5    1    3    3  502    0  0.31104760071E+03 -0.23421782040E+02 -0.21653379789E+04  0.21876950982E+04  0.46999998093E+01 0. -1.
       -5    1    3    3    0  502 -0.31104760071E+03  0.23421782040E+02  0.17612111279E+03  0.35824562265E+03  0.46999998093E+01 0.  1.
</event>
<event>
 5   0  0.7395088E-04  0.1600969E+04  0.7818609E-02  0.8819953E-01
       -2   -1    0    0    0  501  0.00000000000E+00  0.00000000000E+00  0.16275819978E+04  0.16275819978E+04  0.25500000920E-02 0. -1.
        2   -1    0    0  501    0  0.00000000000E+00  0.00000000000E+00 -0.39369773696E+03  0.39369773697E+03  0.25500000920E-02 0.  1.
    10030    2    1    2    0    0  0.00000000000E+00  0.00000000000E+00  0.12338842609E+04  0.20212797348E+04  0.16009688932E+04 0.  0.
        1    1    3    3  502    0 -0.70787254999E+03  0.37349145155E+03  0.63461482132E+03  0.10214281095E+04  0.50400001928E-02 0. -1.
       -1    1    3    3    0  502  0.70787254999E+03 -0.37349145155E+03  0.59926943955E+03  0.99985162530E+03  0.50400001928E-02 0.  1.
</event>
<event>
 5   0  0.3950195E-04  0.1559203E+04  0.7818609E-02  0.8846011E-01
       -1   -1    0    0    0  501  0.00000000000E+00  0.00000000000E+00  0.45507038959E+03  0.45507038962E+03  0.50400001928E-02 0. -1.
        1   -1    0    0  501    0  0.00000000000E+00  0.00000000000E+00 -0.13355697345E+04  0.13355697345E+04  0.50400001928E-02 0.  1.
    10030    2    1    2    0    0  0.00000000000E+00  0.00000000000E+00 -0.88049934487E+03  0.17906401241E+04  0.15592026673E+04 0.  0.
        2    1    3    3  502    0  0.47775876775E+03 -0.23953062857E+03  0.21158090265E+03  0.57479982651E+03  0.25500000920E-02 0. -1.
       -2    1    3    3    0  502 -0.47775876775E+03  0.23953062857E+03 -0.10920802475E+04  0.12158402976E+04  0.25500000920E-02 0.  1.
</event>
<event>
 5   0  0.7488884E-04  0.1647445E+04  0.7818609E-02  0.8791919E-01
        2   -1    0    0  501    0  0.00000000000E+00  0.00000000000E+00  0.13373468380E+04  0.13373468380E+04  0.25500000920E-02 0. -1.
       -2   -1    0    0    0  501  0.00000000000E+00  0.00000000000E+00 -0.50736183984E+03  0.50736183984E+03  0.25500000920E-02 0.  1.
    10030    2    1    2    0    0  0.00000000000E+00  0.00000000000E+00  0.82998499820E+03  0.18447086779E+04  0.16474449942E+04 0.  0.
        3    1    3    3  502    0  0.64784803712E+03  0.10227507323E+03 -0.14302810788E+03  0.67128557235E+03  0.10100000352E+00 0.  1.
       -3    1    3    3    0  502 -0.64784803712E+03 -0.10227507323E+03  0.97301310608E+03  0.11734231055E+04  0.10100000352E+00 0. -1.
</event>
<event>
 5   0  0.7553070E-04  0.1399388E+04  0.7818609E-02  0.8954262E-01
       -2   -1    0    0    0  501  0.00000000000E+00  0.00000000000E+00  0.12806134695E+04  0.12806134695E+04  0.25500000920E-02 0. -1.
        2   -1    0    0  501    0  0.00000000000E+00  0.00000000000E+00 -0.38229462013E+03  0.38229462014E+03  0.25500000920E-02 0.  1.
    10030    2    1    2    0    0  0.00000000000E+00  0.00000000000E+00  0.89831884938E+03  0.16629080897E+04  0.13993879232E+04 0.  0.
        4    1    3    3  502    0 -0.16418731502E+02 -0.23016996467E+03  0.12340946141E+04  0.12554835390E+04  0.12699999809E+01 0. -1.
       -4    1    3    3    0  502  0.16418731502E+02  0.23016996467E+03 -0.33577576471E+03  0.40742455062E+03  0.12699999809E+01 0.  1.
</event>
<event>
 5   0  0.7415102E-04  0.1599436E+04  0.7818609E-02  0.8820895E-01
       -2   -1    0    0    0  501  0.00000000000E+00  0.00000000000E+00  0.45830642624E+03  0.45830642625E+03  0.25500000920E-02 0. -1.
        2   -1    0    0  501    0  0.00000000000E+00  0.00000000000E+00 -0.13954610758E+04  0.13954610758E+04  0.25500000920E-02 0.  1.
    10030    2    1    2    0    0  0.00000000000E+00  0.00000000000E+00 -0.93715464951E+03  0.18537675020E+04  0.15994358738E+04 0.  0.
        5    1    3    3  502    0 -0.27573408534E+03 -0.74890275507E+03 -0.52815180780E+03  0.95700106815E+03  0.46999998093E+01 0. -1.
       -5    1    3    3    0  502  0.27573408534E+03  0.74890275507E+03 -0.40900284172E+03  0.89676643386E+03  0.46999998093E+01 0.  1.
</event>
<event>
 5   0  0.3889847E-04  0.1541558E+04  0.7818609E-02  0.8857278E-01
       -1   -1    0    0    0  501  0.00000000000E+00  0.00000000000E+00  0.54837166206E+03  0.54837166209E+03  0.50400001928E-02 0.  1.
        1   -1    0    0  501    0  0.00000000000E+00  0.00000000000E+00 -0.10833893596E+04  0.10833893596E+04  0.50400001928E-02 0. -1.
    10030    2    1    2    0    0  0.00000000000E+00  0.00000000000E+00 -0.53501769750E+03  0.16317610217E+04  0.15415576847E+04 0.  0.
        1    1    3    3  502    0  0.68448429885E+03 -0.68139704552E+02  0.10060199632E+03  0.69518525329E+03  0.50400001928E-02 0.  1.
       -1    1    3    3    0  502 -0.68448429885E+03  0.68139704552E+02 -0.63561969382E+03  0.93657576837E+03  0.50400001928E-02 0. -1.
</event>
<event>
 5   0  0.3973227E-04  0.1596309E+04  0.7818609E-02  0.8822818E-01
       -1   -1    0    0    0  501  0.00000000000E+00  0.00000000000E+00  0.12336146895E+04  0.12336146895E+04  0.50400001928E-02 0.  1.
        1   -1    0    0  501    0  0.00000000000E+00  0.00000000000E+00 -0.51641000525E+03  0.51641000527E+03  0.50400001928E-02 0. -1.
    10030    2    1    2    0    0  0.00000000000E+00  0.00000000000E+00  0.71720468428E+03  0.17500246948E+04  0.15963094541E+04 0.  0.
        3    1    3    3  502    0  0.47464606104E+03  0.31151449895E+03 -0.25641846509E+03  0.62296115911E+03  0.10100000352E+00 0. -1.
       -3    1    3    3    0  502 -0.47464606104E+03 -0.31151449895E+03  0.97362314937E+03  0.11270635357E+04  0.10100000352E+00 0.  1.
</event>
<event>
 5   0  0.3837251E-04  0.1650805E+04  0.7818609E-02  0.8789931E-01
       -1   -1    0    0    0  501  0.00000000000E+00  0.00000000000E+00  0.45048777143E+03  0.45048777146E+03  0.50400001928E-02 0.  1.
        1   -1    0    0  501    0  0.00000000000E+00  0.00000000000E+00 -0.15123364314E+04  0.15123364314E+04  0.50400001928E-02 0. -1.
    10030    2    1    2    0    0  0.00000000000E+00  0.00000000000E+00 -0.10618486600E+04  0.19628242029E+04  0.16508047355E+04 0.  0.
        4    1    3    3  502    0 -0.62680342602E+03  0.42813914298E+03 -0.91639449117E+03  0.11899437537E+04  0.12699999809E+01 0. -1.
       -4    1    3    3    0  502  0.62680342602E+03 -0.42813914298E+03 -0.14545416883E+03  0.77288044920E+03  0.12699999809E+01 0.  1.
</event>
<event>
 5   0  0.4110803E-04  0.1577370E+04  0.7818609E-02  0.8834573E-01
        1   -1    0    0  501    0  0.00000000000E+00  0.00000000000E+00  0.72146351089E+03  0.72146351091E+03  0.50400001928E-02 0.  1.
       -1   -1    0    0    0  501  0.00000000000E+00  0.00000000000E+00 -0.86216946142E+03  0.86216946143E+03  0.50400001928E-02 0. -1.
    10030    2    1    2    0    0  0.00000000000E+00  0.00000000000E+00 -0.14070595052E+03  0.15836329723E+04  0.15773697178E+04 0.  0.
        5    1    3    3  502    0 -0.20599846084E+03 -0.54600755722E+03  0.46226468988E+03  0.74449335250E+03  0.46999998093E+01 0.  1.
       -5    1    3    3    0  502  0.20599846084E+03  0.54600755722E+03 -0.60297064040E+03  0.83913961984E+03  0.46999998093E+01 0. -1.
</event>
<event>
 5   0  0.7488884E-04  0.1578621E+04  0.7818609E-02  0.8833791E-01
       -2   -1    0    0    0  501  0.00000000000E+00  0.00000000000E+00  0.83782198509E+03  0.83782198509E+03  0.25500000920E-02 0.  1.
        2   -1    0    0  501    0  0.00000000000E+00  0.00000000000E+00 -0.74360812806E+03  0.74360812807E+03  0.25500000920E-02 0. -1.
    10030    2    1    2    0    0  0.00000000000E+00  0.00000000000E+00  0.94213857024E+02  0.15814301132E+04  0.15786212186E+04 0.  0.
        3    1    3    3  502    0  0.37222360165E+03 -0.50650825501E+03  0.52535580110E+03  0.81920678096E+03  0.10100000352E+00 0. -1.
       -3    1    3    3    0  502 -0.37222360165E+03  0.50650825501E+03 -0.43114194408E+03  0.76222333220E+03  0.10100000352E+00 0.  1.
</event>
<event>
 5   0  0.3950195E-04  0.1216126E+04  0.7818609E-02  0.9098857E-01
        1   -1    0    0  501    0  0.00000000000E+00  0.00000000000E+00  0.90073365891E+03  0.90073365893E+03  0.50400001928E-02 0. -1.
       -1   -1    0    0    0  501  0.00000000000E+00  0.00000000000E+00 -0.41048860851E+03  0.41048860854E+03  0.50400001928E-02 0.  1.
    10030    2    1    2    0    0  0.00000000000E+00  0.00000000000E+00  0.49024505040E+03  0.13112222675E+04  0.12161264841E+04 0.  0.
        2    1    3    3  502    0 -0.15375587043E+03  0.12003684868E+03 -0.37583878264E+03  0.42344362467E+03  0.25500000920E-02 0.  1.
       -2    1    3    3    0  502  0.15375587043E+03 -0.12003684868E+03  0.86608383305E+03  0.88777864280E+03  0.25500000920E-02 0. -1.
</event>
<event>
 5   0  0.3837251E-04  0.1596434E+04  0.7818609E-02  0.8822742E-01
        1   -1    0    0  501    0  0.00000000000E+00  0.00000000000E+00  0.96413916290E+03  0.96413916291E+03  0.50400001928E-02 0. -1.
       -1   -1    0    0    0  501  0.00000000000E+00  0.00000000000E+00 -0.66084924705E+03  0.66084924707E+03  0.50400001928E-02 0.  1.
    10030    2    1    2    0    0  0.00000000000E+00  0.00000000000E+00  0.30328991584E+03  0.16249884100E+04  0.15964343267E+04 0.  0.
        4    1    3    3  502    0  0.57536737214E+03 -0.40610985031E+03  0.53409962037E+03  0.88387603250E+03  0.12699999809E+01 0. -1.
       -4    1    3    3    0  502 -0.57536737214E+03  0.40610985031E+03 -0.23080970453E+03  0.74111237748E+03  0.12699999809E+01 0.  1.
</event>
<event>
 5   0  0.3973227E-04  0.1261913E+04  0.7818609E-02  0.9060326E-01
        1   -1    0    0  501    0  0.00000000000E+00  0.00000000000E+00  0.12072050491E+04  0.12072050491E+04  0.50400001928E-02 0. -1.
       -1   -1    0    0    0  501  0.00000000000E+00  0.00000000000E+00 -0.32977494078E+03  0.32977494082E+03  0.50400001928E-02 0.  1.
    10030    2    1    2    0    0  0.00000000000E+00  0.00000000000E+00  0.87743010833E+03  0.15369799899E+04  0.12619127919E+04 0.  0.
        3    1    3    3  502    0 -0.40106046419E+03 -0.33334276713E+03  0.61378016075E+01  0.52154058245E+03  0.10100000352E+00 0.  1.
       -3    1    3    3    0  502  0.40106046419E+03  0.33334276713E+03  0.87129230672E+03  0.10154394075E+04  0.10100000352E+00 0. -1.
</event>
<event>
 5   0  0.3837251E-04  0.1604932E+04  0.7818609E-02  0.8817524E-01
        1   -1    0    0  501    0  0.00000000000E+00  0.00000000000E+00  0.84264736076E+03  0.84264736077E+03  0.50400001928E-02 0. -1.
       -1   -1    0    0    0  501  0.00000000000E+00  0.00000000000E+00 -0.76420059348E+03  0.76420059350E+03  0.50400001928E-02 0.  1.
    10030    2    1    2    0    0  0.00000000000E+00  0.00000000000E+00  0.78446767276E+02  0.16068479543E+04  0.16049319153E+04 0.  0.
        4    1    3    3  502    0 -0.19476615211E+03 -0.71976864451E+03 -0.25769304476E+03  0.78892843392E+03  0.12699999809E+01 0.  1.
       -4    1    3    3    0  502  0.19476615211E+03  0.71976864451E+03  0.33613981204E+03  0.81791952035E+03  0.12699999809E+01 0. -1.
</event>
<event>
 5   0  0.7770905E-04  0.1562860E+04  0.7818609E-02  0.8843695E-01
        2   -1    0    0  501    0  0.00000000000E+00  0.00000000000E+00  0.52482418473E+03  0.52482418473E+03  0.25500000920E-02 0. -1.
       -2   -1    0    0    0  501  0.00000000000E+00  0.00000000000E+00 -0.11635001150E+04  0.11635001150E+04  0.25500000920E-02 0.  1.
    10030    2    1    2    0    0  0.00000000000E+00  0.00000000000E+00 -0.63867593024E+03  0.16883242997E+04  0.15628601976E+04 0.  0.
        2    1    3    3  502    0  0.67271623464E+03  0.39468498517E+03 -0.37125464257E+03  0.86380170149E+03  0.25500000920E-02 0.  1.
       -2    1    3    3    0  502 -0.67271623464E+03 -0.39468498517E+03 -0.26742128767E+03  0.82452259821E+03  0.25500000920E-02 0. -1.
</event>
<event>
 5   0  0.7415102E-04  0.1573215E+04  0.7818609E-02  0.8837174E-01
       -2   -1    0    0    0  501  0.00000000000E+00  0.00000000000E+00  0.63906808924E+03  0.63906808925E+03  0.25500000920E-02 0.  1.
        2   -1    0    0  501    0  0.00000000000E+00  0.00000000000E+00 -0.96820930242E+03  0.96820930242E+03  0.25500000920E-02 0. -1.
    10030    2    1    2    0    0  0.00000000000E+00  0.00000000000E+00 -0.32914121318E+03  0.16072773917E+04  0.15732153939E+04 0.  0.
        5    1    3    3  502    0  0.19214505808E+03 -0.18095425999E+03 -0.92160339772E+03  0.95866525975E+03  0.46999998093E+01 0. -1.
       -5    1    3    3    0  502 -0.19214505808E+03  0.18095425999E+03  0.59246218455E+03  0.64861213192E+03  0.46999998093E+01 0.  1.
</event>
<event>
 5   0  0.7488884E-04  0.1602721E+04  0.7818609E-02  0.8818878E-01
       -2   -1    0    0    0  501  0.00000000000E+00  0.00000000000E+00  0.36855490596E+03  0.36855490597E+03  0.25500000920E-02 0. -1.
        2   -1    0    0  501    0  0.00000000000E+00  0.00000000000E+00 -0.17424223692E+04  0.17424223692E+04  0.25500000920E-02 0.  1.
    10030    2    1    2    0    0  0.00000000000E+00  0.00000000000E+00 -0.13738674632E+04  0.21109772751E+04  0.16027205775E+04 0.  0.
        3    1    3    3  502    0  0.37209476666E+03 -0.71075008922E+02 -0.16170415469E+04  0.16608219492E+04  0.10100000352E+00 0.  1.
       -3    1    3    3    0  502 -0.37209476666E+03  0.71075008922E+02  0.24317408372E+03  0.45015532593E+03  0.10100000352E+00 0. -1.
</event>
<event>
 5   0  0.7415102E-04  0.1621664E+04  0.7818609E-02  0.8807348E-01
       -2   -1    0    0    0  501  0.00000000000E+00  0.00000000000E+00  0.32945908413E+03  0.32945908414E+03  0.25500000920E-02 0.  1.
        2   -1    0    0  501    0  0.00000000000E+00  0.00000000000E+00 -0.19955400803E+04  0.19955400803E+04  0.25500000920E-02 0. -1.
    10030    2    1    2    0    0  0.00000000000E+00  0.00000000000E+00 -0.16660809961E+04  0.23249991644E+04  0.16216643391E+04 0.  0.
        5    1    3    3  502    0 -0.49173674530E+03 -0.58391588435E+03 -0.12247979434E+04  0.14432307088E+04  0.46999998093E+01 0. -1.
       -5    1    3    3    0  502  0.49173674530E+03  0.58391588435E+03 -0.44128305275E+03  0.88176845562E+03  0.46999998093E+01 0.  1.
</event>
<event>
 5   0  0.3837251E-04  0.1586131E+04  0.7818609E-02  0.8829114E-01
        1   -1    0    0  501    0  0.00000000000E+00  0.00000000000E+00  0.74872007758E+03  0.74872007759E+03  0.50400001928E-02 0. -1.
       -1   -1    0    0    0  501  0.00000000000E+00  0.00000000000E+00 -0.84003708588E+03  0.84003708589E+03  0.50400001928E-02 0.  1.
    10030    2    1    2    0    0  0.00000000000E+00  0.00000000000E+00 -0.91317008301E+02  0.15887571635E+04  0.15861306783E+04 0.  0.
        4    1    3    3  502    0 -0.12235274547E+03 -0.32808571152E+03  0.66709593131E+03  0.75341158931E+03  0.12699999809E+01 0. -1.
       -4    1    3    3    0  502  0.12235274547E+03  0.32808571152E+03 -0.75841293961E+03  0.83534557418E+03  0.12699999809E+01 0.  1.
</event>
<event>
 5   0  0.3973227E-04  0.1588978E+04  0.7818609E-02  0.8827348E-01
       -1   -1    0    0    0  501  0.00000000000E+00  0.00000000000E+00  0.48189820122E+03  0.48189820124E+03  0.50400001928E-02 0.  1.
        1   -1    0    0  501    0  0.00000000000E+00  0.00000000000E+00 -0.13098474825E+04  0.13098474825E+04  0.50400001928E-02 0. -1.
    10030    2    1    2    0    0  0.00000000000E+00  0.00000000000E+00 -0.82794928128E+03  0.17917456837E+04  0.15889784715E+04 0.  0.
        3    1    3    3  502    0  0.26772968166E+02  0.21523414421E+03 -0.12758177316E+04  0.12941226461E+04  0.10100000352E+00 0. -1.
       -3    1    3    3    0  502 -0.26772968166E+02 -0.21523414421E+03  0.44786845030E+03  0.49762303768E+03  0.10100000352E+00 0.  1.
</event>
<event>
 5   0  0.3973227E-04  0.1585179E+04  0.7818609E-02  0.8829705E-01
       -1   -1    0    0    0  501  0.00000000000E+00  0.00000000000E+00  0.38380447497E+03  0.38380447500E+03  0.50400001928E-02 0. -1.
        1   -1    0    0  501    0  0.00000000000E+00  0.00000000000E+00 -0.16367655134E+04  0.16367655134E+04  0.50400001928E-02 0.  1.
    10030    2    1    2    0    0  0.00000000000E+00  0.00000000000E+00 -0.12529610384E+04  0.20205699884E+04  0.15851787641E+04 0.  0.
        3    1    3    3  502    0  0.65776089856E+03  0.35122367862E+03 -0.96896075644E+03  0.12226579366E+04  0.10100000352E+00 0.  1.
       -3    1    3    3    0  502 -0.65776089856E+03 -0.35122367862E+03 -0.28400028199E+03  0.79791205184E+03  0.10100000352E+00 0. -1.
</event>
<event>
 5   0  0.4110803E-04  0.1609509E+04  0.7818609E-02  0.8814728E-01
       -1   -1    0    0    0  501  0.00000000000E+00  0.00000000000E+00  0.27527165822E+03  0.27527165826E+03  0.50400001928E-02 0.  1.
        1   -1    0    0  501    0  0.00000000000E+00  0.00000000000E+00 -0.23526921709E+04  0.23526921709E+04  0.50400001928E-02 0. -1.
    10030    2    1    2    0    0  0.00000000000E+00  0.00000000000E+00 -0.20774205127E+04  0.26279638292E+04  0.16095085899E+04 0.  0.
        5    1    3    3  502    0 -0.30094692443E+03 -0.40005036402E+03 -0.20674849340E+04  0.21272342107E+04  0.46999998093E+01 0.  1.
       -5    1    3    3    0  502  0.30094692443E+03  0.40005036402E+03 -0.99355787311E+01  0.50072961846E+03  0.46999998093E+01 0. -1.
</event>
<event>
 5   0  0.7770905E-04  0.1615517E+04  0.7818609E-02  0.8811072E-01
        2   -1    0    0  501    0  0.00000000000E+00  0.00000000000E+00  0.13232434452E+04  0.13232434452E+04  0.25500000920E-02 0.  1.
       -2   -1    0    0    0  501  0.00000000000E+00  0.00000000000E+00 -0.49308678666E+03  0.49308678667E+03  0.25500000920E-02 0. -1.
    10030    2    1    2    0    0  0.00000000000E+00  0.00000000000E+00  0.83015665855E+03  0.18163302319E+04  0.16155170793E+04 0.  0.
        2    1    3    3  502    0  0.38110260702E+03 -0.14449160384E+03 -0.36900238328E+03  0.54979976313E+03  0.25500000920E-02 0. -1.
       -2    1    3    3    0  502 -0.38110260702E+03  0.14449160384E+03  0.11991590418E+04  0.12665304688E+04  0.25500000920E-02 0.  1.
</event>
<event>
 5   0  0.7488884E-04  0.1553263E+04  0.7818609E-02  0.8849786E-01
        2   -1    0    0  501    0  0.00000000000E+00  0.00000000000E+00  0.10293227689E+04  0.10293227689E+04  0.25500000920E-02 0. -1.
       -2   -1    0    0    0  501  0.00000000000E+00  0.00000000000E+00 -0.58597391111E+03  0.58597391111E+03  0.25500000920E-02 0.  1.
    10030    2    1    2    0    0  0.00000000000E+00  0.00000000000E+00  0.44334885777E+03  0.16152966800E+04  0.15532627449E+04 0.  0.
        3    1    3    3  502    0  0.33031382687E+03  0.47245981981E+03  0.76287267344E+03  0.95619047874E+03  0.10100000352E+00 0. -1.
       -3    1    3    3    0  502 -0.33031382687E+03 -0.47245981981E+03 -0.31952381567E+03  0.65910620125E+03  0.10100000352E+00 0.  1.
</event>
<event>
 5   0  0.7488884E-04  0.1639620E+04  0.7818609E-02  0.8796571E-01
        2   -1    0    0  501    0  0.00000000000E+00  0.00000000000E+00  0.69694009466E+03  0.69694009466E+03  0.25500000920E-02 0.  1.
       -2   -1    0    0    0  501  0.00000000000E+00  0.00000000000E+00 -0.96434230588E+03  0.96434230588E+03  0.25500000920E-02 0. -1.
    10030    2    1    2    0    0  0.00000000000E+00  0.00000000000E+00 -0.26740221122E+03  0.16612824005E+04  0.16396204658E+04 0.  0.
        3    1    3    3  502    0  0.26362089529E+03 -0.35231832415E+03 -0.83455106553E+03  0.94345093626E+03  0.10100000352E+00 0. -1.
       -3    1    3    3    0  502 -0.26362089529E+03  0.35231832415E+03  0.56714885431E+03  0.71783146428E+03  0.10100000352E+00 0.  1.
</event>
<event>
 5   0  0.3950195E-04  0.1612801E+04  0.7818609E-02  0.8812722E-01
       -1   -1    0    0    0  501  0.00000000000E+00  0.00000000000E+00  0.41691201139E+03  0.41691201142E+03  0.50400001928E-02 0. -1.
        1   -1    0    0  501    0  0.00000000000E+00  0.00000000000E+00 -0.15597572705E+04  0.15597572705E+04  0.50400001928E-02 0.  1.
    10030    2    1    2    0    0  0.00000000000E+00  0.00000000000E+00 -0.11428452591E+04  0.19766692819E+04  0.16128007204E+04 0.  0.
        2    1    3    3  502    0 -0.29929508752E+03 -0.32618776749E+02 -0.14882924571E+04  0.15184386625E+04  0.25500000920E-02 0.  1.
       -2    1    3    3    0  502  0.29929508752E+03  0.32618776749E+02  0.34544719795E+03  0.45823061943E+03  0.25500000920E-02 0. -1.
</event>
<event>
 5   0  0.7553070E-04  0.1604323E+04  0.7818609E-02  0.8817897E-01
       -2   -1    0    0    0  501  0.00000000000E+00  0.00000000000E+00  0.47435902147E+03  0.47435902147E+03  0.25500000920E-02 0.  1.
        2   -1    0    0  501    0  0.00000000000E+00  0.00000000000E+00 -0.13564895643E+04  0.13564895643E+04  0.25500000920E-02 0. -1.
    10030    2    1    2    0    0  0.00000000000E+00  0.00000000000E+00 -0.88213054288E+03  0.18308485858E+04  0.16043229879E+04 0.  0.
        4    1    3    3  502    0 -0.66389010253E+03  0.44352288659E+03 -0.35267714846E+03  0.87283755826E+03  0.12699999809E+01 0. -1.
       -4    1    3    3    0  502  0.66389010253E+03 -0.44352288659E+03 -0.52945339441E+03  0.95801102756E+03  0.12699999809E+01 0.  1.
</event>
<event>
 5   0  0.7488884E-04  0.1608835E+04  0.7818609E-02  0.8815139E-01
       -2   -1    0    0    0  501  0.00000000000E+00  0.00000000000E+00  0.26888920988E+03  0.26888920989E+03  0.25500000920E-02 0. -1.
        2   -1    0    0  501    0  0.00000000000E+00  0.00000000000E+00 -0.24065200228E+04  0.24065200228E+04  0.25500000920E-02 0.  1.
    10030    2    1    2    0    0  0.00000000000E+00  0.00000000000E+00 -0.21376308129E+04  0.26754092327E+04  0.16088346932E+04 0.  0.
        3    1    3    3  502    0 -0.32807420385E+03 -0.53767698604E+03 -0.19008848312E+04  0.20025215046E+04  0.10100000352E+00 0.  1.
       -3    1    3    3    0  502  0.32807420385E+03  0.53767698604E+03 -0.23674598166E+03  0.67288772807E+03  0.10100000352E+00 0. -1.
</event>
<event>
 5   0  0.7488884E-04  0.1599506E+04  0.7818609E-02  0.8820851E-01
        2   -1    0    0  501    0  0.00000000000E+00  0.00000000000E+00  0.81778066518E+03  0.81778066519E+03  0.25500000920E-02 0. -1.
       -2   -1    0    0    0  501  0.00000000000E+00  0.00000000000E+00 -0.78212298784E+03  0.78212298784E+03  0.25500000920E-02 0.  1.
    10030    2    1    2    0    0  0.00000000000E+00  0.00000000000E+00  0.35657677341E+02  0.15999036530E+04  0.15995062454E+04 0.  0.
        3    1    3    3  502    0 -0.46072153231E+03  0.34915559538E+02 -0.63511326601E+03  0.78539945091E+03  0.10100000352E+00 0.  1.
       -3    1    3    3    0  502  0.46072153231E+03 -0.34915559538E+02  0.67077094335E+03  0.81450420212E+03  0.10100000352E+00 0. -1.
</event>
<event>
 5   0  0.7488884E-04  0.1643838E+04  0.7818609E-02  0.8794060E-01
       -2   -1    0    0    0  501  0.00000000000E+00  0.00000000000E+00  0.73671588997E+03  0.73671588998E+03  0.25500000920E-02 0. -1.
        2   -1    0    0  501    0  0.00000000000E+00  0.00000000000E+00 -0.91697636532E+03  0.91697636532E+03  0.25500000920E-02 0.  1.
    10030    2    1    2    0    0  0.00000000000E+00  0.00000000000E+00 -0.18026047535E+03  0.16536922553E+04  0.16438382634E+04 0.  0.
        3    1    3    3  502    0  0.70476832370E+02  0.44473844325E+03 -0.78185061039E+03  0.90224700275E+03  0.10100000352E+00 0.  1.
       -3    1    3    3    0  502 -0.70476832370E+02 -0.44473844325E+03  0.60159013504E+03  0.75144525255E+03  0.10100000352E+00 0. -1.
</event>
<event>
 5   0  0.7415102E-04  0.1391580E+04  0.7818609E-02  0.8959936E-01
        2   -1    0    0  501    0  0.00000000000E+00  0.00000000000E+00  0.12485428731E+04  0.12485428731E+04  0.25500000920E-02 0.  1.
       -2   -1    0    0    0  501  0.00000000000E+00  0.00000000000E+00 -0.38775084569E+03  0.38775084570E+03  0.25500000920E-02 0. -1.
    10030    2    1    2    0    0  0.00000000000E+00  0.00000000000E+00  0.86079202737E+03  0.16362937188E+04  0.13915797569E+04 0.  0.
        5    1    3    3  502    0 -0.57273338626E+03 -0.14685389212E+03 -0.85830973094E+00  0.59128032612E+03  0.46999998093E+01 0. -1.
       -5    1    3    3    0  502  0.57273338626E+03  0.14685389212E+03  0.86165033710E+03  0.10450133926E+04  0.46999998093E+01 0.  1.
</event>
<event>
 5   0  0.3973227E-04  0.1638924E+04  0.7818609E-02  0.8796986E-01
        1   -1    0    0  501    0  0.00000000000E+00  0.00000000000E+00  0.15702118845E+04  0.15702118845E+04  0.50400001928E-02 0.  1.
       -1   -1    0    0    0  501  0.00000000000E+00  0.00000000000E+00 -0.42766071616E+03  0.42766071619E+03  0.50400001928E-02 0. -1.
    10030    2    1    2    0    0  0.00000000000E+00  0.00000000000E+00  0.11425511684E+04  0.19978726007E+04  0.16389239630E+04 0.  0.
        3    1    3    3  502    0 -0.26008713822E+03  0.30345518677E+03  0.14433506070E+04  0.14976619628E+04  0.10100000352E+00 0.  1.
       -3    1    3    3    0  502  0.26008713822E+03 -0.30345518677E+03 -0.30079943861E+03  0.50021063795E+03  0.10100000352E+00 0. -1.
</event>
<event>
 5   0  0.3950195E-04  0.1608772E+04  0.7818609E-02  0.8815177E-01
        1   -1    0    0  501    0  0.00000000000E+00  0.00000000000E+00  0.89851929773E+03  0.89851929774E+03  0.50400001928E-02 0.  1.
       -1   -1    0    0    0  501  0.00000000000E+00  0.00000000000E+00 -0.72011437118E+03  0.72011437120E+03  0.50400001928E-02 0. -1.
    10030    2    1    2    0    0  0.00000000000E+00  0.00000000000E+00  0.17840492655E+03  0.16186336689E+04  0.16087717789E+04 0.  0.
        2    1    3    3  502    0 -0.23951273053E+03 -0.50101661301E+03  0.67470850264E+03  0.87385099310E+03  0.25500000920E-02 0.  1.
       -2    1    3    3    0  502  0.23951273053E+03  0.50101661301E+03 -0.49630357610E+03  0.74478267585E+03  0.25500000920E-02 0. -1.
</event>
<event>
 5   0  0.3837251E-04  0.1191639E+04  0.7818609E-02  0.9120206E-01
       -1   -1    0    0    0  501  0.00000000000E+00  0.00000000000E+00  0.47957822590E+03  0.47957822593E+03  0.50400001928E-02 0.  1.
        1   -1    0    0  501    0  0.00000000000E+00  0.00000000000E+00 -0.74023570109E+03  0.74023570111E+03  0.50400001928E-02 0. -1.
    10030    2    1    2    0    0  0.00000000000E+00  0.00000000000E+00 -0.26065747519E+03  0.12198139270E+04  0.11916390801E+04 0.  0.
        4    1    3    3  502    0 -0.10515839029E+03  0.25980471440E+03 -0.66853814328E+03  0.72491491817E+03  0.12699999809E+01 0. -1.
       -4    1    3    3    0  502  0.10515839029E+03 -0.25980471440E+03  0.40788066809E+03  0.49489900886E+03  0.12699999809E+01 0.  1.
</event>
<event>
 5   0  0.7488884E-04  0.1591897E+04  0.7818609E-02  0.8825541E-01
       -2   -1    0    0    0  501  0.00000000000E+00  0.00000000000E+00  0.45725765065E+03  0.45725765066E+03  0.25500000920E-02 0.  1.
        2   -1    0    0  501    0  0.00000000000E+00  0.00000000000E+00 -0.13855077747E+04  0.13855077747E+04  0.25500000920E-02 0. -1.
    10030    2    1    2    0    0  0.00000000000E+00  0.00000000000E+00 -0.92825012409E+03  0.18427654254E+04  0.15918970193E+04 0.  0.
        3    1    3    3  502    0 -0.10770172448E+03 -0.73845475270E+03 -0.14370245786E+03  0.75997729561E+03  0.10100000352E+00 0. -1.
       -3    1    3    3    0  502  0.10770172448E+03  0.73845475270E+03 -0.78454766622E+03  0.10827881298E+04  0.10100000352E+00 0.  1.
</event>
<event>
 5   0  0.7488884E-04  0.1591136E+04  0.7818609E-02  0.8826012E-01
       -2   -1    0    0    0  501  0.00000000000E+00  0.00000000000E+00  0.69962767823E+03  0.69962767824E+03  0.25500000920E-02 0.  1.
        2   -1    0    0  501    0  0.00000000000E+00  0.00000000000E+00 -0.90466427296E+03  0.90466427296E+03  0.25500000920E-02 0. -1.
    10030    2    1    2    0    0  0.00000000000E+00  0.00000000000E+00 -0.20503659473E+03  0.16042919512E+04  0.15911356509E+04 0.  0.
        3    1    3    3  502    0  0.70763897163E+03  0.26490314188E+03 -0.35357829889E+03  0.83423270878E+03  0.10100000352E+00 0. -1.
       -3    1    3    3    0  502 -0.70763897163E+03 -0.26490314188E+03  0.14854170417E+03  0.77005924242E+03  0.10100000352E+00 0.  1.
</event>
<event>
 5   0  0.7395088E-04  0.1609421E+04  0.7818609E-02  0.8814781E-01
       -2   -1    0    0    0  501  0.00000000000E+00  0.00000000000E+00  0.94121140432E+03  0.94121140433E+03  0.25500000920E-02 0. -1.
        2   -1    0    0  501    0  0.00000000000E+00  0.00000000000E+00 -0.68800549295E+03  0.68800549295E+03  0.25500000920E-02 0.  1.
    10030    2    1    2    0    0  0.00000000000E+00  0.00000000000E+00  0.25320591138E+03  0.16292168973E+04  0.16094205370E+04 0.  0.
        1    1    3    3  502    0  0.76609855265E+03 -0.13767357885E+03  0.33331460197E+03  0.84673468725E+03  0.50400001928E-02 0. -1.
       -1    1    3    3    0  502 -0.76609855265E+03  0.13767357885E+03 -0.80108690594E+02  0.78248221003E+03  0.50400001928E-02 0.  1.
</event>
<event>
 5   0  0.3889847E-04  0.1583937E+04  0.7818609E-02  0.8830478E-01
       -1   -1    0    0    0  501  0.00000000000E+00  0.00000000000E+00  0.46320466811E+03  0.46320466814E+03  0.50400001928E-02 0.  1.
        1   -1    0    0  501    0  0.00000000000E+00  0.00000000000E+00 -0.13540747934E+04  0.13540747934E+04  0.50400001928E-02 0. -1.
    10030    2    1    2    0    0  0.00000000000E+00  0.00000000000E+00 -0.89087012525E+03  0.18172794615E+04  0.15839365711E+04 0.  0.
        1    1    3    3  502    0  0.86203488932E+02 -0.64446049564E+03  0.73342391527E+02  0.65432368012E+03  0.50400001928E-02 0. -1.
       -1    1    3    3    0  502 -0.86203488932E+02  0.64446049564E+03 -0.96421251677E+03  0.11629557814E+04  0.50400001928E-02 0.  1.
</event>
<event>
 5   0  0.7770905E-04  0.1608075E+04  0.7818609E-02  0.8815602E-01
        2   -1    0    0  501    0  0.00000000000E+00  0.00000000000E+00  0.95006734178E+03  0.95006734179E+03  0.25500000920E-02 0. -1.
       -2   -1    0    0    0  501  0.00000000000E+00  0.00000000000E+00 -0.68045351055E+03  0.68045351055E+03  0.25500000920E-02 0.  1.
    10030    2    1    2    0    0  0.00000000000E+00  0.00000000000E+00  0.26961383123E+03  0.16305208523E+04  0.16080754435E+04 0.  0.
        2    1    3    3  502    0  0.42188584984E+03 -0.59740051653E+03 -0.20392425911E+03  0.75924972895E+03  0.25500000920E-02 0.  1.
       -2    1    3    3    0  502 -0.42188584984E+03  0.59740051653E+03  0.47353809034E+03  0.87127112339E+03  0.25500000920E-02 0. -1.
</event>
<event>
 5   0  0.7488884E-04  0.1588521E+04  0.7818609E-02  0.8827631E-01
        2   -1    0    0  501    0  0.00000000000E+00  0.00000000000E+00  0.13321942651E+04  0.13321942651E+04  0.25500000920E-02 0.  1.
       -2   -1    0    0    0  501  0.00000000000E+00  0.00000000000E+00 -0.47354178036E+03  0.47354178037E+03  0.25500000920E-02 0. -1.
    10030    2    1    2    0    0  0.00000000000E+00  0.00000000000E+00  0.85865248474E+03  0.18057360455E+04  0.15885208769E+04 0.  0.
        3    1    3    3  502    0 -0.43457679771E+03 -0.66393838011E+03  0.39030327658E+03  0.88431206234E+03  0.10100000352E+00 0. -1.
       -3    1    3    3    0  502  0.43457679771E+03  0.66393838011E+03  0.46834920815E+03  0.92142398312E+03  0.10100000352E+00 0.  1.
</event>
<event>
 5   0  0.3889847E-04  0.1610117E+04  0.7818609E-02  0.8814357E-01
        1   -1    0    0  501    0  0.00000000000E+00  0.00000000000E+00  0.10025085061E+04  0.10025085061E+04  0.50400001928E-02 0. -1.
       -1   -1    0    0    0  501  0.00000000000E+00  0.00000000000E+00 -0.64649723790E+03  0.64649723792E+03  0.50400001928E-02 0.  1.
    10030    2    1    2    0    0  0.00000000000E+00  0.00000000000E+00  0.35601126819E+03  0.16490057440E+04  0.16101167413E+04 0.  0.
        1    1    3    3  502    0  0.54048428359E+03  0.33888532444E+03 -0.32492796210E+03  0.71592227547E+03  0.50400001928E-02 0.  1.
       -1    1    3    3    0  502 -0.54048428359E+03 -0.33888532444E+03  0.68093923029E+03  0.93308346856E+03  0.50400001928E-02 0. -1.
</event>
<event>
 5   0  0.7553070E-04  0.1605130E+04  0.7818609E-02  0.8817402E-01
       -2   -1    0    0    0  501  0.00000000000E+00  0.00000000000E+00  0.29439041747E+03  0.29439041748E+03  0.25500000920E-02 0. -1.
        2   -1    0    0  501    0  0.00000000000E+00  0.00000000000E+00 -0.21879475473E+04  0.21879475473E+04  0.25500000920E-02 0.  1.
    10030    2    1    2    0    0  0.00000000000E+00  0.00000000000E+00 -0.18935571298E+04  0.24823379648E+04  0.16051302650E+04 0.  0.
        4    1    3    3  502    0  0.26055521906E+03  0.19524974174E+03  0.18766054858E+03  0.37580523975E+03  0.12699999809E+01 0. -1.
       -4    1    3    3    0  502 -0.26055521906E+03 -0.19524974174E+03 -0.20812176784E+04  0.21065327250E+04  0.12699999809E+01 0.  1.
</event>
<event>
 5   0  0.4110803E-04  0.1597030E+04  0.7818609E-02  0.8822375E-01
        1   -1    0    0  501    0  0.00000000000E+00  0.00000000000E+00  0.16383091964E+04  0.16383091964E+04  0.50400001928E-02 0.  1.
       -1   -1    0    0    0  501  0.00000000000E+00  0.00000000000E+00 -0.38919783797E+03  0.38919783800E+03  0.50400001928E-02 0. -1.
    10030    2    1    2    0    0  0.00000000000E+00  0.00000000000E+00  0.12491113584E+04  0.20275070344E+04  0.15970302404E+04 0.  0.
        5    1    3    3  502    0 -0.79311553925E+03 -0.46217296290E+02  0.72640487147E+03  0.10765010099E+04  0.46999998093E+01 0. -1.
       -5    1    3    3    0  502  0.79311553925E+03  0.46217296290E+02  0.52270648691E+03  0.95100602444E+03  0.46999998093E+01 0.  1.
</event>
<event>
 5   0  0.7415102E-04  0.1491838E+04  0.7818609E-02  0.8889899E-01
        2   -1    0    0  501    0  0.00000000000E+00  0.00000000000E+00  0.10215053571E+04  0.10215053571E+04  0.25500000920E-02 0. -1.
       -2   -1    0    0    0  501  0.00000000000E+00  0.00000000000E+00 -0.54468128526E+03  0.54468128527E+03  0.25500000920E-02 0.  1.
    10030    2    1    2    0    0  0.00000000000E+00  0.00000000000E+00  0.47682407187E+03  0.15661866424E+04  0.14918375928E+04 0.  0.
        5    1    3    3  502    0 -0.50197018351E+03  0.33730102026E+03  0.69677957469E+03  0.92264289360E+03  0.46999998093E+01 0. -1.
       -5    1    3    3    0  502  0.50197018351E+03 -0.33730102026E+03 -0.21995550282E+03  0.64354374880E+03  0.46999998093E+01 0.  1.
</event>
<event>
 5   0  0.7553070E-04  0.1707139E+04  0.7818609E-02  0.8757303E-01
        2   -1    0    0  501    0  0.00000000000E+00  0.00000000000E+00  0.13368970194E+04  0.13368970194E+04  0.25500000920E-02 0.  1.
       -2   -1    0    0    0  501  0.00000000000E+00  0.00000000000E+00 -0.54497929691E+03  0.54497929691E+03  0.25500000920E-02 0. -1.
    10030    2    1    2    0    0  0.00000000000E+00  0.00000000000E+00  0.79191772251E+03  0.18818763163E+04  0.17071393589E+04 0.  0.
        4    1    3    3  502    0 -0.56188155887E+03  0.52962974041E+03 -0.50945191363E+01  0.77216974504E+03  0.12699999809E+01 0. -1.
       -4    1    3    3    0  502  0.56188155887E+03 -0.52962974041E+03  0.79701224165E+03  0.11097065713E+04  0.12699999809E+01 0.  1.
</event>
<event>
 5   0  0.7488884E-04  0.1592268E+04  0.7818609E-02  0.8825312E-01
        2   -1    0    0  501    0  0.00000000000E+00  0.00000000000E+00  0.22046714109E+04  0.22046714109E+04  0.25500000920E-02 0.  1.
       -2   -1    0    0    0  501  0.00000000000E+00  0.00000000000E+00 -0.28749364691E+03  0.28749364692E+03  0.25500000920E-02 0. -1.
    10030    2    1    2    0    0  0.00000000000E+00  0.00000000000E+00  0.19171777640E+04  0.24921650578E+04  0.15922675958E+04 0.  0.
        3    1    3    3  502    0  0.52380317558E+03 -0.59599605142E+03  0.85657702713E+03  0.11676066434E+04  0.10100000352E+00 0.  1.
       -3    1    3    3    0  502 -0.52380317558E+03  0.59599605142E+03  0.10606007369E+04  0.13245584144E+04  0.10100000352E+00 0. -1.
</event>
<event>
 5   0  0.7488884E-04  0.1590047E+04  0.7818609E-02  0.8826686E-01
       -2   -1    0    0    0  501  0.00000000000E+00  0.00000000000E+00  0.82926786215E+03  0.82926786216E+03  0.25500000920E-02 0.  1.
        2   -1    0    0  501    0  0.00000000000E+00  0.00000000000E+00 -0.76219360097E+03  0.76219360098E+03  0.25500000920E-02 0. -1.
    10030    2    1    2    0    0  0.00000000000E+00  0.00000000000E+00  0.67074261180E+02  0.15914614631E+04  0.15900473679E+04 0.  0.
        3    1    3    3  502    0 -0.14933193411E+03 -0.56765575183E+03  0.57023184839E+03  0.81835044465E+03  0.10100000352E+00 0.  1.
       -3    1    3    3    0  502  0.14933193411E+03  0.56765575183E+03 -0.50315758721E+03  0.77311101849E+03  0.10100000352E+00 0. -1.
</event>
<event>
 5   0  0.7553070E-04  0.1595008E+04  0.7818609E-02  0.8823621E-01
       -2   -1    0    0    0  501  0.00000000000E+00  0.00000000000E+00  0.28852347725E+03  0.28852347726E+03  0.25500000920E-02 0.  1.
        2   -1    0    0  501    0  0.00000000000E+00  0.00000000000E+00 -0.22043706386E+04  0.22043706386E+04  0.25500000920E-02 0. -1.
    10030    2    1    2    0    0  0.00000000000E+00  0.00000000000E+00 -0.19158471613E+04  0.24928941159E+04  0.15950080649E+04 0.  0.
        4    1    3    3  502    0  0.54648768431E+03 -0.37678777581E+03 -0.16487926182E+04  0.17773959964E+04  0.12699999809E+01 0. -1.
       -4    1    3    3    0  502 -0.54648768431E+03  0.37678777581E+03 -0.26705454313E+03  0.71549811950E+03  0.12699999809E+01 0.  1.
</event>
<event>
 5   0  0.7488884E-04  0.1538384E+04  0.7818609E-02  0.8859322E-01
       -2   -1    0    0    0  501  0.00000000000E+00  0.00000000000E+00  0.29711163341E+03  0.29711163342E+03  0.25500000920E-02 0.  1.
        2   -1    0    0  501    0  0.00000000000E+00  0.00000000000E+00 -0.19913605048E+04  0.19913605048E+04  0.25500000920E-02 0. -1.
    10030    2    1    2    0    0  0.00000000000E+00  0.00000000000E+00 -0.16942488714E+04  0.22884721383E+04  0.15383840513E+04 0.  0.
        3    1    3    3  502    0  0.21677960875E+03 -0.58046309607E+03 -0.15251183990E+04  0.16461825372E+04  0.10100000352E+00 0. -1.
       -3    1    3    3    0  502 -0.21677960875E+03  0.58046309607E+03 -0.16913047239E+03  0.64228960101E+03  0.10100000352E+00 0.  1.
</event>
<event>
 5   0  0.4110803E-04  0.1593705E+04  0.7818609E-02  0.8824424E-01
       -1   -1    0    0    0  501  0.00000000000E+00  0.00000000000E+00  0.46764496149E+03  0.46764496151E+03  0.50400001928E-02 0.  1.
        1   -1    0    0  501    0  0.00000000000E+00  0.00000000000E+00 -0.13578124732E+04  0.13578124732E+04  0.50400001928E-02 0. -1.
    10030    2    1    2    0    0  0.00000000000E+00  0.00000000000E+00 -0.89016751172E+03  0.18254574347E+04  0.15937053200E+04 0.  0.
        5    1    3    3  502    0  0.30592496729E+03  0.21383845444E+03 -0.12514729814E+04  0.13059569991E+04  0.46999998093E+01 0. -1.
       -5    1    3    3    0  502 -0.30592496729E+03 -0.21383845444E+03  0.36130546970E+03  0.51950043565E+03  0.46999998093E+01 0.  1.
</event>
<event>
 5   0  0.7395088E-04  0.1241475E+04  0.7818609E-02  0.9077308E-01
        2   -1    0    0  501    0  0.00000000000E+00  0.00000000000E+00  0.30361733867E+03  0.30361733868E+03  0.25500000920E-02 0.  1.
       -2   -1    0    0    0  501  0.00000000000E+00  0.00000000000E+00 -0.12690816908E+04  0.12690816908E+04  0.25500000920E-02 0. -1.
    10030    2    1    2    0    0  0.00000000000E+00  0.00000000000E+00 -0.96546435216E+03  0.15726990295E+04  0.12414752604E+04 0.  0.
        1    1    3    3  502    0  0.97013405331E+02 -0.39540877287E+03 -0.10763128010E+04  0.11507427793E+04  0.50400001928E-02 0. -1.
       -1    1    3    3    0  502 -0.97013405331E+02  0.39540877287E+03  0.11084844883E+03  0.42195625023E+03  0.50400001928E-02 0.  1.
</event>
<event>
 5   0  0.3889847E-04  0.1537576E+04  0.7818609E-02  0.8859842E-01
       -1   -1    0    0    0  501  0.00000000000E+00  0.00000000000E+00  0.11830198495E+04  0.11830198495E+04  0.50400001928E-02 0.  1.
        1   -1    0    0  501    0  0.00000000000E+00  0.00000000000E+00 -0.49959880404E+03  0.49959880407E+03  0.50400001928E-02 0. -1.
    10030    2    1    2    0    0  0.00000000000E+00  0.00000000000E+00  0.68342104542E+03  0.16826186535E+04  0.15375764072E+04 0.  0.
        1    1    3    3  502    0 -0.13869897246E+03 -0.75159152723E+02 -0.48169611664E+03  0.50687025165E+03  0.50400001928E-02 0. -1.
       -1    1    3    3    0  502  0.13869897246E+03  0.75159152723E+02  0.11651171621E+04  0.11757484019E+04  0.50400001928E-02 0.  1.
</event>
<event>
 5   0  0.7553070E-04  0.1630085E+04  0.7818609E-02  0.8802276E-01
       -2   -1    0    0    0  501  0.00000000000E+00  0.00000000000E+00  0.31182834647E+03  0.31182834648E+03  0.25500000920E-02 0.  1.
        2   -1    0    0  501    0  0.00000000000E+00  0.00000000000E+00 -0.21303204719E+04  0.21303204719E+04  0.25500000920E-02 0. -1.
    10030    2    1    2    0    0  0.00000000000E+00  0.00000000000E+00 -0.18184921254E+04  0.24421488184E+04  0.16300850410E+04 0.  0.
        4    1    3    3  502    0  0.74983002293E+03 -0.22700998236E+03 -0.12459654957E+04  0.14718050906E+04  0.12699999809E+01 0. -1.
       -4    1    3    3    0  502 -0.74983002293E+03  0.22700998236E+03 -0.57252662973E+03  0.97034372777E+03  0.12699999809E+01 0.  1.
</event>
<event>
 5   0  0.7553070E-04  0.1591222E+04  0.7818609E-02  0.8825959E-01
       -2   -1    0    0    0  501  0.00000000000E+00  0.00000000000E+00  0.77983108333E+03  0.77983108334E+03  0.25500000920E-02 0. -1.
        2   -1    0    0  501    0  0.00000000000E+00  0.00000000000E+00 -0.81171012297E+03  0.81171012298E+03  0.25500000920E-02 0.  1.
    10030    2    1    2    0    0  0.00000000000E+00  0.00000000000E+00 -0.31879039642E+02  0.15915412063E+04  0.15912219010E+04 0.  0.
        4    1    3    3  502    0  0.59512044049E+03  0.28301250836E+03  0.42994221156E+03  0.78683946061E+03  0.12699999809E+01 0. -1.
       -4    1    3    3    0  502 -0.59512044049E+03 -0.28301250836E+03 -0.46182125120E+03  0.80470174571E+03  0.12699999809E+01 0.  1.
</event>
<event>
 5   0  0.2781000E-04  0.1609705E+04  0.7818609E-02  0.8814608E-01
       -3   -1    0    0    0  501  0.00000000000E+00  0.00000000000E+00  0.51386682043E+03  0.51386683035E+03  0.10100000352E+00 0. -1.
        3   -1    0    0  501    0  0.00000000000E+00  0.00000000000E+00 -0.12606143214E+04  0.12606143254E+04  0.10100000352E+00 0.  1.
    10030    2    1    2    0    0  0.00000000000E+00  0.00000000000E+00 -0.74674750096E+03  0.17744811558E+04  0.16097054209E+04 0.  0.
        1    1    3    3  502    0 -0.48041025664E+03  0.55766332718E+03 -0.73228672024E+03  0.10382804254E+04  0.50400001928E-02 0.  1.
       -1    1    3    3    0  502  0.48041025664E+03 -0.55766332718E+03 -0.14460780720E+02  0.73620073035E+03  0.50400001928E-02 0. -1.
</event>
<event>
 5   0  0.7553070E-04  0.1626409E+04  0.7818609E-02  0.8804486E-01
        2   -1    0    0  501    0  0.00000000000E+00  0.00000000000E+00  0.11336166490E+04  0.11336166490E+04  0.25500000920E-02 0. -1.
       -2   -1    0    0    0  501  0.00000000000E+00  0.00000000000E+00 -0.58335588637E+03  0.58335588638E+03  0.25500000920E-02 0.  1.
    10030    2    1    2    0    0  0.00000000000E+00  0.00000000000E+00  0.55026076261E+03  0.17169725354E+04  0.16264094750E+04 0.  0.
        4    1    3    3  502    0 -0.69270140052E+03 -0.35240718759E+03  0.52777686414E+03  0.93945520775E+03  0.12699999809E+01 0. -1.
       -4    1    3    3    0  502  0.69270140052E+03  0.35240718759E+03  0.22483898466E+02  0.77751732761E+03  0.12699999809E+01 0.  1.
</event>
<event>
 5   0  0.7395088E-04  0.1628987E+04  0.7818609E-02  0.8802935E-01
        2   -1    0    0  501    0  0.00000000000E+00  0.00000000000E+00  0.71699308343E+03  0.71699308343E+03  0.25500000920E-02 0. -1.
       -2   -1    0    0    0  501  0.00000000000E+00  0.00000000000E+00 -0.92525295503E+03  0.92525295503E+03  0.25500000920E-02 0.  1.
    10030    2    1    2    0    0  0.00000000000E+00  0.00000000000E+00 -0.20825987160E+03  0.16422460385E+04  0.16289873777E+04 0.  0.
        1    1    3    3  502    0 -0.67088218532E+03  0.45461755920E+03 -0.21980894841E+02  0.81070536663E+03  0.50400001928E-02 0. -1.
       -1    1    3    3    0  502  0.67088218532E+03 -0.45461755920E+03 -0.18627897676E+03  0.83154067184E+03  0.50400001928E-02 0.  1.
</event>
<event>
 5   0  0.3837251E-04  0.1592730E+04  0.7818609E-02  0.8825027E-01
       -1   -1    0    0    0  501  0.00000000000E+00  0.00000000000E+00  0.13024052446E+04  0.13024052446E+04  0.50400001928E-02 0.  1.
        1   -1    0    0  501    0  0.00000000000E+00  0.00000000000E+00 -0.48694286959E+03  0.48694286962E+03  0.50400001928E-02 0. -1.
    10030    2    1    2    0    0  0.00000000000E+00  0.00000000000E+00  0.81546237499E+03  0.17893481142E+04  0.15927296659E+04 0.  0.
        4    1    3    3  502    0 -0.75125797518E+03 -0.26406706586E+03  0.39797763408E+03  0.89022905517E+03  0.12699999809E+01 0. -1.
       -4    1    3    3    0  502  0.75125797518E+03  0.26406706586E+03  0.41748474091E+03  0.89911905904E+03  0.12699999809E+01 0.  1.
</event>
<event>
 5   0  0.2781000E-04  0.1593416E+04  0.7818609E-02  0.8824603E-01
       -3   -1    0    0    0  501  0.00000000000E+00  0.00000000000E+00  0.77130206832E+03  0.77130207493E+03  0.10100000352E+00 0. -1.
        3   -1    0    0  501    0  0.00000000000E+00  0.00000000000E+00 -0.82295107457E+03  0.82295108076E+03  0.10100000352E+00 0.  1.
    10030    2    1    2    0    0  0.00000000000E+00  0.00000000000E+00 -0.51649006249E+02  0.15942531557E+04  0.15934162998E+04 0.  0.
        3    1    3    3  502    0  0.68670541329E+03 -0.27617445778E+03 -0.32077961969E+03  0.80668223631E+03  0.10100000352E+00 0.  1.
       -3    1    3    3    0  502 -0.68670541329E+03  0.27617445778E+03  0.26913061344E+03  0.78757091938E+03  0.10100000352E+00 0. -1.
</event>
<event>
 5   0  0.4110803E-04  0.1590201E+04  0.7818609E-02  0.8826591E-01
        1   -1    0    0  501    0  0.00000000000E+00  0.00000000000E+00  0.22105836253E+04  0.22105836253E+04  0.50400001928E-02 0.  1.
       -1   -1    0    0    0  501  0.00000000000E+00  0.00000000000E+00 -0.28598098469E+03  0.28598098474E+03  0.50400001928E-02 0. -1.
    10030    2    1    2    0    0  0.00000000000E+00  0.00000000000E+00  0.19246026406E+04  0.24965646100E+04  0.15902010967E+04 0.  0.
        5    1    3    3  502    0 -0.59161138615E+03  0.51908809844E+03  0.11392716309E+04  0.13847087871E+04  0.46999998093E+01 0.  1.
       -5    1    3    3    0  502  0.59161138615E+03 -0.51908809844E+03  0.78533100971E+03  0.11118558229E+04  0.46999998093E+01 0. -1.
</event>
<event>
 5   0  0.7553070E-04  0.1592523E+04  0.7818609E-02  0.8825154E-01
        2   -1    0    0  501    0  0.00000000000E+00  0.00000000000E+00  0.11194425470E+04  0.11194425470E+04  0.25500000920E-02 0. -1.
       -2   -1    0    0    0  501  0.00000000000E+00  0.00000000000E+00 -0.56638240624E+03  0.56638240625E+03  0.25500000920E-02 0.  1.
    10030    2    1    2    0    0  0.00000000000E+00  0.00000000000E+00  0.55306014073E+03  0.16858249532E+04  0.15925232349E+04 0.  0.
        4    1    3    3  502    0  0.32226650765E+02 -0.76350991883E+01  0.11187120554E+04  0.11192028983E+04  0.12699999809E+01 0. -1.
       -4    1    3    3    0  502 -0.32226650765E+02  0.76350991883E+01 -0.56565191462E+03  0.56662205497E+03  0.12699999809E+01 0.  1.
</event>
<event>
 5   0  0.7395088E-04  0.1614979E+04  0.7818609E-02  0.8811399E-01
       -2   -1    0    0    0  501  0.00000000000E+00  0.00000000000E+00  0.25476626095E+03  0.25476626096E+03  0.25500000920E-02 0.  1.
        2   -1    0    0  501    0  0.00000000000E+00  0.00000000000E+00 -0.25593613762E+04  0.25593613762E+04  0.25500000920E-02 0. -1.
    10030    2    1    2    0    0  0.00000000000E+00  0.00000000000E+00 -0.23045951153E+04  0.28141276372E+04  0.16149785488E+04 0.  0.
        1    1    3    3  502    0 -0.56051568447E+03 -0.53017781683E+03 -0.73710807669E+03  0.10670495147E+04  0.50400001928E-02 0.  1.
       -1    1    3    3    0  502  0.56051568447E+03  0.53017781683E+03 -0.15674870386E+04  0.17470781225E+04  0.50400001928E-02 0. -1.
</event>
<event>
 5   0  0.7553070E-04  0.1598078E+04  0.7818609E-02  0.8821730E-01
        2   -1    0    0  501    0  0.00000000000E+00  0.00000000000E+00  0.97613092314E+03  0.97613092315E+03  0.25500000920E-02 0.  1.
       -2   -1    0    0    0  501  0.00000000000E+00  0.00000000000E+00 -0.65407548789E+03  0.65407548789E+03  0.25500000920E-02 0. -1.
    10030    2    1    2    0    0  0.00000000000E+00  0.00000000000E+00  0.32205543525E+03  0.16302064110E+04  0.15980779828E+04 0.  0.
        4    1    3    3  502    0 -0.45300156082E+03  0.23895582023E+03  0.78666982349E+03  0.93870193471E+03  0.12699999809E+01 0.  1.
       -4    1    3    3    0  502  0.45300156082E+03 -0.23895582023E+03 -0.46461438824E+03  0.69150447633E+03  0.12699999809E+01 0. -1.
</event>
<event>
 5   0  0.7415102E-04  0.1656290E+04  0.7818609E-02  0.8786694E-01
        2   -1    0    0  501    0  0.00000000000E+00  0.00000000000E+00  0.86179756843E+03  0.86179756843E+03  0.25500000920E-02 0. -1.
       -2   -1    0    0    0  501  0.00000000000E+00  0.00000000000E+00 -0.79580626707E+03  0.79580626707E+03  0.25500000920E-02 0.  1.
    10030    2    1    2    0    0  0.00000000000E+00  0.00000000000E+00  0.65991301359E+02  0.16576038355E+04  0.16562897161E+04 0.  0.
        5    1    3    3  502    0  0.34437629264E+03  0.55512059801E+02 -0.71868294966E+03  0.79887664370E+03  0.46999998093E+01 0.  1.
       -5    1    3    3    0  502 -0.34437629264E+03 -0.55512059801E+02  0.78467425102E+03  0.85872719180E+03  0.46999998093E+01 0. -1.
</event>
<event>
 5   0  0.7770905E-04  0.1585984E+04  0.7818609E-02  0.8829205E-01
       -2   -1    0    0    0  501  0.00000000000E+00  0.00000000000E+00  0.61450800496E+03  0.61450800496E+03  0.25500000920E-02 0.  1.
        2   -1    0    0  501    0  0.00000000000E+00  0.00000000000E+00 -0.10233163177E+04  0.10233163177E+04  0.25500000920E-02 0. -1.
    10030    2    1    2    0    0  0.00000000000E+00  0.00000000000E+00 -0.40880831276E+03  0.16378243227E+04  0.15859836933E+04 0.  0.
        2    1    3    3  502    0 -0.77370341690E+03  0.95521187912E+02 -0.54416249378E+02  0.78147450558E+03  0.25500000920E-02 0.  1.
       -2    1    3    3    0  502  0.77370341690E+03 -0.95521187912E+02 -0.35439206338E+03  0.85634981711E+03  0.25500000920E-02 0. -1.
</event>
<event>
 5   0  0.3973227E-04  0.1594848E+04  0.7818609E-02  0.8823719E-01
       -1   -1    0    0    0  501  0.00000000000E+00  0.00000000000E+00  0.11901525713E+04  0.11901525713E+04  0.50400001928E-02 0. -1.
        1   -1    0    0  501    0  0.00000000000E+00  0.00000000000E+00 -0.53428866570E+03  0.53428866573E+03  0.50400001928E-02 0.  1.
    10030    2    1    2    0    0  0.00000000000E+00  0.00000000000E+00  0.65586390559E+03  0.17244412370E+04  0.15948479919E+04 0.  0.
        3    1    3    3  502    0  0.76431491802E+03 -0.21588763197E+03  0.40515111289E+03  0.89158970274E+03  0.10100000352E+00 0.  1.
       -3    1    3    3    0  502 -0.76431491802E+03  0.21588763197E+03  0.25071279270E+03  0.83285153429E+03  0.10100000352E+00 0. -1.
</event>
<event>
 5   0  0.7395088E-04  0.1600571E+04  0.7818609E-02  0.8820197E-01
       -2   -1    0    0    0  501  0.00000000000E+00  0.00000000000E+00  0.35576357717E+03  0.35576357718E+03  0.25500000920E-02 0. -1.
        2   -1    0    0  501    0  0.00000000000E+00  0.00000000000E+00 -0.18002326528E+04  0.18002326528E+04  0.25500000920E-02 0.  1.
    10030    2    1    2    0    0  0.00000000000E+00  0.00000000000E+00 -0.14444690757E+04  0.21559962300E+04  0.16005714084E+04 0.  0.
        1    1    3    3  502    0 -0.36038360073E+03  0.59588180712E+03 -0.19104910634E+03  0.72211580012E+03  0.50400001928E-02 0. -1.
       -1    1    3    3    0  502  0.36038360073E+03 -0.59588180712E+03 -0.12534199693E+04  0.14338804299E+04  0.50400001928E-02 0.  1.
</event>
<event>
 5   0  0.3950195E-04  0.1605691E+04  0.7818609E-02  0.8817059E-01
        1   -1    0    0  501    0  0.00000000000E+00  0.00000000000E+00  0.20981459697E+04  0.20981459697E+04  0.50400001928E-02 0. -1.
       -1   -1    0    0    0  501  0.00000000000E+00  0.00000000000E+00 -0.30720504317E+03  0.30720504322E+03  0.50400001928E-02 0.  1.
    10030    2    1    2    0    0  0.00000000000E+00  0.00000000000E+00  0.17909409265E+04  0.24053510129E+04  0.16056911574E+04 0.  0.
        2    1    3    3  502    0  0.54639717233E+02  0.61690708298E+03  0.13015995260E+03  0.63285184759E+03  0.25500000920E-02 0.  1.
       -2    1    3    3    0  502 -0.54639717233E+02 -0.61690708298E+03  0.16607809739E+04  0.17724991653E+04  0.25500000920E-02 0. -1.
</event>
<event>
 5   0  0.3837251E-04  0.1580224E+04  0.7818609E-02  0.8832790E-01
       -1   -1    0    0    0  501  0.00000000000E+00  0.00000000000E+00  0.80271436249E+03  0.80271436251E+03  0.50400001928E-02 0.  1.
        1   -1    0    0  501    0  0.00000000000E+00  0.00000000000E+00 -0.77770702465E+03  0.77770702466E+03  0.50400001928E-02 0. -1.
    10030    2    1    2    0    0  0.00000000000E+00  0.00000000000E+00  0.25007337846E+02  0.15804213872E+04  0.15802235266E+04 0.  0.
        4    1    3    3  502    0  0.65937596963E+03 -0.24472067612E+03 -0.34755544579E+03  0.78451340298E+03  0.12699999809E+01 0. -1.
       -4    1    3    3    0  502 -0.65937596963E+03  0.24472067612E+03  0.37256278364E+03  0.79590798419E+03  0.12699999809E+01 0.  1.
</event>
<event>
 5   0  0.7488884E-04  0.1636252E+04  0.7818609E-02  0.8798582E-01
       -2   -1    0    0    0  501  0.00000000000E+00  0.00000000000E+00  0.84046794033E+03  0.84046794033E+03  0.25500000920E-02 0. -1.
        2   -1    0    0  501    0  0.00000000000E+00  0.00000000000E+00 -0.79637750862E+03  0.79637750862E+03  0.25500000920E-02 0.  1.
    10030    2    1    2    0    0  0.00000000000E+00  0.00000000000E+00  0.44090431710E+02  0.16368454490E+04  0.16362515264E+04 0.  0.
        3    1    3    3  502    0  0.32576373983E+02  0.27341871149E+03 -0.74863090458E+03  0.79766362173E+03  0.10100000352E+00 0.  1.
       -3    1    3    3    0  502 -0.32576373983E+02 -0.27341871149E+03  0.79272133629E+03  0.83918182722E+03  0.10100000352E+00 0. -1.
</event>
<event>
 5   0  0.7415102E-04  0.1587378E+04  0.7818609E-02  0.8828340E-01
       -2   -1    0    0    0  501  0.00000000000E+00  0.00000000000E+00  0.25773406376E+03  0.25773406377E+03  0.25500000920E-02 0. -1.
        2   -1    0    0  501    0  0.00000000000E+00  0.00000000000E+00 -0.24441569640E+04  0.24441569640E+04  0.25500000920E-02 0.  1.
    10030    2    1    2    0    0  0.00000000000E+00  0.00000000000E+00 -0.21864229002E+04  0.27018910278E+04  0.15873783504E+04 0.  0.
        5    1    3    3  502    0  0.42090325428E+03 -0.67285436890E+03 -0.10842263768E+04  0.13436746174E+04  0.46999998093E+01 0.  1.
       -5    1    3    3    0  502 -0.42090325428E+03  0.67285436890E+03 -0.11021965234E+04  0.13582164104E+04  0.46999998093E+01 0. -1.
</event>
<event>
 5   0  0.2781000E-04  0.1600162E+04  0.7818609E-02  0.8820449E-01
        3   -1    0    0  501    0  0.00000000000E+00  0.00000000000E+00  0.13852645835E+04  0.13852645872E+04  0.10100000352E+00 0.  1.
       -3   -1    0    0    0  501  0.00000000000E+00  0.00000000000E+00 -0.46209914390E+03  0.46209915494E+03  0.10100000352E+00 0. -1.
    10030    2    1    2    0    0  0.00000000000E+00  0.00000000000E+00  0.92316543961E+03  0.18473637421E+04  0.16001619814E+04 0.  0.
        3    1    3    3  502    0  0.18061990529E+03  0.38402293504E+03 -0.32145500492E+03  0.53238190729E+03  0.10100000352E+00 0. -1.
       -3    1    3    3    0  502 -0.18061990529E+03 -0.38402293504E+03  0.12446204445E+04  0.13149818348E+04  0.10100000352E+00 0.  1.
</event>
<event>
 5   0  0.7415102E-04  0.1614021E+04  0.7818609E-02  0.8811981E-01
        2   -1    0    0  501    0  0.00000000000E+00  0.00000000000E+00  0.10267988959E+04  0.10267988959E+04  0.25500000920E-02 0. -1.
       -2   -1    0    0    0  501  0.00000000000E+00  0.00000000000E+00 -0.63426808336E+03  0.63426808337E+03  0.25500000920E-02 0.  1.
    10030    2    1    2    0    0  0.00000000000E+00  0.00000000000E+00  0.39253081255E+03  0.16610669793E+04  0.16140207777E+04 0.  0.
        5    1    3    3  502    0  0.18531748000E+03  0.26853686048E+03  0.95587810108E+03  0.10100394289E+04  0.46999998093E+01 0. -1.
       -5    1    3    3    0  502 -0.18531748000E+03 -0.26853686048E+03 -0.56334728854E+03  0.65102755036E+03  0.46999998093E+01 0.  1.
</event>
<event>
 5   0  0.7395088E-04  0.1590305E+04  0.7818609E-02  0.8826526E-01
        2   -1    0    0  501    0  0.00000000000E+00  0.00000000000E+00  0.63664031366E+03  0.63664031367E+03  0.25500000920E-02 0.  1.
       -2   -1    0    0    0  501  0.00000000000E+00  0.00000000000E+00 -0.99313170880E+03  0.99313170880E+03  0.25500000920E-02 0. -1.
    10030    2    1    2    0    0  0.00000000000E+00  0.00000000000E+00 -0.35649139513E+03  0.16297720225E+04  0.15903052318E+04 0.  0.
        1    1    3    3  502    0 -0.30537045094E+03 -0.31047449572E+03 -0.86005503717E+03  0.96402292078E+03  0.50400001928E-02 0. -1.
       -1    1    3    3    0  502  0.30537045094E+03  0.31047449572E+03  0.50356364204E+03  0.66574910169E+03  0.50400001928E-02 0.  1.
</event>
<event>
 5   0  0.3837251E-04  0.1599418E+04  0.7818609E-02  0.8820906E-01
        1   -1    0    0  501    0  0.00000000000E+00  0.00000000000E+00  0.43956594838E+03  0.43956594841E+03  0.50400001928E-02 0. -1.
       -1   -1    0    0    0  501  0.00000000000E+00  0.00000000000E+00 -0.14549229143E+04  0.14549229143E+04  0.50400001928E-02 0.  1.
    10030    2    1    2    0    0  0.00000000000E+00  0.00000000000E+00 -0.10153569659E+04  0.18944888627E+04  0.15994181075E+04 0.  0.
        4    1    3    3  502    0  0.72712218701E+03  0.23183398530E+03 -0.22468963921E+03  0.79557571510E+03  0.12699999809E+01 0. -1.
       -4    1    3    3    0  502 -0.72712218701E+03 -0.23183398530E+03 -0.79066732672E+03  0.10989131476E+04  0.12699999809E+01 0.  1.
</event>
<event>
 5   0  0.4110803E-04  0.1577267E+04  0.7818609E-02  0.8834637E-01
        1   -1    0    0  501    0  0.00000000000E+00  0.00000000000E+00  0.11417003649E+04  0.11417003649E+04  0.50400001928E-02 0.  1.
       -1   -1    0    0    0  501  0.00000000000E+00  0.00000000000E+00 -0.54475112933E+03  0.54475112935E+03  0.50400001928E-02 0. -1.
    10030    2    1    2    0    0  0.00000000000E+00  0.00000000000E+00  0.59694923556E+03  0.16864514942E+04  0.15772667031E+04 0.  0.
        5    1    3    3  502    0 -0.20930821138E+03  0.11003179586E+03 -0.50593693041E+03  0.55849009928E+03  0.46999998093E+01 0. -1.
       -5    1    3    3    0  502  0.20930821138E+03 -0.11003179586E+03  0.11028861660E+04  0.11279613950E+04  0.46999998093E+01 0.  1.
</event>
<event>
 5   0  0.7415102E-04  0.1606131E+04  0.7818609E-02  0.8816791E-01
       -2   -1    0    0    0  501  0.00000000000E+00  0.00000000000E+00  0.25821407182E+03  0.25821407183E+03  0.25500000920E-02 0.  1.
        2   -1    0    0  501    0  0.00000000000E+00  0.00000000000E+00 -0.24975936200E+04  0.24975936200E+04  0.25500000920E-02 0. -1.
    10030    2    1    2    0    0  0.00000000000E+00  0.00000000000E+00 -0.22393795481E+04  0.27558076918E+04  0.16061305282E+04 0.  0.
        5    1    3    3  502    0  0.82429435158E+02  0.17763285480E+03 -0.24559748372E+04  0.24637740428E+04  0.46999998093E+01 0. -1.
       -5    1    3    3    0  502 -0.82429435158E+02 -0.17763285480E+03  0.21659528909E+03  0.29203364898E+03  0.46999998093E+01 0.  1.
</event>
<event>
 5   0  0.7770905E-04  0.1622454E+04  0.7818609E-02  0.8806871E-01
        2   -1    0    0  501    0  0.00000000000E+00  0.00000000000E+00  0.13842003453E+04  0.13842003453E+04  0.25500000920E-02 0. -1.
       -2   -1    0    0    0  501  0.00000000000E+00  0.00000000000E+00 -0.47542895419E+03  0.47542895419E+03  0.25500000920E-02 0.  1.
    10030    2    1    2    0    0  0.00000000000E+00  0.00000000000E+00  0.90877139109E+03  0.18596292995E+04  0.16224536019E+04 0.  0.
        2    1    3    3  502    0 -0.17933063062E+03 -0.78509275894E+03  0.56644707084E+03  0.98457726933E+03  0.25500000920E-02 0. -1.
       -2    1    3    3    0  502  0.17933063062E+03  0.78509275894E+03  0.34232432025E+03  0.87505203014E+03  0.25500000920E-02 0.  1.
</event>
<event>
 5   0  0.7488884E-04  0.1645011E+04  0.7818609E-02  0.8793363E-01
       -2   -1    0    0    0  501  0.00000000000E+00  0.00000000000E+00  0.67698529060E+03  0.67698529060E+03  0.25500000920E-02 0. -1.
        2   -1    0    0  501    0  0.00000000000E+00  0.00000000000E+00 -0.99930616968E+03  0.99930616968E+03  0.25500000920E-02 0.  1.
    10030    2    1    2    0    0  0.00000000000E+00  0.00000000000E+00 -0.32232087908E+03  0.16762914603E+04  0.16450113406E+04 0.  0.
        3    1    3    3  502    0 -0.24920905488E+03  0.77548864167E+03 -0.44850759121E+02  0.81578145798E+03  0.10100000352E+00 0.  1.
       -3    1    3    3    0  502  0.24920905488E+03 -0.77548864167E+03 -0.27747011996E+03  0.86051000230E+03  0.10100000352E+00 0. -1.
</event>
<event>
 5   0  0.3889847E-04  0.1588839E+04  0.7818609E-02  0.8827434E-01
        1   -1    0    0  501    0  0.00000000000E+00  0.00000000000E+00  0.88109541442E+03  0.88109541444E+03  0.50400001928E-02 0.  1.
       -1   -1    0    0    0  501  0.00000000000E+00  0.00000000000E+00 -0.71627002575E+03  0.71627002577E+03  0.50400001928E-02 0. -1.
    10030    2    1    2    0    0  0.00000000000E+00  0.00000000000E+00  0.16482538867E+03  0.15973654402E+04  0.15888388656E+04 0.  0.
        1    1    3    3  502    0  0.40295696424E+02 -0.81862210095E+02  0.87581002750E+03  0.88055003770E+03  0.50400001928E-02 0.  1.
       -1    1    3    3    0  502 -0.40295696424E+02  0.81862210095E+02 -0.71098463883E+03  0.71681540251E+03  0.50400001928E-02 0. -1.
</event>
<event>
 5   0  0.7488884E-04  0.1529196E+04  0.7818609E-02  0.8865267E-01
       -2   -1    0    0    0  501  0.00000000000E+00  0.00000000000E+00  0.66144944228E+03  0.66144944228E+03  0.25500000920E-02 0. -1.
        2   -1    0    0  501    0  0.00000000000E+00  0.00000000000E+00 -0.88383172943E+03  0.88383172943E+03  0.25500000920E-02 0.  1.
    10030    2    1    2    0    0  0.00000000000E+00  0.00000000000E+00 -0.22238228715E+03  0.15452811717E+04  0.15291958730E+04 0.  0.
        3    1    3    3  502    0  0.71670528489E+03 -0.24572401135E+03 -0.73324268610E+01  0.75769421921E+03  0.10100000352E+00 0. -1.
       -3    1    3    3    0  502 -0.71670528489E+03  0.24572401135E+03 -0.21504986029E+03  0.78758695250E+03  0.10100000352E+00 0.  1.
</event>
<event>
 5   0  0.7415102E-04  0.1604472E+04  0.7818609E-02  0.8817805E-01
       -2   -1    0    0    0  501  0.00000000000E+00  0.00000000000E+00  0.12885040454E+04  0.12885040454E+04  0.25500000920E-02 0.  1.
        2   -1    0    0  501    0  0.00000000000E+00  0.00000000000E+00 -0.49948054136E+03  0.49948054137E+03  0.25500000920E-02 0. -1.
    10030    2    1    2    0    0  0.00000000000E+00  0.00000000000E+00  0.78902350407E+03  0.17879845868E+04  0.16044721227E+04 0.  0.
        5    1    3    3  502    0  0.19286336567E+03  0.58706442764E+03 -0.17558660839E+03  0.64241238084E+03  0.46999998093E+01 0. -1.
       -5    1    3    3    0  502 -0.19286336567E+03 -0.58706442764E+03  0.96461011245E+03  0.11455722060E+04  0.46999998093E+01 0.  1.
</event>
<event>
 5   0  0.3889847E-04  0.1667810E+04  0.7818609E-02  0.8779939E-01
       -1   -1    0    0    0  501  0.00000000000E+00  0.00000000000E+00  0.11793868942E+04  0.11793868943E+04  0.50400001928E-02 0.  1.
        1   -1    0    0  501    0  0.00000000000E+00  0.00000000000E+00 -0.58962663815E+03  0.58962663817E+03  0.50400001928E-02 0. -1.
    10030    2    1    2    0    0  0.00000000000E+00  0.00000000000E+00  0.58976025609E+03  0.17690135324E+04  0.16678104563E+04 0.  0.
        1    1    3    3  502    0  0.57495298045E+03  0.39479440322E+03 -0.18998460118E+03  0.72286077446E+03  0.50400001928E-02 0. -1.
       -1    1    3    3    0  502 -0.57495298045E+03 -0.39479440322E+03  0.77974485727E+03  0.10461527580E+04  0.50400001928E-02 0.  1.
</event>
<event>
 5   0  0.3950195E-04  0.1631355E+04  0.7818609E-02  0.8801514E-01
        1   -1    0    0  501    0  0.00000000000E+00  0.00000000000E+00  0.62280958310E+03  0.62280958312E+03  0.50400001928E-02 0. -1.
       -1   -1    0    0    0  501  0.00000000000E+00  0.00000000000E+00 -0.10682709716E+04  0.10682709716E+04  0.50400001928E-02 0.  1.
    10030    2    1    2    0    0  0.00000000000E+00  0.00000000000E+00 -0.44546138847E+03  0.16910805547E+04  0.16313545273E+04 0.  0.
        2    1    3    3  502    0 -0.19701520652E+03  0.17676623369E+03 -0.10225138441E+04  0.10562177116E+04  0.25500000920E-02 0.  1.
       -2    1    3    3    0  502  0.19701520652E+03 -0.17676623369E+03  0.57705245562E+03  0.63486284308E+03  0.25500000920E-02 0. -1.
</event>
<event>
 5   0  0.7553070E-04  0.1599095E+04  0.7818609E-02  0.8821104E-01
        2   -1    0    0  501    0  0.00000000000E+00  0.00000000000E+00  0.16660066372E+04  0.16660066372E+04  0.25500000920E-02 0.  1.
       -2   -1    0    0    0  501  0.00000000000E+00  0.00000000000E+00 -0.38371782014E+03  0.38371782015E+03  0.25500000920E-02 0. -1.
    10030    2    1    2    0    0  0.00000000000E+00  0.00000000000E+00  0.12822888171E+04  0.20497244574E+04  0.15990952882E+04 0.  0.
        4    1    3    3  502    0 -0.29887791767E+03  0.61077135446E+03  0.10201701877E+03  0.68758907941E+03  0.12699999809E+01 0. -1.
       -4    1    3    3    0  502  0.29887791767E+03 -0.61077135446E+03  0.11802717983E+04  0.13621353780E+04  0.12699999809E+01 0.  1.
</event>
<event>
 5   0  0.7553070E-04  0.1612306E+04  0.7818609E-02  0.8813024E-01
        2   -1    0    0  501    0  0.00000000000E+00  0.00000000000E+00  0.17528886673E+04  0.17528886673E+04  0.25500000920E-02 0. -1.
       -2   -1    0    0    0  501  0.00000000000E+00  0.00000000000E+00 -0.37074939070E+03  0.37074939071E+03  0.25500000920E-02 0.  1.
    10030    2    1    2    0    0  0.00000000000E+00  0.00000000000E+00  0.13821392766E+04  0.21236380580E+04  0.16123056849E+04 0.  0.
        4    1    3    3  502    0 -0.45703745037E+03 -0.16384522594E+03 -0.15657370361E+03  0.51014255524E+03  0.12699999809E+01 0.  1.
       -4    1    3    3    0  502  0.45703745037E+03  0.16384522594E+03  0.15387129802E+04  0.16134955028E+04  0.12699999809E+01 0. -1.
</event>
<event>
 5   0  0.7770905E-04  0.1589753E+04  0.7818609E-02  0.8826868E-01
        2   -1    0    0  501    0  0.00000000000E+00  0.00000000000E+00  0.16084996743E+04  0.16084996743E+04  0.25500000920E-02 0.  1.
       -2   -1    0    0    0  501  0.00000000000E+00  0.00000000000E+00 -0.39280626338E+03  0.39280626339E+03  0.25500000920E-02 0. -1.
    10030    2    1    2    0    0  0.00000000000E+00  0.00000000000E+00  0.12156934109E+04  0.20013059376E+04  0.15897531213E+04 0.  0.
        2    1    3    3  502    0  0.27450763870E+03 -0.42113145095E+03 -0.16728167228E+03  0.52980118967E+03  0.25500000920E-02 0. -1.
       -2    1    3    3    0  502 -0.27450763870E+03  0.42113145095E+03  0.13829750832E+04  0.14715047480E+04  0.25500000920E-02 0.  1.
</event>
<event>
 5   0  0.7395088E-04  0.1588714E+04  0.7818609E-02  0.8827512E-01
       -2   -1    0    0    0  501  0.00000000000E+00  0.00000000000E+00  0.35899619925E+03  0.35899619926E+03  0.25500000920E-02 0.  1.
        2   -1    0    0  501    0  0.00000000000E+00  0.00000000000E+00 -0.17576866102E+04  0.17576866102E+04  0.25500000920E-02 0. -1.
    10030    2    1    2    0    0  0.00000000000E+00  0.00000000000E+00 -0.13986904110E+04  0.21166828095E+04  0.15887137093E+04 0.  0.
        1    1    3    3  502    0  0.75493324727E+03 -0.22289060873E+03 -0.55710193509E+03  0.96434796490E+03  0.50400001928E-02 0. -1.
       -1    1    3    3    0  502 -0.75493324727E+03  0.22289060873E+03 -0.84158847590E+03  0.11523348446E+04  0.50400001928E-02 0.  1.
</event>
<event>
 5   0  0.7553070E-04  0.1566517E+04  0.7818609E-02  0.8841386E-01
       -2   -1    0    0    0  501  0.00000000000E+00  0.00000000000E+00  0.47388777027E+03  0.47388777028E+03  0.25500000920E-02 0.  1.
        2   -1    0    0  501    0  0.00000000000E+00  0.00000000000E+00 -0.12945971593E+04  0.12945971593E+04  0.25500000920E-02 0. -1.
    10030    2    1    2    0    0  0.00000000000E+00  0.00000000000E+00 -0.82070938900E+03  0.17684849296E+04  0.15665168511E+04 0.  0.
        4    1    3    3  502    0 -0.47533157822E+03 -0.18401717322E+03  0.26103938973E+03  0.57266535183E+03  0.12699999809E+01 0.  1.
       -4    1    3    3    0  502  0.47533157822E+03  0.18401717322E+03 -0.10817487787E+04  0.11958195777E+04  0.12699999809E+01 0. -1.
</event>
<event>
 5   0  0.7488884E-04  0.1591824E+04  0.7818609E-02  0.8825587E-01
        2   -1    0    0  501    0  0.00000000000E+00  0.00000000000E+00  0.62959621365E+03  0.62959621365E+03  0.25500000920E-02 0.  1.
       -2   -1    0    0    0  501  0.00000000000E+00  0.00000000000E+00 -0.10061618488E+04  0.10061618488E+04  0.25500000920E-02 0. -1.
    10030    2    1    2    0    0  0.00000000000E+00  0.00000000000E+00 -0.37656563514E+03  0.16357580624E+04  0.15918237218E+04 0.  0.
        3    1    3    3  502    0  0.16099555061E+03 -0.65569170103E+03 -0.62137020752E+03  0.91757948926E+03  0.10100000352E+00 0.  1.
       -3    1    3    3    0  502 -0.16099555061E+03  0.65569170103E+03  0.24480457238E+03  0.71817857318E+03  0.10100000352E+00 0. -1.
</event>
<event>
 5   0  0.3889847E-04  0.1604585E+04  0.7818609E-02  0.8817736E-01
       -1   -1    0    0    0  501  0.00000000000E+00  0.00000000000E+00  0.10786929975E+04  0.10786929975E+04  0.50400001928E-02 0. -1.
        1   -1    0    0  501    0  0.00000000000E+00  0.00000000000E+00 -0.59671562980E+03  0.59671562982E+03  0.50400001928E-02 0.  1.
    10030    2    1    2    0    0  0.00000000000E+00  0.00000000000E+00  0.48197736771E+03  0.16754086273E+04  0.16045846458E+04 0.  0.
        1    1    3    3  502    0 -0.17383984261E+02  0.49397699460E+03  0.90082928711E+03  0.10275256097E+04  0.50400001928E-02 0. -1.
       -1    1    3    3    0  502  0.17383984261E+02 -0.49397699460E+03 -0.41885191940E+03  0.64788301761E+03  0.50400001928E-02 0.  1.
</event>
<event>
 5   0  0.3973227E-04  0.1591589E+04  0.7818609E-02  0.8825732E-01
        1   -1    0    0  501    0  0.00000000000E+00  0.00000000000E+00  0.12368141078E+04  0.12368141078E+04  0.50400001928E-02 0. -1.
       -1   -1    0    0    0  501  0.00000000000E+00  0.00000000000E+00 -0.51203207656E+03  0.51203207658E+03  0.50400001928E-02 0.  1.
    10030    2    1    2    0    0  0.00000000000E+00  0.00000000000E+00  0.72478203126E+03  0.17488461844E+04  0.15915885096E+04 0.  0.
        3    1    3    3  502    0  0.36761088817E+03  0.73481173748E+02  0.11337111721E+04  0.11940847038E+04  0.10100000352E+00 0. -1.
       -3    1    3    3    0  502 -0.36761088817E+03 -0.73481173748E+02 -0.40892914079E+03  0.55476148062E+03  0.10100000352E+00 0.  1.
</event>
<event>
 5   0  0.3837251E-04  0.1635305E+04  0.7818609E-02  0.8799147E-01
        1   -1    0    0  501    0  0.00000000000E+00  0.00000000000E+00  0.11938492937E+04  0.11938492937E+04  0.50400001928E-02 0.  1.
       -1   -1    0    0    0  501  0.00000000000E+00  0.00000000000E+00 -0.56000023578E+03  0.56000023580E+03  0.50400001928E-02 0. -1.
    10030    2    1    2    0    0  0.00000000000E+00  0.00000000000E+00  0.63384905788E+03  0.17538495295E+04  0.16353053366E+04 0.  0.
        4    1    3    3  502    0 -0.14906463281E+03 -0.77116284291E+03  0.56064639257E+03  0.96500693544E+03  0.12699999809E+01 0.  1.
       -4    1    3    3    0  502  0.14906463281E+03  0.77116284291E+03  0.73202665319E+02  0.78884259403E+03  0.12699999809E+01 0. -1.
</event>
<event>
 5   0  0.3889847E-04  0.1618249E+04  0.7818609E-02  0.8809415E-01
        1   -1    0    0  501    0  0.00000000000E+00  0.00000000000E+00  0.93995051244E+03  0.93995051246E+03  0.50400001928E-02 0. -1.
       -1   -1    0    0    0  501  0.00000000000E+00  0.00000000000E+00 -0.69650741458E+03  0.69650741460E+03  0.50400001928E-02 0.  1.
    10030    2    1    2    0    0  0.00000000000E+00  0.00000000000E+00  0.24344309786E+03  0.16364579271E+04  0.16182490553E+04 0.  0.
        1    1    3    3  502    0  0.74580169566E+03  0.73601473198E+02 -0.18674378510E+03  0.77234097872E+03  0.50400001928E-02 0.  1.
       -1    1    3    3    0  502 -0.74580169566E+03 -0.73601473198E+02  0.43018688296E+03  0.86411694834E+03  0.50400001928E-02 0. -1.
</event>
<event>
 5   0  0.7395088E-04  0.1606187E+04  0.7818609E-02  0.8816756E-01
        2   -1    0    0  501    0  0.00000000000E+00  0.00000000000E+00  0.14504599998E+04  0.14504599998E+04  0.25500000920E-02 0. -1.
       -2   -1    0    0    0  501  0.00000000000E+00  0.00000000000E+00 -0.44465863618E+03  0.44465863618E+03  0.25500000920E-02 0.  1.
    10030    2    1    2    0    0  0.00000000000E+00  0.00000000000E+00  0.10058013636E+04  0.18951186359E+04  0.16061874926E+04 0.  0.
        1    1    3    3  502    0 -0.70798187006E+03 -0.23598643452E+02  0.94933502020E+03  0.11844966040E+04  0.50400001928E-02 0. -1.
       -1    1    3    3    0  502  0.70798187006E+03  0.23598643452E+02  0.56466343387E+02  0.71062203194E+03  0.50400001928E-02 0.  1.
</event>
<event>
 5   0  0.7553070E-04  0.1628439E+04  0.7818609E-02  0.8803265E-01
       -2   -1    0    0    0  501  0.00000000000E+00  0.00000000000E+00  0.52824845214E+03  0.52824845215E+03  0.25500000920E-02 0.  1.
        2   -1    0    0  501    0  0.00000000000E+00  0.00000000000E+00 -0.12550037219E+04  0.12550037219E+04  0.25500000920E-02 0. -1.
    10030    2    1    2    0    0  0.00000000000E+00  0.00000000000E+00 -0.72675526975E+03  0.17832521740E+04  0.16284394659E+04 0.  0.
        4    1    3    3  502    0  0.31984986956E+02 -0.60522727172E+03  0.23203042900E+03  0.64897058693E+03  0.12699999809E+01 0.  1.
       -4    1    3    3    0  502 -0.31984986956E+02  0.60522727172E+03 -0.95878569874E+03  0.11342815871E+04  0.12699999809E+01 0. -1.
</event>
<event>
 5   0  0.7770905E-04  0.1639138E+04  0.7818609E-02  0.8796858E-01
       -2   -1    0    0    0  501  0.00000000000E+00  0.00000000000E+00  0.87840706902E+03  0.87840706903E+03  0.25500000920E-02 0. -1.
        2   -1    0    0  501    0  0.00000000000E+00  0.00000000000E+00 -0.76467201831E+03  0.76467201831E+03  0.25500000920E-02 0.  1.
    10030    2    1    2    0    0  0.00000000000E+00  0.00000000000E+00  0.11373505072E+03  0.16430790873E+04  0.16391379519E+04 0.  0.
        2    1    3    3  502    0  0.39896468429E+03  0.60185328419E+02 -0.65821872128E+03  0.77204078786E+03  0.25500000920E-02 0.  1.
       -2    1    3    3    0  502 -0.39896468429E+03 -0.60185328419E+02  0.77195377199E+03  0.87103829949E+03  0.25500000920E-02 0. -1.
</event>
<event>
 5   0  0.4110803E-04  0.1615955E+04  0.7818609E-02  0.8810806E-01
        1   -1    0    0  501    0  0.00000000000E+00  0.00000000000E+00  0.72578936760E+03  0.72578936762E+03  0.50400001928E-02 0.  1.
       -1   -1    0    0    0  501  0.00000000000E+00  0.00000000000E+00 -0.89947223745E+03  0.89947223746E+03  0.50400001928E-02 0. -1.
    10030    2    1    2    0    0  0.00000000000E+00  0.00000000000E+00 -0.17368286984E+03  0.16252616051E+04  0.16159546855E+04 0.  0.
        5    1    3    3  502    0  0.63303408968E+03  0.20677749401E+03 -0.54698730070E+03  0.86180408902E+03  0.46999998093E+01 0. -1.
       -5    1    3    3    0  502 -0.63303408968E+03 -0.20677749401E+03  0.37330443086E+03  0.76345751606E+03  0.46999998093E+01 0.  1.
</event>
<event>
 5   0  0.3973227E-04  0.1583222E+04  0.7818609E-02  0.8830922E-01
        1   -1    0    0  501    0  0.00000000000E+00  0.00000000000E+00  0.10997100689E+04  0.10997100689E+04  0.50400001928E-02 0.  1.
       -1   -1    0    0    0  501  0.00000000000E+00  0.00000000000E+00 -0.56983052741E+03  0.56983052743E+03  0.50400001928E-02 0. -1.
    10030    2    1    2    0    0  0.00000000000E+00  0.00000000000E+00  0.52987954145E+03  0.16695405963E+04  0.15832224968E+04 0.  0.
        3    1    3    3  502    0  0.33148117367E+03 -0.55505698542E+03  0.74666100646E+03  0.98765919949E+03  0.10100000352E+00 0. -1.
       -3    1    3    3    0  502 -0.33148117367E+03  0.55505698542E+03 -0.21678146501E+03  0.68188139682E+03  0.10100000352E+00 0.  1.
</event>
<event>
 5   0  0.7395088E-04  0.1576857E+04  0.7818609E-02  0.8834893E-01
        2   -1    0    0  501    0  0.00000000000E+00  0.00000000000E+00  0.15341428230E+04  0.15341428230E+04  0.25500000920E-02 0.  1.
       -2   -1    0    0    0  501  0.00000000000E+00  0.00000000000E+00 -0.40519023638E+03  0.40519023639E+03  0.25500000920E-02 0. -1.
    10030    2    1    2    0    0  0.00000000000E+00  0.00000000000E+00  0.11289525866E+04  0.19393330594E+04  0.15768572454E+04 0.  0.
        1    1    3    3  502    0  0.42291621159E+03  0.48866237666E+03  0.11199248795E+04  0.12930122877E+04  0.50400001928E-02 0.  1.
       -1    1    3    3    0  502 -0.42291621159E+03 -0.48866237666E+03  0.90277071149E+01  0.64632077169E+03  0.50400001928E-02 0. -1.
</event>
<event>
 5   0  0.3837251E-04  0.1587932E+04  0.7818609E-02  0.8827997E-01
       -1   -1    0    0    0  501  0.00000000000E+00  0.00000000000E+00  0.59059867536E+03  0.59059867538E+03  0.50400001928E-02 0. -1.
        1   -1    0    0  501    0  0.00000000000E+00  0.00000000000E+00 -0.10673606195E+04  0.10673606195E+04  0.50400001928E-02 0.  1.
    10030    2    1    2    0    0  0.00000000000E+00  0.00000000000E+00 -0.47676194417E+03  0.16579592949E+04  0.15879316963E+04 0.  0.
        4    1    3    3  502    0 -0.38749222381E+02 -0.38491697603E+03  0.48553314525E+03  0.62081126658E+03  0.12699999809E+01 0. -1.
       -4    1    3    3    0  502  0.38749222381E+02  0.38491697603E+03 -0.96229508942E+03  0.10371480283E+04  0.12699999809E+01 0.  1.
</event>
<event>
 5   0  0.3973227E-04  0.1555747E+04  0.7818609E-02  0.8848205E-01
        1   -1    0    0  501    0  0.00000000000E+00  0.00000000000E+00  0.11219433390E+04  0.11219433390E+04  0.50400001928E-02 0.  1.
       -1   -1    0    0    0  501  0.00000000000E+00  0.00000000000E+00 -0.53932055898E+03  0.53932055900E+03  0.50400001928E-02 0. -1.
    10030    2    1    2    0    0  0.00000000000E+00  0.00000000000E+00  0.58262277998E+03  0.16612638980E+04  0.15557469058E+04 0.  0.
        3    1    3    3  502    0 -0.50639626690E+03  0.33491110307E+03 -0.22796789300E+03  0.64851522460E+03  0.10100000352E+00 0. -1.
       -3    1    3    3    0  502  0.50639626690E+03 -0.33491110307E+03  0.81059067298E+03  0.10127486734E+04  0.10100000352E+00 0.  1.
</event>
<event>
 5   0  0.3889847E-04  0.1696888E+04  0.7818609E-02  0.8763141E-01
        1   -1    0    0  501    0  0.00000000000E+00  0.00000000000E+00  0.13265309629E+04  0.13265309629E+04  0.50400001928E-02 0. -1.
       -1   -1    0    0    0  501  0.00000000000E+00  0.00000000000E+00 -0.54266141928E+03  0.54266141930E+03  0.50400001928E-02 0.  1.
    10030    2    1    2    0    0  0.00000000000E+00  0.00000000000E+00  0.78386954359E+03  0.18691923822E+04  0.16968879457E+04 0.  0.
        1    1    3    3  502    0 -0.11279852653E+03 -0.69413217907E+02 -0.53120392424E+03  0.54746626523E+03  0.50400001928E-02 0.  1.
       -1    1    3    3    0  502  0.11279852653E+03  0.69413217907E+02  0.13150734678E+04  0.13217261169E+04  0.50400001928E-02 0. -1.
</event>
<event>
 5   0  0.4110803E-04  0.1669003E+04  0.7818609E-02  0.8779243E-01
       -1   -1    0    0    0  501  0.00000000000E+00  0.00000000000E+00  0.41753091385E+03  0.41753091388E+03  0.50400001928E-02 0. -1.
        1   -1    0    0  501    0  0.00000000000E+00  0.00000000000E+00 -0.16678835176E+04  0.16678835176E+04  0.50400001928E-02 0.  1.
    10030    2    1    2    0    0  0.00000000000E+00  0.00000000000E+00 -0.12503526037E+04  0.20854144314E+04  0.16690032107E+04 0.  0.
        5    1    3    3  502    0  0.28612754199E+03  0.58078645857E+03 -0.12830206774E+04  0.14371311803E+04  0.46999998093E+01 0.  1.
       -5    1    3    3    0  502 -0.28612754199E+03 -0.58078645857E+03  0.32668073654E+02  0.64828325119E+03  0.46999998093E+01 0. -1.
</event>
<event>
 5   0  0.3973227E-04  0.1585292E+04  0.7818609E-02  0.8829635E-01
        1   -1    0    0  501    0  0.00000000000E+00  0.00000000000E+00  0.12441157052E+04  0.12441157052E+04  0.50400001928E-02 0.  1.
       -1   -1    0    0    0  501  0.00000000000E+00  0.00000000000E+00 -0.50500755519E+03  0.50500755522E+03  0.50400001928E-02 0. -1.
    10030    2    1    2    0    0  0.00000000000E+00  0.00000000000E+00  0.73910815001E+03  0.17491232604E+04  0.15852921885E+04 0.  0.
        3    1    3    3  502    0  0.39824866616E+03  0.28628914395E+03 -0.31747106909E+03  0.58425282537E+03  0.10100000352E+00 0. -1.
       -3    1    3    3    0  502 -0.39824866616E+03 -0.28628914395E+03  0.10565792191E+04  0.11648704351E+04  0.10100000352E+00 0.  1.
</event>
<event>
 5   0  0.7553070E-04  0.1503900E+04  0.7818609E-02  0.8881864E-01
       -2   -1    0    0    0  501  0.00000000000E+00  0.00000000000E+00  0.40644122809E+03  0.40644122809E+03  0.25500000920E-02 0. -1.
        2   -1    0    0  501    0  0.00000000000E+00  0.00000000000E+00 -0.13911691572E+04  0.13911691572E+04  0.25500000920E-02 0.  1.
    10030    2    1    2    0    0  0.00000000000E+00  0.00000000000E+00 -0.98472792915E+03  0.17976103853E+04  0.15038995987E+04 0.  0.
        4    1    3    3  502    0  0.70478815584E+03  0.26195911246E+03 -0.50291830569E+03  0.90458684288E+03  0.12699999809E+01 0. -1.
       -4    1    3    3    0  502 -0.70478815584E+03 -0.26195911246E+03 -0.48180962346E+03  0.89302354245E+03  0.12699999809E+01 0.  1.
</event>
<event>
 5   0  0.7395088E-04  0.1601545E+04  0.7818609E-02  0.8819600E-01
       -2   -1    0    0    0  501  0.00000000000E+00  0.00000000000E+00  0.49802673396E+03  0.49802673397E+03  0.25500000920E-02 0.  1.
        2   -1    0    0  501    0  0.00000000000E+00  0.00000000000E+00 -0.12875539741E+04  0.12875539741E+04  0.25500000920E-02 0. -1.
    10030    2    1    2    0    0  0.00000000000E+00  0.00000000000E+00 -0.78952724018E+03  0.17855807081E+04  0.16015446301E+04 0.  0.
        1    1    3    3  502    0  0.17967119614E+03 -0.41498307107E+02  0.47403260688E+03  0.50863617707E+03  0.50400001928E-02 0.  1.
       -1    1    3    3    0  502 -0.17967119614E+03  0.41498307107E+02 -0.12635598471E+04  0.12769445310E+04  0.50400001928E-02 0. -1.
</event>
<event>
 5   0  0.3837251E-04  0.1541220E+04  0.7818609E-02  0.8857495E-01
        1   -1    0    0  501    0  0.00000000000E+00  0.00000000000E+00  0.76303870797E+03  0.76303870799E+03  0.50400001928E-02 0.  1.
       -1   -1    0    0    0  501  0.00000000000E+00  0.00000000000E+00 -0.77825646295E+03  0.77825646296E+03  0.50400001928E-02 0. -1.
    10030    2    1    2    0    0  0.00000000000E+00  0.00000000000E+00 -0.15217754979E+02  0.15412951709E+04  0.15412200440E+04 0.  0.
        4    1    3    3  502    0  0.79153926452E+02 -0.84271005012E+02 -0.76953265216E+03  0.77817032968E+03  0.12699999809E+01 0. -1.
       -4    1    3    3    0  502 -0.79153926452E+02  0.84271005012E+02  0.75431489718E+03  0.76312484127E+03  0.12699999809E+01 0.  1.
</event>
<event>
 5   0  0.7415102E-04  0.1605812E+04  0.7818609E-02  0.8816986E-01
       -2   -1    0    0    0  501  0.00000000000E+00  0.00000000000E+00  0.29819409886E+03  0.29819409887E+03  0.25500000920E-02 0. -1.
        2   -1    0    0  501    0  0.00000000000E+00  0.00000000000E+00 -0.21618729671E+04  0.21618729671E+04  0.25500000920E-02 0.  1.
    10030    2    1    2    0    0  0.00000000000E+00  0.00000000000E+00 -0.18636788682E+04  0.24600670659E+04  0.16058116468E+04 0.  0.
        5    1    3    3  502    0 -0.14186111218E+03  0.78822721343E+03 -0.10186223491E+04  0.12957778727E+04  0.46999998093E+01 0.  1.
       -5    1    3    3    0  502  0.14186111218E+03 -0.78822721343E+03 -0.84505651906E+03  0.11642891933E+04  0.46999998093E+01 0. -1.
</event>
<event>
 5   0  0.3837251E-04  0.1611250E+04  0.7818609E-02  0.8813666E-01
        1   -1    0    0  501    0  0.00000000000E+00  0.00000000000E+00  0.45462398337E+03  0.45462398340E+03  0.50400001928E-02 0. -1.
       -1   -1    0    0    0  501  0.00000000000E+00  0.00000000000E+00 -0.14276236886E+04  0.14276236886E+04  0.50400001928E-02 0.  1.
    10030    2    1    2    0    0  0.00000000000E+00  0.00000000000E+00 -0.97299970524E+03  0.18822476720E+04  0.16112504065E+04 0.  0.
        4    1    3    3  502    0  0.56972267234E+03 -0.11282009581E+03  0.16572104467E+03  0.60396802477E+03  0.12699999809E+01 0. -1.
       -4    1    3    3    0  502 -0.56972267234E+03  0.11282009581E+03 -0.11387207499E+04  0.12782796473E+04  0.12699999809E+01 0.  1.
</event>
<event>
 5   0  0.3889847E-04  0.1599129E+04  0.7818609E-02  0.8821083E-01
       -1   -1    0    0    0  501  0.00000000000E+00  0.00000000000E+00  0.40384060624E+03  0.40384060627E+03  0.50400001928E-02 0. -1.
        1   -1    0    0  501    0  0.00000000000E+00  0.00000000000E+00 -0.15830583660E+04  0.15830583660E+04  0.50400001928E-02 0.  1.
    10030    2    1    2    0    0  0.00000000000E+00  0.00000000000E+00 -0.11792177597E+04  0.19868989722E+04  0.15991288257E+04 0.  0.
        1    1    3    3  502    0 -0.52384570392E+03  0.46534046390E+03 -0.10681640172E+04  0.12774703270E+04  0.50400001928E-02 0.  1.
       -1    1    3    3    0  502  0.52384570392E+03 -0.46534046390E+03 -0.11105374254E+03  0.70942864519E+03  0.50400001928E-02 0. -1.
</event>
<event>
 5   0  0.3889847E-04  0.1584702E+04  0.7818609E-02  0.8830001E-01
        1   -1    0    0  501    0  0.00000000000E+00  0.00000000000E+00  0.14983514852E+04  0.14983514852E+04  0.50400001928E-02 0.  1.
       -1   -1    0    0    0  501  0.00000000000E+00  0.00000000000E+00 -0.41900737086E+03  0.41900737089E+03  0.50400001928E-02 0. -1.
    10030    2    1    2    0    0  0.00000000000E+00  0.00000000000E+00  0.10793441144E+04  0.19173588561E+04  0.15847022641E+04 0.  0.
        1    1    3    3  502    0 -0.31829742053E+03  0.37369951721E+03  0.12922131982E+04  0.13823094902E+04  0.50400001928E-02 0.  1.
       -1    1    3    3    0  502  0.31829742053E+03 -0.37369951721E+03 -0.21286908384E+03  0.53504936591E+03  0.50400001928E-02 0. -1.
</event>
<event>
 5   0  0.3973227E-04  0.1611343E+04  0.7818609E-02  0.8813610E-01
       -1   -1    0    0    0  501  0.00000000000E+00  0.00000000000E+00  0.93304799603E+03  0.93304799605E+03  0.50400001928E-02 0.  1.
        1   -1    0    0  501    0  0.00000000000E+00  0.00000000000E+00 -0.69568370295E+03  0.69568370297E+03  0.50400001928E-02 0. -1.
    10030    2    1    2    0    0  0.00000000000E+00  0.00000000000E+00  0.23736429308E+03  0.16287316990E+04  0.16113426513E+04 0.  0.
        3    1    3    3  502    0  0.80159366493E+03 -0.33639928545E+02  0.19311256577E+03  0.82521301596E+03  0.10100000352E+00 0. -1.
       -3    1    3    3    0  502 -0.80159366493E+03  0.33639928545E+02  0.44251727313E+02  0.80351868306E+03  0.10100000352E+00 0.  1.
</event>
<event>
 5   0  0.7415102E-04  0.1572858E+04  0.7818609E-02  0.8837398E-01
       -2   -1    0    0    0  501  0.00000000000E+00  0.00000000000E+00  0.39188127831E+03  0.39188127832E+03  0.25500000920E-02 0.  1.
        2   -1    0    0  501    0  0.00000000000E+00  0.00000000000E+00 -0.15782097348E+04  0.15782097348E+04  0.25500000920E-02 0. -1.
    10030    2    1    2    0    0  0.00000000000E+00  0.00000000000E+00 -0.11863284565E+04  0.19700910131E+04  0.15728583513E+04 0.  0.
        5    1    3    3  502    0 -0.21611715966E+03 -0.29317101072E+03  0.27985187473E+03  0.45934195325E+03  0.46999998093E+01 0.  1.
       -5    1    3    3    0  502  0.21611715966E+03  0.29317101072E+03 -0.14661803312E+04  0.15107490599E+04  0.46999998093E+01 0. -1.
</event>
<event>
 5   0  0.7395088E-04  0.1601115E+04  0.7818609E-02  0.8819863E-01
       -2   -1    0    0    0  501  0.00000000000E+00  0.00000000000E+00  0.43373431776E+03  0.43373431776E+03  0.25500000920E-02 0.  1.
        2   -1    0    0  501    0  0.00000000000E+00  0.00000000000E+00 -0.14776148294E+04  0.14776148294E+04  0.25500000920E-02 0. -1.
    10030    2    1    2    0    0  0.00000000000E+00  0.00000000000E+00 -0.10438805117E+04  0.19113491472E+04  0.16011149365E+04 0.  0.
        1    1    3    3  502    0 -0.60654495207E+03 -0.51749629547E+03 -0.60796619195E+03  0.10026575115E+04  0.50400001928E-02 0.  1.
       -1    1    3    3    0  502  0.60654495207E+03  0.51749629547E+03 -0.43591431973E+03  0.90869163575E+03  0.50400001928E-02 0. -1.
</event>
<event>
 5   0  0.3837251E-04  0.1582242E+04  0.7818609E-02  0.8831533E-01
        1   -1    0    0  501    0  0.00000000000E+00  0.00000000000E+00  0.11565214599E+04  0.11565214599E+04  0.50400001928E-02 0. -1.
       -1   -1    0    0    0  501  0.00000000000E+00  0.00000000000E+00 -0.54116776463E+03  0.54116776466E+03  0.50400001928E-02 0.  1.
    10030    2    1    2    0    0  0.00000000000E+00  0.00000000000E+00  0.61535369523E+03  0.16976892245E+04  0.15822416165E+04 0.  0.
        4    1    3    3  502    0  0.33824784895E+03  0.71024499003E+03  0.21783589371E+03  0.81628037013E+03  0.12699999809E+01 0.  1.
       -4    1    3    3    0  502 -0.33824784895E+03 -0.71024499003E+03  0.39751780153E+03  0.88140885440E+03  0.12699999809E+01 0. -1.
</event>
<event>
 5   0  0.3973227E-04  0.1395866E+04  0.7818609E-02  0.8956817E-01
        1   -1    0    0  501    0  0.00000000000E+00  0.00000000000E+00  0.14599275562E+04  0.14599275562E+04  0.50400001928E-02 0. -1.
       -1   -1    0    0    0  501  0.00000000000E+00  0.00000000000E+00 -0.33365370456E+03  0.33365370460E+03  0.50400001928E-02 0.  1.
    10030    2    1    2    0    0  0.00000000000E+00  0.00000000000E+00  0.11262738517E+04  0.17935812608E+04  0.13958656634E+04 0.  0.
        3    1    3    3  502    0 -0.36492470060E+03 -0.19008398053E+03 -0.16123236610E+03  0.44192515525E+03  0.10100000352E+00 0.  1.
       -3    1    3    3    0  502  0.36492470060E+03  0.19008398053E+03  0.12875062178E+04  0.13516561056E+04  0.10100000352E+00 0. -1.
</event>
<event>
 5   0  0.7415102E-04  0.1593146E+04  0.7818609E-02  0.8824770E-01
        2   -1    0    0  501    0  0.00000000000E+00  0.00000000000E+00  0.12501913230E+04  0.12501913230E+04  0.25500000920E-02 0.  1.
       -2   -1    0    0    0  501  0.00000000000E+00  0.00000000000E+00 -0.50754498599E+03  0.50754498599E+03  0.25500000920E-02 0. -1.
    10030    2    1    2    0    0  0.00000000000E+00  0.00000000000E+00  0.74264633701E+03  0.17577363090E+04  0.15931457404E+04 0.  0.
        5    1    3    3  502    0 -0.18622496133E+03  0.35561877579E+03  0.11304158772E+04  0.11995860100E+04  0.46999998093E+01 0.  1.
       -5    1    3    3    0  502  0.18622496133E+03 -0.35561877579E+03 -0.38776954023E+03  0.55815029897E+03  0.46999998093E+01 0. -1.
</event>
<event>
 5   0  0.3973227E-04  0.1602665E+04  0.7818609E-02  0.8818912E-01
       -1   -1    0    0    0  501  0.00000000000E+00  0.00000000000E+00  0.37036178958E+03  0.37036178962E+03  0.50400001928E-02 0. -1.
        1   -1    0    0  501    0  0.00000000000E+00  0.00000000000E+00 -0.17338017988E+04  0.17338017988E+04  0.50400001928E-02 0.  1.
    10030    2    1    2    0    0  0.00000000000E+00  0.00000000000E+00 -0.13634400092E+04  0.21041635884E+04  0.16026652015E+04 0.  0.
        3    1    3    3  502    0 -0.29173447943E+03  0.73772729830E+03 -0.83016279032E+03  0.11482686279E+04  0.10100000352E+00 0.  1.
       -3    1    3    3    0  502  0.29173447943E+03 -0.73772729830E+03 -0.53327721885E+03  0.95589496049E+03  0.10100000352E+00 0. -1.
</event>
<event>
 5   0  0.3973227E-04  0.1530229E+04  0.7818609E-02  0.8864596E-01
       -1   -1    0    0    0  501  0.00000000000E+00  0.00000000000E+00  0.53214238577E+03  0.53214238580E+03  0.50400001928E-02 0.  1.
        1   -1    0    0  501    0  0.00000000000E+00  0.00000000000E+00 -0.11000816490E+04  0.11000816490E+04  0.50400001928E-02 0. -1.
    10030    2    1    2    0    0  0.00000000000E+00  0.00000000000E+00 -0.56793926323E+03  0.16322240348E+04  0.15302288368E+04 0.  0.
        3    1    3    3  502    0 -0.54526481974E+02 -0.14089693908E+03 -0.10840131164E+04  0.10944905350E+04  0.10100000352E+00 0. -1.
       -3    1    3    3    0  502  0.54526481974E+02  0.14089693908E+03  0.51607385313E+03  0.53773349976E+03  0.10100000352E+00 0.  1.
</event>
<event>
 5   0  0.7553070E-04  0.1620907E+04  0.7818609E-02  0.8807806E-01
       -2   -1    0    0    0  501  0.00000000000E+00  0.00000000000E+00  0.95927660406E+03  0.95927660407E+03  0.25500000920E-02 0. -1.
        2   -1    0    0  501    0  0.00000000000E+00  0.00000000000E+00 -0.68471879946E+03  0.68471879946E+03  0.25500000920E-02 0.  1.
    10030    2    1    2    0    0  0.00000000000E+00  0.00000000000E+00  0.27455780461E+03  0.16439954035E+04  0.16209068137E+04 0.  0.
        4    1    3    3  502    0 -0.39998283793E+03  0.66909064589E+02 -0.57440698014E+03  0.70314158268E+03  0.12699999809E+01 0.  1.
       -4    1    3    3    0  502  0.39998283793E+03 -0.66909064589E+02  0.84896478475E+03  0.94085382085E+03  0.12699999809E+01 0. -1.
</event>
<event>
 5   0  0.7770905E-04  0.1655040E+04  0.7818609E-02  0.8787431E-01
       -2   -1    0    0    0  501  0.00000000000E+00  0.00000000000E+00  0.68124721364E+03  0.68124721365E+03  0.25500000920E-02 0. -1.
        2   -1    0    0  501    0  0.00000000000E+00  0.00000000000E+00 -0.10051991438E+04  0.10051991438E+04  0.25500000920E-02 0.  1.
    10030    2    1    2    0    0  0.00000000000E+00  0.00000000000E+00 -0.32395193017E+03  0.16864463575E+04  0.16550397166E+04 0.  0.
        2    1    3    3  502    0 -0.46365185409E+03 -0.54727339533E+03  0.25853905690E+03  0.76244583741E+03  0.25500000920E-02 0. -1.
       -2    1    3    3    0  502  0.46365185409E+03  0.54727339533E+03 -0.58249098706E+03  0.92400052005E+03  0.25500000920E-02 0.  1.
</event>
<event>
 5   0  0.3950195E-04  0.1622681E+04  0.7818609E-02  0.8806734E-01
       -1   -1    0    0    0  501  0.00000000000E+00  0.00000000000E+00  0.82540752226E+03  0.82540752228E+03  0.50400001928E-02 0.  1.
        1   -1    0    0  501    0  0.00000000000E+00  0.00000000000E+00 -0.79751367592E+03  0.79751367594E+03  0.50400001928E-02 0. -1.
    10030    2    1    2    0    0  0.00000000000E+00  0.00000000000E+00  0.27893846336E+02  0.16229211982E+04  0.16226814687E+04 0.  0.
        2    1    3    3  502    0 -0.55026194640E+03 -0.10135616883E+03  0.60158159982E+03  0.82156052965E+03  0.25500000920E-02 0.  1.
       -2    1    3    3    0  502  0.55026194640E+03  0.10135616883E+03 -0.57368775349E+03  0.80136066857E+03  0.25500000920E-02 0. -1.
</event>
<event>
 5   0  0.7770905E-04  0.1519405E+04  0.7818609E-02  0.8871650E-01
        2   -1    0    0  501    0  0.00000000000E+00  0.00000000000E+00  0.75342922939E+03  0.75342922939E+03  0.25500000920E-02 0.  1.
       -2   -1    0    0    0  501  0.00000000000E+00  0.00000000000E+00 -0.76602842400E+03  0.76602842401E+03  0.25500000920E-02 0. -1.
    10030    2    1    2    0    0  0.00000000000E+00  0.00000000000E+00 -0.12599194617E+02  0.15194576534E+04  0.15194054169E+04 0.  0.
        2    1    3    3  502    0  0.11474077684E+03  0.28809244422E+03 -0.69985462443E+03  0.76547971732E+03  0.25500000920E-02 0. -1.
       -2    1    3    3    0  502 -0.11474077684E+03 -0.28809244422E+03  0.68725542981E+03  0.75397793608E+03  0.25500000920E-02 0.  1.
</event>
<event>
 5   0  0.3950195E-04  0.1601332E+04  0.7818609E-02  0.8819730E-01
        1   -1    0    0  501    0  0.00000000000E+00  0.00000000000E+00  0.59767857753E+03  0.59767857755E+03  0.50400001928E-02 0.  1.
       -1   -1    0    0    0  501  0.00000000000E+00  0.00000000000E+00 -0.10725938529E+04  0.10725938529E+04  0.50400001928E-02 0. -1.
    10030    2    1    2    0    0  0.00000000000E+00  0.00000000000E+00 -0.47491527538E+03  0.16702724305E+04  0.16013324056E+04 0.  0.
        2    1    3    3  502    0 -0.36892072098E+03 -0.11569747553E+03 -0.96876849908E+03  0.10430727726E+04  0.25500000920E-02 0. -1.
       -2    1    3    3    0  502  0.36892072098E+03  0.11569747553E+03  0.49385322370E+03  0.62719965783E+03  0.25500000920E-02 0.  1.
</event>
<event>
 5   0  0.2781000E-04  0.1705728E+04  0.7818609E-02  0.8758104E-01
        3   -1    0    0  501    0  0.00000000000E+00  0.00000000000E+00  0.79534772592E+03  0.79534773233E+03  0.10100000352E+00 0. -1.
       -3   -1    0    0    0  501  0.00000000000E+00  0.00000000000E+00 -0.91453993293E+03  0.91453993851E+03  0.10100000352E+00 0.  1.
    10030    2    1    2    0    0  0.00000000000E+00  0.00000000000E+00 -0.11919220701E+03  0.17098876708E+04  0.17057283092E+04 0.  0.
        1    1    3    3  502    0  0.89871354610E+02  0.41443087128E+03 -0.80136498056E+03  0.90665078147E+03  0.50400001928E-02 0.  1.
       -1    1    3    3    0  502 -0.89871354610E+02 -0.41443087128E+03  0.68217277355E+03  0.80323688937E+03  0.50400001928E-02 0. -1.
</event>
<event>
 5   0  0.3889847E-04  0.1303407E+04  0.7818609E-02  0.9026868E-01
        1   -1    0    0  501    0  0.00000000000E+00  0.00000000000E+00  0.51848074601E+03  0.51848074603E+03  0.50400001928E-02 0. -1.
       -1   -1    0    0    0  501  0.00000000000E+00  0.00000000000E+00 -0.81915721025E+03  0.81915721027E+03  0.50400001928E-02 0.  1.
    10030    2    1    2    0    0  0.00000000000E+00  0.00000000000E+00 -0.30067646424E+03  0.13376379563E+04  0.13034066771E+04 0.  0.
        1    1    3    3  502    0  0.29728091666E+03 -0.24879158979E+03  0.38729430790E+03  0.54796904978E+03  0.50400001928E-02 0. -1.
       -1    1    3    3    0  502 -0.29728091666E+03  0.24879158979E+03 -0.68797077214E+03  0.78966890651E+03  0.50400001928E-02 0.  1.
</event>
<event>
 5   0  0.7770905E-04  0.1579443E+04  0.7818609E-02  0.8833278E-01
        2   -1    0    0  501    0  0.00000000000E+00  0.00000000000E+00  0.58930010091E+03  0.58930010092E+03  0.25500000920E-02 0.  1.
       -2   -1    0    0    0  501  0.00000000000E+00  0.00000000000E+00 -0.10583057738E+04  0.10583057738E+04  0.25500000920E-02 0. -1.
    10030    2    1    2    0    0  0.00000000000E+00  0.00000000000E+00 -0.46900567293E+03  0.16476058748E+04  0.15794425590E+04 0.  0.
        2    1    3    3  502    0  0.51999523971E+02  0.74423791177E+03  0.35643859498E+02  0.74690327656E+03  0.25500000920E-02 0.  1.
       -2    1    3    3    0  502 -0.51999523971E+02 -0.74423791177E+03 -0.50464953243E+03  0.90070259820E+03  0.25500000920E-02 0. -1.
</event>
<event>
 5   0  0.7553070E-04  0.1604714E+04  0.7818609E-02  0.8817657E-01
       -2   -1    0    0    0  501  0.00000000000E+00  0.00000000000E+00  0.51650308607E+03  0.51650308608E+03  0.25500000920E-02 0.  1.
        2   -1    0    0  501    0  0.00000000000E+00  0.00000000000E+00 -0.12464143888E+04  0.12464143888E+04  0.25500000920E-02 0. -1.
    10030    2    1    2    0    0  0.00000000000E+00  0.00000000000E+00 -0.72991130273E+03  0.17629174749E+04  0.16047141532E+04 0.  0.
        4    1    3    3  502    0 -0.28898745443E+03  0.74485818848E+03 -0.28386987014E+03  0.84788630478E+03  0.12699999809E+01 0.  1.
       -4    1    3    3    0  502  0.28898745443E+03 -0.74485818848E+03 -0.44604143259E+03  0.91503117010E+03  0.12699999809E+01 0. -1.
</event>
<event>
 5   0  0.7395088E-04  0.1605333E+04  0.7818609E-02  0.8817278E-01
        2   -1    0    0  501    0  0.00000000000E+00  0.00000000000E+00  0.24790774152E+04  0.24790774152E+04  0.25500000920E-02 0. -1.
       -2   -1    0    0    0  501  0.00000000000E+00  0.00000000000E+00 -0.25988442147E+03  0.25988442148E+03  0.25500000920E-02 0.  1.
    10030    2    1    2    0    0  0.00000000000E+00  0.00000000000E+00  0.22191929938E+04  0.27389618367E+04  0.16053331117E+04 0.  0.
        1    1    3    3  502    0  0.51907609737E+03 -0.51869552167E+03  0.55466398217E+03  0.91985714771E+03  0.50400001928E-02 0.  1.
       -1    1    3    3    0  502 -0.51907609737E+03  0.51869552167E+03  0.16645290116E+04  0.18191046890E+04  0.50400001928E-02 0. -1.
</event>
<event>
 5   0  0.7395088E-04  0.1603387E+04  0.7818609E-02  0.8818470E-01
       -2   -1    0    0    0  501  0.00000000000E+00  0.00000000000E+00  0.29110575054E+03  0.29110575055E+03  0.25500000920E-02 0. -1.
        2   -1    0    0  501    0  0.00000000000E+00  0.00000000000E+00 -0.22078315078E+04  0.22078315078E+04  0.25500000920E-02 0.  1.
    10030    2    1    2    0    0  0.00000000000E+00  0.00000000000E+00 -0.19167257573E+04  0.24989372584E+04  0.16033869753E+04 0.  0.
        1    1    3    3  502    0  0.24123612905E+03 -0.42111344606E+03  0.36150835925E+02  0.48666034087E+03  0.50400001928E-02 0. -1.
       -1    1    3    3    0  502 -0.24123612905E+03  0.42111344606E+03 -0.19528765932E+04  0.20122769175E+04  0.50400001928E-02 0.  1.
</event>
<event>
 5   0  0.3950195E-04  0.1592257E+04  0.7818609E-02  0.8825319E-01
       -1   -1    0    0    0  501  0.00000000000E+00  0.00000000000E+00  0.22787884873E+03  0.22787884879E+03  0.50400001928E-02 0.  1.
        1   -1    0    0  501    0  0.00000000000E+00  0.00000000000E+00 -0.27813921481E+04  0.27813921481E+04  0.50400001928E-02 0. -1.
    10030    2    1    2    0    0  0.00000000000E+00  0.00000000000E+00 -0.25535132993E+04  0.30092709969E+04  0.15922568143E+04 0.  0.
        2    1    3    3  502    0 -0.17295361418E+03 -0.57470506482E+03 -0.28815039538E+03  0.66575484569E+03  0.25500000920E-02 0.  1.
       -2    1    3    3    0  502  0.17295361418E+03  0.57470506482E+03 -0.22653629039E+04  0.23435161512E+04  0.25500000920E-02 0. -1.
</event>
<event>
 5   0  0.2781000E-04  0.1562226E+04  0.7818609E-02  0.8844096E-01
       -4   -1    0    0    0  501  0.00000000000E+00  0.00000000000E+00  0.52843827884E+03  0.52843980494E+03  0.12699999809E+01 0. -1.
        4   -1    0    0  501    0  0.00000000000E+00  0.00000000000E+00 -0.11546011969E+04  0.11546018953E+04  0.12699999809E+01 0.  1.
    10030    2    1    2    0    0  0.00000000000E+00  0.00000000000E+00 -0.62616291803E+03  0.16830417003E+04  0.15622257727E+04 0.  0.
        1    1    3    3  502    0 -0.38976359034E+03  0.63951567040E+03 -0.74016326208E+02  0.75257847804E+03  0.50400001928E-02 0.  1.
       -1    1    3    3    0  502  0.38976359034E+03 -0.63951567040E+03 -0.55214659182E+03  0.93046322223E+03  0.50400001928E-02 0. -1.
</event>
<event>
 5   0  0.7395088E-04  0.1595833E+04  0.7818609E-02  0.8823112E-01
       -2   -1    0    0    0  501  0.00000000000E+00  0.00000000000E+00  0.33019432057E+03  0.33019432058E+03  0.25500000920E-02 0. -1.
        2   -1    0    0  501    0  0.00000000000E+00  0.00000000000E+00 -0.19281696021E+04  0.19281696021E+04  0.25500000920E-02 0.  1.
    10030    2    1    2    0    0  0.00000000000E+00  0.00000000000E+00 -0.15979752815E+04  0.22583639226E+04  0.15958328881E+04 0.  0.
        1    1    3    3  502    0 -0.60110215211E+03 -0.11172921014E+03 -0.73430520956E+02  0.61579156790E+03  0.50400001928E-02 0. -1.
       -1    1    3    3    0  502  0.60110215211E+03  0.11172921014E+03 -0.15245447605E+04  0.16425723547E+04  0.50400001928E-02 0.  1.
</event>
<event>
 5   0  0.7415102E-04  0.1482326E+04  0.7818609E-02  0.8896292E-01
        2   -1    0    0  501    0  0.00000000000E+00  0.00000000000E+00  0.10405041501E+04  0.10405041501E+04  0.25500000920E-02 0.  1.
       -2   -1    0    0    0  501  0.00000000000E+00  0.00000000000E+00 -0.52793860448E+03  0.52793860449E+03  0.25500000920E-02 0. -1.
    10030    2    1    2    0    0  0.00000000000E+00  0.00000000000E+00  0.51256554565E+03  0.15684427546E+04  0.14823256174E+04 0.  0.
        5    1    3    3  502    0  0.18391684548E+03 -0.49020005894E+03 -0.29876770073E+03  0.60283142986E+03  0.46999998093E+01 0. -1.
       -5    1    3    3    0  502 -0.18391684548E+03  0.49020005894E+03  0.81133324638E+03  0.96561132476E+03  0.46999998093E+01 0.  1.
</event>
<event>
 5   0  0.7553070E-04  0.1576670E+04  0.7818609E-02  0.8835010E-01
       -2   -1    0    0    0  501  0.00000000000E+00  0.00000000000E+00  0.12066287168E+04  0.12066287168E+04  0.25500000920E-02 0. -1.
        2   -1    0    0  501    0  0.00000000000E+00  0.00000000000E+00 -0.51504858100E+03  0.51504858101E+03  0.25500000920E-02 0.  1.
    10030    2    1    2    0    0  0.00000000000E+00  0.00000000000E+00  0.69158013582E+03  0.17216772978E+04  0.15766704264E+04 0.  0.
        4    1    3    3  502    0  0.52534649231E+03 -0.38309631785E+03  0.83256768902E+03  0.10563722334E+04  0.12699999809E+01 0. -1.
       -4    1    3    3    0  502 -0.52534649231E+03  0.38309631785E+03 -0.14098755321E+03  0.66530506445E+03  0.12699999809E+01 0.  1.
</event>
<event>
 5   0  0.3889847E-04  0.1594369E+04  0.7818609E-02  0.8824015E-01
       -1   -1    0    0    0  501  0.00000000000E+00  0.00000000000E+00  0.45035335042E+03  0.45035335045E+03  0.50400001928E-02 0.  1.
        1   -1    0    0  501    0  0.00000000000E+00  0.00000000000E+00 -0.14111203271E+04  0.14111203271E+04  0.50400001928E-02 0. -1.
    10030    2    1    2    0    0  0.00000000000E+00  0.00000000000E+00 -0.96076697667E+03  0.18614736775E+04  0.15943685486E+04 0.  0.
        1    1    3    3  502    0 -0.48197394817E+03 -0.59873325974E+03 -0.23347810594E+03  0.80330095793E+03  0.50400001928E-02 0.  1.
       -1    1    3    3    0  502  0.48197394817E+03  0.59873325974E+03 -0.72728887073E+03  0.10581727196E+04  0.50400001928E-02 0. -1.
</event>
<event>
 5   0  0.7488884E-04  0.1629824E+04  0.7818609E-02  0.8802432E-01
        2   -1    0    0  501    0  0.00000000000E+00  0.00000000000E+00  0.22181280320E+04  0.22181280320E+04  0.25500000920E-02 0. -1.
       -2   -1    0    0    0  501  0.00000000000E+00  0.00000000000E+00 -0.29938836941E+03  0.29938836942E+03  0.25500000920E-02 0.  1.
    10030    2    1    2    0    0  0.00000000000E+00  0.00000000000E+00  0.19187396626E+04  0.25175164014E+04  0.16298242048E+04 0.  0.
        3    1    3    3  502    0  0.30560837691E+02  0.47374310192E+03  0.19824811809E+04  0.20385284237E+04  0.10100000352E+00 0. -1.
       -3    1    3    3    0  502 -0.30560837691E+02 -0.47374310192E+03 -0.63741518327E+02  0.47898797770E+03  0.10100000352E+00 0.  1.
</event>
<event>
 5   0  0.7395088E-04  0.1586313E+04  0.7818609E-02  0.8829001E-01
       -2   -1    0    0    0  501  0.00000000000E+00  0.00000000000E+00  0.71296422536E+03  0.71296422536E+03  0.25500000920E-02 0.  1.
        2   -1    0    0  501    0  0.00000000000E+00  0.00000000000E+00 -0.88236812289E+03  0.88236812289E+03  0.25500000920E-02 0. -1.
    10030    2    1    2    0    0  0.00000000000E+00  0.00000000000E+00 -0.16940389753E+03  0.15953323482E+04  0.15863125861E+04 0.  0.
        1    1    3    3  502    0 -0.30481718902E+03  0.26986385904E+03 -0.76927565009E+03  0.87035914827E+03  0.50400001928E-02 0. -1.
       -1    1    3    3    0  502  0.30481718902E+03 -0.26986385904E+03  0.59987175256E+03  0.72497319998E+03  0.50400001928E-02 0.  1.
</event>
<event>
 5   0  0.3837251E-04  0.1595440E+04  0.7818609E-02  0.8823355E-01
        1   -1    0    0  501    0  0.00000000000E+00  0.00000000000E+00  0.10417883409E+04  0.10417883409E+04  0.50400001928E-02 0.  1.
       -1   -1    0    0    0  501  0.00000000000E+00  0.00000000000E+00 -0.61083122647E+03  0.61083122649E+03  0.50400001928E-02 0. -1.
    10030    2    1    2    0    0  0.00000000000E+00  0.00000000000E+00  0.43095711443E+03  0.16526195674E+04  0.15954395633E+04 0.  0.
        4    1    3    3  502    0  0.48727933894E+03 -0.62459672952E+03  0.11834679277E+03  0.80098052720E+03  0.12699999809E+01 0.  1.
       -4    1    3    3    0  502 -0.48727933894E+03  0.62459672952E+03  0.31261032165E+03  0.85163904020E+03  0.12699999809E+01 0. -1.
</event>
<event>
 5   0  0.7488884E-04  0.1610209E+04  0.7818609E-02  0.8814300E-01
       -2   -1    0    0    0  501  0.00000000000E+00  0.00000000000E+00  0.58222344001E+03  0.58222344002E+03  0.25500000920E-02 0. -1.
        2   -1    0    0  501    0  0.00000000000E+00  0.00000000000E+00 -0.11133073851E+04  0.11133073851E+04  0.25500000920E-02 0.  1.
    10030    2    1    2    0    0  0.00000000000E+00  0.00000000000E+00 -0.53108394512E+03  0.16955308252E+04  0.16102094964E+04 0.  0.
        3    1    3    3  502    0  0.12721851098E+03 -0.15513924546E+03  0.55547850809E+03  0.59060064186E+03  0.10100000352E+00 0. -1.
       -3    1    3    3    0  502 -0.12721851098E+03  0.15513924546E+03 -0.10865624532E+04  0.11049301833E+04  0.10100000352E+00 0.  1.
</event>
<event>
 5   0  0.7395088E-04  0.1606643E+04  0.7818609E-02  0.8816477E-01
       -2   -1    0    0    0  501  0.00000000000E+00  0.00000000000E+00  0.43862261473E+03  0.43862261474E+03  0.25500000920E-02 0.  1.
        2   -1    0    0  501    0  0.00000000000E+00  0.00000000000E+00 -0.14712548384E+04  0.14712548384E+04  0.25500000920E-02 0. -1.
    10030    2    1    2    0    0  0.00000000000E+00  0.00000000000E+00 -0.10326322236E+04  0.19098774531E+04  0.16066432636E+04 0.  0.
        1    1    3    3  502    0  0.11227408541E+03 -0.79367091903E+03 -0.57929280844E+03  0.98898895641E+03  0.50400001928E-02 0.  1.
       -1    1    3    3    0  502 -0.11227408541E+03  0.79367091903E+03 -0.45333941521E+03  0.92088849671E+03  0.50400001928E-02 0. -1.
</event>
<event>
 5   0  0.3950195E-04  0.1621951E+04  0.7818609E-02  0.8807175E-01
        1   -1    0    0  501    0  0.00000000000E+00  0.00000000000E+00  0.11696056068E+04  0.11696056069E+04  0.50400001928E-02 0. -1.
       -1   -1    0    0    0  501  0.00000000000E+00  0.00000000000E+00 -0.56231046831E+03  0.56231046833E+03  0.50400001928E-02 0.  1.
    10030    2    1    2    0    0  0.00000000000E+00  0.00000000000E+00  0.60729513853E+03  0.17319160752E+04  0.16219512650E+04 0.  0.
        2    1    3    3  502    0 -0.33942564365E+02 -0.35159131508E+03  0.10831494541E+04  0.11392898185E+04  0.25500000920E-02 0. -1.
       -2    1    3    3    0  502  0.33942564365E+02  0.35159131508E+03 -0.47585431557E+03  0.59262625673E+03  0.25500000920E-02 0.  1.
</event>
<event>
 5   0  0.7415102E-04  0.1597627E+04  0.7818609E-02  0.8822007E-01
       -2   -1    0    0    0  501  0.00000000000E+00  0.00000000000E+00  0.47241398886E+03  0.47241398886E+03  0.25500000920E-02 0. -1.
        2   -1    0    0  501    0  0.00000000000E+00  0.00000000000E+00 -0.13507286186E+04  0.13507286186E+04  0.25500000920E-02 0.  1.
    10030    2    1    2    0    0  0.00000000000E+00  0.00000000000E+00 -0.87831462970E+03  0.18231426074E+04  0.15976271086E+04 0.  0.
        5    1    3    3  502    0 -0.38444495390E+03 -0.16254530406E+03  0.33805498954E+03  0.53714259224E+03  0.46999998093E+01 0. -1.
       -5    1    3    3    0  502  0.38444495390E+03  0.16254530406E+03 -0.12163696192E+04  0.12860000152E+04  0.46999998093E+01 0.  1.
</event>
<event>
 5   0  0.3889847E-04  0.1610599E+04  0.7818609E-02  0.8814063E-01
       -1   -1    0    0    0  501  0.00000000000E+00  0.00000000000E+00  0.35955843908E+03  0.35955843912E+03  0.50400001928E-02 0.  1.
        1   -1    0    0  501    0  0.00000000000E+00  0.00000000000E+00 -0.18036220207E+04  0.18036220207E+04  0.50400001928E-02 0. -1.
    10030    2    1    2    0    0  0.00000000000E+00  0.00000000000E+00 -0.14440635816E+04  0.21631804598E+04  0.16105992903E+04 0.  0.
        1    1    3    3  502    0  0.25195118982E+03  0.75394587796E+03 -0.89504419898E+03  0.11970872596E+04  0.50400001928E-02 0.  1.
       -1    1    3    3    0  502 -0.25195118982E+03 -0.75394587796E+03 -0.54901938259E+03  0.96609320017E+03  0.50400001928E-02 0. -1.
</event>
<event>
 5   0  0.7395088E-04  0.1640064E+04  0.7818609E-02  0.8796306E-01
        2   -1    0    0  501    0  0.00000000000E+00  0.00000000000E+00  0.15467364548E+04  0.15467364548E+04  0.25500000920E-02 0.  1.
       -2   -1    0    0    0  501  0.00000000000E+00  0.00000000000E+00 -0.43475556216E+03  0.43475556216E+03  0.25500000920E-02 0. -1.
    10030    2    1    2    0    0  0.00000000000E+00  0.00000000000E+00  0.11119808927E+04  0.19814920170E+04  0.16400637511E+04 0.  0.
        1    1    3    3  502    0 -0.66633720807E+02 -0.58693286680E+03  0.12431910452E+04  0.13763917385E+04  0.50400001928E-02 0.  1.
       -1    1    3    3    0  502  0.66633720807E+02  0.58693286680E+03 -0.13121015254E+03  0.60510027850E+03  0.50400001928E-02 0. -1.
</event>
<event>
 5   0  0.7770905E-04  0.1585331E+04  0.7818609E-02  0.8829611E-01
       -2   -1    0    0    0  501  0.00000000000E+00  0.00000000000E+00  0.27744450872E+03  0.27744450873E+03  0.25500000920E-02 0. -1.
        2   -1    0    0  501    0  0.00000000000E+00  0.00000000000E+00 -0.22646646753E+04  0.22646646753E+04  0.25500000920E-02 0.  1.
    10030    2    1    2    0    0  0.00000000000E+00  0.00000000000E+00 -0.19872201665E+04  0.25421091840E+04  0.15853312313E+04 0.  0.
        2    1    3    3  502    0  0.18041893597E+02  0.72872014011E+03 -0.14929209216E+04  0.16613763664E+04  0.25500000920E-02 0.  1.
       -2    1    3    3    0  502 -0.18041893597E+02 -0.72872014011E+03 -0.49429924495E+03  0.88073281765E+03  0.25500000920E-02 0. -1.
</event>
<event>
 5   0  0.4110803E-04  0.1549919E+04  0.7818609E-02  0.8851919E-01
        1   -1    0    0  501    0  0.00000000000E+00  0.00000000000E+00  0.12601389730E+04  0.12601389730E+04  0.50400001928E-02 0. -1.
       -1   -1    0    0    0  501  0.00000000000E+00  0.00000000000E+00 -0.47658431240E+03  0.47658431243E+03  0.50400001928E-02 0.  1.
    10030    2    1    2    0    0  0.00000000000E+00  0.00000000000E+00  0.78355466060E+03  0.17367232854E+04  0.15499193089E+04 0.  0.
        5    1    3    3  502    0 -0.63927209301E+03  0.43785095906E+03  0.37768788102E+03  0.86200492847E+03  0.46999998093E+01 0. -1.
       -5    1    3    3    0  502  0.63927209301E+03 -0.43785095906E+03  0.40586677958E+03  0.87471835696E+03  0.46999998093E+01 0.  1.
</event>
<event>
 5   0  0.3973227E-04  0.1603307E+04  0.7818609E-02  0.8818519E-01
        1   -1    0    0  501    0  0.00000000000E+00  0.00000000000E+00  0.60249436680E+03  0.60249436682E+03  0.50400001928E-02 0.  1.
       -1   -1    0    0    0  501  0.00000000000E+00  0.00000000000E+00 -0.10666465617E+04  0.10666465617E+04  0.50400001928E-02 0. -1.
    10030    2    1    2    0    0  0.00000000000E+00  0.00000000000E+00 -0.46415219493E+03  0.16691409286E+04  0.16033072629E+04 0.  0.
        3    1    3    3  502    0 -0.29955507445E+03 -0.19981773753E+03  0.51356514069E+03  0.62722367206E+03  0.10100000352E+00 0.  1.
       -3    1    3    3    0  502  0.29955507445E+03  0.19981773753E+03 -0.97771733561E+03  0.10419172565E+04  0.10100000352E+00 0. -1.
</event>
<event>
 5   0  0.7488884E-04  0.1658487E+04  0.7818609E-02  0.8785402E-01
       -2   -1    0    0    0  501  0.00000000000E+00  0.00000000000E+00  0.30800483087E+03  0.30800483088E+03  0.25500000920E-02 0.  1.
        2   -1    0    0  501    0  0.00000000000E+00  0.00000000000E+00 -0.22325766216E+04  0.22325766216E+04  0.25500000920E-02 0. -1.
    10030    2    1    2    0    0  0.00000000000E+00  0.00000000000E+00 -0.19245717908E+04  0.25405814525E+04  0.16584865206E+04 0.  0.
        3    1    3    3  502    0  0.57804343887E+03  0.91313941547E+02 -0.18622784302E+04  0.19520638860E+04  0.10100000352E+00 0. -1.
       -3    1    3    3    0  502 -0.57804343887E+03 -0.91313941547E+02 -0.62293360547E+02  0.58851756653E+03  0.10100000352E+00 0.  1.
</event>
<event>
 5   0  0.7415102E-04  0.1380358E+04  0.7818609E-02  0.8968160E-01
       -2   -1    0    0    0  501  0.00000000000E+00  0.00000000000E+00  0.34734770431E+03  0.34734770432E+03  0.25500000920E-02 0. -1.
        2   -1    0    0  501    0  0.00000000000E+00  0.00000000000E+00 -0.13713848878E+04  0.13713848878E+04  0.25500000920E-02 0.  1.
    10030    2    1    2    0    0  0.00000000000E+00  0.00000000000E+00 -0.10240371835E+04  0.17187325921E+04  0.13803584933E+04 0.  0.
        5    1    3    3  502    0 -0.16786312951E+03  0.36765710868E+02 -0.13443012441E+04  0.13552481959E+04  0.46999998093E+01 0.  1.
       -5    1    3    3    0  502  0.16786312951E+03 -0.36765710868E+02  0.32026406061E+03  0.36348439617E+03  0.46999998093E+01 0. -1.
</event>
<event>
 5   0  0.4110803E-04  0.1616257E+04  0.7818609E-02  0.8810623E-01
        1   -1    0    0  501    0  0.00000000000E+00  0.00000000000E+00  0.10678179412E+04  0.10678179412E+04  0.50400001928E-02 0.  1.
       -1   -1    0    0    0  501  0.00000000000E+00  0.00000000000E+00 -0.61159445187E+03  0.61159445189E+03  0.50400001928E-02 0. -1.
    10030    2    1    2    0    0  0.00000000000E+00  0.00000000000E+00  0.45622348931E+03  0.16794123931E+04  0.16162568217E+04 0.  0.
        5    1    3    3  502    0  0.77619748594E+03 -0.89240922605E+02  0.44258189930E+03  0.89796843321E+03  0.46999998093E+01 0. -1.
       -5    1    3    3    0  502 -0.77619748594E+03  0.89240922605E+02  0.13641590007E+02  0.78144395987E+03  0.46999998093E+01 0.  1.
</event>
<event>
 5   0  0.7395088E-04  0.1628142E+04  0.7818609E-02  0.8803444E-01
        2   -1    0    0  501    0  0.00000000000E+00  0.00000000000E+00  0.69183553077E+03  0.69183553078E+03  0.25500000920E-02 0.  1.
       -2   -1    0    0    0  501  0.00000000000E+00  0.00000000000E+00 -0.95790295818E+03  0.95790295818E+03  0.25500000920E-02 0. -1.
    10030    2    1    2    0    0  0.00000000000E+00  0.00000000000E+00 -0.26606742741E+03  0.16497384890E+04  0.16281416419E+04 0.  0.
        1    1    3    3  502    0  0.44040035717E+03  0.65095982765E+03  0.81936384445E+02  0.79019917927E+03  0.50400001928E-02 0.  1.
       -1    1    3    3    0  502 -0.44040035717E+03 -0.65095982765E+03 -0.34800381186E+03  0.85953930969E+03  0.50400001928E-02 0. -1.
</event>
<event>
 5   0  0.3889847E-04  0.1620569E+04  0.7818609E-02  0.8808010E-01
        1   -1    0    0  501    0  0.00000000000E+00  0.00000000000E+00  0.39919959982E+03  0.39919959985E+03  0.50400001928E-02 0.  1.
       -1   -1    0    0    0  501  0.00000000000E+00  0.00000000000E+00 -0.16446942299E+04  0.16446942300E+04  0.50400001928E-02 0. -1.
    10030    2    1    2    0    0  0.00000000000E+00  0.00000000000E+00 -0.12454946301E+04  0.20438938298E+04  0.16205693795E+04 0.  0.
        1    1    3    3  502    0  0.61238660288E+03 -0.52668646659E+03 -0.54154501737E+03  0.97246439078E+03  0.50400001928E-02 0.  1.
       -1    1    3    3    0  502 -0.61238660288E+03  0.52668646659E+03 -0.70394961276E+03  0.10714294390E+04  0.50400001928E-02 0. -1.
</event>
<event>
 5   0  0.7488884E-04  0.1606352E+04  0.7818609E-02  0.8816655E-01
       -2   -1    0    0    0  501  0.00000000000E+00  0.00000000000E+00  0.54395170450E+03  0.54395170450E+03  0.25500000920E-02 0.  1.
        2   -1    0    0  501    0  0.00000000000E+00  0.00000000000E+00 -0.11859360476E+04  0.11859360476E+04  0.25500000920E-02 0. -1.
    10030    2    1    2    0    0  0.00000000000E+00  0.00000000000E+00 -0.64198434309E+03  0.17298877521E+04  0.16063523082E+04 0.  0.
        3    1    3    3  502    0  0.77005523245E+02  0.58669233882E+03  0.26387116136E+03  0.64789331764E+03  0.10100000352E+00 0.  1.
       -3    1    3    3    0  502 -0.77005523245E+02 -0.58669233882E+03 -0.90585550444E+03  0.10819944344E+04  0.10100000352E+00 0. -1.
</event>
<event>
 5   0  0.7553070E-04  0.1598360E+04  0.7818609E-02  0.8821556E-01
        2   -1    0    0  501    0  0.00000000000E+00  0.00000000000E+00  0.11873162577E+04  0.11873162577E+04  0.25500000920E-02 0. -1.
       -2   -1    0    0    0  501  0.00000000000E+00  0.00000000000E+00 -0.53792641964E+03  0.53792641964E+03  0.25500000920E-02 0.  1.
    10030    2    1    2    0    0  0.00000000000E+00  0.00000000000E+00  0.64938983804E+03  0.17252426773E+04  0.15983601390E+04 0.  0.
        4    1    3    3  502    0  0.48418689787E+03 -0.59974408655E+03  0.96852418713E+02  0.77686029975E+03  0.12699999809E+01 0.  1.
       -4    1    3    3    0  502 -0.48418689787E+03  0.59974408655E+03  0.55253741933E+03  0.94838237757E+03  0.12699999809E+01 0. -1.
</event>
<event>
 5   0  0.7770905E-04  0.1597946E+04  0.7818609E-02  0.8821811E-01
       -2   -1    0    0    0  501  0.00000000000E+00  0.00000000000E+00  0.29437777586E+03  0.29437777587E+03  0.25500000920E-02 0. -1.
        2   -1    0    0  501    0  0.00000000000E+00  0.00000000000E+00 -0.21684977909E+04  0.21684977909E+04  0.25500000920E-02 0.  1.
    10030    2    1    2    0    0  0.00000000000E+00  0.00000000000E+00 -0.18741200150E+04  0.24628755667E+04  0.15979456269E+04 0.  0.
        2    1    3    3  502    0 -0.46031378795E+03 -0.37451403589E+03 -0.17616183023E+04  0.18588836944E+04  0.25500000920E-02 0.  1.
       -2    1    3    3    0  502  0.46031378795E+03  0.37451403589E+03 -0.11250171274E+03  0.60399187232E+03  0.25500000920E-02 0. -1.
</event>
<event>
 5   0  0.7553070E-04  0.1605533E+04  0.7818609E-02  0.8817156E-01
        2   -1    0    0  501    0  0.00000000000E+00  0.00000000000E+00  0.10311695373E+04  0.10311695373E+04  0.25500000920E-02 0. -1.
       -2   -1    0    0    0  501  0.00000000000E+00  0.00000000000E+00 -0.62495459205E+03  0.62495459206E+03  0.25500000920E-02 0.  1.
    10030    2    1    2    0    0  0.00000000000E+00  0.00000000000E+00  0.40621494527E+03  0.16561241294E+04  0.16055331047E+04 0.  0.
        4    1    3    3  502    0  0.29581035822E+03  0.68907739157E+03  0.49866914913E+03  0.90055757883E+03  0.12699999809E+01 0. -1.
       -4    1    3    3    0  502 -0.29581035822E+03 -0.68907739157E+03 -0.92454203854E+02  0.75556655055E+03  0.12699999809E+01 0.  1.
</event>
<event>
 5   0  0.7395088E-04  0.1584512E+04  0.7818609E-02  0.8830119E-01
        2   -1    0    0  501    0  0.00000000000E+00  0.00000000000E+00  0.90762469962E+03  0.90762469962E+03  0.25500000920E-02 0. -1.
       -2   -1    0    0    0  501  0.00000000000E+00  0.00000000000E+00 -0.69155226932E+03  0.69155226933E+03  0.25500000920E-02 0.  1.
    10030    2    1    2    0    0  0.00000000000E+00  0.00000000000E+00  0.21607243030E+03  0.15991769690E+04  0.15845124433E+04 0.  0.
        1    1    3    3  502    0 -0.76765985247E+03  0.14916701190E+02 -0.89080761361E+02  0.77295506929E+03  0.50400001928E-02 0.  1.
       -1    1    3    3    0  502  0.76765985247E+03 -0.14916701190E+02  0.30515319166E+03  0.82622189966E+03  0.50400001928E-02 0. -1.
</event>
<event>
 5   0  0.4110803E-04  0.1574077E+04  0.7818609E-02  0.8836634E-01
       -1   -1    0    0    0  501  0.00000000000E+00  0.00000000000E+00  0.71646798876E+03  0.71646798877E+03  0.50400001928E-02 0.  1.
        1   -1    0    0  501    0  0.00000000000E+00  0.00000000000E+00 -0.86455994284E+03  0.86455994286E+03  0.50400001928E-02 0. -1.
    10030    2    1    2    0    0  0.00000000000E+00  0.00000000000E+00 -0.14809195408E+03  0.15810279316E+04  0.15740769021E+04 0.  0.
        5    1    3    3  502    0 -0.13918899608E+02  0.89561165342E+02 -0.85928631794E+03  0.86406597219E+03  0.46999998093E+01 0. -1.
       -5    1    3    3    0  502  0.13918899608E+02 -0.89561165342E+02  0.71119436386E+03  0.71696195944E+03  0.46999998093E+01 0.  1.
</event>
<event>
 5   0  0.3889847E-04  0.1599405E+04  0.7818609E-02  0.8820914E-01
        1   -1    0    0  501    0  0.00000000000E+00  0.00000000000E+00  0.66281213719E+03  0.66281213721E+03  0.50400001928E-02 0. -1.
       -1   -1    0    0    0  501  0.00000000000E+00  0.00000000000E+00 -0.96486419518E+03  0.96486419520E+03  0.50400001928E-02 0.  1.
    10030    2    1    2    0    0  0.00000000000E+00  0.00000000000E+00 -0.30205205799E+03  0.16276763324E+04  0.15994045134E+04 0.  0.
        1    1    3    3  502    0 -0.23710475081E+03  0.76071885117E+03 -0.81914887148E+02  0.80101303494E+03  0.50400001928E-02 0.  1.
       -1    1    3    3    0  502  0.23710475081E+03 -0.76071885117E+03 -0.22013717084E+03  0.82666329747E+03  0.50400001928E-02 0. -1.
</event>
<event>
 5   0  0.7395088E-04  0.1605940E+04  0.7818609E-02  0.8816907E-01
       -2   -1    0    0    0  501  0.00000000000E+00  0.00000000000E+00  0.75921232129E+03  0.75921232129E+03  0.25500000920E-02 0.  1.
        2   -1    0    0  501    0  0.00000000000E+00  0.00000000000E+00 -0.84924978805E+03  0.84924978806E+03  0.25500000920E-02 0. -1.
    10030    2    1    2    0    0  0.00000000000E+00  0.00000000000E+00 -0.90037466766E+02  0.16084621093E+04  0.16059401022E+04 0.  0.
        1    1    3    3  502    0 -0.53084940114E+03 -0.55893646947E+03  0.18016726390E+03  0.79162573644E+03  0.50400001928E-02 0.  1.
       -1    1    3    3    0  502  0.53084940114E+03  0.55893646947E+03 -0.27020473066E+03  0.81683637290E+03  0.50400001928E-02 0. -1.
</event>
<event>
 5   0  0.3950195E-04  0.1545517E+04  0.7818609E-02  0.8854736E-01
        1   -1    0    0  501    0  0.00000000000E+00  0.00000000000E+00  0.92938591657E+03  0.92938591659E+03  0.50400001928E-02 0. -1.
       -1   -1    0    0    0  501  0.00000000000E+00  0.00000000000E+00 -0.64252735016E+03  0.64252735018E+03  0.50400001928E-02 0.  1.
    10030    2    1    2    0    0  0.00000000000E+00  0.00000000000E+00  0.28685856642E+03  0.15719132668E+04  0.15455172212E+04 0.  0.
        2    1    3    3  502    0  0.15780480855E+03 -0.58825913774E+02  0.91049374377E+03  0.92593828260E+03  0.25500000920E-02 0. -1.
       -2    1    3    3    0  502 -0.15780480855E+03  0.58825913774E+02 -0.62363517735E+03  0.64597498417E+03  0.25500000920E-02 0.  1.
</event>
<event>
 5   0  0.3973227E-04  0.1674868E+04  0.7818609E-02  0.8775829E-01
       -1   -1    0    0    0  501  0.00000000000E+00  0.00000000000E+00  0.13740126061E+04  0.13740126061E+04  0.50400001928E-02 0.  1.
        1   -1    0    0  501    0  0.00000000000E+00  0.00000000000E+00 -0.51039958282E+03  0.51039958285E+03  0.50400001928E-02 0. -1.
    10030    2    1    2    0    0  0.00000000000E+00  0.00000000000E+00  0.86361302332E+03  0.18844121890E+04  0.16748677094E+04 0.  0.
        3    1    3    3  502    0 -0.63812529521E+03 -0.97260560060E+02 -0.16845046010E+03  0.66711249174E+03  0.10100000352E+00 0. -1.
       -3    1    3    3    0  502  0.63812529521E+03  0.97260560060E+02  0.10320634834E+04  0.12172996973E+04  0.10100000352E+00 0.  1.
</event>
<event>
 5   0  0.3837251E-04  0.1587752E+04  0.7818609E-02  0.8828108E-01
        1   -1    0    0  501    0  0.00000000000E+00  0.00000000000E+00  0.90233701167E+03  0.90233701168E+03  0.50400001928E-02 0.  1.
       -1   -1    0    0    0  501  0.00000000000E+00  0.00000000000E+00 -0.69845212611E+03  0.69845212613E+03  0.50400001928E-02 0. -1.
    10030    2    1    2    0    0  0.00000000000E+00  0.00000000000E+00  0.20388488556E+03  0.16007891378E+04  0.15877521271E+04 0.  0.
        4    1    3    3  502    0  0.48173996507E+03  0.44231745391E+03  0.55565919408E+03  0.85818230980E+03  0.12699999809E+01 0.  1.
       -4    1    3    3    0  502 -0.48173996507E+03 -0.44231745391E+03 -0.35177430852E+03  0.74260682802E+03  0.12699999809E+01 0. -1.
</event>
<event>
 5   0  0.7395088E-04  0.1622434E+04  0.7818609E-02  0.8806884E-01
       -2   -1    0    0    0  501  0.00000000000E+00  0.00000000000E+00  0.11518816610E+04  0.11518816610E+04  0.25500000920E-02 0. -1.
        2   -1    0    0  501    0  0.00000000000E+00  0.00000000000E+00 -0.57130229975E+03  0.57130229975E+03  0.25500000920E-02 0.  1.
    10030    2    1    2    0    0  0.00000000000E+00  0.00000000000E+00  0.58057936127E+03  0.17231839608E+04  0.16224335327E+04 0.  0.
        1    1    3    3  502    0 -0.68959396735E+03 -0.29577949207E+03  0.61773184990E+03  0.97191459817E+03  0.50400001928E-02 0. -1.
       -1    1    3    3    0  502  0.68959396735E+03  0.29577949207E+03 -0.37152488631E+02  0.75126936260E+03  0.50400001928E-02 0.  1.
</event>
<event>
 5   0  0.3950195E-04  0.1600539E+04  0.7818609E-02  0.8820217E-01
       -1   -1    0    0    0  501  0.00000000000E+00  0.00000000000E+00  0.33049485717E+03  0.33049485721E+03  0.50400001928E-02 0. -1.
        1   -1    0    0  501    0  0.00000000000E+00  0.00000000000E+00 -0.19377949735E+04  0.19377949735E+04  0.50400001928E-02 0.  1.
    10030    2    1    2    0    0  0.00000000000E+00  0.00000000000E+00 -0.16073001163E+04  0.22682898307E+04  0.16005390005E+04 0.  0.
        2    1    3    3  502    0  0.39563370694E+03  0.35425608922E+03  0.44789777260E+02  0.53294421000E+03  0.25500000920E-02 0. -1.
       -2    1    3    3    0  502 -0.39563370694E+03 -0.35425608922E+03 -0.16520898936E+04  0.17353456207E+04  0.25500000920E-02 0.  1.
</event>
<event>
 5   0  0.3973227E-04  0.1594378E+04  0.7818609E-02  0.8824009E-01
       -1   -1    0    0    0  501  0.00000000000E+00  0.00000000000E+00  0.50833781263E+03  0.50833781266E+03  0.50400001928E-02 0. -1.
        1   -1    0    0  501    0  0.00000000000E+00  0.00000000000E+00 -0.12501727239E+04  0.12501727239E+04  0.50400001928E-02 0.  1.
    10030    2    1    2    0    0  0.00000000000E+00  0.00000000000E+00 -0.74183491122E+03  0.17585105365E+04  0.15943777067E+04 0.  0.
        3    1    3    3  502    0 -0.70301079969E+03 -0.32548529222E+03 -0.57827458387E+03  0.96672972669E+03  0.10100000352E+00 0.  1.
       -3    1    3    3    0  502  0.70301079969E+03  0.32548529222E+03 -0.16356032736E+03  0.79178080983E+03  0.10100000352E+00 0. -1.
</event>
<event>
 5   0  0.4110803E-04  0.1604342E+04  0.7818609E-02  0.8817885E-01
       -1   -1    0    0    0  501  0.00000000000E+00  0.00000000000E+00  0.23358447312E+04  0.23358447312E+04  0.50400001928E-02 0. -1.
        1   -1    0    0  501    0  0.00000000000E+00  0.00000000000E+00 -0.27547991273E+03  0.27547991277E+03  0.50400001928E-02 0.  1.
    10030    2    1    2    0    0  0.00000000000E+00  0.00000000000E+00  0.20603648185E+04  0.26113246440E+04  0.16043419869E+04 0.  0.
        5    1    3    3  502    0  0.17589828336E+03  0.29984264732E+02  0.23031099252E+04  0.23100165973E+04  0.46999998093E+01 0. -1.
       -5    1    3    3    0  502 -0.17589828336E+03 -0.29984264732E+02 -0.24274510667E+03  0.30130804674E+03  0.46999998093E+01 0.  1.
</event>
<event>
 5   0  0.7395088E-04  0.1575595E+04  0.7818609E-02  0.8835683E-01
        2   -1    0    0  501    0  0.00000000000E+00  0.00000000000E+00  0.26194805774E+04  0.26194805774E+04  0.25500000920E-02 0.  1.
       -2   -1    0    0    0  501  0.00000000000E+00  0.00000000000E+00 -0.23692682349E+03  0.23692682351E+03  0.25500000920E-02 0. -1.
    10030    2    1    2    0    0  0.00000000000E+00  0.00000000000E+00  0.23825537539E+04  0.28564074009E+04  0.15755953953E+04 0.  0.
        1    1    3    3  502    0 -0.18238221926E+03  0.10036294025E+03  0.25687152267E+04  0.25771367657E+04  0.50400001928E-02 0.  1.
       -1    1    3    3    0  502  0.18238221926E+03 -0.10036294025E+03 -0.18616147278E+03  0.27927063513E+03  0.50400001928E-02 0. -1.
</event>
<event>
 5   0  0.4110803E-04  0.1564379E+04  0.7818609E-02  0.8842735E-01
        1   -1    0    0  501    0  0.00000000000E+00  0.00000000000E+00  0.86432583937E+03  0.86432583939E+03  0.50400001928E-02 0. -1.
       -1   -1    0    0    0  501  0.00000000000E+00  0.00000000000E+00 -0.70785849655E+03  0.70785849657E+03  0.50400001928E-02 0.  1.
    10030    2    1    2    0    0  0.00000000000E+00  0.00000000000E+00  0.15646734282E+03  0.15721843360E+04  0.15643789684E+04 0.  0.
        5    1    3    3  502    0 -0.23267601878E+03 -0.27554947588E+03  0.77576632017E+03  0.85551219563E+03  0.46999998093E+01 0. -1.
       -5    1    3    3    0  502  0.23267601878E+03  0.27554947588E+03 -0.61929897734E+03  0.71667214032E+03  0.46999998093E+01 0.  1.
</event>
<event>
 5   0  0.7770905E-04  0.1655227E+04  0.7818609E-02  0.8787320E-01
       -2   -1    0    0    0  501  0.00000000000E+00  0.00000000000E+00  0.99215656694E+03  0.99215656694E+03  0.25500000920E-02 0.  1.
        2   -1    0    0  501    0  0.00000000000E+00  0.00000000000E+00 -0.69035919142E+03  0.69035919143E+03  0.25500000920E-02 0. -1.
    10030    2    1    2    0    0  0.00000000000E+00  0.00000000000E+00  0.30179737552E+03  0.16825157584E+04  0.16552273624E+04 0.  0.
        2    1    3    3  502    0  0.38636061922E+02 -0.54110818752E+03 -0.48442843037E+03  0.72729754574E+03  0.25500000920E-02 0. -1.
       -2    1    3    3    0  502 -0.38636061922E+02  0.54110818752E+03  0.78622580589E+03  0.95521821263E+03  0.25500000920E-02 0.  1.
</event>
<event>
 5   0  0.3950195E-04  0.1240700E+04  0.7818609E-02  0.9077959E-01
       -1   -1    0    0    0  501  0.00000000000E+00  0.00000000000E+00  0.86180368329E+03  0.86180368331E+03  0.50400001928E-02 0. -1.
        1   -1    0    0  501    0  0.00000000000E+00  0.00000000000E+00 -0.44654518963E+03  0.44654518965E+03  0.50400001928E-02 0.  1.
    10030    2    1    2    0    0  0.00000000000E+00  0.00000000000E+00  0.41525849367E+03  0.13083488730E+04  0.12407002687E+04 0.  0.
        2    1    3    3  502    0 -0.54712889061E+03 -0.17859753235E+03 -0.36481652690E+02  0.57669577118E+03  0.25500000920E-02 0.  1.
       -2    1    3    3    0  502  0.54712889061E+03  0.17859753235E+03  0.45174014636E+03  0.73165310178E+03  0.25500000920E-02 0. -1.
</event>
<event>
 5   0  0.7415102E-04  0.1660861E+04  0.7818609E-02  0.8784007E-01
        2   -1    0    0  501    0  0.00000000000E+00  0.00000000000E+00  0.10831364202E+04  0.10831364202E+04  0.25500000920E-02 0. -1.
       -2   -1    0    0    0  501  0.00000000000E+00  0.00000000000E+00 -0.63668356128E+03  0.63668356128E+03  0.25500000920E-02 0.  1.
    10030    2    1    2    0    0  0.00000000000E+00  0.00000000000E+00  0.44645285893E+03  0.17198199815E+04  0.16608614071E+04 0.  0.
        5    1    3    3  502    0 -0.78375738020E+03  0.42927212120E+02 -0.57458095069E+02  0.78704631328E+03  0.46999998093E+01 0.  1.
       -5    1    3    3    0  502  0.78375738020E+03 -0.42927212120E+02  0.50391095399E+03  0.93277366821E+03  0.46999998093E+01 0. -1.
</event>
<event>
 5   0  0.7553070E-04  0.1663587E+04  0.7818609E-02  0.8782409E-01
       -2   -1    0    0    0  501  0.00000000000E+00  0.00000000000E+00  0.40765004754E+03  0.40765004755E+03  0.25500000920E-02 0.  1.
        2   -1    0    0  501    0  0.00000000000E+00  0.00000000000E+00 -0.16972405516E+04  0.16972405516E+04  0.25500000920E-02 0. -1.
    10030    2    1    2    0    0  0.00000000000E+00  0.00000000000E+00 -0.12895905040E+04  0.21048905991E+04  0.16635867174E+04 0.  0.
        4    1    3    3  502    0  0.46172120133E+03 -0.69037811269E+03 -0.58722643002E+03  0.10171749600E+04  0.12699999809E+01 0.  1.
       -4    1    3    3    0  502 -0.46172120133E+03  0.69037811269E+03 -0.70236407403E+03  0.10877156391E+04  0.12699999809E+01 0. -1.
</event>
<event>
 5   0  0.7553070E-04  0.1597262E+04  0.7818609E-02  0.8822232E-01
        2   -1    0    0  501    0  0.00000000000E+00  0.00000000000E+00  0.78728768972E+03  0.78728768973E+03  0.25500000920E-02 0.  1.
       -2   -1    0    0    0  501  0.00000000000E+00  0.00000000000E+00 -0.81013770246E+03  0.81013770246E+03  0.25500000920E-02 0. -1.
    10030    2    1    2    0    0  0.00000000000E+00  0.00000000000E+00 -0.22850012733E+02  0.15974253922E+04  0.15972619574E+04 0.  0.
        4    1    3    3  502    0  0.90699604011E+02  0.30139382905E+03  0.72264271893E+03  0.78821238919E+03  0.12699999809E+01 0.  1.
       -4    1    3    3    0  502 -0.90699604011E+02 -0.30139382905E+03 -0.74549273166E+03  0.80921300299E+03  0.12699999809E+01 0. -1.
</event>
<event>
 5   0  0.4110803E-04  0.1613257E+04  0.7818609E-02  0.8812445E-01
       -1   -1    0    0    0  501  0.00000000000E+00  0.00000000000E+00  0.38413938555E+03  0.38413938558E+03  0.50400001928E-02 0.  1.
        1   -1    0    0  501    0  0.00000000000E+00  0.00000000000E+00 -0.16937845837E+04  0.16937845837E+04  0.50400001928E-02 0. -1.
    10030    2    1    2    0    0  0.00000000000E+00  0.00000000000E+00 -0.13096451981E+04  0.20779239693E+04  0.16132567921E+04 0.  0.
        5    1    3    3  502    0 -0.77522968942E+03  0.22019604348E+03 -0.69868964225E+03  0.10666098983E+04  0.46999998093E+01 0.  1.
       -5    1    3    3    0  502  0.77522968942E+03 -0.22019604348E+03 -0.61095555589E+03  0.10113140710E+04  0.46999998093E+01 0. -1.
</event>
<event>
 5   0  0.2781000E-04  0.1412962E+04  0.7818609E-02  0.8944489E-01
        3   -1    0    0  501    0  0.00000000000E+00  0.00000000000E+00  0.64949987682E+03  0.64949988467E+03  0.10100000352E+00 0.  1.
       -3   -1    0    0    0  501  0.00000000000E+00  0.00000000000E+00 -0.76846059808E+03  0.76846060472E+03  0.10100000352E+00 0. -1.
    10030    2    1    2    0    0  0.00000000000E+00  0.00000000000E+00 -0.11896072126E+03  0.14179604894E+04  0.14129615339E+04 0.  0.
        2    1    3    3  502    0  0.99388364144E+02  0.29713088488E+03 -0.69492693510E+03  0.76229145004E+03  0.25500000920E-02 0. -1.
       -2    1    3    3    0  502 -0.99388364144E+02 -0.29713088488E+03  0.57596621384E+03  0.65566903935E+03  0.25500000920E-02 0.  1.
</event>
<event>
 5   0  0.4110803E-04  0.1600359E+04  0.7818609E-02  0.8820327E-01
        1   -1    0    0  501    0  0.00000000000E+00  0.00000000000E+00  0.13463561678E+04  0.13463561678E+04  0.50400001928E-02 0.  1.
       -1   -1    0    0    0  501  0.00000000000E+00  0.00000000000E+00 -0.47557076360E+03  0.47557076363E+03  0.50400001928E-02 0. -1.
    10030    2    1    2    0    0  0.00000000000E+00  0.00000000000E+00  0.87078540417E+03  0.18219269314E+04  0.16003594981E+04 0.  0.
        5    1    3    3  502    0  0.63650427079E+03  0.33681276237E+03  0.38263376989E+02  0.72115650149E+03  0.46999998093E+01 0. -1.
       -5    1    3    3    0  502 -0.63650427079E+03 -0.33681276237E+03  0.83252202718E+03  0.11007704299E+04  0.46999998093E+01 0.  1.
</event>
<event>
 5   0  0.7395088E-04  0.1650024E+04  0.7818609E-02  0.8790393E-01
       -2   -1    0    0    0  501  0.00000000000E+00  0.00000000000E+00  0.26460946604E+03  0.26460946605E+03  0.25500000920E-02 0. -1.
        2   -1    0    0  501    0  0.00000000000E+00  0.00000000000E+00 -0.25722601898E+04  0.25722601898E+04  0.25500000920E-02 0.  1.
    10030    2    1    2    0    0  0.00000000000E+00  0.00000000000E+00 -0.23076507238E+04  0.28368696559E+04  0.16500235094E+04 0.  0.
        1    1    3    3  502    0  0.51613437057E+03 -0.63747082723E+03 -0.13064519884E+04  0.15425889090E+04  0.50400001928E-02 0.  1.
       -1    1    3    3    0  502 -0.51613437057E+03  0.63747082723E+03 -0.10011987354E+04  0.12942807469E+04  0.50400001928E-02 0. -1.
</event>
<event>
 5   0  0.7415102E-04  0.1597847E+04  0.7818609E-02  0.8821872E-01
       -2   -1    0    0    0  501  0.00000000000E+00  0.00000000000E+00  0.55245584805E+03  0.55245584806E+03  0.25500000920E-02 0. -1.
        2   -1    0    0  501    0  0.00000000000E+00  0.00000000000E+00 -0.11553482401E+04  0.11553482401E+04  0.25500000920E-02 0.  1.
    10030    2    1    2    0    0  0.00000000000E+00  0.00000000000E+00 -0.60289239205E+03  0.17078040882E+04  0.15978471664E+04 0.  0.
        5    1    3    3  502    0 -0.54548743160E+03 -0.53963813035E+03 -0.63671455671E+02  0.76996233286E+03  0.46999998093E+01 0. -1.
       -5    1    3    3    0  502  0.54548743160E+03  0.53963813035E+03 -0.53922093638E+03  0.93784175530E+03  0.46999998093E+01 0.  1.
</event>
<event>
 5   0  0.3973227E-04  0.1562405E+04  0.7818609E-02  0.8843983E-01
       -1   -1    0    0    0  501  0.00000000000E+00  0.00000000000E+00  0.48307041806E+03  0.48307041809E+03  0.50400001928E-02 0. -1.
        1   -1    0    0  501    0  0.00000000000E+00  0.00000000000E+00 -0.12633298702E+04  0.12633298702E+04  0.50400001928E-02 0.  1.
    10030    2    1    2    0    0  0.00000000000E+00  0.00000000000E+00 -0.78025945209E+03  0.17464002883E+04  0.15624049265E+04 0.  0.
        3    1    3    3  502    0 -0.19550908099E+03 -0.49312000285E+03  0.25089234184E+03  0.58680330210E+03  0.10100000352E+00 0. -1.
       -3    1    3    3    0  502  0.19550908099E+03  0.49312000285E+03 -0.10311517939E+04  0.11595969862E+04  0.10100000352E+00 0.  1.
</event>
<event>
 5   0  0.7553070E-04  0.1624529E+04  0.7818609E-02  0.8805619E-01
       -2   -1    0    0    0  501  0.00000000000E+00  0.00000000000E+00  0.49149047400E+03  0.49149047401E+03  0.25500000920E-02 0.  1.
        2   -1    0    0  501    0  0.00000000000E+00  0.00000000000E+00 -0.13423932057E+04  0.13423932057E+04  0.25500000920E-02 0. -1.
    10030    2    1    2    0    0  0.00000000000E+00  0.00000000000E+00 -0.85090273174E+03  0.18338836798E+04  0.16245288215E+04 0.  0.
        4    1    3    3  502    0 -0.32022150183E+03  0.46713556627E+03  0.23183321713E+03  0.61196870915E+03  0.12699999809E+01 0.  1.
       -4    1    3    3    0  502  0.32022150183E+03 -0.46713556627E+03 -0.10827359489E+04  0.12219149706E+04  0.12699999809E+01 0. -1.
</event>
<event>
 5   0  0.7395088E-04  0.1533885E+04  0.7818609E-02  0.8862227E-01
        2   -1    0    0  501    0  0.00000000000E+00  0.00000000000E+00  0.46002654563E+03  0.46002654563E+03  0.25500000920E-02 0. -1.
       -2   -1    0    0    0  501  0.00000000000E+00  0.00000000000E+00 -0.12786237327E+04  0.12786237327E+04  0.25500000920E-02 0.  1.
    10030    2    1    2    0    0  0.00000000000E+00  0.00000000000E+00 -0.81859718707E+03  0.17386502783E+04  0.15338850790E+04 0.  0.
        1    1    3    3  502    0  0.65195625293E+03  0.22342620566E+03 -0.79072350272E+03  0.10489089011E+04  0.50400001928E-02 0.  1.
       -1    1    3    3    0  502 -0.65195625293E+03 -0.22342620566E+03 -0.27873684343E+02  0.68974137719E+03  0.50400001928E-02 0. -1.
</event>
<event>
 5   0  0.3889847E-04  0.1561934E+04  0.7818609E-02  0.8844281E-01
       -1   -1    0    0    0  501  0.00000000000E+00  0.00000000000E+00  0.10665994811E+04  0.10665994811E+04  0.50400001928E-02 0. -1.
        1   -1    0    0  501    0  0.00000000000E+00  0.00000000000E+00 -0.57182630907E+03  0.57182630909E+03  0.50400001928E-02 0.  1.
    10030    2    1    2    0    0  0.00000000000E+00  0.00000000000E+00  0.49477317201E+03  0.16384257902E+04  0.15619342426E+04 0.  0.
        1    1    3    3  502    0 -0.10171524416E+03  0.70867545441E+03  0.57466385596E+03  0.91804435512E+03  0.50400001928E-02 0. -1.
       -1    1    3    3    0  502  0.10171524416E+03 -0.70867545441E+03 -0.79890683955E+02  0.72038143507E+03  0.50400001928E-02 0.  1.
</event>
<event>
 5   0  0.7488884E-04  0.1598698E+04  0.7818609E-02  0.8821348E-01
        2   -1    0    0  501    0  0.00000000000E+00  0.00000000000E+00  0.94814457234E+03  0.94814457235E+03  0.25500000920E-02 0.  1.
       -2   -1    0    0    0  501  0.00000000000E+00  0.00000000000E+00 -0.67390439604E+03  0.67390439604E+03  0.25500000920E-02 0. -1.
    10030    2    1    2    0    0  0.00000000000E+00  0.00000000000E+00  0.27424017631E+03  0.16220489684E+04  0.15986979645E+04 0.  0.
        3    1    3    3  502    0 -0.46587855280E+03  0.21709917745E+03 -0.48401777815E+03  0.70600856835E+03  0.10100000352E+00 0. -1.
       -3    1    3    3    0  502  0.46587855280E+03 -0.21709917745E+03  0.75825795446E+03  0.91604040004E+03  0.10100000352E+00 0.  1.
</event>
<event>
 5   0  0.3973227E-04  0.1602891E+04  0.7818609E-02  0.8818774E-01
        1   -1    0    0  501    0  0.00000000000E+00  0.00000000000E+00  0.78434844610E+03  0.78434844611E+03  0.50400001928E-02 0.  1.
       -1   -1    0    0    0  501  0.00000000000E+00  0.00000000000E+00 -0.81891486268E+03  0.81891486270E+03  0.50400001928E-02 0. -1.
    10030    2    1    2    0    0  0.00000000000E+00  0.00000000000E+00 -0.34566416583E+02  0.16032633088E+04  0.16028906389E+04 0.  0.
        3    1    3    3  502    0 -0.44741470291E+03 -0.49531263172E+03 -0.46100788924E+03  0.81119837503E+03  0.10100000352E+00 0. -1.
       -3    1    3    3    0  502  0.44741470291E+03  0.49531263172E+03  0.42644147265E+03  0.79206493378E+03  0.10100000352E+00 0.  1.
</event>
<event>
 5   0  0.4110803E-04  0.1590175E+04  0.7818609E-02  0.8826606E-01
        1   -1    0    0  501    0  0.00000000000E+00  0.00000000000E+00  0.14359445725E+04  0.14359445725E+04  0.50400001928E-02 0. -1.
       -1   -1    0    0    0  501  0.00000000000E+00  0.00000000000E+00 -0.44024294910E+03  0.44024294913E+03  0.50400001928E-02 0.  1.
    10030    2    1    2    0    0  0.00000000000E+00  0.00000000000E+00  0.99570162340E+03  0.18761875216E+04  0.15901754285E+04 0.  0.
        5    1    3    3  502    0  0.16518027500E+03  0.44639482835E+03 -0.25355502760E+03  0.53931911522E+03  0.46999998093E+01 0.  1.
       -5    1    3    3    0  502 -0.16518027500E+03 -0.44639482835E+03  0.12492566510E+04  0.13368684064E+04  0.46999998093E+01 0. -1.
</event>
<event>
 5   0  0.3889847E-04  0.1592096E+04  0.7818609E-02  0.8825419E-01
        1   -1    0    0  501    0  0.00000000000E+00  0.00000000000E+00  0.94343878120E+03  0.94343878121E+03  0.50400001928E-02 0.  1.
       -1   -1    0    0    0  501  0.00000000000E+00  0.00000000000E+00 -0.67168346049E+03  0.67168346051E+03  0.50400001928E-02 0. -1.
    10030    2    1    2    0    0  0.00000000000E+00  0.00000000000E+00  0.27175532071E+03  0.16151222417E+04  0.15920957576E+04 0.  0.
        1    1    3    3  502    0 -0.19788775273E+03  0.38582560171E+03  0.81311911020E+03  0.92151160872E+03  0.50400001928E-02 0.  1.
       -1    1    3    3    0  502  0.19788775273E+03 -0.38582560171E+03 -0.54136378949E+03  0.69361063300E+03  0.50400001928E-02 0. -1.
</event>
<event>
 5   0  0.3889847E-04  0.1610462E+04  0.7818609E-02  0.8814146E-01
       -1   -1    0    0    0  501  0.00000000000E+00  0.00000000000E+00  0.73738854592E+03  0.73738854594E+03  0.50400001928E-02 0. -1.
        1   -1    0    0  501    0  0.00000000000E+00  0.00000000000E+00 -0.87931551863E+03  0.87931551865E+03  0.50400001928E-02 0.  1.
    10030    2    1    2    0    0  0.00000000000E+00  0.00000000000E+00 -0.14192697271E+03  0.16167040646E+04  0.16104622836E+04 0.  0.
        1    1    3    3  502    0 -0.63142429579E+03 -0.17190430402E+03 -0.54198287541E+03  0.84970181141E+03  0.50400001928E-02 0.  1.
       -1    1    3    3    0  502  0.63142429579E+03  0.17190430402E+03  0.40005590270E+03  0.76700225317E+03  0.50400001928E-02 0. -1.
</event>
<event>
 5   0  0.7488884E-04  0.1606138E+04  0.7818609E-02  0.8816786E-01
        2   -1    0    0  501    0  0.00000000000E+00  0.00000000000E+00  0.21396248353E+04  0.21396248353E+04  0.25500000920E-02 0. -1.
       -2   -1    0    0    0  501  0.00000000000E+00  0.00000000000E+00 -0.30141735185E+03  0.30141735186E+03  0.25500000920E-02 0.  1.
    10030    2    1    2    0    0  0.00000000000E+00  0.00000000000E+00  0.18382074834E+04  0.24410421871E+04  0.16061382902E+04 0.  0.
        3    1    3    3  502    0  0.57830615585E+03 -0.32905659290E+03  0.23568482521E+03  0.70587789189E+03  0.10100000352E+00 0.  1.
       -3    1    3    3    0  502 -0.57830615585E+03  0.32905659290E+03  0.16025226582E+04  0.17351642953E+04  0.10100000352E+00 0. -1.
</event>
<event>
 5   0  0.3889847E-04  0.1610336E+04  0.7818609E-02  0.8814223E-01
       -1   -1    0    0    0  501  0.00000000000E+00  0.00000000000E+00  0.26696280194E+03  0.26696280199E+03  0.50400001928E-02 0.  1.
        1   -1    0    0  501    0  0.00000000000E+00  0.00000000000E+00 -0.24284110336E+04  0.24284110336E+04  0.50400001928E-02 0. -1.
    10030    2    1    2    0    0  0.00000000000E+00  0.00000000000E+00 -0.21614482316E+04  0.26953738356E+04  0.16103358828E+04 0.  0.
        1    1    3    3  502    0  0.19288598714E+03  0.31617466065E+02 -0.23880978533E+04  0.23960834762E+04  0.50400001928E-02 0. -1.
       -1    1    3    3    0  502 -0.19288598714E+03 -0.31617466065E+02  0.22664962163E+03  0.29929035936E+03  0.50400001928E-02 0.  1.
</event>
<event>
 5   0  0.3950195E-04  0.1612866E+04  0.7818609E-02  0.8812682E-01
        1   -1    0    0  501    0  0.00000000000E+00  0.00000000000E+00  0.57693034352E+03  0.57693034354E+03  0.50400001928E-02 0.  1.
       -1   -1    0    0    0  501  0.00000000000E+00  0.00000000000E+00 -0.11272322321E+04  0.11272322321E+04  0.50400001928E-02 0. -1.
    10030    2    1    2    0    0  0.00000000000E+00  0.00000000000E+00 -0.55030188855E+03  0.17041625756E+04  0.16128663663E+04 0.  0.
        2    1    3    3  502    0  0.17605265841E+03 -0.74663789374E+03 -0.53797130048E+03  0.93695026712E+03  0.25500000920E-02 0. -1.
       -2    1    3    3    0  502 -0.17605265841E+03  0.74663789374E+03 -0.12330588066E+02  0.76721230850E+03  0.25500000920E-02 0.  1.
</event>
<event>
 5   0  0.4110803E-04  0.1596522E+04  0.7818609E-02  0.8822687E-01
        1   -1    0    0  501    0  0.00000000000E+00  0.00000000000E+00  0.13585273449E+04  0.13585273449E+04  0.50400001928E-02 0. -1.
       -1   -1    0    0    0  501  0.00000000000E+00  0.00000000000E+00 -0.46905271865E+03  0.46905271868E+03  0.50400001928E-02 0.  1.
    10030    2    1    2    0    0  0.00000000000E+00  0.00000000000E+00  0.88947462624E+03  0.18275800636E+04  0.15965224014E+04 0.  0.
        5    1    3    3  502    0  0.24126123033E+03  0.52658894294E+03 -0.18402447644E+03  0.60777462436E+03  0.46999998093E+01 0.  1.
       -5    1    3    3    0  502 -0.24126123033E+03 -0.52658894294E+03  0.10734991027E+04  0.12198054392E+04  0.46999998093E+01 0. -1.
</event>
<event>
 5   0  0.7395088E-04  0.1550185E+04  0.7818609E-02  0.8851750E-01
       -2   -1    0    0    0  501  0.00000000000E+00  0.00000000000E+00  0.31283296017E+03  0.31283296018E+03  0.25500000920E-02 0.  1.
        2   -1    0    0  501    0  0.00000000000E+00  0.00000000000E+00 -0.19204121101E+04  0.19204121101E+04  0.25500000920E-02 0. -1.
    10030    2    1    2    0    0  0.00000000000E+00  0.00000000000E+00 -0.16075791499E+04  0.22332450702E+04  0.15501847698E+04 0.  0.
        1    1    3    3  502    0 -0.17670770238E+02  0.54793330762E+03 -0.15931518620E+04  0.16848370904E+04  0.50400001928E-02 0. -1.
       -1    1    3    3    0  502  0.17670770238E+02 -0.54793330762E+03 -0.14427287912E+02  0.54840797987E+03  0.50400001928E-02 0.  1.
</event>
<event>
 5   0  0.7488884E-04  0.1607237E+04  0.7818609E-02  0.8816114E-01
       -2   -1    0    0    0  501  0.00000000000E+00  0.00000000000E+00  0.60498728074E+03  0.60498728074E+03  0.25500000920E-02 0. -1.
        2   -1    0    0  501    0  0.00000000000E+00  0.00000000000E+00 -0.10674646701E+04  0.10674646701E+04  0.25500000920E-02 0.  1.
    10030    2    1    2    0    0  0.00000000000E+00  0.00000000000E+00 -0.46247738940E+03  0.16724519509E+04  0.16072368190E+04 0.  0.
        3    1    3    3  502    0  0.27823878384E+03 -0.68509344849E+03  0.96224919775E+02  0.74567358770E+03  0.10100000352E+00 0. -1.
       -3    1    3    3    0  502 -0.27823878384E+03  0.68509344849E+03 -0.55870230917E+03  0.92677836319E+03  0.10100000352E+00 0.  1.
</event>
<event>
 5   0  0.3837251E-04  0.1683964E+04  0.7818609E-02  0.8770564E-01
       -1   -1    0    0    0  501  0.00000000000E+00  0.00000000000E+00  0.10980720289E+04  0.10980720290E+04  0.50400001928E-02 0. -1.
        1   -1    0    0  501    0  0.00000000000E+00  0.00000000000E+00 -0.64561646902E+03  0.64561646904E+03  0.50400001928E-02 0.  1.
    10030    2    1    2    0    0  0.00000000000E+00  0.00000000000E+00  0.45245555992E+03  0.17436884980E+04  0.16839636410E+04 0.  0.
        4    1    3    3  502    0 -0.62274400788E+03  0.14242602934E+03 -0.34171091110E+03  0.72447445287E+03  0.12699999809E+01 0.  1.
       -4    1    3    3    0  502  0.62274400788E+03 -0.14242602934E+03  0.79416647102E+03  0.10192140451E+04  0.12699999809E+01 0. -1.
</event>
<event>
 5   0  0.3950195E-04  0.1480631E+04  0.7818609E-02  0.8897436E-01
        1   -1    0    0  501    0  0.00000000000E+00  0.00000000000E+00  0.50980932213E+03  0.50980932216E+03  0.50400001928E-02 0.  1.
       -1   -1    0    0    0  501  0.00000000000E+00  0.00000000000E+00 -0.10750429824E+04  0.10750429825E+04  0.50400001928E-02 0. -1.
    10030    2    1    2    0    0  0.00000000000E+00  0.00000000000E+00 -0.56523366032E+03  0.15848523046E+04  0.14806308577E+04 0.  0.
        2    1    3    3  502    0 -0.54526642106E+03  0.26396345570E+03 -0.73809855497E+03  0.95487258456E+03  0.25500000920E-02 0. -1.
       -2    1    3    3    0  502  0.54526642106E+03 -0.26396345570E+03  0.17286489466E+03  0.62997972006E+03  0.25500000920E-02 0.  1.
</event>
<event>
 5   0  0.3837251E-04  0.1621725E+04  0.7818609E-02  0.8807312E-01
       -1   -1    0    0    0  501  0.00000000000E+00  0.00000000000E+00  0.80269166556E+03  0.80269166558E+03  0.50400001928E-02 0. -1.
        1   -1    0    0  501    0  0.00000000000E+00  0.00000000000E+00 -0.81911633455E+03  0.81911633457E+03  0.50400001928E-02 0.  1.
    10030    2    1    2    0    0  0.00000000000E+00  0.00000000000E+00 -0.16424668990E+02  0.16218080001E+04  0.16217248286E+04 0.  0.
        4    1    3    3  502    0 -0.61894580603E+03 -0.26437140696E+03 -0.46046344601E+03  0.81548411979E+03  0.12699999809E+01 0.  1.
       -4    1    3    3    0  502  0.61894580603E+03  0.26437140696E+03  0.44403877702E+03  0.80632388035E+03  0.12699999809E+01 0. -1.
</event>
<event>
 5   0  0.3889847E-04  0.1604900E+04  0.7818609E-02  0.8817544E-01
        1   -1    0    0  501    0  0.00000000000E+00  0.00000000000E+00  0.69793597925E+03  0.69793597927E+03  0.50400001928E-02 0.  1.
       -1   -1    0    0    0  501  0.00000000000E+00  0.00000000000E+00 -0.92261445350E+03  0.92261445351E+03  0.50400001928E-02 0. -1.
    10030    2    1    2    0    0  0.00000000000E+00  0.00000000000E+00 -0.22467847425E+03  0.16205504328E+04  0.16048997752E+04 0.  0.
        1    1    3    3  502    0 -0.68924253086E+03  0.39922527127E+03 -0.13973974074E+02  0.79663753084E+03  0.50400001928E-02 0. -1.
       -1    1    3    3    0  502  0.68924253086E+03 -0.39922527127E+03 -0.21070450018E+03  0.82391290194E+03  0.50400001928E-02 0.  1.
</event>
<event>
 5   0  0.2781000E-04  0.1602418E+04  0.7818609E-02  0.8819064E-01
       -3   -1    0    0    0  501  0.00000000000E+00  0.00000000000E+00  0.99445363667E+03  0.99445364179E+03  0.10100000352E+00 0.  1.
        3   -1    0    0  501    0  0.00000000000E+00  0.00000000000E+00 -0.64551620666E+03  0.64551621457E+03  0.10100000352E+00 0. -1.
    10030    2    1    2    0    0  0.00000000000E+00  0.00000000000E+00  0.34893743000E+03  0.16399698564E+04  0.16024181101E+04 0.  0.
        1    1    3    3  502    0 -0.61110103581E+03 -0.41362825885E+03 -0.14493980313E+03  0.75202417451E+03  0.50400001928E-02 0. -1.
       -1    1    3    3    0  502  0.61110103581E+03  0.41362825885E+03  0.49387723313E+03  0.88794568185E+03  0.50400001928E-02 0.  1.
</event>
<event>
 5   0  0.3837251E-04  0.1591990E+04  0.7818609E-02  0.8825484E-01
       -1   -1    0    0    0  501  0.00000000000E+00  0.00000000000E+00  0.71612310231E+03  0.71612310233E+03  0.50400001928E-02 0. -1.
        1   -1    0    0  501    0  0.00000000000E+00  0.00000000000E+00 -0.88477561393E+03  0.88477561394E+03  0.50400001928E-02 0.  1.
    10030    2    1    2    0    0  0.00000000000E+00  0.00000000000E+00 -0.16865251162E+03  0.16008987163E+04  0.15919902732E+04 0.  0.
        4    1    3    3  502    0 -0.99117792533E+02  0.17123080156E+03 -0.85965451351E+03  0.88212914003E+03  0.12699999809E+01 0.  1.
       -4    1    3    3    0  502  0.99117792533E+02 -0.17123080156E+03  0.69100200189E+03  0.71876957623E+03  0.12699999809E+01 0. -1.
</event>
<event>
 5   0  0.7553070E-04  0.1546532E+04  0.7818609E-02  0.8854086E-01
       -2   -1    0    0    0  501  0.00000000000E+00  0.00000000000E+00  0.34448691725E+03  0.34448691726E+03  0.25500000920E-02 0.  1.
        2   -1    0    0  501    0  0.00000000000E+00  0.00000000000E+00 -0.17357425700E+04  0.17357425700E+04  0.25500000920E-02 0. -1.
    10030    2    1    2    0    0  0.00000000000E+00  0.00000000000E+00 -0.13912556527E+04  0.20802294872E+04  0.15465323884E+04 0.  0.
        4    1    3    3  502    0  0.52580329817E+03 -0.64702022203E+02  0.62035027865E+02  0.53339049262E+03  0.12699999809E+01 0.  1.
       -4    1    3    3    0  502 -0.52580329817E+03  0.64702022203E+02 -0.14532906806E+04  0.15468389946E+04  0.12699999809E+01 0. -1.
</event>
<event>
 5   0  0.7553070E-04  0.1468368E+04  0.7818609E-02  0.8905765E-01
        2   -1    0    0  501    0  0.00000000000E+00  0.00000000000E+00  0.13780306618E+04  0.13780306618E+04  0.25500000920E-02 0.  1.
       -2   -1    0    0    0  501  0.00000000000E+00  0.00000000000E+00 -0.39115679360E+03  0.39115679361E+03  0.25500000920E-02 0. -1.
    10030    2    1    2    0    0  0.00000000000E+00  0.00000000000E+00  0.98687386823E+03  0.17691874554E+04  0.14683678765E+04 0.  0.
        4    1    3    3  502    0  0.31076724370E+03  0.66411841128E+03  0.53843669970E+03  0.90969513379E+03  0.12699999809E+01 0.  1.
       -4    1    3    3    0  502 -0.31076724370E+03 -0.66411841128E+03  0.44843716853E+03  0.85949232166E+03  0.12699999809E+01 0. -1.
</event>
<event>
 5   0  0.3889847E-04  0.1600745E+04  0.7818609E-02  0.8820090E-01
       -1   -1    0    0    0  501  0.00000000000E+00  0.00000000000E+00  0.62295610987E+03  0.62295610989E+03  0.50400001928E-02 0. -1.
        1   -1    0    0  501    0  0.00000000000E+00  0.00000000000E+00 -0.10283168176E+04  0.10283168176E+04  0.50400001928E-02 0.  1.
    10030    2    1    2    0    0  0.00000000000E+00  0.00000000000E+00 -0.40536070771E+03  0.16512729275E+04  0.16007451320E+04 0.  0.
        1    1    3    3  502    0 -0.65777881701E+03 -0.45036352812E+03 -0.12904101473E+03  0.80755920097E+03  0.50400001928E-02 0.  1.
       -1    1    3    3    0  502  0.65777881701E+03  0.45036352812E+03 -0.27631969298E+03  0.84371372652E+03  0.50400001928E-02 0. -1.
</event>
<event>
 5   0  0.3837251E-04  0.1587456E+04  0.7818609E-02  0.8828292E-01
        1   -1    0    0  501    0  0.00000000000E+00  0.00000000000E+00  0.24917070379E+04  0.24917070379E+04  0.50400001928E-02 0.  1.
       -1   -1    0    0    0  501  0.00000000000E+00  0.00000000000E+00 -0.25284025821E+03  0.25284025826E+03  0.50400001928E-02 0. -1.
    10030    2    1    2    0    0  0.00000000000E+00  0.00000000000E+00  0.22388667796E+04  0.27445472961E+04  0.15874556383E+04 0.  0.
        4    1    3    3  502    0 -0.54014719390E+02  0.61600268126E+03  0.25910021822E+03  0.67045613519E+03  0.12699999809E+01 0. -1.
       -4    1    3    3    0  502  0.54014719390E+02 -0.61600268126E+03  0.19797665614E+04  0.20740911609E+04  0.12699999809E+01 0.  1.
</event>
<event>
 5   0  0.7553070E-04  0.1591550E+04  0.7818609E-02  0.8825756E-01
       -2   -1    0    0    0  501  0.00000000000E+00  0.00000000000E+00  0.59674887342E+03  0.59674887343E+03  0.25500000920E-02 0.  1.
        2   -1    0    0  501    0  0.00000000000E+00  0.00000000000E+00 -0.10611803243E+04  0.10611803243E+04  0.25500000920E-02 0. -1.
    10030    2    1    2    0    0  0.00000000000E+00  0.00000000000E+00 -0.46443145089E+03  0.16579291977E+04  0.15915503926E+04 0.  0.
        4    1    3    3  502    0  0.36902091265E+03 -0.61778149081E+03 -0.58612967686E+03  0.92810560572E+03  0.12699999809E+01 0.  1.
       -4    1    3    3    0  502 -0.36902091265E+03  0.61778149081E+03  0.12169822597E+03  0.72982359202E+03  0.12699999809E+01 0. -1.
</event>
<event>
 5   0  0.7553070E-04  0.1598514E+04  0.7818609E-02  0.8821462E-01
        2   -1    0    0  501    0  0.00000000000E+00  0.00000000000E+00  0.12919087579E+04  0.12919087579E+04  0.25500000920E-02 0. -1.
       -2   -1    0    0    0  501  0.00000000000E+00  0.00000000000E+00 -0.49447111435E+03  0.49447111435E+03  0.25500000920E-02 0.  1.
    10030    2    1    2    0    0  0.00000000000E+00  0.00000000000E+00  0.79743764353E+03  0.17863798722E+04  0.15985137637E+04 0.  0.
        4    1    3    3  502    0  0.32535794231E+03 -0.52489137203E+02  0.12124408825E+04  0.12564344020E+04  0.12699999809E+01 0. -1.
       -4    1    3    3    0  502 -0.32535794231E+03  0.52489137203E+02 -0.41500323896E+03  0.52994547021E+03  0.12699999809E+01 0.  1.
</event>
<event>
 5   0  0.7415102E-04  0.1559808E+04  0.7818609E-02  0.8845627E-01
        2   -1    0    0  501    0  0.00000000000E+00  0.00000000000E+00  0.19627734771E+04  0.19627734771E+04  0.25500000920E-02 0. -1.
       -2   -1    0    0    0  501  0.00000000000E+00  0.00000000000E+00 -0.30989318711E+03  0.30989318713E+03  0.25500000920E-02 0.  1.
    10030    2    1    2    0    0  0.00000000000E+00  0.00000000000E+00  0.16528802900E+04  0.22726666643E+04  0.15598078451E+04 0.  0.
        5    1    3    3  502    0  0.47340305441E+03  0.61945377890E+03  0.85538320522E+03  0.11573832355E+04  0.46999998093E+01 0. -1.
       -5    1    3    3    0  502 -0.47340305441E+03 -0.61945377890E+03  0.79749708479E+03  0.11152834287E+04  0.46999998093E+01 0.  1.
</event>
<event>
 5   0  0.7395088E-04  0.1655776E+04  0.7818609E-02  0.8786997E-01
        2   -1    0    0  501    0  0.00000000000E+00  0.00000000000E+00  0.11439201413E+04  0.11439201413E+04  0.25500000920E-02 0. -1.
       -2   -1    0    0    0  501  0.00000000000E+00  0.00000000000E+00 -0.59916608278E+03  0.59916608278E+03  0.25500000920E-02 0.  1.
    10030    2    1    2    0    0  0.00000000000E+00  0.00000000000E+00  0.54475405856E+03  0.17430862241E+04  0.16557755284E+04 0.  0.
        1    1    3    3  502    0  0.14184822753E+03  0.26514530569E+03 -0.53964318725E+03  0.61776834036E+03  0.50400001928E-02 0.  1.
       -1    1    3    3    0  502 -0.14184822753E+03 -0.26514530569E+03  0.10843972458E+04  0.11253178838E+04  0.50400001928E-02 0. -1.
</event>
<event>
 5   0  0.4110803E-04  0.1538865E+04  0.7818609E-02  0.8859012E-01
        1   -1    0    0  501    0  0.00000000000E+00  0.00000000000E+00  0.97383255483E+03  0.97383255484E+03  0.50400001928E-02 0. -1.
       -1   -1    0    0    0  501  0.00000000000E+00  0.00000000000E+00 -0.60793454531E+03  0.60793454533E+03  0.50400001928E-02 0.  1.
    10030    2    1    2    0    0  0.00000000000E+00  0.00000000000E+00  0.36589800952E+03  0.15817671002E+04  0.15388651032E+04 0.  0.
        5    1    3    3  502    0  0.11270955861E+03  0.68331206018E+03  0.52753467685E+03  0.87059390158E+03  0.46999998093E+01 0. -1.
       -5    1    3    3    0  502 -0.11270955861E+03 -0.68331206018E+03 -0.16163666734E+03  0.71117319860E+03  0.46999998093E+01 0.  1.
</event>
<event>
 5   0  0.7415102E-04  0.1450145E+04  0.7818609E-02  0.8918300E-01
        2   -1    0    0  501    0  0.00000000000E+00  0.00000000000E+00  0.76750682981E+03  0.76750682981E+03  0.25500000920E-02 0.  1.
       -2   -1    0    0    0  501  0.00000000000E+00  0.00000000000E+00 -0.68498411964E+03  0.68498411965E+03  0.25500000920E-02 0. -1.
    10030    2    1    2    0    0  0.00000000000E+00  0.00000000000E+00  0.82522710162E+02  0.14524909495E+04  0.14501448068E+04 0.  0.
        5    1    3    3  502    0  0.25887228834E+03  0.10091493085E+03 -0.62953045053E+03  0.68813469836E+03  0.46999998093E+01 0. -1.
       -5    1    3    3    0  502 -0.25887228834E+03 -0.10091493085E+03  0.71205316070E+03  0.76435625110E+03  0.46999998093E+01 0.  1.
</event>
<event>
 5   0  0.3950195E-04  0.1593606E+04  0.7818609E-02  0.8824485E-01
        1   -1    0    0  501    0  0.00000000000E+00  0.00000000000E+00  0.10556020828E+04  0.10556020828E+04  0.50400001928E-02 0.  1.
       -1   -1    0    0    0  501  0.00000000000E+00  0.00000000000E+00 -0.60145327707E+03  0.60145327709E+03  0.50400001928E-02 0. -1.
    10030    2    1    2    0    0  0.00000000000E+00  0.00000000000E+00  0.45414880573E+03  0.16570553599E+04  0.15936063906E+04 0.  0.
        2    1    3    3  502    0 -0.38105073640E+03  0.50403757188E+03  0.73183113012E+03  0.96686624752E+03  0.25500000920E-02 0.  1.
       -2    1    3    3    0  502  0.38105073640E+03 -0.50403757188E+03 -0.27768232439E+03  0.69018911239E+03  0.25500000920E-02 0. -1.
</event>
<event>
 5   0  0.7415102E-04  0.1516190E+04  0.7818609E-02  0.8873757E-01
        2   -1    0    0  501    0  0.00000000000E+00  0.00000000000E+00  0.37531797854E+03  0.37531797855E+03  0.25500000920E-02 0.  1.
       -2   -1    0    0    0  501  0.00000000000E+00  0.00000000000E+00 -0.15312567658E+04  0.15312567658E+04  0.25500000920E-02 0. -1.
    10030    2    1    2    0    0  0.00000000000E+00  0.00000000000E+00 -0.11559387873E+04  0.19065747444E+04  0.15161902176E+04 0.  0.
        5    1    3    3  502    0  0.13467960826E+03  0.20581820957E+03  0.32372719448E+03  0.40659699792E+03  0.46999998093E+01 0.  1.
       -5    1    3    3    0  502 -0.13467960826E+03 -0.20581820957E+03 -0.14796659818E+04  0.14999777465E+04  0.46999998093E+01 0. -1.
</event>
<event>
 5   0  0.3973227E-04  0.1632583E+04  0.7818609E-02  0.8800777E-01
        1   -1    0    0  501    0  0.00000000000E+00  0.00000000000E+00  0.15768518709E+04  0.15768518709E+04  0.50400001928E-02 0.  1.
       -1   -1    0    0    0  501  0.00000000000E+00  0.00000000000E+00 -0.42257111779E+03  0.42257111782E+03  0.50400001928E-02 0. -1.
    10030    2    1    2    0    0  0.00000000000E+00  0.00000000000E+00  0.11542807531E+04  0.19994229887E+04  0.16325832998E+04 0.  0.
        3    1    3    3  502    0 -0.24069087411E+02 -0.58413232092E+03  0.12748342212E+04  0.14024949878E+04  0.10100000352E+00 0.  1.
       -3    1    3    3    0  502  0.24069087411E+02  0.58413232092E+03 -0.12055346809E+03  0.59692800084E+03  0.10100000352E+00 0. -1.
</event>
<event>
 5   0  0.3837251E-04  0.1573097E+04  0.7818609E-02  0.8837248E-01
       -1   -1    0    0    0  501  0.00000000000E+00  0.00000000000E+00  0.35477991314E+03  0.35477991318E+03  0.50400001928E-02 0.  1.
        1   -1    0    0  501    0  0.00000000000E+00  0.00000000000E+00 -0.17437821636E+04  0.17437821636E+04  0.50400001928E-02 0. -1.
    10030    2    1    2    0    0  0.00000000000E+00  0.00000000000E+00 -0.13890022505E+04  0.20985620768E+04  0.15730974345E+04 0.  0.
        4    1    3    3  502    0  0.52927431890E+03  0.43062254554E+03 -0.17253793227E+03  0.70380255210E+03  0.12699999809E+01 0. -1.
       -4    1    3    3    0  502 -0.52927431890E+03 -0.43062254554E+03 -0.12164643182E+04  0.13947595247E+04  0.12699999809E+01 0.  1.
</event>
<event>
 5   0  0.3973227E-04  0.1606429E+04  0.7818609E-02  0.8816608E-01
        1   -1    0    0  501    0  0.00000000000E+00  0.00000000000E+00  0.13180127898E+04  0.13180127898E+04  0.50400001928E-02 0. -1.
       -1   -1    0    0    0  501  0.00000000000E+00  0.00000000000E+00 -0.48948941161E+03  0.48948941163E+03  0.50400001928E-02 0.  1.
    10030    2    1    2    0    0  0.00000000000E+00  0.00000000000E+00  0.82852337823E+03  0.18075022015E+04  0.16064287162E+04 0.  0.
        3    1    3    3  502    0 -0.83144555707E+02  0.11770979433E+03 -0.47482374659E+03  0.49621186338E+03  0.10100000352E+00 0.  1.
       -3    1    3    3    0  502  0.83144555707E+02 -0.11770979433E+03  0.13033471248E+04  0.13112903381E+04  0.10100000352E+00 0. -1.
</event>
<event>
 5   0  0.3973227E-04  0.1421686E+04  0.7818609E-02  0.8938269E-01
        1   -1    0    0  501    0  0.00000000000E+00  0.00000000000E+00  0.18930224198E+04  0.18930224198E+04  0.50400001928E-02 0.  1.
       -1   -1    0    0    0  501  0.00000000000E+00  0.00000000000E+00 -0.26692647382E+03  0.26692647387E+03  0.50400001928E-02 0. -1.
    10030    2    1    2    0    0  0.00000000000E+00  0.00000000000E+00  0.16260959459E+04  0.21599488936E+04  0.14216860405E+04 0.  0.
        3    1    3    3  502    0 -0.23441954406E+03  0.15854608748E+03  0.18037446276E+04  0.18258105259E+04  0.10100000352E+00 0.  1.
       -3    1    3    3    0  502  0.23441954406E+03 -0.15854608748E+03 -0.17764868170E+03  0.33413836775E+03  0.10100000352E+00 0. -1.
</event>
<event>
 5   0  0.7770905E-04  0.1591966E+04  0.7818609E-02  0.8825499E-01
        2   -1    0    0  501    0  0.00000000000E+00  0.00000000000E+00  0.66677863298E+03  0.66677863299E+03  0.25500000920E-02 0.  1.
       -2   -1    0    0    0  501  0.00000000000E+00  0.00000000000E+00 -0.95022435995E+03  0.95022435995E+03  0.25500000920E-02 0. -1.
    10030    2    1    2    0    0  0.00000000000E+00  0.00000000000E+00 -0.28344572697E+03  0.16170029929E+04  0.15919664566E+04 0.  0.
        2    1    3    3  502    0 -0.73091344878E+02 -0.19181806280E+03  0.63943165977E+03  0.67157230544E+03  0.25500000920E-02 0.  1.
       -2    1    3    3    0  502  0.73091344878E+02  0.19181806280E+03 -0.92287738674E+03  0.94543068750E+03  0.25500000920E-02 0. -1.
</event>
<event>
 5   0  0.4110803E-04  0.1463129E+04  0.7818609E-02  0.8909349E-01
       -1   -1    0    0    0  501  0.00000000000E+00  0.00000000000E+00  0.10523330315E+04  0.10523330315E+04  0.50400001928E-02 0.  1.
        1   -1    0    0  501    0  0.00000000000E+00  0.00000000000E+00 -0.50857150808E+03  0.50857150811E+03  0.50400001928E-02 0. -1.
    10030    2    1    2    0    0  0.00000000000E+00  0.00000000000E+00  0.54376152338E+03  0.15609045396E+04  0.14631289715E+04 0.  0.
        5    1    3    3  502    0 -0.29142791335E+03 -0.66690450565E+03  0.35080182145E+03  0.80794545377E+03  0.46999998093E+01 0. -1.
       -5    1    3    3    0  502  0.29142791335E+03  0.66690450565E+03  0.19295970193E+03  0.75295908581E+03  0.46999998093E+01 0.  1.
</event>
<event>
 5   0  0.3950195E-04  0.1594849E+04  0.7818609E-02  0.8823719E-01
        1   -1    0    0  501    0  0.00000000000E+00  0.00000000000E+00  0.18715009742E+04  0.18715009742E+04  0.50400001928E-02 0.  1.
       -1   -1    0    0    0  501  0.00000000000E+00  0.00000000000E+00 -0.33977324589E+03  0.33977324593E+03  0.50400001928E-02 0. -1.
    10030    2    1    2    0    0  0.00000000000E+00  0.00000000000E+00  0.15317277283E+04  0.22112742201E+04  0.15948491599E+04 0.  0.
        2    1    3    3  502    0 -0.31405980551E+03 -0.40766199682E+03 -0.78729093164E+02  0.52059594237E+03  0.25500000920E-02 0. -1.
       -2    1    3    3    0  502  0.31405980551E+03  0.40766199682E+03  0.16104568214E+04  0.16906782777E+04  0.25500000920E-02 0.  1.
</event>
<event>
 5   0  0.3973227E-04  0.1595180E+04  0.7818609E-02  0.8823514E-01
       -1   -1    0    0    0  501  0.00000000000E+00  0.00000000000E+00  0.59391513598E+03  0.59391513600E+03  0.50400001928E-02 0. -1.
        1   -1    0    0  501    0  0.00000000000E+00  0.00000000000E+00 -0.10711129677E+04  0.10711129677E+04  0.50400001928E-02 0.  1.
    10030    2    1    2    0    0  0.00000000000E+00  0.00000000000E+00 -0.47719783175E+03  0.16650281037E+04  0.15951804963E+04 0.  0.
        3    1    3    3  502    0 -0.61540494694E+03  0.41377607449E+03  0.67884119924E+02  0.74467587075E+03  0.10100000352E+00 0. -1.
       -3    1    3    3    0  502  0.61540494694E+03 -0.41377607449E+03 -0.54508195168E+03  0.92035223300E+03  0.10100000352E+00 0.  1.
</event>
<event>
 5   0  0.7395088E-04  0.1605373E+04  0.7818609E-02  0.8817254E-01
       -2   -1    0    0    0  501  0.00000000000E+00  0.00000000000E+00  0.60315755374E+03  0.60315755374E+03  0.25500000920E-02 0. -1.
        2   -1    0    0  501    0  0.00000000000E+00  0.00000000000E+00 -0.10682204952E+04  0.10682204952E+04  0.25500000920E-02 0.  1.
    10030    2    1    2    0    0  0.00000000000E+00  0.00000000000E+00 -0.46506294142E+03  0.16713780489E+04  0.16053725558E+04 0.  0.
        1    1    3    3  502    0  0.64998935004E+03 -0.39388809881E+03  0.36292645949E+02  0.76088839242E+03  0.50400001928E-02 0.  1.
       -1    1    3    3    0  502 -0.64998935004E+03  0.39388809881E+03 -0.50135558737E+03  0.91048965648E+03  0.50400001928E-02 0. -1.
</event>
<event>
 5   0  0.7770905E-04  0.1513348E+04  0.7818609E-02  0.8875625E-01
        2   -1    0    0  501    0  0.00000000000E+00  0.00000000000E+00  0.10878148761E+04  0.10878148761E+04  0.25500000920E-02 0.  1.
       -2   -1    0    0    0  501  0.00000000000E+00  0.00000000000E+00 -0.52633562311E+03  0.52633562312E+03  0.25500000920E-02 0. -1.
    10030    2    1    2    0    0  0.00000000000E+00  0.00000000000E+00  0.56147925297E+03  0.16141504992E+04  0.15133482357E+04 0.  0.
        2    1    3    3  502    0 -0.51927599191E+03 -0.88499287009E+02  0.86013113239E+03  0.10086155087E+04  0.25500000920E-02 0.  1.
       -2    1    3    3    0  502  0.51927599191E+03  0.88499287009E+02 -0.29865187942E+03  0.60553499045E+03  0.25500000920E-02 0. -1.
</event>
<event>
 5   0  0.3973227E-04  0.1240517E+04  0.7818609E-02  0.9078113E-01
       -1   -1    0    0    0  501  0.00000000000E+00  0.00000000000E+00  0.28622463558E+03  0.28622463562E+03  0.50400001928E-02 0.  1.
        1   -1    0    0  501    0  0.00000000000E+00  0.00000000000E+00 -0.13441222883E+04  0.13441222883E+04  0.50400001928E-02 0. -1.
    10030    2    1    2    0    0  0.00000000000E+00  0.00000000000E+00 -0.10578976527E+04  0.16303469239E+04  0.12405174923E+04 0.  0.
        3    1    3    3  502    0 -0.26787489864E+03  0.52152591810E+03 -0.26291626160E+03  0.64255055473E+03  0.10100000352E+00 0.  1.
       -3    1    3    3    0  502  0.26787489864E+03 -0.52152591810E+03 -0.79498139114E+03  0.98779636922E+03  0.10100000352E+00 0. -1.
</event>
<event>
 5   0  0.7395088E-04  0.1611588E+04  0.7818609E-02  0.8813460E-01
        2   -1    0    0  501    0  0.00000000000E+00  0.00000000000E+00  0.68435008821E+03  0.68435008821E+03  0.25500000920E-02 0.  1.
       -2   -1    0    0    0  501  0.00000000000E+00  0.00000000000E+00 -0.94878930976E+03  0.94878930976E+03  0.25500000920E-02 0. -1.
    10030    2    1    2    0    0  0.00000000000E+00  0.00000000000E+00 -0.26443922155E+03  0.16331393980E+04  0.16115880960E+04 0.  0.
        1    1    3    3  502    0  0.12310501947E+03  0.58685429016E+03 -0.67770341390E+03  0.90489486734E+03  0.50400001928E-02 0. -1.
       -1    1    3    3    0  502 -0.12310501947E+03 -0.58685429016E+03  0.41326419235E+03  0.72824453064E+03  0.50400001928E-02 0.  1.
</event>
<event>
 5   0  0.3889847E-04  0.1493370E+04  0.7818609E-02  0.8888874E-01
        1   -1    0    0  501    0  0.00000000000E+00  0.00000000000E+00  0.90307477186E+03  0.90307477188E+03  0.50400001928E-02 0.  1.
       -1   -1    0    0    0  501  0.00000000000E+00  0.00000000000E+00 -0.61737769994E+03  0.61737769996E+03  0.50400001928E-02 0. -1.
    10030    2    1    2    0    0  0.00000000000E+00  0.00000000000E+00  0.28569707193E+03  0.15204524718E+04  0.14933696469E+04 0.  0.
        1    1    3    3  502    0  0.12744178432E+03  0.73141639969E+03  0.22383266121E+03  0.77544336890E+03  0.50400001928E-02 0.  1.
       -1    1    3    3    0  502 -0.12744178432E+03 -0.73141639969E+03  0.61864410720E+02  0.74500910294E+03  0.50400001928E-02 0. -1.
</event>
<event>
 5   0  0.3973227E-04  0.1607694E+04  0.7818609E-02  0.8815835E-01
        1   -1    0    0  501    0  0.00000000000E+00  0.00000000000E+00  0.73541761583E+03  0.73541761585E+03  0.50400001928E-02 0.  1.
       -1   -1    0    0    0  501  0.00000000000E+00  0.00000000000E+00 -0.87864320284E+03  0.87864320285E+03  0.50400001928E-02 0. -1.
    10030    2    1    2    0    0  0.00000000000E+00  0.00000000000E+00 -0.14322558701E+03  0.16140608187E+04  0.16076936144E+04 0.  0.
        3    1    3    3  502    0 -0.41851931333E+02 -0.11706514686E+03  0.72570745067E+03  0.73627925879E+03  0.10100000352E+00 0.  1.
       -3    1    3    3    0  502  0.41851931333E+02  0.11706514686E+03 -0.86893303767E+03  0.87778155992E+03  0.10100000352E+00 0. -1.
</event>
<event>
 5   0  0.7553070E-04  0.1592917E+04  0.7818609E-02  0.8824911E-01
        2   -1    0    0  501    0  0.00000000000E+00  0.00000000000E+00  0.13888283328E+04  0.13888283328E+04  0.25500000920E-02 0. -1.
       -2   -1    0    0    0  501  0.00000000000E+00  0.00000000000E+00 -0.45674911880E+03  0.45674911881E+03  0.25500000920E-02 0.  1.
    10030    2    1    2    0    0  0.00000000000E+00  0.00000000000E+00  0.93207921397E+03  0.18455774516E+04  0.15929169685E+04 0.  0.
        4    1    3    3  502    0 -0.21852637159E+03 -0.12665519138E+03  0.13411960292E+04  0.13647724038E+04  0.12699999809E+01 0. -1.
       -4    1    3    3    0  502  0.21852637159E+03  0.12665519138E+03 -0.40911681521E+03  0.48080504778E+03  0.12699999809E+01 0.  1.
</event>
<event>
 5   0  0.2781000E-04  0.1577657E+04  0.7818609E-02  0.8834393E-01
       -4   -1    0    0    0  501  0.00000000000E+00  0.00000000000E+00  0.64277137019E+03  0.64277262483E+03  0.12699999809E+01 0.  1.
        4   -1    0    0  501    0  0.00000000000E+00  0.00000000000E+00 -0.96807135489E+03  0.96807218794E+03  0.12699999809E+01 0. -1.
    10030    2    1    2    0    0  0.00000000000E+00  0.00000000000E+00 -0.32529998471E+03  0.16108448128E+04  0.15776567849E+04 0.  0.
        2    1    3    3  502    0  0.39693064131E+03 -0.11805748237E+03  0.52285914262E+03  0.66698814546E+03  0.25500000920E-02 0.  1.
       -2    1    3    3    0  502 -0.39693064131E+03  0.11805748237E+03 -0.84815912733E+03  0.94385666731E+03  0.25500000920E-02 0. -1.
</event>
<event>
 5   0  0.2781000E-04  0.1595993E+04  0.7818609E-02  0.8823014E-01
        3   -1    0    0  501    0  0.00000000000E+00  0.00000000000E+00  0.67616166781E+03  0.67616167535E+03  0.10100000352E+00 0. -1.
       -3   -1    0    0    0  501  0.00000000000E+00  0.00000000000E+00 -0.94178387369E+03  0.94178387911E+03  0.10100000352E+00 0.  1.
    10030    2    1    2    0    0  0.00000000000E+00  0.00000000000E+00 -0.26562220588E+03  0.16179455545E+04  0.15959926882E+04 0.  0.
        5    1    3    3  502    0 -0.38781009490E+03  0.17673619788E+02  0.57396376145E+03  0.69293976362E+03  0.46999998093E+01 0. -1.
       -5    1    3    3    0  502  0.38781009490E+03 -0.17673619788E+02 -0.83958596733E+03  0.92500579084E+03  0.46999998093E+01 0.  1.
</event>
<event>
 5   0  0.7395088E-04  0.1625250E+04  0.7818609E-02  0.8805184E-01
        2   -1    0    0  501    0  0.00000000000E+00  0.00000000000E+00  0.11642737927E+04  0.11642737927E+04  0.25500000920E-02 0.  1.
       -2   -1    0    0    0  501  0.00000000000E+00  0.00000000000E+00 -0.56718596377E+03  0.56718596377E+03  0.25500000920E-02 0. -1.
    10030    2    1    2    0    0  0.00000000000E+00  0.00000000000E+00  0.59708782894E+03  0.17314597565E+04  0.16252504462E+04 0.  0.
        1    1    3    3  502    0 -0.30872933616E+03  0.15062087402E+03 -0.48603323395E+03  0.59517119825E+03  0.50400001928E-02 0. -1.
       -1    1    3    3    0  502  0.30872933616E+03 -0.15062087402E+03  0.10831210629E+04  0.11362885582E+04  0.50400001928E-02 0.  1.
</event>
<event>
 5   0  0.7415102E-04  0.1591629E+04  0.7818609E-02  0.8825707E-01
        2   -1    0    0  501    0  0.00000000000E+00  0.00000000000E+00  0.17251674726E+04  0.17251674726E+04  0.25500000920E-02 0.  1.
       -2   -1    0    0    0  501  0.00000000000E+00  0.00000000000E+00 -0.36710696965E+03  0.36710696966E+03  0.25500000920E-02 0. -1.
    10030    2    1    2    0    0  0.00000000000E+00  0.00000000000E+00  0.13580605030E+04  0.20922744423E+04  0.15916293576E+04 0.  0.
        5    1    3    3  502    0  0.17704947282E+03  0.76776921129E+03  0.82590033128E+03  0.11414681445E+04  0.46999998093E+01 0.  1.
       -5    1    3    3    0  502 -0.17704947282E+03 -0.76776921129E+03  0.53216017170E+03  0.95080629782E+03  0.46999998093E+01 0. -1.
</event>
<event>
 5   0  0.7553070E-04  0.1578054E+04  0.7818609E-02  0.8834145E-01
        2   -1    0    0  501    0  0.00000000000E+00  0.00000000000E+00  0.67144096409E+03  0.67144096410E+03  0.25500000920E-02 0. -1.
       -2   -1    0    0    0  501  0.00000000000E+00  0.00000000000E+00 -0.92720519831E+03  0.92720519832E+03  0.25500000920E-02 0.  1.
    10030    2    1    2    0    0  0.00000000000E+00  0.00000000000E+00 -0.25576423422E+03  0.15986461624E+04  0.15780539310E+04 0.  0.
        4    1    3    3  502    0  0.36509094905E+03 -0.13383175031E+03 -0.82339741505E+03  0.91059719661E+03  0.12699999809E+01 0.  1.
       -4    1    3    3    0  502 -0.36509094905E+03  0.13383175031E+03  0.56763318083E+03  0.68804896580E+03  0.12699999809E+01 0. -1.
</event>
<event>
 5   0  0.3973227E-04  0.1586759E+04  0.7818609E-02  0.8828724E-01
        1   -1    0    0  501    0  0.00000000000E+00  0.00000000000E+00  0.15991397600E+04  0.15991397600E+04  0.50400001928E-02 0. -1.
       -1   -1    0    0    0  501  0.00000000000E+00  0.00000000000E+00 -0.39361865449E+03  0.39361865453E+03  0.50400001928E-02 0.  1.
    10030    2    1    2    0    0  0.00000000000E+00  0.00000000000E+00  0.12055211055E+04  0.19927584145E+04  0.15867592643E+04 0.  0.
        3    1    3    3  502    0 -0.18613877700E+03 -0.60959338328E+03  0.94388817885E+01  0.63744869593E+03  0.10100000352E+00 0.  1.
       -3    1    3    3    0  502  0.18613877700E+03  0.60959338328E+03  0.11960822237E+04  0.13553097186E+04  0.10100000352E+00 0. -1.
</event>
<event>
 5   0  0.3973227E-04  0.1596714E+04  0.7818609E-02  0.8822569E-01
       -1   -1    0    0    0  501  0.00000000000E+00  0.00000000000E+00  0.76679966142E+03  0.76679966144E+03  0.50400001928E-02 0. -1.
        1   -1    0    0  501    0  0.00000000000E+00  0.00000000000E+00 -0.83121279660E+03  0.83121279661E+03  0.50400001928E-02 0.  1.
    10030    2    1    2    0    0  0.00000000000E+00  0.00000000000E+00 -0.64413135175E+02  0.15980124580E+04  0.15967137389E+04 0.  0.
        3    1    3    3  502    0 -0.18862751723E+03 -0.73028725171E+03 -0.29409453036E+03  0.80956248261E+03  0.10100000352E+00 0.  1.
       -3    1    3    3    0  502  0.18862751723E+03  0.73028725171E+03  0.22968139518E+03  0.78844997543E+03  0.10100000352E+00 0. -1.
</event>
<event>
 5   0  0.7488884E-04  0.1610064E+04  0.7818609E-02  0.8814389E-01
        2   -1    0    0  501    0  0.00000000000E+00  0.00000000000E+00  0.13532978842E+04  0.13532978842E+04  0.25500000920E-02 0. -1.
       -2   -1    0    0    0  501  0.00000000000E+00  0.00000000000E+00 -0.47888668992E+03  0.47888668992E+03  0.25500000920E-02 0.  1.
    10030    2    1    2    0    0  0.00000000000E+00  0.00000000000E+00  0.87441119431E+03  0.18321845742E+04  0.16100637804E+04 0.  0.
        3    1    3    3  502    0  0.39602261325E+03  0.52252920567E+03  0.96877397904E+03  0.11697836183E+04  0.10100000352E+00 0. -1.
       -3    1    3    3    0  502 -0.39602261325E+03 -0.52252920567E+03 -0.94362784725E+02  0.66240095586E+03  0.10100000352E+00 0.  1.
</event>
<event>
 5   0  0.7553070E-04  0.1597686E+04  0.7818609E-02  0.8821971E-01
        2   -1    0    0  501    0  0.00000000000E+00  0.00000000000E+00  0.12483441475E+04  0.12483441475E+04  0.25500000920E-02 0. -1.
       -2   -1    0    0    0  501  0.00000000000E+00  0.00000000000E+00 -0.51119717732E+03  0.51119717733E+03  0.25500000920E-02 0.  1.
    10030    2    1    2    0    0  0.00000000000E+00  0.00000000000E+00  0.73714697018E+03  0.17595413248E+04  0.15976858321E+04 0.  0.
        4    1    3    3  502    0 -0.58190623615E+03  0.43813996919E+03  0.73737724280E+01  0.72844868432E+03  0.12699999809E+01 0.  1.
       -4    1    3    3    0  502  0.58190623615E+03 -0.43813996919E+03  0.72977319775E+03  0.10310926405E+04  0.12699999809E+01 0. -1.
</event>
<event>
 5   0  0.3950195E-04  0.1597784E+04  0.7818609E-02  0.8821910E-01
       -1   -1    0    0    0  501  0.00000000000E+00  0.00000000000E+00  0.33329715868E+03  0.33329715872E+03  0.50400001928E-02 0.  1.
        1   -1    0    0  501    0  0.00000000000E+00  0.00000000000E+00 -0.19148941108E+04  0.19148941108E+04  0.50400001928E-02 0. -1.
    10030    2    1    2    0    0  0.00000000000E+00  0.00000000000E+00 -0.15815969521E+04  0.22481912695E+04  0.15977844240E+04 0.  0.
        2    1    3    3  502    0  0.77787713929E+03  0.12462441151E+03 -0.97749194443E+03  0.12554340242E+04  0.25500000920E-02 0. -1.
       -2    1    3    3    0  502 -0.77787713929E+03 -0.12462441151E+03 -0.60410500770E+03  0.99275724530E+03  0.25500000920E-02 0.  1.
</event>
<event>
 5   0  0.3889847E-04  0.1589541E+04  0.7818609E-02  0.8826999E-01
        1   -1    0    0  501    0  0.00000000000E+00  0.00000000000E+00  0.19647691435E+04  0.19647691435E+04  0.50400001928E-02 0. -1.
       -1   -1    0    0    0  501  0.00000000000E+00  0.00000000000E+00 -0.32149348625E+03  0.32149348629E+03  0.50400001928E-02 0.  1.
    10030    2    1    2    0    0  0.00000000000E+00  0.00000000000E+00  0.16432756573E+04  0.22862626298E+04  0.15895414203E+04 0.  0.
        1    1    3    3  502    0 -0.38749774388E+02  0.23380845607E+03 -0.26948619654E+03  0.35887428063E+03  0.50400001928E-02 0.  1.
       -1    1    3    3    0  502  0.38749774388E+02 -0.23380845607E+03  0.19127618538E+04  0.19273883492E+04  0.50400001928E-02 0. -1.
</event>
<event>
 5   0  0.3950195E-04  0.1502212E+04  0.7818609E-02  0.8882984E-01
        1   -1    0    0  501    0  0.00000000000E+00  0.00000000000E+00  0.16780613005E+04  0.16780613005E+04  0.50400001928E-02 0.  1.
       -1   -1    0    0    0  501  0.00000000000E+00  0.00000000000E+00 -0.33619746876E+03  0.33619746879E+03  0.50400001928E-02 0. -1.
    10030    2    1    2    0    0  0.00000000000E+00  0.00000000000E+00  0.13418638317E+04  0.20142587693E+04  0.15022116518E+04 0.  0.
        2    1    3    3  502    0  0.21783558559E+03 -0.69487394917E+03  0.91765716423E+03  0.11714934138E+04  0.25500000920E-02 0.  1.
       -2    1    3    3    0  502 -0.21783558559E+03  0.69487394917E+03  0.42420666748E+03  0.84276535543E+03  0.25500000920E-02 0. -1.
</event>
<event>
 5   0  0.7553070E-04  0.1436715E+04  0.7818609E-02  0.8927663E-01
       -2   -1    0    0    0  501  0.00000000000E+00  0.00000000000E+00  0.21173067229E+03  0.21173067231E+03  0.25500000920E-02 0.  1.
        2   -1    0    0  501    0  0.00000000000E+00  0.00000000000E+00 -0.24372364368E+04  0.24372364368E+04  0.25500000920E-02 0. -1.
    10030    2    1    2    0    0  0.00000000000E+00  0.00000000000E+00 -0.22255057645E+04  0.26489671091E+04  0.14367152944E+04 0.  0.
        4    1    3    3  502    0 -0.66764799963E+03 -0.10300723758E+03 -0.66236131266E+03  0.94609114984E+03  0.12699999809E+01 0.  1.
       -4    1    3    3    0  502  0.66764799963E+03  0.10300723758E+03 -0.15631444518E+04  0.17028759592E+04  0.12699999809E+01 0. -1.
</event>
<event>
 5   0  0.7553070E-04  0.1638644E+04  0.7818609E-02  0.8797153E-01
        2   -1    0    0  501    0  0.00000000000E+00  0.00000000000E+00  0.15276732304E+04  0.15276732304E+04  0.25500000920E-02 0.  1.
       -2   -1    0    0    0  501  0.00000000000E+00  0.00000000000E+00 -0.43941898224E+03  0.43941898225E+03  0.25500000920E-02 0. -1.
    10030    2    1    2    0    0  0.00000000000E+00  0.00000000000E+00  0.10882542482E+04  0.19670922127E+04  0.16386440933E+04 0.  0.
        4    1    3    3  502    0 -0.15062283159E+03  0.36858691159E+03  0.14037147296E+04  0.14590956801E+04  0.12699999809E+01 0.  1.
       -4    1    3    3    0  502  0.15062283159E+03 -0.36858691159E+03 -0.31546048145E+03  0.50799653251E+03  0.12699999809E+01 0. -1.
</event>
<event>
 5   0  0.7415102E-04  0.1623642E+04  0.7818609E-02  0.8806154E-01
        2   -1    0    0  501    0  0.00000000000E+00  0.00000000000E+00  0.92823019914E+03  0.92823019914E+03  0.25500000920E-02 0. -1.
       -2   -1    0    0    0  501  0.00000000000E+00  0.00000000000E+00 -0.71001035799E+03  0.71001035800E+03  0.25500000920E-02 0.  1.
    10030    2    1    2    0    0  0.00000000000E+00  0.00000000000E+00  0.21821984114E+03  0.16382405571E+04  0.16236416550E+04 0.  0.
        5    1    3    3  502    0 -0.80147533845E+03  0.44178812790E+02 -0.13292347770E+02  0.80281583327E+03  0.46999998093E+01 0.  1.
       -5    1    3    3    0  502  0.80147533845E+03 -0.44178812790E+02  0.23151218891E+03  0.83542472387E+03  0.46999998093E+01 0. -1.
</event>
<event>
 5   0  0.3973227E-04  0.1582054E+04  0.7818609E-02  0.8831650E-01
       -1   -1    0    0    0  501  0.00000000000E+00  0.00000000000E+00  0.84708849427E+03  0.84708849429E+03  0.50400001928E-02 0. -1.
        1   -1    0    0  501    0  0.00000000000E+00  0.00000000000E+00 -0.73867551237E+03  0.73867551238E+03  0.50400001928E-02 0.  1.
    10030    2    1    2    0    0  0.00000000000E+00  0.00000000000E+00  0.10841298191E+03  0.15857640067E+04  0.15820537634E+04 0.  0.
        3    1    3    3  502    0 -0.14909154643E+03 -0.38055133485E+03  0.73305095926E+03  0.83929215816E+03  0.10100000352E+00 0. -1.
       -3    1    3    3    0  502  0.14909154643E+03  0.38055133485E+03 -0.62463797735E+03  0.74647184851E+03  0.10100000352E+00 0.  1.
</event>
<event>
 5   0  0.3950195E-04  0.1599202E+04  0.7818609E-02  0.8821038E-01
       -1   -1    0    0    0  501  0.00000000000E+00  0.00000000000E+00  0.53423354006E+03  0.53423354008E+03  0.50400001928E-02 0. -1.
        1   -1    0    0  501    0  0.00000000000E+00  0.00000000000E+00 -0.11967836271E+04  0.11967836271E+04  0.50400001928E-02 0.  1.
    10030    2    1    2    0    0  0.00000000000E+00  0.00000000000E+00 -0.66255008708E+03  0.17310171672E+04  0.15992022434E+04 0.  0.
        2    1    3    3  502    0 -0.70329495632E+02 -0.73125136449E+03  0.10482092496E+02  0.73470039492E+03  0.25500000920E-02 0.  1.
       -2    1    3    3    0  502  0.70329495632E+02  0.73125136449E+03 -0.67303217957E+03  0.99631677230E+03  0.25500000920E-02 0. -1.
</event>
<event>
 5   0  0.7395088E-04  0.1645301E+04  0.7818609E-02  0.8793191E-01
       -2   -1    0    0    0  501  0.00000000000E+00  0.00000000000E+00  0.73854560012E+03  0.73854560012E+03  0.25500000920E-02 0.  1.
        2   -1    0    0  501    0  0.00000000000E+00  0.00000000000E+00 -0.91633281439E+03  0.91633281440E+03  0.25500000920E-02 0. -1.
    10030    2    1    2    0    0  0.00000000000E+00  0.00000000000E+00 -0.17778721428E+03  0.16548784145E+04  0.16453006635E+04 0.  0.
        1    1    3    3  502    0  0.49397353046E+03 -0.58201053980E+03 -0.39728479306E+03  0.86057034812E+03  0.50400001928E-02 0.  1.
       -1    1    3    3    0  502 -0.49397353046E+03  0.58201053980E+03  0.21949757878E+03  0.79430806640E+03  0.50400001928E-02 0. -1.
</event>
<event>
 5   0  0.3837251E-04  0.1559434E+04  0.7818609E-02  0.8845864E-01
       -1   -1    0    0    0  501  0.00000000000E+00  0.00000000000E+00  0.42834448112E+03  0.42834448114E+03  0.50400001928E-02 0. -1.
        1   -1    0    0  501    0  0.00000000000E+00  0.00000000000E+00 -0.14193224143E+04  0.14193224143E+04  0.50400001928E-02 0.  1.
    10030    2    1    2    0    0  0.00000000000E+00  0.00000000000E+00 -0.99097793317E+03  0.18476668954E+04  0.15594344143E+04 0.  0.
        4    1    3    3  502    0  0.39436975325E+03 -0.12445735068E+03  0.28770178967E+03  0.50377680286E+03  0.12699999809E+01 0. -1.
       -4    1    3    3    0  502 -0.39436975325E+03  0.12445735068E+03 -0.12786797228E+04  0.13438900926E+04  0.12699999809E+01 0.  1.
</event>
<event>
 5   0  0.7395088E-04  0.1613439E+04  0.7818609E-02  0.8812334E-01
        2   -1    0    0  501    0  0.00000000000E+00  0.00000000000E+00  0.14806795603E+04  0.14806795603E+04  0.25500000920E-02 0. -1.
       -2   -1    0    0    0  501  0.00000000000E+00  0.00000000000E+00 -0.43952565994E+03  0.43952565995E+03  0.25500000920E-02 0.  1.
    10030    2    1    2    0    0  0.00000000000E+00  0.00000000000E+00  0.10411539003E+04  0.19202052202E+04  0.16134393833E+04 0.  0.
        1    1    3    3  502    0  0.40131589683E+03 -0.57189862599E+03  0.10005913841E+04  0.12203710933E+04  0.50400001928E-02 0. -1.
       -1    1    3    3    0  502 -0.40131589683E+03  0.57189862599E+03  0.40562516260E+02  0.69983412693E+03  0.50400001928E-02 0.  1.
</event>
<event>
 5   0  0.2781000E-04  0.1623446E+04  0.7818609E-02  0.8806272E-01
        3   -1    0    0  501    0  0.00000000000E+00  0.00000000000E+00  0.64816337629E+03  0.64816338416E+03  0.10100000352E+00 0.  1.
       -3   -1    0    0    0  501  0.00000000000E+00  0.00000000000E+00 -0.10165563921E+04  0.10165563971E+04  0.10100000352E+00 0. -1.
    10030    2    1    2    0    0  0.00000000000E+00  0.00000000000E+00 -0.36839301582E+03  0.16647197813E+04  0.16234464993E+04 0.  0.
        3    1    3    3  502    0 -0.87326615529E+02 -0.78668495384E+03  0.36677137678E+00  0.79151708705E+03  0.10100000352E+00 0. -1.
       -3    1    3    3    0  502  0.87326615529E+02  0.78668495384E+03 -0.36875978720E+03  0.87320269424E+03  0.10100000352E+00 0.  1.
</event>
<event>
 5   0  0.7770905E-04  0.1603079E+04  0.7818609E-02  0.8818659E-01
       -2   -1    0    0    0  501  0.00000000000E+00  0.00000000000E+00  0.32145734654E+03  0.32145734655E+03  0.25500000920E-02 0. -1.
        2   -1    0    0  501    0  0.00000000000E+00  0.00000000000E+00 -0.19986033942E+04  0.19986033943E+04  0.25500000920E-02 0.  1.
    10030    2    1    2    0    0  0.00000000000E+00  0.00000000000E+00 -0.16771460477E+04  0.23200607408E+04  0.16030792169E+04 0.  0.
        2    1    3    3  502    0 -0.14152722605E+03  0.64169289544E+03 -0.17430765291E+03  0.67984033834E+03  0.25500000920E-02 0. -1.
       -2    1    3    3    0  502  0.14152722605E+03 -0.64169289544E+03 -0.15028383948E+04  0.16402204025E+04  0.25500000920E-02 0.  1.
</event>
<event>
 5   0  0.3837251E-04  0.1571870E+04  0.7818609E-02  0.8838018E-01
       -1   -1    0    0    0  501  0.00000000000E+00  0.00000000000E+00  0.53770679859E+03  0.53770679861E+03  0.50400001928E-02 0. -1.
        1   -1    0    0  501    0  0.00000000000E+00  0.00000000000E+00 -0.11487553649E+04  0.11487553649E+04  0.50400001928E-02 0.  1.
    10030    2    1    2    0    0  0.00000000000E+00  0.00000000000E+00 -0.61104856632E+03  0.16864621635E+04  0.15718696761E+04 0.  0.
        4    1    3    3  502    0  0.29603694157E+03 -0.69870681494E+03 -0.86004037508E+02  0.76369325739E+03  0.12699999809E+01 0. -1.
       -4    1    3    3    0  502 -0.29603694157E+03  0.69870681494E+03 -0.52504452881E+03  0.92276890615E+03  0.12699999809E+01 0.  1.
</event>
<event>
 5   0  0.7553070E-04  0.1556847E+04  0.7818609E-02  0.8847506E-01
       -2   -1    0    0    0  501  0.00000000000E+00  0.00000000000E+00  0.48841310855E+03  0.48841310856E+03  0.25500000920E-02 0.  1.
        2   -1    0    0  501    0  0.00000000000E+00  0.00000000000E+00 -0.12406370061E+04  0.12406370061E+04  0.25500000920E-02 0. -1.
    10030    2    1    2    0    0  0.00000000000E+00  0.00000000000E+00 -0.75222389752E+03  0.17290501146E+04  0.15568472972E+04 0.  0.
        4    1    3    3  502    0  0.32633388353E+02  0.32266359930E+03 -0.11620323444E+04  0.12064400187E+04  0.12699999809E+01 0. -1.
       -4    1    3    3    0  502 -0.32633388353E+02 -0.32266359930E+03  0.40980844688E+03  0.52261009595E+03  0.12699999809E+01 0.  1.
</event>
<event>
 5   0  0.3973227E-04  0.1618993E+04  0.7818609E-02  0.8808964E-01
       -1   -1    0    0    0  501  0.00000000000E+00  0.00000000000E+00  0.40695579543E+03  0.40695579546E+03  0.50400001928E-02 0.  1.
        1   -1    0    0  501    0  0.00000000000E+00  0.00000000000E+00 -0.16102112672E+04  0.16102112672E+04  0.50400001928E-02 0. -1.
    10030    2    1    2    0    0  0.00000000000E+00  0.00000000000E+00 -0.12032554717E+04  0.20171670626E+04  0.16189932762E+04 0.  0.
        3    1    3    3  502    0 -0.10234269378E+03  0.46497228257E+03  0.21406905972E+03  0.52201419814E+03  0.10100000352E+00 0.  1.
       -3    1    3    3    0  502  0.10234269378E+03 -0.46497228257E+03 -0.14173245315E+04  0.14951528645E+04  0.10100000352E+00 0. -1.
</event>
<event>
 5   0  0.7415102E-04  0.1614169E+04  0.7818609E-02  0.8811890E-01
       -2   -1    0    0    0  501  0.00000000000E+00  0.00000000000E+00  0.49240144623E+03  0.49240144624E+03  0.25500000920E-02 0. -1.
        2   -1    0    0  501    0  0.00000000000E+00  0.00000000000E+00 -0.13228745619E+04  0.13228745619E+04  0.25500000920E-02 0.  1.
    10030    2    1    2    0    0  0.00000000000E+00  0.00000000000E+00 -0.83047311563E+03  0.18152760081E+04  0.16141689471E+04 0.  0.
        5    1    3    3  502    0 -0.46562094525E+03  0.59790778839E+03 -0.10304081639E+03  0.76481114526E+03  0.46999998093E+01 0. -1.
       -5    1    3    3    0  502  0.46562094525E+03 -0.59790778839E+03 -0.72743229925E+03  0.10504648628E+04  0.46999998093E+01 0.  1.
</event>
<event>
 5   0  0.7415102E-04  0.1603340E+04  0.7818609E-02  0.8818499E-01
       -2   -1    0    0    0  501  0.00000000000E+00  0.00000000000E+00  0.33719054409E+03  0.33719054410E+03  0.25500000920E-02 0.  1.
        2   -1    0    0  501    0  0.00000000000E+00  0.00000000000E+00 -0.19059685023E+04  0.19059685023E+04  0.25500000920E-02 0. -1.
    10030    2    1    2    0    0  0.00000000000E+00  0.00000000000E+00 -0.15687779582E+04  0.22431590464E+04  0.16033397099E+04 0.  0.
        5    1    3    3  502    0  0.32968374051E+03 -0.53987557823E+01 -0.18066868908E+04  0.18365348150E+04  0.46999998093E+01 0. -1.
       -5    1    3    3    0  502 -0.32968374051E+03  0.53987557823E+01  0.23790893262E+03  0.40662423137E+03  0.46999998093E+01 0.  1.
</event>
<event>
 5   0  0.7395088E-04  0.1540877E+04  0.7818609E-02  0.8857716E-01
        2   -1    0    0  501    0  0.00000000000E+00  0.00000000000E+00  0.16056409514E+04  0.16056409515E+04  0.25500000920E-02 0.  1.
       -2   -1    0    0    0  501  0.00000000000E+00  0.00000000000E+00 -0.36968144068E+03  0.36968144069E+03  0.25500000920E-02 0. -1.
    10030    2    1    2    0    0  0.00000000000E+00  0.00000000000E+00  0.12359595108E+04  0.19753223921E+04  0.15408772309E+04 0.  0.
        1    1    3    3  502    0 -0.42680165676E+03  0.91485432698E+02  0.14318355949E+04  0.14968909143E+04  0.50400001928E-02 0.  1.
       -1    1    3    3    0  502  0.42680165676E+03 -0.91485432698E+02 -0.19587608412E+03  0.47843147781E+03  0.50400001928E-02 0. -1.
</event>
<event>
 5   0  0.3950195E-04  0.1602332E+04  0.7818609E-02  0.8819117E-01
       -1   -1    0    0    0  501  0.00000000000E+00  0.00000000000E+00  0.13402152774E+04  0.13402152775E+04  0.50400001928E-02 0.  1.
        1   -1    0    0  501    0  0.00000000000E+00  0.00000000000E+00 -0.47892821159E+03  0.47892821161E+03  0.50400001928E-02 0. -1.
    10030    2    1    2    0    0  0.00000000000E+00  0.00000000000E+00  0.86128706586E+03  0.18191434891E+04  0.16023319332E+04 0.  0.
        2    1    3    3  502    0  0.71321907023E+03  0.22053664867E+03  0.10052581386E+03  0.75327504592E+03  0.25500000920E-02 0. -1.
       -2    1    3    3    0  502 -0.71321907023E+03 -0.22053664867E+03  0.76076125201E+03  0.10658684432E+04  0.25500000920E-02 0.  1.
</event>
<event>
 5   0  0.3973227E-04  0.1613595E+04  0.7818609E-02  0.8812239E-01
        1   -1    0    0  501    0  0.00000000000E+00  0.00000000000E+00  0.13083817289E+04  0.13083817289E+04  0.50400001928E-02 0.  1.
       -1   -1    0    0    0  501  0.00000000000E+00  0.00000000000E+00 -0.49750164479E+03  0.49750164482E+03  0.50400001928E-02 0. -1.
    10030    2    1    2    0    0  0.00000000000E+00  0.00000000000E+00  0.81088008415E+03  0.18058833738E+04  0.16135948217E+04 0.  0.
        3    1    3    3  502    0 -0.42433907858E+03  0.61450667249E+03  0.74718035996E+03  0.10563903657E+04  0.10100000352E+00 0.  1.
       -3    1    3    3    0  502  0.42433907858E+03 -0.61450667249E+03  0.63699724181E+02  0.74949300811E+03  0.10100000352E+00 0. -1.
</event>
<event>
 5   0  0.3889847E-04  0.1601678E+04  0.7818609E-02  0.8819518E-01
       -1   -1    0    0    0  501  0.00000000000E+00  0.00000000000E+00  0.12786696963E+04  0.12786696963E+04  0.50400001928E-02 0. -1.
        1   -1    0    0  501    0  0.00000000000E+00  0.00000000000E+00 -0.50157074712E+03  0.50157074715E+03  0.50400001928E-02 0.  1.
    10030    2    1    2    0    0  0.00000000000E+00  0.00000000000E+00  0.77709894921E+03  0.17802404435E+04  0.16016782635E+04 0.  0.
        1    1    3    3  502    0  0.23444940975E+03  0.17400866838E+03 -0.44030628387E+03  0.52831351113E+03  0.50400001928E-02 0.  1.
       -1    1    3    3    0  502 -0.23444940975E+03 -0.17400866838E+03  0.12174052331E+04  0.12519269324E+04  0.50400001928E-02 0. -1.
</event>
<event>
 5   0  0.7553070E-04  0.1602601E+04  0.7818609E-02  0.8818952E-01
       -2   -1    0    0    0  501  0.00000000000E+00  0.00000000000E+00  0.43278392317E+03  0.43278392318E+03  0.25500000920E-02 0.  1.
        2   -1    0    0  501    0  0.00000000000E+00  0.00000000000E+00 -0.14836101517E+04  0.14836101517E+04  0.25500000920E-02 0. -1.
    10030    2    1    2    0    0  0.00000000000E+00  0.00000000000E+00 -0.10508262285E+04  0.19163940749E+04  0.16026011630E+04 0.  0.
        4    1    3    3  502    0  0.65815443593E+03 -0.43539567323E+03 -0.35909617076E+03  0.86699961162E+03  0.12699999809E+01 0.  1.
       -4    1    3    3    0  502 -0.65815443593E+03  0.43539567323E+03 -0.69173005777E+03  0.10493944633E+04  0.12699999809E+01 0. -1.
</event>
<event>
 5   0  0.4110803E-04  0.1616464E+04  0.7818609E-02  0.8810497E-01
       -1   -1    0    0    0  501  0.00000000000E+00  0.00000000000E+00  0.34486153324E+03  0.34486153328E+03  0.50400001928E-02 0. -1.
        1   -1    0    0  501    0  0.00000000000E+00  0.00000000000E+00 -0.18942059127E+04  0.18942059127E+04  0.50400001928E-02 0.  1.
    10030    2    1    2    0    0  0.00000000000E+00  0.00000000000E+00 -0.15493443795E+04  0.22390674460E+04  0.16164637396E+04 0.  0.
        5    1    3    3  502    0 -0.13387748454E+03  0.36210816394E+03 -0.17582080729E+04  0.18001008918E+04  0.46999998093E+01 0.  1.
       -5    1    3    3    0  502  0.13387748454E+03 -0.36210816394E+03  0.20886369340E+03  0.43896655417E+03  0.46999998093E+01 0. -1.
</event>
<event>
 5   0  0.3837251E-04  0.1601598E+04  0.7818609E-02  0.8819567E-01
        1   -1    0    0  501    0  0.00000000000E+00  0.00000000000E+00  0.95273673495E+03  0.95273673496E+03  0.50400001928E-02 0.  1.
       -1   -1    0    0    0  501  0.00000000000E+00  0.00000000000E+00 -0.67309195952E+03  0.67309195954E+03  0.50400001928E-02 0. -1.
    10030    2    1    2    0    0  0.00000000000E+00  0.00000000000E+00  0.27964477543E+03  0.16258286945E+04  0.16015984963E+04 0.  0.
        4    1    3    3  502    0 -0.26899287615E+03 -0.54733253178E+03 -0.38701648524E+03  0.72229733525E+03  0.12699999809E+01 0. -1.
       -4    1    3    3    0  502  0.26899287615E+03  0.54733253178E+03  0.66666126067E+03  0.90353135925E+03  0.12699999809E+01 0.  1.
</event>
<event>
 5   0  0.3950195E-04  0.1623140E+04  0.7818609E-02  0.8806457E-01
        1   -1    0    0  501    0  0.00000000000E+00  0.00000000000E+00  0.10853275315E+04  0.10853275315E+04  0.50400001928E-02 0.  1.
       -1   -1    0    0    0  501  0.00000000000E+00  0.00000000000E+00 -0.60686332825E+03  0.60686332827E+03  0.50400001928E-02 0. -1.
    10030    2    1    2    0    0  0.00000000000E+00  0.00000000000E+00  0.47846420325E+03  0.16921908598E+04  0.16231395233E+04 0.  0.
        2    1    3    3  502    0  0.55408490160E+03 -0.53062531018E+03  0.51520491859E+03  0.92412629338E+03  0.25500000920E-02 0.  1.
       -2    1    3    3    0  502 -0.55408490160E+03  0.53062531018E+03 -0.36740715342E+02  0.76806456639E+03  0.25500000920E-02 0. -1.
</event>
<event>
 5   0  0.7488884E-04  0.1600386E+04  0.7818609E-02  0.8820311E-01
        2   -1    0    0  501    0  0.00000000000E+00  0.00000000000E+00  0.16986381811E+04  0.16986381811E+04  0.25500000920E-02 0. -1.
       -2   -1    0    0    0  501  0.00000000000E+00  0.00000000000E+00 -0.37695433248E+03  0.37695433248E+03  0.25500000920E-02 0.  1.
    10030    2    1    2    0    0  0.00000000000E+00  0.00000000000E+00  0.13216838486E+04  0.20755925135E+04  0.16003862305E+04 0.  0.
        3    1    3    3  502    0  0.37754126861E+03 -0.14200213483E+03  0.15571403408E+04  0.16085360012E+04  0.10100000352E+00 0. -1.
       -3    1    3    3    0  502 -0.37754126861E+03  0.14200213483E+03 -0.23545649226E+03  0.46705651237E+03  0.10100000352E+00 0.  1.
</event>
<event>
 5   0  0.7553070E-04  0.1230234E+04  0.7818609E-02  0.9086797E-01
        2   -1    0    0  501    0  0.00000000000E+00  0.00000000000E+00  0.80172994801E+03  0.80172994801E+03  0.25500000920E-02 0.  1.
       -2   -1    0    0    0  501  0.00000000000E+00  0.00000000000E+00 -0.47194082094E+03  0.47194082095E+03  0.25500000920E-02 0. -1.
    10030    2    1    2    0    0  0.00000000000E+00  0.00000000000E+00  0.32978912706E+03  0.12736707690E+04  0.12302342701E+04 0.  0.
        4    1    3    3  502    0 -0.43746591902E+03  0.15465974670E+03  0.58297348625E+03  0.74508775733E+03  0.12699999809E+01 0.  1.
       -4    1    3    3    0  502  0.43746591902E+03 -0.15465974670E+03 -0.25318435918E+03  0.52858301163E+03  0.12699999809E+01 0. -1.
</event>
<event>
 5   0  0.7395088E-04  0.1617155E+04  0.7818609E-02  0.8810078E-01
       -2   -1    0    0    0  501  0.00000000000E+00  0.00000000000E+00  0.52809005563E+03  0.52809005564E+03  0.25500000920E-02 0.  1.
        2   -1    0    0  501    0  0.00000000000E+00  0.00000000000E+00 -0.12380421711E+04  0.12380421711E+04  0.25500000920E-02 0. -1.
    10030    2    1    2    0    0  0.00000000000E+00  0.00000000000E+00 -0.70995211543E+03  0.17661322267E+04  0.16171552294E+04 0.  0.
        1    1    3    3  502    0 -0.54678491808E+03  0.25985730517E+03  0.23040404046E+03  0.64775426481E+03  0.50400001928E-02 0.  1.
       -1    1    3    3    0  502  0.54678491808E+03 -0.25985730517E+03 -0.94035615589E+03  0.11183779619E+04  0.50400001928E-02 0. -1.
</event>
<event>
 5   0  0.7488884E-04  0.1571639E+04  0.7818609E-02  0.8838163E-01
        2   -1    0    0  501    0  0.00000000000E+00  0.00000000000E+00  0.44804961536E+03  0.44804961536E+03  0.25500000920E-02 0. -1.
       -2   -1    0    0    0  501  0.00000000000E+00  0.00000000000E+00 -0.13782226881E+04  0.13782226881E+04  0.25500000920E-02 0.  1.
    10030    2    1    2    0    0  0.00000000000E+00  0.00000000000E+00 -0.93017307276E+03  0.18262723035E+04  0.15716388202E+04 0.  0.
        3    1    3    3  502    0  0.53485291640E+03 -0.53187549079E+03 -0.20903898933E+03  0.78272376299E+03  0.10100000352E+00 0. -1.
       -3    1    3    3    0  502 -0.53485291640E+03  0.53187549079E+03 -0.72113408343E+03  0.10435485405E+04  0.10100000352E+00 0.  1.
</event>
<event>
 5   0  0.4110803E-04  0.1559612E+04  0.7818609E-02  0.8845752E-01
        1   -1    0    0  501    0  0.00000000000E+00  0.00000000000E+00  0.18837614569E+04  0.18837614569E+04  0.50400001928E-02 0. -1.
       -1   -1    0    0    0  501  0.00000000000E+00  0.00000000000E+00 -0.32281007822E+03  0.32281007826E+03  0.50400001928E-02 0.  1.
    10030    2    1    2    0    0  0.00000000000E+00  0.00000000000E+00  0.15609513787E+04  0.22065715352E+04  0.15596117251E+04 0.  0.
        5    1    3    3  502    0 -0.16322154644E+03  0.43314468623E+02  0.18575603760E+04  0.18652265430E+04  0.46999998093E+01 0. -1.
       -5    1    3    3    0  502  0.16322154644E+03 -0.43314468623E+02 -0.29660899727E+03  0.34134499216E+03  0.46999998093E+01 0.  1.
</event>
<event>
 5   0  0.3837251E-04  0.1604144E+04  0.7818609E-02  0.8818006E-01
        1   -1    0    0  501    0  0.00000000000E+00  0.00000000000E+00  0.72545025655E+03  0.72545025657E+03  0.50400001928E-02 0. -1.
       -1   -1    0    0    0  501  0.00000000000E+00  0.00000000000E+00 -0.88678621451E+03  0.88678621453E+03  0.50400001928E-02 0.  1.
    10030    2    1    2    0    0  0.00000000000E+00  0.00000000000E+00 -0.16133595796E+03  0.16122364711E+04  0.16041437427E+04 0.  0.
        4    1    3    3  502    0  0.15311706728E+03  0.60637750255E+03 -0.58537582754E+03  0.85662417912E+03  0.12699999809E+01 0.  1.
       -4    1    3    3    0  502 -0.15311706728E+03 -0.60637750255E+03  0.42403986957E+03  0.75561229197E+03  0.12699999809E+01 0. -1.
</event>
<event>
 5   0  0.4110803E-04  0.1576713E+04  0.7818609E-02  0.8834983E-01
       -1   -1    0    0    0  501  0.00000000000E+00  0.00000000000E+00  0.30721484990E+03  0.30721484994E+03  0.50400001928E-02 0.  1.
        1   -1    0    0  501    0  0.00000000000E+00  0.00000000000E+00 -0.20230329796E+04  0.20230329796E+04  0.50400001928E-02 0. -1.
    10030    2    1    2    0    0  0.00000000000E+00  0.00000000000E+00 -0.17158181297E+04  0.23302478295E+04  0.15767127490E+04 0.  0.
        5    1    3    3  502    0 -0.54891435536E+03  0.30999520136E+03 -0.15575106410E+04  0.16802575639E+04  0.46999998093E+01 0. -1.
       -5    1    3    3    0  502  0.54891435536E+03 -0.30999520136E+03 -0.15830748871E+03  0.64999026560E+03  0.46999998093E+01 0.  1.
</event>
<event>
 5   0  0.3889847E-04  0.1607538E+04  0.7818609E-02  0.8815930E-01
       -1   -1    0    0    0  501  0.00000000000E+00  0.00000000000E+00  0.64024791800E+03  0.64024791802E+03  0.50400001928E-02 0. -1.
        1   -1    0    0  501    0  0.00000000000E+00  0.00000000000E+00 -0.10090544273E+04  0.10090544273E+04  0.50400001928E-02 0.  1.
    10030    2    1    2    0    0  0.00000000000E+00  0.00000000000E+00 -0.36880650926E+03  0.16493023453E+04  0.16075384863E+04 0.  0.
        1    1    3    3  502    0  0.77899796643E+03 -0.15450548507E+03 -0.57350555190E+02  0.79624045541E+03  0.50400001928E-02 0.  1.
       -1    1    3    3    0  502 -0.77899796643E+03  0.15450548507E+03 -0.31145595407E+03  0.85306188988E+03  0.50400001928E-02 0. -1.
</event>
<event>
 5   0  0.7553070E-04  0.1544472E+04  0.7818609E-02  0.8855406E-01
        2   -1    0    0  501    0  0.00000000000E+00  0.00000000000E+00  0.10252092416E+04  0.10252092416E+04  0.25500000920E-02 0.  1.
       -2   -1    0    0    0  501  0.00000000000E+00  0.00000000000E+00 -0.58168479813E+03  0.58168479813E+03  0.25500000920E-02 0. -1.
    10030    2    1    2    0    0  0.00000000000E+00  0.00000000000E+00  0.44352444346E+03  0.16068940397E+04  0.15444722474E+04 0.  0.
        4    1    3    3  502    0 -0.19052928171E+03  0.48362427198E+03 -0.37241765012E+03  0.63944535549E+03  0.12699999809E+01 0. -1.
       -4    1    3    3    0  502  0.19052928171E+03 -0.48362427198E+03  0.81594209358E+03  0.96744868423E+03  0.12699999809E+01 0.  1.
</event>
<event>
 5   0  0.7395088E-04  0.1605781E+04  0.7818609E-02  0.8817005E-01
        2   -1    0    0  501    0  0.00000000000E+00  0.00000000000E+00  0.91423234091E+03  0.91423234091E+03  0.25500000920E-02 0.  1.
       -2   -1    0    0    0  501  0.00000000000E+00  0.00000000000E+00 -0.70510847380E+03  0.70510847380E+03  0.25500000920E-02 0. -1.
    10030    2    1    2    0    0  0.00000000000E+00  0.00000000000E+00  0.20912386711E+03  0.16193408147E+04  0.16057807703E+04 0.  0.
        1    1    3    3  502    0  0.91379273354E+02  0.74796975385E+03  0.38407402393E+03  0.84576697746E+03  0.50400001928E-02 0.  1.
       -1    1    3    3    0  502 -0.91379273354E+02 -0.74796975385E+03 -0.17495015682E+03  0.77357383725E+03  0.50400001928E-02 0. -1.
</event>
<event>
 5   0  0.7770905E-04  0.1589095E+04  0.7818609E-02  0.8827276E-01
       -2   -1    0    0    0  501  0.00000000000E+00  0.00000000000E+00  0.54738692818E+03  0.54738692819E+03  0.25500000920E-02 0.  1.
        2   -1    0    0  501    0  0.00000000000E+00  0.00000000000E+00 -0.11533079906E+04  0.11533079906E+04  0.25500000920E-02 0. -1.
    10030    2    1    2    0    0  0.00000000000E+00  0.00000000000E+00 -0.60592106244E+03  0.17006949188E+04  0.15890949855E+04 0.  0.
        2    1    3    3  502    0  0.48140633201E+03  0.63196348127E+03 -0.31715145858E+03  0.85540338195E+03  0.25500000920E-02 0.  1.
       -2    1    3    3    0  502 -0.48140633201E+03 -0.63196348127E+03 -0.28876960385E+03  0.84529153686E+03  0.25500000920E-02 0. -1.
</event>
<event>
 5   0  0.3973227E-04  0.1590888E+04  0.7818609E-02  0.8826166E-01
       -1   -1    0    0    0  501  0.00000000000E+00  0.00000000000E+00  0.78191685635E+03  0.78191685637E+03  0.50400001928E-02 0.  1.
        1   -1    0    0  501    0  0.00000000000E+00  0.00000000000E+00 -0.80920480752E+03  0.80920480754E+03  0.50400001928E-02 0. -1.
    10030    2    1    2    0    0  0.00000000000E+00  0.00000000000E+00 -0.27287951168E+02  0.15911216639E+04  0.15908876507E+04 0.  0.
        3    1    3    3  502    0 -0.24446220379E+03  0.73031960913E+03 -0.21267668660E+03  0.79897426979E+03  0.10100000352E+00 0. -1.
       -3    1    3    3    0  502  0.24446220379E+03 -0.73031960913E+03  0.18538873543E+03  0.79214739411E+03  0.10100000352E+00 0.  1.
</event>
<event>
 5   0  0.7488884E-04  0.1592398E+04  0.7818609E-02  0.8825232E-01
       -2   -1    0    0    0  501  0.00000000000E+00  0.00000000000E+00  0.41327641483E+03  0.41327641484E+03  0.25500000920E-02 0.  1.
        2   -1    0    0  501    0  0.00000000000E+00  0.00000000000E+00 -0.15339193685E+04  0.15339193685E+04  0.25500000920E-02 0. -1.
    10030    2    1    2    0    0  0.00000000000E+00  0.00000000000E+00 -0.11206429536E+04  0.19471957833E+04  0.15923978112E+04 0.  0.
        3    1    3    3  502    0 -0.53328060563E+03 -0.19271974435E+03  0.12314316445E+03  0.58025283572E+03  0.10100000352E+00 0.  1.
       -3    1    3    3    0  502  0.53328060563E+03  0.19271974435E+03 -0.12437861181E+04  0.13669429476E+04  0.10100000352E+00 0. -1.
</event>
<event>
 5   0  0.7415102E-04  0.1592202E+04  0.7818609E-02  0.8825353E-01
        2   -1    0    0  501    0  0.00000000000E+00  0.00000000000E+00  0.20865285838E+04  0.20865285838E+04  0.25500000920E-02 0.  1.
       -2   -1    0    0    0  501  0.00000000000E+00  0.00000000000E+00 -0.30374709999E+03  0.30374710000E+03  0.25500000920E-02 0. -1.
    10030    2    1    2    0    0  0.00000000000E+00  0.00000000000E+00  0.17827814839E+04  0.23902756838E+04  0.15922022565E+04 0.  0.
        5    1    3    3  502    0 -0.10162641206E+03 -0.62745988228E+03  0.17185861855E+03  0.65847650396E+03  0.46999998093E+01 0. -1.
       -5    1    3    3    0  502  0.10162641206E+03  0.62745988228E+03  0.16109228653E+04  0.17317991799E+04  0.46999998093E+01 0.  1.
</event>
<event>
 5   0  0.7395088E-04  0.1593962E+04  0.7818609E-02  0.8824266E-01
       -2   -1    0    0    0  501  0.00000000000E+00  0.00000000000E+00  0.11115714488E+04  0.11115714488E+04  0.25500000920E-02 0. -1.
        2   -1    0    0  501    0  0.00000000000E+00  0.00000000000E+00 -0.57142385240E+03  0.57142385241E+03  0.25500000920E-02 0.  1.
    10030    2    1    2    0    0  0.00000000000E+00  0.00000000000E+00  0.54014759639E+03  0.16829953012E+04  0.15939616551E+04 0.  0.
        1    1    3    3  502    0 -0.10989268987E+03 -0.53094295211E+03  0.88682580978E+03  0.10394406374E+04  0.50400001928E-02 0. -1.
       -1    1    3    3    0  502  0.10989268987E+03  0.53094295211E+03 -0.34667821339E+03  0.64355466384E+03  0.50400001928E-02 0.  1.
</event>
<event>
 5   0  0.3973227E-04  0.1587928E+04  0.7818609E-02  0.8827999E-01
       -1   -1    0    0    0  501  0.00000000000E+00  0.00000000000E+00  0.96773695706E+03  0.96773695708E+03  0.50400001928E-02 0. -1.
        1   -1    0    0  501    0  0.00000000000E+00  0.00000000000E+00 -0.65139446696E+03  0.65139446698E+03  0.50400001928E-02 0.  1.
    10030    2    1    2    0    0  0.00000000000E+00  0.00000000000E+00  0.31634249010E+03  0.16191314241E+04  0.15879275794E+04 0.  0.
        3    1    3    3  502    0 -0.22414798098E+03 -0.37274302518E+03  0.83545175113E+03  0.94189135194E+03  0.10100000352E+00 0. -1.
       -3    1    3    3    0  502  0.22414798098E+03  0.37274302518E+03 -0.51910926103E+03  0.67724007212E+03  0.10100000352E+00 0.  1.
</event>
<event>
 5   0  0.3837251E-04  0.1616970E+04  0.7818609E-02  0.8810190E-01
       -1   -1    0    0    0  501  0.00000000000E+00  0.00000000000E+00  0.98883470002E+03  0.98883470003E+03  0.50400001928E-02 0. -1.
        1   -1    0    0  501    0  0.00000000000E+00  0.00000000000E+00 -0.66102875493E+03  0.66102875495E+03  0.50400001928E-02 0.  1.
    10030    2    1    2    0    0  0.00000000000E+00  0.00000000000E+00  0.32780594508E+03  0.16498634550E+04  0.16169702169E+04 0.  0.
        4    1    3    3  502    0  0.53800608300E+03 -0.52879578256E+03  0.46062979039E+03  0.88388740328E+03  0.12699999809E+01 0. -1.
       -4    1    3    3    0  502 -0.53800608300E+03  0.52879578256E+03 -0.13282384531E+03  0.76597605170E+03  0.12699999809E+01 0.  1.
</event>
<event>
 5   0  0.3973227E-04  0.1635532E+04  0.7818609E-02  0.8799012E-01
        1   -1    0    0  501    0  0.00000000000E+00  0.00000000000E+00  0.70763988709E+03  0.70763988711E+03  0.50400001928E-02 0. -1.
       -1   -1    0    0    0  501  0.00000000000E+00  0.00000000000E+00 -0.94503005995E+03  0.94503005996E+03  0.50400001928E-02 0.  1.
    10030    2    1    2    0    0  0.00000000000E+00  0.00000000000E+00 -0.23739017286E+03  0.16526699471E+04  0.16355316750E+04 0.  0.
        3    1    3    3  502    0  0.60979170922E+03  0.55124282850E+02 -0.66646062051E+03  0.90501623416E+03  0.10100000352E+00 0.  1.
       -3    1    3    3    0  502 -0.60979170922E+03 -0.55124282850E+02  0.42907044765E+03  0.74765371292E+03  0.10100000352E+00 0. -1.
</event>
<event>
 5   0  0.7395088E-04  0.1602485E+04  0.7818609E-02  0.8819023E-01
       -2   -1    0    0    0  501  0.00000000000E+00  0.00000000000E+00  0.77642168170E+03  0.77642168170E+03  0.25500000920E-02 0.  1.
        2   -1    0    0  501    0  0.00000000000E+00  0.00000000000E+00 -0.82685659451E+03  0.82685659451E+03  0.25500000920E-02 0. -1.
    10030    2    1    2    0    0  0.00000000000E+00  0.00000000000E+00 -0.50434912807E+02  0.16032782762E+04  0.16024848051E+04 0.  0.
        1    1    3    3  502    0 -0.49096793622E+03  0.63319704814E+03 -0.24045789154E+02  0.80160228054E+03  0.50400001928E-02 0. -1.
       -1    1    3    3    0  502  0.49096793622E+03 -0.63319704814E+03 -0.26389123653E+02  0.80167599567E+03  0.50400001928E-02 0.  1.
</event>
<event>
 5   0  0.7415102E-04  0.1352158E+04  0.7818609E-02  0.8989196E-01
       -2   -1    0    0    0  501  0.00000000000E+00  0.00000000000E+00  0.24968072916E+03  0.24968072918E+03  0.25500000920E-02 0.  1.
        2   -1    0    0  501    0  0.00000000000E+00  0.00000000000E+00 -0.18306688051E+04  0.18306688051E+04  0.25500000920E-02 0. -1.
    10030    2    1    2    0    0  0.00000000000E+00  0.00000000000E+00 -0.15809880760E+04  0.20803495343E+04  0.13521578638E+04 0.  0.
        5    1    3    3  502    0 -0.58968901314E+03  0.50288543463E+02 -0.28769826841E+03  0.65806873005E+03  0.46999998093E+01 0.  1.
       -5    1    3    3    0  502  0.58968901314E+03 -0.50288543463E+02 -0.12932898076E+04  0.14222808043E+04  0.46999998093E+01 0. -1.
</event>
<event>
 5   0  0.7770905E-04  0.1616119E+04  0.7818609E-02  0.8810706E-01
        2   -1    0    0  501    0  0.00000000000E+00  0.00000000000E+00  0.18578280214E+04  0.18578280214E+04  0.25500000920E-02 0.  1.
       -2   -1    0    0    0  501  0.00000000000E+00  0.00000000000E+00 -0.35146413672E+03  0.35146413673E+03  0.25500000920E-02 0. -1.
    10030    2    1    2    0    0  0.00000000000E+00  0.00000000000E+00  0.15063638847E+04  0.22092921581E+04  0.16161187107E+04 0.  0.
        2    1    3    3  502    0 -0.21801361930E+03  0.58740051395E+02  0.18138287180E+04  0.18278279323E+04  0.25500000920E-02 0.  1.
       -2    1    3    3    0  502  0.21801361930E+03 -0.58740051395E+02 -0.30746483334E+03  0.38146422583E+03  0.25500000920E-02 0. -1.
</event>
<event>
 5   0  0.7488884E-04  0.1582652E+04  0.7818609E-02  0.8831277E-01
        2   -1    0    0  501    0  0.00000000000E+00  0.00000000000E+00  0.14015005788E+04  0.14015005788E+04  0.25500000920E-02 0. -1.
       -2   -1    0    0    0  501  0.00000000000E+00  0.00000000000E+00 -0.44680468481E+03  0.44680468482E+03  0.25500000920E-02 0.  1.
    10030    2    1    2    0    0  0.00000000000E+00  0.00000000000E+00  0.95469589403E+03  0.18483052637E+04  0.15826522352E+04 0.  0.
        3    1    3    3  502    0  0.49802244595E+03 -0.56275948944E+03  0.76690112833E+03  0.10737140916E+04  0.10100000352E+00 0. -1.
       -3    1    3    3    0  502 -0.49802244595E+03  0.56275948944E+03  0.18779476569E+03  0.77459117207E+03  0.10100000352E+00 0.  1.
</event>
<event>
 5   0  0.7770905E-04  0.1602346E+04  0.7818609E-02  0.8819108E-01
        2   -1    0    0  501    0  0.00000000000E+00  0.00000000000E+00  0.11888897109E+04  0.11888897109E+04  0.25500000920E-02 0.  1.
       -2   -1    0    0    0  501  0.00000000000E+00  0.00000000000E+00 -0.53989720352E+03  0.53989720353E+03  0.25500000920E-02 0. -1.
    10030    2    1    2    0    0  0.00000000000E+00  0.00000000000E+00  0.64899250738E+03  0.17287869144E+04  0.16023460678E+04 0.  0.
        2    1    3    3  502    0 -0.18835454644E+03 -0.12960536572E+03  0.11529439220E+04  0.11753955391E+04  0.25500000920E-02 0.  1.
       -2    1    3    3    0  502  0.18835454644E+03  0.12960536572E+03 -0.50395141463E+03  0.55339137534E+03  0.25500000920E-02 0. -1.
</event>
<event>
 5   0  0.7488884E-04  0.1668780E+04  0.7818609E-02  0.8779373E-01
       -2   -1    0    0    0  501  0.00000000000E+00  0.00000000000E+00  0.42902654002E+03  0.42902654003E+03  0.25500000920E-02 0. -1.
        2   -1    0    0  501    0  0.00000000000E+00  0.00000000000E+00 -0.16227597634E+04  0.16227597634E+04  0.25500000920E-02 0.  1.
    10030    2    1    2    0    0  0.00000000000E+00  0.00000000000E+00 -0.11937332234E+04  0.20517863034E+04  0.16687804009E+04 0.  0.
        3    1    3    3  502    0 -0.55620252636E+03 -0.38424644811E+03 -0.11981980344E+04  0.13757489317E+04  0.10100000352E+00 0.  1.
       -3    1    3    3    0  502  0.55620252636E+03  0.38424644811E+03  0.44648110490E+01  0.67603737171E+03  0.10100000352E+00 0. -1.
</event>
<event>
 5   0  0.7488884E-04  0.1597399E+04  0.7818609E-02  0.8822147E-01
       -2   -1    0    0    0  501  0.00000000000E+00  0.00000000000E+00  0.52415287067E+03  0.52415287068E+03  0.25500000920E-02 0.  1.
        2   -1    0    0  501    0  0.00000000000E+00  0.00000000000E+00 -0.12170519496E+04  0.12170519496E+04  0.25500000920E-02 0. -1.
    10030    2    1    2    0    0  0.00000000000E+00  0.00000000000E+00 -0.69289907893E+03  0.17412048203E+04  0.15973994781E+04 0.  0.
        3    1    3    3  502    0  0.43390900746E+03  0.12734795653E+03 -0.10640689386E+04  0.11561735359E+04  0.10100000352E+00 0. -1.
       -3    1    3    3    0  502 -0.43390900746E+03 -0.12734795653E+03  0.37116985968E+03  0.58503128439E+03  0.10100000352E+00 0.  1.
</event>
<event>
 5   0  0.7553070E-04  0.1570821E+04  0.7818609E-02  0.8838677E-01
       -2   -1    0    0    0  501  0.00000000000E+00  0.00000000000E+00  0.64524754987E+03  0.64524754988E+03  0.25500000920E-02 0.  1.
        2   -1    0    0  501    0  0.00000000000E+00  0.00000000000E+00 -0.95601963530E+03  0.95601963531E+03  0.25500000920E-02 0. -1.
    10030    2    1    2    0    0  0.00000000000E+00  0.00000000000E+00 -0.31077208543E+03  0.16012671852E+04  0.15708205847E+04 0.  0.
        4    1    3    3  502    0  0.62935179773E+03 -0.36728475622E+03 -0.45412939419E+03  0.85861335712E+03  0.12699999809E+01 0. -1.
       -4    1    3    3    0  502 -0.62935179773E+03  0.36728475622E+03  0.14335730876E+03  0.74265382806E+03  0.12699999809E+01 0.  1.
</event>
<event>
 5   0  0.3973227E-04  0.1501719E+04  0.7818609E-02  0.8883311E-01
        1   -1    0    0  501    0  0.00000000000E+00  0.00000000000E+00  0.77864068731E+03  0.77864068733E+03  0.50400001928E-02 0.  1.
       -1   -1    0    0    0  501  0.00000000000E+00  0.00000000000E+00 -0.72406965108E+03  0.72406965110E+03  0.50400001928E-02 0. -1.
    10030    2    1    2    0    0  0.00000000000E+00  0.00000000000E+00  0.54571036230E+02  0.15027103384E+04  0.15017191359E+04 0.  0.
        3    1    3    3  502    0 -0.34664127715E+02  0.39962497230E+03 -0.60786830967E+03  0.72828951134E+03  0.10100000352E+00 0. -1.
       -3    1    3    3    0  502  0.34664127715E+02 -0.39962497230E+03  0.66243934590E+03  0.77442082709E+03  0.10100000352E+00 0.  1.
</event>
<event>
 5   0  0.3950195E-04  0.1614517E+04  0.7818609E-02  0.8811679E-01
       -1   -1    0    0    0  501  0.00000000000E+00  0.00000000000E+00  0.11478699615E+04  0.11478699615E+04  0.50400001928E-02 0.  1.
        1   -1    0    0  501    0  0.00000000000E+00  0.00000000000E+00 -0.56771758205E+03  0.56771758207E+03  0.50400001928E-02 0. -1.
    10030    2    1    2    0    0  0.00000000000E+00  0.00000000000E+00  0.58015237942E+03  0.17155875436E+04  0.16145165952E+04 0.  0.
        2    1    3    3  502    0  0.79970189517E+03 -0.38787941423E+02  0.18047704329E+03  0.82073113058E+03  0.25500000920E-02 0. -1.
       -2    1    3    3    0  502 -0.79970189517E+03  0.38787941423E+02  0.39967533613E+03  0.89485641298E+03  0.25500000920E-02 0.  1.
</event>
<event>
 5   0  0.3950195E-04  0.1570045E+04  0.7818609E-02  0.8839165E-01
        1   -1    0    0  501    0  0.00000000000E+00  0.00000000000E+00  0.50202472916E+03  0.50202472918E+03  0.50400001928E-02 0. -1.
       -1   -1    0    0    0  501  0.00000000000E+00  0.00000000000E+00 -0.12275504228E+04  0.12275504228E+04  0.50400001928E-02 0.  1.
    10030    2    1    2    0    0  0.00000000000E+00  0.00000000000E+00 -0.72552569367E+03  0.17295751520E+04  0.15700454370E+04 0.  0.
        2    1    3    3  502    0  0.31887472383E+03  0.71020049668E+03 -0.47399165579E+03  0.91144606245E+03  0.25500000920E-02 0.  1.
       -2    1    3    3    0  502 -0.31887472383E+03 -0.71020049668E+03 -0.25153403788E+03  0.81812908957E+03  0.25500000920E-02 0. -1.
</event>
<event>
 5   0  0.3973227E-04  0.1580510E+04  0.7818609E-02  0.8832612E-01
        1   -1    0    0  501    0  0.00000000000E+00  0.00000000000E+00  0.21829087384E+04  0.21829087384E+04  0.50400001928E-02 0. -1.
       -1   -1    0    0    0  501  0.00000000000E+00  0.00000000000E+00 -0.28608746581E+03  0.28608746585E+03  0.50400001928E-02 0.  1.
    10030    2    1    2    0    0  0.00000000000E+00  0.00000000000E+00  0.18968212726E+04  0.24689962043E+04  0.15805098280E+04 0.  0.
        3    1    3    3  502    0  0.22702168453E+03  0.17140520646E+02  0.21305685795E+04  0.21426980946E+04  0.10100000352E+00 0. -1.
       -3    1    3    3    0  502 -0.22702168453E+03 -0.17140520646E+02 -0.23374730686E+03  0.32629810965E+03  0.10100000352E+00 0.  1.
</event>
<event>
 5   0  0.7395088E-04  0.1565233E+04  0.7818609E-02  0.8842196E-01
        2   -1    0    0  501    0  0.00000000000E+00  0.00000000000E+00  0.12150409177E+04  0.12150409177E+04  0.25500000920E-02 0. -1.
       -2   -1    0    0    0  501  0.00000000000E+00  0.00000000000E+00 -0.50408874423E+03  0.50408874424E+03  0.25500000920E-02 0.  1.
    10030    2    1    2    0    0  0.00000000000E+00  0.00000000000E+00  0.71095217343E+03  0.17191296619E+04  0.15652328266E+04 0.  0.
        1    1    3    3  502    0 -0.62410460997E+03 -0.19153101716E+03  0.82953628918E+03  0.10556141103E+04  0.50400001928E-02 0. -1.
       -1    1    3    3    0  502  0.62410460997E+03  0.19153101716E+03 -0.11858411575E+03  0.66351555163E+03  0.50400001928E-02 0.  1.
</event>
<event>
 5   0  0.3973227E-04  0.1148222E+04  0.7818609E-02  0.9159425E-01
        1   -1    0    0  501    0  0.00000000000E+00  0.00000000000E+00  0.54734376939E+03  0.54734376941E+03  0.50400001928E-02 0.  1.
       -1   -1    0    0    0  501  0.00000000000E+00  0.00000000000E+00 -0.60218770199E+03  0.60218770201E+03  0.50400001928E-02 0. -1.
    10030    2    1    2    0    0  0.00000000000E+00  0.00000000000E+00 -0.54843932604E+02  0.11495314714E+04  0.11482224292E+04 0.  0.
        3    1    3    3  502    0  0.30201201930E+03  0.81295092285E+02  0.45456591747E+03  0.55177018346E+03  0.10100000352E+00 0.  1.
       -3    1    3    3    0  502 -0.30201201930E+03 -0.81295092285E+02 -0.50940985007E+03  0.59776128796E+03  0.10100000352E+00 0. -1.
</event>
<event>
 5   0  0.7488884E-04  0.1588534E+04  0.7818609E-02  0.8827623E-01
       -2   -1    0    0    0  501  0.00000000000E+00  0.00000000000E+00  0.29442097403E+03  0.29442097404E+03  0.25500000920E-02 0. -1.
        2   -1    0    0  501    0  0.00000000000E+00  0.00000000000E+00 -0.21427145009E+04  0.21427145009E+04  0.25500000920E-02 0.  1.
    10030    2    1    2    0    0  0.00000000000E+00  0.00000000000E+00 -0.18482935269E+04  0.24371354750E+04  0.15885340292E+04 0.  0.
        3    1    3    3  502    0  0.69570146641E+03  0.31572182907E+03 -0.59090548863E+03  0.96584165908E+03  0.10100000352E+00 0.  1.
       -3    1    3    3    0  502 -0.69570146641E+03 -0.31572182907E+03 -0.12573880383E+04  0.14712938159E+04  0.10100000352E+00 0. -1.
</event>
<event>
 5   0  0.3889847E-04  0.1605604E+04  0.7818609E-02  0.8817113E-01
        1   -1    0    0  501    0  0.00000000000E+00  0.00000000000E+00  0.18664684243E+04  0.18664684243E+04  0.50400001928E-02 0.  1.
       -1   -1    0    0    0  501  0.00000000000E+00  0.00000000000E+00 -0.34529973066E+03  0.34529973070E+03  0.50400001928E-02 0. -1.
    10030    2    1    2    0    0  0.00000000000E+00  0.00000000000E+00  0.15211686936E+04  0.22117681550E+04  0.16056039913E+04 0.  0.
        1    1    3    3  502    0 -0.63069209559E+03  0.49461573403E+03  0.69785299553E+03  0.10627398775E+04  0.50400001928E-02 0. -1.
       -1    1    3    3    0  502  0.63069209559E+03 -0.49461573403E+03  0.82331569811E+03  0.11490282775E+04  0.50400001928E-02 0.  1.
</event>
<event>
 5   0  0.7553070E-04  0.1610432E+04  0.7818609E-02  0.8814165E-01
       -2   -1    0    0    0  501  0.00000000000E+00  0.00000000000E+00  0.41174332882E+03  0.41174332883E+03  0.25500000920E-02 0. -1.
        2   -1    0    0  501    0  0.00000000000E+00  0.00000000000E+00 -0.15747012244E+04  0.15747012244E+04  0.25500000920E-02 0.  1.
    10030    2    1    2    0    0  0.00000000000E+00  0.00000000000E+00 -0.11629578956E+04  0.19864445533E+04  0.16104318974E+04 0.  0.
        4    1    3    3  502    0 -0.59272570263E+03  0.11478253341E+03  0.75718107672E+02  0.60846826808E+03  0.12699999809E+01 0. -1.
       -4    1    3    3    0  502  0.59272570263E+03 -0.11478253341E+03 -0.12386760033E+04  0.13779762852E+04  0.12699999809E+01 0.  1.
</event>
<event>
 5   0  0.7553070E-04  0.1611139E+04  0.7818609E-02  0.8813734E-01
        2   -1    0    0  501    0  0.00000000000E+00  0.00000000000E+00  0.38894668104E+03  0.38894668104E+03  0.25500000920E-02 0. -1.
       -2   -1    0    0    0  501  0.00000000000E+00  0.00000000000E+00 -0.16684602741E+04  0.16684602741E+04  0.25500000920E-02 0.  1.
    10030    2    1    2    0    0  0.00000000000E+00  0.00000000000E+00 -0.12795135931E+04  0.20574069552E+04  0.16111388346E+04 0.  0.
        4    1    3    3  502    0  0.35928909324E+03 -0.47310753271E+03  0.55025204970E+02  0.59661442834E+03  0.12699999809E+01 0. -1.
       -4    1    3    3    0  502 -0.35928909324E+03  0.47310753271E+03 -0.13345387981E+04  0.14607925268E+04  0.12699999809E+01 0.  1.
</event>
<event>
 5   0  0.4110803E-04  0.1599591E+04  0.7818609E-02  0.8820799E-01
       -1   -1    0    0    0  501  0.00000000000E+00  0.00000000000E+00  0.92280199917E+03  0.92280199919E+03  0.50400001928E-02 0. -1.
        1   -1    0    0  501    0  0.00000000000E+00  0.00000000000E+00 -0.69318546325E+03  0.69318546327E+03  0.50400001928E-02 0.  1.
    10030    2    1    2    0    0  0.00000000000E+00  0.00000000000E+00  0.22961653592E+03  0.16159874625E+04  0.15995911119E+04 0.  0.
        5    1    3    3  502    0  0.74491253514E+03  0.26003280259E+03  0.24706658259E+03  0.82678638696E+03  0.46999998093E+01 0.  1.
       -5    1    3    3    0  502 -0.74491253514E+03 -0.26003280259E+03 -0.17450046676E+02  0.78920107549E+03  0.46999998093E+01 0. -1.
</event>
<event>
 5   0  0.3973227E-04  0.1568440E+04  0.7818609E-02  0.8840175E-01
       -1   -1    0    0    0  501  0.00000000000E+00  0.00000000000E+00  0.32162124572E+03  0.32162124576E+03  0.50400001928E-02 0.  1.
        1   -1    0    0  501    0  0.00000000000E+00  0.00000000000E+00 -0.19121902595E+04  0.19121902595E+04  0.50400001928E-02 0. -1.
    10030    2    1    2    0    0  0.00000000000E+00  0.00000000000E+00 -0.15905690138E+04  0.22338115053E+04  0.15684400063E+04 0.  0.
        3    1    3    3  502    0 -0.61708692591E+03 -0.46718299711E+03 -0.97512514164E+03  0.12449599508E+04  0.10100000352E+00 0. -1.
       -3    1    3    3    0  502  0.61708692591E+03  0.46718299711E+03 -0.61544387218E+03  0.98885155454E+03  0.10100000352E+00 0.  1.
</event>
<event>
 5   0  0.3950195E-04  0.1658385E+04  0.7818609E-02  0.8785462E-01
       -1   -1    0    0    0  501  0.00000000000E+00  0.00000000000E+00  0.59169737627E+03  0.59169737630E+03  0.50400001928E-02 0.  1.
        1   -1    0    0  501    0  0.00000000000E+00  0.00000000000E+00 -0.11620127756E+04  0.11620127756E+04  0.50400001928E-02 0. -1.
    10030    2    1    2    0    0  0.00000000000E+00  0.00000000000E+00 -0.57031539936E+03  0.17537101519E+04  0.16583846485E+04 0.  0.
        2    1    3    3  502    0 -0.80001778121E+03  0.21542648088E+03 -0.32059343704E+03  0.88837895675E+03  0.25500000920E-02 0.  1.
       -2    1    3    3    0  502  0.80001778121E+03 -0.21542648088E+03 -0.24972196233E+03  0.86533119520E+03  0.25500000920E-02 0. -1.
</event>
<event>
 5   0  0.7553070E-04  0.1640881E+04  0.7818609E-02  0.8795819E-01
       -2   -1    0    0    0  501  0.00000000000E+00  0.00000000000E+00  0.41159499389E+03  0.41159499390E+03  0.25500000920E-02 0. -1.
        2   -1    0    0  501    0  0.00000000000E+00  0.00000000000E+00 -0.16354004524E+04  0.16354004524E+04  0.25500000920E-02 0.  1.
    10030    2    1    2    0    0  0.00000000000E+00  0.00000000000E+00 -0.12238054585E+04  0.20469954463E+04  0.16408810307E+04 0.  0.
        4    1    3    3  502    0 -0.74221580927E+03 -0.31782174397E+03 -0.79365274369E+03  0.11321577889E+04  0.12699999809E+01 0.  1.
       -4    1    3    3    0  502  0.74221580927E+03  0.31782174397E+03 -0.43015271483E+03  0.91483765743E+03  0.12699999809E+01 0. -1.
</event>
<event>
 5   0  0.3973227E-04  0.1601728E+04  0.7818609E-02  0.8819487E-01
       -1   -1    0    0    0  501  0.00000000000E+00  0.00000000000E+00  0.11876969782E+04  0.11876969782E+04  0.50400001928E-02 0. -1.
        1   -1    0    0  501    0  0.00000000000E+00  0.00000000000E+00 -0.54002273296E+03  0.54002273298E+03  0.50400001928E-02 0.  1.
    10030    2    1    2    0    0  0.00000000000E+00  0.00000000000E+00  0.64767424520E+03  0.17277197112E+04  0.16017282767E+04 0.  0.
        3    1    3    3  502    0 -0.28630547948E+03 -0.74047378311E+03  0.43753781450E+03  0.90648309437E+03  0.10100000352E+00 0. -1.
       -3    1    3    3    0  502  0.28630547948E+03  0.74047378311E+03  0.21013643070E+03  0.82123661679E+03  0.10100000352E+00 0.  1.
</event>
<event>
 5   0  0.7770905E-04  0.1611673E+04  0.7818609E-02  0.8813409E-01
        2   -1    0    0  501    0  0.00000000000E+00  0.00000000000E+00  0.22618246195E+04  0.22618246195E+04  0.25500000920E-02 0.  1.
       -2   -1    0    0    0  501  0.00000000000E+00  0.00000000000E+00 -0.28710121526E+03  0.28710121527E+03  0.25500000920E-02 0. -1.
    10030    2    1    2    0    0  0.00000000000E+00  0.00000000000E+00  0.19747234042E+04  0.25489258347E+04  0.16116731641E+04 0.  0.
        2    1    3    3  502    0 -0.17965347882E+03  0.39599857936E+03 -0.85620171504E+02  0.44319415732E+03  0.25500000920E-02 0. -1.
       -2    1    3    3    0  502  0.17965347882E+03 -0.39599857936E+03  0.20603435757E+04  0.21057316774E+04  0.25500000920E-02 0.  1.
</event>
<event>
 5   0  0.7553070E-04  0.1627316E+04  0.7818609E-02  0.8803940E-01
       -2   -1    0    0    0  501  0.00000000000E+00  0.00000000000E+00  0.12388075506E+04  0.12388075506E+04  0.25500000920E-02 0.  1.
        2   -1    0    0  501    0  0.00000000000E+00  0.00000000000E+00 -0.53441660268E+03  0.53441660269E+03  0.25500000920E-02 0. -1.
    10030    2    1    2    0    0  0.00000000000E+00  0.00000000000E+00  0.70439094787E+03  0.17732241532E+04  0.16273159774E+04 0.  0.
        4    1    3    3  502    0  0.56462715585E+03 -0.34276784001E+03  0.86992143944E+03  0.10922721918E+04  0.12699999809E+01 0.  1.
       -4    1    3    3    0  502 -0.56462715585E+03  0.34276784001E+03 -0.16553049157E+03  0.68095196145E+03  0.12699999809E+01 0. -1.
</event>
<event>
 5   0  0.4110803E-04  0.1564634E+04  0.7818609E-02  0.8842574E-01
       -1   -1    0    0    0  501  0.00000000000E+00  0.00000000000E+00  0.75156454971E+03  0.75156454973E+03  0.50400001928E-02 0. -1.
        1   -1    0    0  501    0  0.00000000000E+00  0.00000000000E+00 -0.81432763661E+03  0.81432763663E+03  0.50400001928E-02 0.  1.
    10030    2    1    2    0    0  0.00000000000E+00  0.00000000000E+00 -0.62763086897E+02  0.15658921864E+04  0.15646338659E+04 0.  0.
        5    1    3    3  502    0 -0.14475401261E+03 -0.78253150732E+02  0.73403442807E+03  0.75226718083E+03  0.46999998093E+01 0. -1.
       -5    1    3    3    0  502  0.14475401261E+03  0.78253150732E+02 -0.79679751496E+03  0.81362500553E+03  0.46999998093E+01 0.  1.
</event>
<event>
 5   0  0.3950195E-04  0.1611225E+04  0.7818609E-02  0.8813681E-01
        1   -1    0    0  501    0  0.00000000000E+00  0.00000000000E+00  0.66227682133E+03  0.66227682135E+03  0.50400001928E-02 0.  1.
       -1   -1    0    0    0  501  0.00000000000E+00  0.00000000000E+00 -0.97997039717E+03  0.97997039718E+03  0.50400001928E-02 0. -1.
    10030    2    1    2    0    0  0.00000000000E+00  0.00000000000E+00 -0.31769357584E+03  0.16422472185E+04  0.16112252228E+04 0.  0.
        2    1    3    3  502    0  0.24938489345E+03  0.81931346671E+02  0.61746468147E+03  0.67094575304E+03  0.25500000920E-02 0.  1.
       -2    1    3    3    0  502 -0.24938489345E+03 -0.81931346671E+02 -0.93515825731E+03  0.97130146549E+03  0.25500000920E-02 0. -1.
</event>
<event>
 5   0  0.7770905E-04  0.1599323E+04  0.7818609E-02  0.8820964E-01
       -2   -1    0    0    0  501  0.00000000000E+00  0.00000000000E+00  0.11020551995E+04  0.11020551995E+04  0.25500000920E-02 0. -1.
        2   -1    0    0  501    0  0.00000000000E+00  0.00000000000E+00 -0.58024183521E+03  0.58024183521E+03  0.25500000920E-02 0.  1.
    10030    2    1    2    0    0  0.00000000000E+00  0.00000000000E+00  0.52181336428E+03  0.16822970347E+04  0.15993230211E+04 0.  0.
        2    1    3    3  502    0 -0.14160649249E+03  0.40923238698E+03  0.96804516491E+03  0.10604880888E+04  0.25500000920E-02 0. -1.
       -2    1    3    3    0  502  0.14160649249E+03 -0.40923238698E+03 -0.44623180062E+03  0.62180894587E+03  0.25500000920E-02 0.  1.
</event>
<event>
 5   0  0.7488884E-04  0.1617199E+04  0.7818609E-02  0.8810051E-01
        2   -1    0    0  501    0  0.00000000000E+00  0.00000000000E+00  0.21343136754E+04  0.21343136754E+04  0.25500000920E-02 0.  1.
       -2   -1    0    0    0  501  0.00000000000E+00  0.00000000000E+00 -0.30634346472E+03  0.30634346473E+03  0.25500000920E-02 0. -1.
    10030    2    1    2    0    0  0.00000000000E+00  0.00000000000E+00  0.18279702106E+04  0.24406571401E+04  0.16171988698E+04 0.  0.
        3    1    3    3  502    0  0.44311137039E+03  0.40329010846E+03  0.94505136653E+02  0.60656560173E+03  0.10100000352E+00 0. -1.
       -3    1    3    3    0  502 -0.44311137039E+03 -0.40329010846E+03  0.17334650740E+04  0.18340915384E+04  0.10100000352E+00 0.  1.
</event>
<event>
 5   0  0.7415102E-04  0.1603523E+04  0.7818609E-02  0.8818386E-01
        2   -1    0    0  501    0  0.00000000000E+00  0.00000000000E+00  0.15041306498E+04  0.15041306498E+04  0.25500000920E-02 0.  1.
       -2   -1    0    0    0  501  0.00000000000E+00  0.00000000000E+00 -0.42737094826E+03  0.42737094826E+03  0.25500000920E-02 0. -1.
    10030    2    1    2    0    0  0.00000000000E+00  0.00000000000E+00  0.10767597015E+04  0.19315015981E+04  0.16035232984E+04 0.  0.
        5    1    3    3  502    0 -0.30994243140E+02  0.77281093637E+03  0.79276880930E+03  0.11075657369E+04  0.46999998093E+01 0.  1.
       -5    1    3    3    0  502  0.30994243140E+02 -0.77281093637E+03  0.28399089224E+03  0.82393586119E+03  0.46999998093E+01 0. -1.
</event>
<event>
 5   0  0.3950195E-04  0.1614736E+04  0.7818609E-02  0.8811546E-01
       -1   -1    0    0    0  501  0.00000000000E+00  0.00000000000E+00  0.44224231127E+03  0.44224231130E+03  0.50400001928E-02 0. -1.
        1   -1    0    0  501    0  0.00000000000E+00  0.00000000000E+00 -0.14739504181E+04  0.14739504181E+04  0.50400001928E-02 0.  1.
    10030    2    1    2    0    0  0.00000000000E+00  0.00000000000E+00 -0.10317081068E+04  0.19161927294E+04  0.16147361885E+04 0.  0.
        2    1    3    3  502    0  0.41077239516E+03  0.53784029678E+03  0.66095660611E+01  0.67679378827E+03  0.25500000920E-02 0. -1.
       -2    1    3    3    0  502 -0.41077239516E+03 -0.53784029678E+03 -0.10383176729E+04  0.12393989411E+04  0.25500000920E-02 0.  1.
</event>
<event>
 5   0  0.7770905E-04  0.1630455E+04  0.7818609E-02  0.8802054E-01
        2   -1    0    0  501    0  0.00000000000E+00  0.00000000000E+00  0.81019055196E+03  0.81019055196E+03  0.25500000920E-02 0.  1.
       -2   -1    0    0    0  501  0.00000000000E+00  0.00000000000E+00 -0.82029564244E+03  0.82029564245E+03  0.25500000920E-02 0. -1.
    10030    2    1    2    0    0  0.00000000000E+00  0.00000000000E+00 -0.10105090483E+02  0.16304861944E+04  0.16304548805E+04 0.  0.
        2    1    3    3  502    0  0.75489623413E+03 -0.16550659282E+03 -0.26454745694E+03  0.81685134116E+03  0.25500000920E-02 0. -1.
       -2    1    3    3    0  502 -0.75489623413E+03  0.16550659282E+03  0.25444236646E+03  0.81363485325E+03  0.25500000920E-02 0.  1.
</event>
<event>
 5   0  0.3950195E-04  0.1528754E+04  0.7818609E-02  0.8865554E-01
        1   -1    0    0  501    0  0.00000000000E+00  0.00000000000E+00  0.10705763627E+04  0.10705763627E+04  0.50400001928E-02 0.  1.
       -1   -1    0    0    0  501  0.00000000000E+00  0.00000000000E+00 -0.54575446897E+03  0.54575446900E+03  0.50400001928E-02 0. -1.
    10030    2    1    2    0    0  0.00000000000E+00  0.00000000000E+00  0.52482189374E+03  0.16163308317E+04  0.15287535241E+04 0.  0.
        2    1    3    3  502    0 -0.27943044637E+03 -0.17796405288E+03 -0.46590481087E+03  0.57168161705E+03  0.25500000920E-02 0. -1.
       -2    1    3    3    0  502  0.27943044637E+03  0.17796405288E+03  0.99072670461E+03  0.10446492147E+04  0.25500000920E-02 0.  1.
</event>
<event>
 5   0  0.7415102E-04  0.1652280E+04  0.7818609E-02  0.8789059E-01
        2   -1    0    0  501    0  0.00000000000E+00  0.00000000000E+00  0.59922440187E+03  0.59922440187E+03  0.25500000920E-02 0. -1.
       -2   -1    0    0    0  501  0.00000000000E+00  0.00000000000E+00 -0.11389845369E+04  0.11389845369E+04  0.25500000920E-02 0.  1.
    10030    2    1    2    0    0  0.00000000000E+00  0.00000000000E+00 -0.53976013500E+03  0.17382089387E+04  0.16522800342E+04 0.  0.
        5    1    3    3  502    0 -0.31180138941E+03  0.26165381917E+03 -0.10261565389E+04  0.11039484408E+04  0.46999998093E+01 0.  1.
       -5    1    3    3    0  502  0.31180138941E+03 -0.26165381917E+03  0.48639640392E+03  0.63426049796E+03  0.46999998093E+01 0. -1.
</event>
<event>
 5   0  0.3889847E-04  0.1590248E+04  0.7818609E-02  0.8826561E-01
       -1   -1    0    0    0  501  0.00000000000E+00  0.00000000000E+00  0.53433911317E+03  0.53433911319E+03  0.50400001928E-02 0. -1.
        1   -1    0    0  501    0  0.00000000000E+00  0.00000000000E+00 -0.11831857665E+04  0.11831857666E+04  0.50400001928E-02 0.  1.
    10030    2    1    2    0    0  0.00000000000E+00  0.00000000000E+00 -0.64884665337E+03  0.17175248797E+04  0.15902483243E+04 0.  0.
        1    1    3    3  502    0 -0.63650157780E+03  0.37801754427E+03 -0.63780290689E+03  0.97715099672E+03  0.50400001928E-02 0.  1.
       -1    1    3    3    0  502  0.63650157780E+03 -0.37801754427E+03 -0.11043746480E+02  0.74037388303E+03  0.50400001928E-02 0. -1.
</event>
<event>
 5   0  0.3950195E-04  0.1580262E+04  0.7818609E-02  0.8832766E-01
       -1   -1    0    0    0  501  0.00000000000E+00  0.00000000000E+00  0.64781339268E+03  0.64781339270E+03  0.50400001928E-02 0.  1.
        1   -1    0    0  501    0  0.00000000000E+00  0.00000000000E+00 -0.96371441484E+03  0.96371441485E+03  0.50400001928E-02 0. -1.
    10030    2    1    2    0    0  0.00000000000E+00  0.00000000000E+00 -0.31590102215E+03  0.16115278076E+04  0.15802621361E+04 0.  0.
        2    1    3    3  502    0 -0.42152097163E+02  0.37977254282E+03 -0.86322841363E+03  0.94401656642E+03  0.25500000920E-02 0. -1.
       -2    1    3    3    0  502  0.42152097163E+02 -0.37977254282E+03  0.54732739148E+03  0.66751124113E+03  0.25500000920E-02 0.  1.
</event>
<event>
 5   0  0.3889847E-04  0.1597005E+04  0.7818609E-02  0.8822390E-01
        1   -1    0    0  501    0  0.00000000000E+00  0.00000000000E+00  0.16596583854E+04  0.16596583854E+04  0.50400001928E-02 0. -1.
       -1   -1    0    0    0  501  0.00000000000E+00  0.00000000000E+00 -0.38417933693E+03  0.38417933696E+03  0.50400001928E-02 0.  1.
    10030    2    1    2    0    0  0.00000000000E+00  0.00000000000E+00  0.12754790485E+04  0.20438377224E+04  0.15970052700E+04 0.  0.
        1    1    3    3  502    0 -0.23484166593E+03  0.61850566434E+03  0.65531926293E+02  0.66482651742E+03  0.50400001928E-02 0.  1.
       -1    1    3    3    0  502  0.23484166593E+03 -0.61850566434E+03  0.12099471222E+04  0.13790112049E+04  0.50400001928E-02 0. -1.
</event>
<event>
 5   0  0.7415102E-04  0.1587995E+04  0.7818609E-02  0.8827957E-01
       -2   -1    0    0    0  501  0.00000000000E+00  0.00000000000E+00  0.27052347288E+03  0.27052347289E+03  0.25500000920E-02 0.  1.
        2   -1    0    0  501    0  0.00000000000E+00  0.00000000000E+00 -0.23304165442E+04  0.23304165442E+04  0.25500000920E-02 0. -1.
    10030    2    1    2    0    0  0.00000000000E+00  0.00000000000E+00 -0.20598930713E+04  0.26009400171E+04  0.15879954368E+04 0.  0.
        5    1    3    3  502    0 -0.45354643081E+02  0.32116179669E+03 -0.22169360838E+04  0.22405422631E+04  0.46999998093E+01 0. -1.
       -5    1    3    3    0  502  0.45354643081E+02 -0.32116179669E+03  0.15704301246E+03  0.36039775396E+03  0.46999998093E+01 0.  1.
</event>
<event>
 5   0  0.4110803E-04  0.1619876E+04  0.7818609E-02  0.8808429E-01
       -1   -1    0    0    0  501  0.00000000000E+00  0.00000000000E+00  0.34155658508E+03  0.34155658512E+03  0.50400001928E-02 0. -1.
        1   -1    0    0  501    0  0.00000000000E+00  0.00000000000E+00 -0.19206180851E+04  0.19206180851E+04  0.50400001928E-02 0.  1.
    10030    2    1    2    0    0  0.00000000000E+00  0.00000000000E+00 -0.15790615000E+04  0.22621746702E+04  0.16198762353E+04 0.  0.
        5    1    3    3  502    0 -0.47798574426E+03  0.13253272802E+03 -0.16836711216E+04  0.17552224450E+04  0.46999998093E+01 0.  1.
       -5    1    3    3    0  502  0.47798574426E+03 -0.13253272802E+03  0.10460962160E+03  0.50695222520E+03  0.46999998093E+01 0. -1.
</event>
<event>
 5   0  0.3973227E-04  0.1605712E+04  0.7818609E-02  0.8817047E-01
        1   -1    0    0  501    0  0.00000000000E+00  0.00000000000E+00  0.74886553201E+03  0.74886553203E+03  0.50400001928E-02 0.  1.
       -1   -1    0    0    0  501  0.00000000000E+00  0.00000000000E+00 -0.86073871223E+03  0.86073871224E+03  0.50400001928E-02 0. -1.
    10030    2    1    2    0    0  0.00000000000E+00  0.00000000000E+00 -0.11187318021E+03  0.16096042443E+04  0.16057117471E+04 0.  0.
        3    1    3    3  502    0 -0.59077115599E+03 -0.21156728108E+03  0.44608306257E+03  0.76990998311E+03  0.10100000352E+00 0.  1.
       -3    1    3    3    0  502  0.59077115599E+03  0.21156728108E+03 -0.55795624278E+03  0.83969426117E+03  0.10100000352E+00 0. -1.
</event>
<event>
 5   0  0.7395088E-04  0.1597241E+04  0.7818609E-02  0.8822245E-01
       -2   -1    0    0    0  501  0.00000000000E+00  0.00000000000E+00  0.46397985484E+03  0.46397985485E+03  0.25500000920E-02 0. -1.
        2   -1    0    0  501    0  0.00000000000E+00  0.00000000000E+00 -0.13746174529E+04  0.13746174529E+04  0.25500000920E-02 0.  1.
    10030    2    1    2    0    0  0.00000000000E+00  0.00000000000E+00 -0.91063759805E+03  0.18385973077E+04  0.15972411293E+04 0.  0.
        1    1    3    3  502    0 -0.24402037938E+02 -0.32550747900E+03 -0.12943212841E+04  0.13348476186E+04  0.50400001928E-02 0.  1.
       -1    1    3    3    0  502  0.24402037938E+02  0.32550747900E+03  0.38368368606E+03  0.50374968915E+03  0.50400001928E-02 0. -1.
</event>
<event>
 5   0  0.3889847E-04  0.1608009E+04  0.7818609E-02  0.8815643E-01
       -1   -1    0    0    0  501  0.00000000000E+00  0.00000000000E+00  0.40014119264E+03  0.40014119268E+03  0.50400001928E-02 0.  1.
        1   -1    0    0  501    0  0.00000000000E+00  0.00000000000E+00 -0.16154879850E+04  0.16154879851E+04  0.50400001928E-02 0. -1.
    10030    2    1    2    0    0  0.00000000000E+00  0.00000000000E+00 -0.12153467924E+04  0.20156291777E+04  0.16080090660E+04 0.  0.
        1    1    3    3  502    0 -0.78609232557E+03  0.16117396657E+03 -0.54493485189E+03  0.96998566208E+03  0.50400001928E-02 0. -1.
       -1    1    3    3    0  502  0.78609232557E+03 -0.16117396657E+03 -0.67041194050E+03  0.10456435156E+04  0.50400001928E-02 0.  1.
</event>
<event>
 5   0  0.7488884E-04  0.1531705E+04  0.7818609E-02  0.8863639E-01
       -2   -1    0    0    0  501  0.00000000000E+00  0.00000000000E+00  0.10726304010E+04  0.10726304010E+04  0.25500000920E-02 0. -1.
        2   -1    0    0  501    0  0.00000000000E+00  0.00000000000E+00 -0.54681446372E+03  0.54681446373E+03  0.25500000920E-02 0.  1.
    10030    2    1    2    0    0  0.00000000000E+00  0.00000000000E+00  0.52581593729E+03  0.16194448647E+04  0.15317046941E+04 0.  0.
        3    1    3    3  502    0 -0.15908465716E+03 -0.60190254314E+02  0.10524079450E+04  0.10660643920E+04  0.10100000352E+00 0. -1.
       -3    1    3    3    0  502  0.15908465716E+03  0.60190254314E+02 -0.52659200773E+03  0.55338047279E+03  0.10100000352E+00 0.  1.
</event>
<event>
 5   0  0.3889847E-04  0.1610114E+04  0.7818609E-02  0.8814359E-01
        1   -1    0    0  501    0  0.00000000000E+00  0.00000000000E+00  0.91267157029E+03  0.91267157030E+03  0.50400001928E-02 0. -1.
       -1   -1    0    0    0  501  0.00000000000E+00  0.00000000000E+00 -0.71013106226E+03  0.71013106228E+03  0.50400001928E-02 0.  1.
    10030    2    1    2    0    0  0.00000000000E+00  0.00000000000E+00  0.20254050802E+03  0.16228026326E+04  0.16101135758E+04 0.  0.
        1    1    3    3  502    0  0.31545392359E+03 -0.69335956305E+03 -0.16127790893E+03  0.77863292090E+03  0.50400001928E-02 0.  1.
       -1    1    3    3    0  502 -0.31545392359E+03  0.69335956305E+03  0.36381841695E+03  0.84416971168E+03  0.50400001928E-02 0. -1.
</event>
<event>
 5   0  0.3889847E-04  0.1612711E+04  0.7818609E-02  0.8812777E-01
        1   -1    0    0  501    0  0.00000000000E+00  0.00000000000E+00  0.64635190923E+03  0.64635190925E+03  0.50400001928E-02 0.  1.
       -1   -1    0    0    0  501  0.00000000000E+00  0.00000000000E+00 -0.10059679339E+04  0.10059679339E+04  0.50400001928E-02 0. -1.
    10030    2    1    2    0    0  0.00000000000E+00  0.00000000000E+00 -0.35961602467E+03  0.16523198432E+04  0.16127111269E+04 0.  0.
        1    1    3    3  502    0  0.20978098374E+03 -0.16997156957E+02  0.61771354542E+03  0.65258485173E+03  0.50400001928E-02 0.  1.
       -1    1    3    3    0  502 -0.20978098374E+03  0.16997156957E+02 -0.97732957009E+03  0.99973499143E+03  0.50400001928E-02 0. -1.
</event>
<event>
 5   0  0.7395088E-04  0.1610846E+04  0.7818609E-02  0.8813913E-01
        2   -1    0    0  501    0  0.00000000000E+00  0.00000000000E+00  0.64576624677E+03  0.64576624677E+03  0.25500000920E-02 0. -1.
       -2   -1    0    0    0  501  0.00000000000E+00  0.00000000000E+00 -0.10045524522E+04  0.10045524522E+04  0.25500000920E-02 0.  1.
    10030    2    1    2    0    0  0.00000000000E+00  0.00000000000E+00 -0.35878620540E+03  0.16503186989E+04  0.16108458234E+04 0.  0.
        1    1    3    3  502    0  0.28042602000E+03  0.72506734782E+03 -0.39513499612E+03  0.87206254176E+03  0.50400001928E-02 0. -1.
       -1    1    3    3    0  502 -0.28042602000E+03 -0.72506734782E+03  0.36348790718E+02  0.77825615717E+03  0.50400001928E-02 0.  1.
</event>
<event>
 5   0  0.3889847E-04  0.1563954E+04  0.7818609E-02  0.8843004E-01
        1   -1    0    0  501    0  0.00000000000E+00  0.00000000000E+00  0.76251057310E+03  0.76251057312E+03  0.50400001928E-02 0. -1.
       -1   -1    0    0    0  501  0.00000000000E+00  0.00000000000E+00 -0.80194002715E+03  0.80194002716E+03  0.50400001928E-02 0.  1.
    10030    2    1    2    0    0  0.00000000000E+00  0.00000000000E+00 -0.39429454045E+02  0.15644506003E+04  0.15639536435E+04 0.  0.
        1    1    3    3  502    0 -0.64228068141E+03 -0.83414905098E+02  0.41860852229E+03  0.77117806962E+03  0.50400001928E-02 0.  1.
       -1    1    3    3    0  502  0.64228068141E+03  0.83414905098E+02 -0.45803797634E+03  0.79327253066E+03  0.50400001928E-02 0. -1.
</event>
<event>
 5   0  0.3889847E-04  0.1550591E+04  0.7818609E-02  0.8851491E-01
       -1   -1    0    0    0  501  0.00000000000E+00  0.00000000000E+00  0.78863968833E+03  0.78863968835E+03  0.50400001928E-02 0.  1.
        1   -1    0    0  501    0  0.00000000000E+00  0.00000000000E+00 -0.76217674038E+03  0.76217674039E+03  0.50400001928E-02 0. -1.
    10030    2    1    2    0    0  0.00000000000E+00  0.00000000000E+00  0.26462947954E+02  0.15508164287E+04  0.15505906320E+04 0.  0.
        1    1    3    3  502    0 -0.20294896281E+03  0.54690840284E+03 -0.49751474585E+03  0.76669290134E+03  0.50400001928E-02 0. -1.
       -1    1    3    3    0  502  0.20294896281E+03 -0.54690840284E+03  0.52397769380E+03  0.78412352740E+03  0.50400001928E-02 0.  1.
</event>
<event>
 5   0  0.7488884E-04  0.1626083E+04  0.7818609E-02  0.8804682E-01
       -2   -1    0    0    0  501  0.00000000000E+00  0.00000000000E+00  0.99603487269E+03  0.99603487269E+03  0.25500000920E-02 0. -1.
        2   -1    0    0  501    0  0.00000000000E+00  0.00000000000E+00 -0.66366810032E+03  0.66366810033E+03  0.25500000920E-02 0.  1.
    10030    2    1    2    0    0  0.00000000000E+00  0.00000000000E+00  0.33236677237E+03  0.16597029730E+04  0.16260831120E+04 0.  0.
        3    1    3    3  502    0 -0.52749968266E+03 -0.33989573626E+02  0.79671409564E+03  0.95611953579E+03  0.10100000352E+00 0. -1.
       -3    1    3    3    0  502  0.52749968266E+03  0.33989573626E+02 -0.46434732327E+03  0.70358343723E+03  0.10100000352E+00 0.  1.
</event>
<event>
 5   0  0.7415102E-04  0.1603415E+04  0.7818609E-02  0.8818453E-01
       -2   -1    0    0    0  501  0.00000000000E+00  0.00000000000E+00  0.62829410522E+03  0.62829410522E+03  0.25500000920E-02 0. -1.
        2   -1    0    0  501    0  0.00000000000E+00  0.00000000000E+00 -0.10229836069E+04  0.10229836069E+04  0.25500000920E-02 0.  1.
    10030    2    1    2    0    0  0.00000000000E+00  0.00000000000E+00 -0.39468950171E+03  0.16512777122E+04  0.16034145689E+04 0.  0.
        5    1    3    3  502    0 -0.12867971139E+03 -0.22086208239E+03  0.58518865684E+03  0.63859719828E+03  0.46999998093E+01 0. -1.
       -5    1    3    3    0  502  0.12867971139E+03  0.22086208239E+03 -0.97987815856E+03  0.10126805139E+04  0.46999998093E+01 0.  1.
</event>
<event>
 5   0  0.7770905E-04  0.1632171E+04  0.7818609E-02  0.8801024E-01
       -2   -1    0    0    0  501  0.00000000000E+00  0.00000000000E+00  0.89513741280E+03  0.89513741280E+03  0.25500000920E-02 0. -1.
        2   -1    0    0  501    0  0.00000000000E+00  0.00000000000E+00 -0.74401479581E+03  0.74401479581E+03  0.25500000920E-02 0.  1.
    10030    2    1    2    0    0  0.00000000000E+00  0.00000000000E+00  0.15112261699E+03  0.16391522086E+04  0.16321709217E+04 0.  0.
        2    1    3    3  502    0  0.51243955430E+03  0.43841056298E+02 -0.56077271083E+03  0.76090890929E+03  0.25500000920E-02 0.  1.
       -2    1    3    3    0  502 -0.51243955430E+03 -0.43841056298E+02  0.71189532782E+03  0.87824329932E+03  0.25500000920E-02 0. -1.
</event>
<event>
 5   0  0.7770905E-04  0.1595795E+04  0.7818609E-02  0.8823136E-01
       -2   -1    0    0    0  501  0.00000000000E+00  0.00000000000E+00  0.33004546991E+03  0.33004546992E+03  0.25500000920E-02 0.  1.
        2   -1    0    0  501    0  0.00000000000E+00  0.00000000000E+00 -0.19289471179E+04  0.19289471179E+04  0.25500000920E-02 0. -1.
    10030    2    1    2    0    0  0.00000000000E+00  0.00000000000E+00 -0.15989016479E+04  0.22589925878E+04  0.15957947963E+04 0.  0.
        2    1    3    3  502    0  0.16932080166E+03 -0.77231655385E+03 -0.95124194158E+03  0.12369331529E+04  0.25500000920E-02 0. -1.
       -2    1    3    3    0  502 -0.16932080166E+03  0.77231655385E+03 -0.64765970637E+03  0.10220594349E+04  0.25500000920E-02 0.  1.
</event>
<event>
 5   0  0.7488884E-04  0.1581781E+04  0.7818609E-02  0.8831819E-01
        2   -1    0    0  501    0  0.00000000000E+00  0.00000000000E+00  0.11262592232E+04  0.11262592232E+04  0.25500000920E-02 0.  1.
       -2   -1    0    0    0  501  0.00000000000E+00  0.00000000000E+00 -0.55538557849E+03  0.55538557850E+03  0.25500000920E-02 0. -1.
    10030    2    1    2    0    0  0.00000000000E+00  0.00000000000E+00  0.57087364473E+03  0.16816448017E+04  0.15817814391E+04 0.  0.
        3    1    3    3  502    0  0.35926284470E+03  0.34943866990E+03  0.93588942985E+03  0.10616337460E+04  0.10100000352E+00 0. -1.
       -3    1    3    3    0  502 -0.35926284470E+03 -0.34943866990E+03 -0.36501578512E+03  0.62001105570E+03  0.10100000352E+00 0.  1.
</event>
<event>
 5   0  0.3950195E-04  0.1604707E+04  0.7818609E-02  0.8817662E-01
       -1   -1    0    0    0  501  0.00000000000E+00  0.00000000000E+00  0.75394985639E+03  0.75394985640E+03  0.50400001928E-02 0. -1.
        1   -1    0    0  501    0  0.00000000000E+00  0.00000000000E+00 -0.85386456730E+03  0.85386456731E+03  0.50400001928E-02 0.  1.
    10030    2    1    2    0    0  0.00000000000E+00  0.00000000000E+00 -0.99914710910E+02  0.16078144237E+04  0.16047069114E+04 0.  0.
        2    1    3    3  502    0 -0.48288943303E+03 -0.18829628169E+03 -0.66362474969E+03  0.84204245893E+03  0.25500000920E-02 0.  1.
       -2    1    3    3    0  502  0.48288943303E+03  0.18829628169E+03  0.56371003878E+03  0.76577196479E+03  0.25500000920E-02 0. -1.
</event>
<event>
 5   0  0.7395088E-04  0.1597383E+04  0.7818609E-02  0.8822157E-01
        2   -1    0    0  501    0  0.00000000000E+00  0.00000000000E+00  0.11387672850E+04  0.11387672850E+04  0.25500000920E-02 0. -1.
       -2   -1    0    0    0  501  0.00000000000E+00  0.00000000000E+00 -0.56017430802E+03  0.56017430803E+03  0.25500000920E-02 0.  1.
    10030    2    1    2    0    0  0.00000000000E+00  0.00000000000E+00  0.57859297695E+03  0.16989415930E+04  0.15973830797E+04 0.  0.
        1    1    3    3  502    0  0.39053976407E+03  0.40614961405E+03  0.89135059048E+03  0.10545068475E+04  0.50400001928E-02 0. -1.
       -1    1    3    3    0  502 -0.39053976407E+03 -0.40614961405E+03 -0.31275761353E+03  0.64443474547E+03  0.50400001928E-02 0.  1.
</event>
<event>
 5   0  0.3973227E-04  0.1436077E+04  0.7818609E-02  0.8928110E-01
       -1   -1    0    0    0  501  0.00000000000E+00  0.00000000000E+00  0.94249422941E+03  0.94249422943E+03  0.50400001928E-02 0. -1.
        1   -1    0    0  501    0  0.00000000000E+00  0.00000000000E+00 -0.54703741730E+03  0.54703741732E+03  0.50400001928E-02 0.  1.
    10030    2    1    2    0    0  0.00000000000E+00  0.00000000000E+00  0.39545681212E+03  0.14895316467E+04  0.14360774479E+04 0.  0.
        3    1    3    3  502    0  0.18891247676E+03 -0.33605039664E+03 -0.43059364963E+03  0.57795215569E+03  0.10100000352E+00 0.  1.
       -3    1    3    3    0  502 -0.18891247676E+03  0.33605039664E+03  0.82605046175E+03  0.91157949106E+03  0.10100000352E+00 0. -1.
</event>
<event>
 5   0  0.3973227E-04  0.1589318E+04  0.7818609E-02  0.8827137E-01
        1   -1    0    0  501    0  0.00000000000E+00  0.00000000000E+00  0.43581411406E+03  0.43581411409E+03  0.50400001928E-02 0. -1.
       -1   -1    0    0    0  501  0.00000000000E+00  0.00000000000E+00 -0.14489737380E+04  0.14489737380E+04  0.50400001928E-02 0.  1.
    10030    2    1    2    0    0  0.00000000000E+00  0.00000000000E+00 -0.10131596240E+04  0.18847878521E+04  0.15893183520E+04 0.  0.
        3    1    3    3  502    0 -0.26212330841E+03 -0.11793712952E+03  0.37200664184E+03  0.47011354704E+03  0.10100000352E+00 0. -1.
       -3    1    3    3    0  502  0.26212330841E+03  0.11793712952E+03 -0.13851662658E+04  0.14146743051E+04  0.10100000352E+00 0.  1.
</event>
<event>
 5   0  0.3837251E-04  0.1579697E+04  0.7818609E-02  0.8833119E-01
        1   -1    0    0  501    0  0.00000000000E+00  0.00000000000E+00  0.20113186706E+04  0.20113186706E+04  0.50400001928E-02 0.  1.
       -1   -1    0    0    0  501  0.00000000000E+00  0.00000000000E+00 -0.31017503126E+03  0.31017503130E+03  0.50400001928E-02 0. -1.
    10030    2    1    2    0    0  0.00000000000E+00  0.00000000000E+00  0.17011436394E+04  0.23214937019E+04  0.15796972262E+04 0.  0.
        4    1    3    3  502    0 -0.63295841750E+03 -0.46256516981E+03  0.70918369632E+03  0.10571404933E+04  0.12699999809E+01 0.  1.
       -4    1    3    3    0  502  0.63295841750E+03  0.46256516981E+03  0.99195994306E+03  0.12643532086E+04  0.12699999809E+01 0. -1.
</event>
<event>
 5   0  0.7553070E-04  0.1592934E+04  0.7818609E-02  0.8824901E-01
       -2   -1    0    0    0  501  0.00000000000E+00  0.00000000000E+00  0.46531694356E+03  0.46531694357E+03  0.25500000920E-02 0.  1.
        2   -1    0    0  501    0  0.00000000000E+00  0.00000000000E+00 -0.13632856538E+04  0.13632856538E+04  0.25500000920E-02 0. -1.
    10030    2    1    2    0    0  0.00000000000E+00  0.00000000000E+00 -0.89796871026E+03  0.18286025974E+04  0.15929342907E+04 0.  0.
        4    1    3    3  502    0 -0.43917544854E+03 -0.50422757665E+03 -0.94571186086E+03  0.11582284146E+04  0.12699999809E+01 0. -1.
       -4    1    3    3    0  502  0.43917544854E+03  0.50422757665E+03  0.47743150605E+02  0.67037418281E+03  0.12699999809E+01 0.  1.
</event>
<event>
 5   0  0.3973227E-04  0.1600248E+04  0.7818609E-02  0.8820396E-01
       -1   -1    0    0    0  501  0.00000000000E+00  0.00000000000E+00  0.58357902656E+03  0.58357902658E+03  0.50400001928E-02 0. -1.
        1   -1    0    0  501    0  0.00000000000E+00  0.00000000000E+00 -0.10970207375E+04  0.10970207375E+04  0.50400001928E-02 0.  1.
    10030    2    1    2    0    0  0.00000000000E+00  0.00000000000E+00 -0.51344171097E+03  0.16805997641E+04  0.16002478485E+04 0.  0.
        3    1    3    3  502    0 -0.31087045747E+02  0.56775079619E+03  0.33447576003E+03  0.65968281412E+03  0.10100000352E+00 0. -1.
       -3    1    3    3    0  502  0.31087045747E+02 -0.56775079619E+03 -0.84791747100E+03  0.10209169500E+04  0.10100000352E+00 0.  1.
</event>
<event>
 5   0  0.7415102E-04  0.1592864E+04  0.7818609E-02  0.8824944E-01
        2   -1    0    0  501    0  0.00000000000E+00  0.00000000000E+00  0.14985749593E+04  0.14985749593E+04  0.25500000920E-02 0. -1.
       -2   -1    0    0    0  501  0.00000000000E+00  0.00000000000E+00 -0.42327166488E+03  0.42327166489E+03  0.25500000920E-02 0.  1.
    10030    2    1    2    0    0  0.00000000000E+00  0.00000000000E+00  0.10753032945E+04  0.19218466242E+04  0.15928644864E+04 0.  0.
        5    1    3    3  502    0 -0.37658293605E+03  0.66469017747E+03  0.26610223838E+03  0.80898716369E+03  0.46999998093E+01 0.  1.
       -5    1    3    3    0  502  0.37658293605E+03 -0.66469017747E+03  0.80920105608E+03  0.11128594605E+04  0.46999998093E+01 0. -1.
</event>
<event>
 5   0  0.3973227E-04  0.1577287E+04  0.7818609E-02  0.8834624E-01
        1   -1    0    0  501    0  0.00000000000E+00  0.00000000000E+00  0.14420842645E+04  0.14420842645E+04  0.50400001928E-02 0. -1.
       -1   -1    0    0    0  501  0.00000000000E+00  0.00000000000E+00 -0.43129159327E+03  0.43129159330E+03  0.50400001928E-02 0.  1.
    10030    2    1    2    0    0  0.00000000000E+00  0.00000000000E+00  0.10107926712E+04  0.18733758578E+04  0.15772873170E+04 0.  0.
        3    1    3    3  502    0  0.68892860926E+03 -0.27364660092E+03  0.18569500093E+03  0.76419090182E+03  0.10100000352E+00 0.  1.
       -3    1    3    3    0  502 -0.68892860926E+03  0.27364660092E+03  0.82509767032E+03  0.11091849560E+04  0.10100000352E+00 0. -1.
</event>
<event>
 5   0  0.7395088E-04  0.1568931E+04  0.7818609E-02  0.8839866E-01
       -2   -1    0    0    0  501  0.00000000000E+00  0.00000000000E+00  0.82927288474E+03  0.82927288475E+03  0.25500000920E-02 0.  1.
        2   -1    0    0  501    0  0.00000000000E+00  0.00000000000E+00 -0.74207881121E+03  0.74207881121E+03  0.25500000920E-02 0. -1.
    10030    2    1    2    0    0  0.00000000000E+00  0.00000000000E+00  0.87194073536E+02  0.15713516960E+04  0.15689306377E+04 0.  0.
        1    1    3    3  502    0  0.35150609611E+02  0.76276871126E+03  0.22369154702E+03  0.79566926575E+03  0.50400001928E-02 0.  1.
       -1    1    3    3    0  502 -0.35150609611E+02 -0.76276871126E+03 -0.13649747348E+03  0.77568243020E+03  0.50400001928E-02 0. -1.
</event>
<event>
 5   0  0.3973227E-04  0.1594361E+04  0.7818609E-02  0.8824020E-01
        1   -1    0    0  501    0  0.00000000000E+00  0.00000000000E+00  0.21538107311E+04  0.21538107311E+04  0.50400001928E-02 0. -1.
       -1   -1    0    0    0  501  0.00000000000E+00  0.00000000000E+00 -0.29505681713E+03  0.29505681717E+03  0.50400001928E-02 0.  1.
    10030    2    1    2    0    0  0.00000000000E+00  0.00000000000E+00  0.18587539139E+04  0.24488675482E+04  0.15943607359E+04 0.  0.
        3    1    3    3  502    0 -0.78788138831E+03 -0.49841529380E+02  0.10994126615E+04  0.13534952791E+04  0.10100000352E+00 0. -1.
       -3    1    3    3    0  502  0.78788138831E+03  0.49841529380E+02  0.75934125238E+03  0.10953722691E+04  0.10100000352E+00 0.  1.
</event>
<event>
 5   0  0.7415102E-04  0.1599895E+04  0.7818609E-02  0.8820613E-01
        2   -1    0    0  501    0  0.00000000000E+00  0.00000000000E+00  0.12637846529E+04  0.12637846529E+04  0.25500000920E-02 0.  1.
       -2   -1    0    0    0  501  0.00000000000E+00  0.00000000000E+00 -0.50634869709E+03  0.50634869710E+03  0.25500000920E-02 0. -1.
    10030    2    1    2    0    0  0.00000000000E+00  0.00000000000E+00  0.75743595576E+03  0.17701333500E+04  0.15998946370E+04 0.  0.
        5    1    3    3  502    0  0.39540575975E+03 -0.53258244923E+03 -0.11596295675E+03  0.67339385014E+03  0.46999998093E+01 0. -1.
       -5    1    3    3    0  502 -0.39540575975E+03  0.53258244923E+03  0.87339891251E+03  0.10967394998E+04  0.46999998093E+01 0.  1.
</event>
<event>
 5   0  0.7488884E-04  0.1608403E+04  0.7818609E-02  0.8815403E-01
       -2   -1    0    0    0  501  0.00000000000E+00  0.00000000000E+00  0.32184442745E+03  0.32184442746E+03  0.25500000920E-02 0. -1.
        2   -1    0    0  501    0  0.00000000000E+00  0.00000000000E+00 -0.20094793304E+04  0.20094793305E+04  0.25500000920E-02 0.  1.
    10030    2    1    2    0    0  0.00000000000E+00  0.00000000000E+00 -0.16876349030E+04  0.23313237579E+04  0.16084025921E+04 0.  0.
        3    1    3    3  502    0  0.42000215131E+03  0.97336169952E+02  0.14018010149E+03  0.45335042533E+03  0.10100000352E+00 0. -1.
       -3    1    3    3    0  502 -0.42000215131E+03 -0.97336169952E+02 -0.18278150045E+04  0.18779733326E+04  0.10100000352E+00 0.  1.
</event>
<event>
 5   0  0.7488884E-04  0.1703981E+04  0.7818609E-02  0.8759097E-01
       -2   -1    0    0    0  501  0.00000000000E+00  0.00000000000E+00  0.65940522067E+03  0.65940522067E+03  0.25500000920E-02 0.  1.
        2   -1    0    0  501    0  0.00000000000E+00  0.00000000000E+00 -0.11008226376E+04  0.11008226376E+04  0.25500000920E-02 0. -1.
    10030    2    1    2    0    0  0.00000000000E+00  0.00000000000E+00 -0.44141741689E+03  0.17602278582E+04  0.17039814485E+04 0.  0.
        3    1    3    3  502    0 -0.20636429163E+03  0.14624009274E+03 -0.10611461679E+04  0.10908728548E+04  0.10100000352E+00 0. -1.
       -3    1    3    3    0  502  0.20636429163E+03 -0.14624009274E+03  0.61972875099E+03  0.66935500341E+03  0.10100000352E+00 0.  1.
</event>
<event>
 5   0  0.3889847E-04  0.1590761E+04  0.7818609E-02  0.8826244E-01
        1   -1    0    0  501    0  0.00000000000E+00  0.00000000000E+00  0.18388806332E+04  0.18388806332E+04  0.50400001928E-02 0. -1.
       -1   -1    0    0    0  501  0.00000000000E+00  0.00000000000E+00 -0.34403013428E+03  0.34403013432E+03  0.50400001928E-02 0.  1.
    10030    2    1    2    0    0  0.00000000000E+00  0.00000000000E+00  0.14948504990E+04  0.21829107676E+04  0.15907612658E+04 0.  0.
        1    1    3    3  502    0  0.58755914270E+03 -0.44077944701E+03  0.11661686653E+04  0.13782095716E+04  0.50400001928E-02 0. -1.
       -1    1    3    3    0  502 -0.58755914270E+03  0.44077944701E+03  0.32868183362E+03  0.80470119601E+03  0.50400001928E-02 0.  1.
</event>
<event>
 5   0  0.3837251E-04  0.1619268E+04  0.7818609E-02  0.8808798E-01
       -1   -1    0    0    0  501  0.00000000000E+00  0.00000000000E+00  0.11141199152E+04  0.11141199152E+04  0.50400001928E-02 0. -1.
        1   -1    0    0  501    0  0.00000000000E+00  0.00000000000E+00 -0.58836314352E+03  0.58836314355E+03  0.50400001928E-02 0.  1.
    10030    2    1    2    0    0  0.00000000000E+00  0.00000000000E+00  0.52575677168E+03  0.17024830588E+04  0.16192678538E+04 0.  0.
        4    1    3    3  502    0 -0.10392689865E+03 -0.56364707257E+03  0.86411082366E+03  0.10369127018E+04  0.12699999809E+01 0. -1.
       -4    1    3    3    0  502  0.10392689865E+03  0.56364707257E+03 -0.33835405198E+03  0.66557035697E+03  0.12699999809E+01 0.  1.
</event>
<event>
 5   0  0.3889847E-04  0.1634295E+04  0.7818609E-02  0.8799752E-01
        1   -1    0    0  501    0  0.00000000000E+00  0.00000000000E+00  0.69699657167E+03  0.69699657169E+03  0.50400001928E-02 0.  1.
       -1   -1    0    0    0  501  0.00000000000E+00  0.00000000000E+00 -0.95801004683E+03  0.95801004684E+03  0.50400001928E-02 0. -1.
    10030    2    1    2    0    0  0.00000000000E+00  0.00000000000E+00 -0.26101347516E+03  0.16550066185E+04  0.16342946103E+04 0.  0.
        1    1    3    3  502    0 -0.54575309514E+03 -0.55886271953E+03 -0.37345494581E+03  0.86581902076E+03  0.50400001928E-02 0.  1.
       -1    1    3    3    0  502  0.54575309514E+03  0.55886271953E+03  0.11244147065E+03  0.78918759777E+03  0.50400001928E-02 0. -1.
</event>
<event>
 5   0  0.2781000E-04  0.1623579E+04  0.7818609E-02  0.8806192E-01
        3   -1    0    0  501    0  0.00000000000E+00  0.00000000000E+00  0.15442082051E+04  0.15442082084E+04  0.10100000352E+00 0. -1.
       -3   -1    0    0    0  501  0.00000000000E+00  0.00000000000E+00 -0.42675754098E+03  0.42675755293E+03  0.10100000352E+00 0.  1.
    10030    2    1    2    0    0  0.00000000000E+00  0.00000000000E+00  0.11174506641E+04  0.19709657613E+04  0.16235793930E+04 0.  0.
        2    1    3    3  502    0  0.39440593098E+01 -0.11016403936E+03 -0.41762937150E+03  0.43193282246E+03  0.25500000920E-02 0.  1.
       -2    1    3    3    0  502 -0.39440593098E+01  0.11016403936E+03  0.15350800356E+04  0.15390329388E+04  0.25500000920E-02 0. -1.
</event>
<event>
 5   0  0.3973227E-04  0.1575345E+04  0.7818609E-02  0.8835839E-01
       -1   -1    0    0    0  501  0.00000000000E+00  0.00000000000E+00  0.10602336220E+04  0.10602336220E+04  0.50400001928E-02 0. -1.
        1   -1    0    0  501    0  0.00000000000E+00  0.00000000000E+00 -0.58518055670E+03  0.58518055672E+03  0.50400001928E-02 0.  1.
    10030    2    1    2    0    0  0.00000000000E+00  0.00000000000E+00  0.47505306531E+03  0.16454141787E+04  0.15753451700E+04 0.  0.
        3    1    3    3  502    0 -0.62406373658E+03 -0.23678387432E+03  0.67434580361E+03  0.94882265123E+03  0.10100000352E+00 0. -1.
       -3    1    3    3    0  502  0.62406373658E+03  0.23678387432E+03 -0.19929273831E+03  0.69659152750E+03  0.10100000352E+00 0.  1.
</event>
<event>
 5   0  0.3837251E-04  0.1589404E+04  0.7818609E-02  0.8827084E-01
       -1   -1    0    0    0  501  0.00000000000E+00  0.00000000000E+00  0.79359016665E+03  0.79359016667E+03  0.50400001928E-02 0. -1.
        1   -1    0    0  501    0  0.00000000000E+00  0.00000000000E+00 -0.79581497814E+03  0.79581497816E+03  0.50400001928E-02 0.  1.
    10030    2    1    2    0    0  0.00000000000E+00  0.00000000000E+00 -0.22248114936E+01  0.15894051448E+04  0.15894035877E+04 0.  0.
        4    1    3    3  502    0 -0.48684967778E+03  0.59825102646E+03 -0.19248246765E+03  0.79497044767E+03  0.12699999809E+01 0.  1.
       -4    1    3    3    0  502  0.48684967778E+03 -0.59825102646E+03  0.19025765616E+03  0.79443469716E+03  0.12699999809E+01 0. -1.
</event>
<event>
 5   0  0.3950195E-04  0.1595191E+04  0.7818609E-02  0.8823508E-01
        1   -1    0    0  501    0  0.00000000000E+00  0.00000000000E+00  0.45272339269E+03  0.45272339272E+03  0.50400001928E-02 0.  1.
       -1   -1    0    0    0  501  0.00000000000E+00  0.00000000000E+00 -0.14051823764E+04  0.14051823764E+04  0.50400001928E-02 0. -1.
    10030    2    1    2    0    0  0.00000000000E+00  0.00000000000E+00 -0.95245898373E+03  0.18579057691E+04  0.15951914403E+04 0.  0.
        2    1    3    3  502    0 -0.40577450931E+03 -0.41718073392E+03 -0.11114575854E+04  0.12546037946E+04  0.25500000920E-02 0. -1.
       -2    1    3    3    0  502  0.40577450931E+03  0.41718073392E+03  0.15899860170E+03  0.60330197456E+03  0.25500000920E-02 0.  1.
</event>
<event>
 5   0  0.7770905E-04  0.1589907E+04  0.7818609E-02  0.8826773E-01
        2   -1    0    0  501    0  0.00000000000E+00  0.00000000000E+00  0.12797064132E+04  0.12797064132E+04  0.25500000920E-02 0.  1.
       -2   -1    0    0    0  501  0.00000000000E+00  0.00000000000E+00 -0.49382507357E+03  0.49382507357E+03  0.25500000920E-02 0. -1.
    10030    2    1    2    0    0  0.00000000000E+00  0.00000000000E+00  0.78588133959E+03  0.17735314867E+04  0.15899070585E+04 0.  0.
        2    1    3    3  502    0 -0.78867750000E+02  0.77506116480E+03  0.21652616988E+03  0.80859354031E+03  0.25500000920E-02 0. -1.
       -2    1    3    3    0  502  0.78867750000E+02 -0.77506116480E+03  0.56935516972E+03  0.96493794643E+03  0.25500000920E-02 0.  1.
</event>
<event>
 5   0  0.4110803E-04  0.1595075E+04  0.7818609E-02  0.8823579E-01
       -1   -1    0    0    0  501  0.00000000000E+00  0.00000000000E+00  0.12918856287E+04  0.12918856288E+04  0.50400001928E-02 0.  1.
        1   -1    0    0  501    0  0.00000000000E+00  0.00000000000E+00 -0.49235505442E+03  0.49235505445E+03  0.50400001928E-02 0. -1.
    10030    2    1    2    0    0  0.00000000000E+00  0.00000000000E+00  0.79953057432E+03  0.17842406832E+04  0.15950754453E+04 0.  0.
        5    1    3    3  502    0 -0.52369393839E+03 -0.44458086575E+03  0.85294999272E+03  0.10951955384E+04  0.46999998093E+01 0. -1.
       -5    1    3    3    0  502  0.52369393839E+03  0.44458086575E+03 -0.53419418397E+02  0.68904514479E+03  0.46999998093E+01 0.  1.
</event>
<event>
 5   0  0.3973227E-04  0.1600658E+04  0.7818609E-02  0.8820144E-01
       -1   -1    0    0    0  501  0.00000000000E+00  0.00000000000E+00  0.46319513999E+03  0.46319514002E+03  0.50400001928E-02 0.  1.
        1   -1    0    0  501    0  0.00000000000E+00  0.00000000000E+00 -0.13828430345E+04  0.13828430346E+04  0.50400001928E-02 0. -1.
    10030    2    1    2    0    0  0.00000000000E+00  0.00000000000E+00 -0.91964789455E+03  0.18460381746E+04  0.16006575811E+04 0.  0.
        3    1    3    3  502    0 -0.48945598280E+03 -0.29412486134E+03 -0.11065461099E+04  0.12451991394E+04  0.10100000352E+00 0. -1.
       -3    1    3    3    0  502  0.48945598280E+03  0.29412486134E+03  0.18689821532E+03  0.60083903522E+03  0.10100000352E+00 0.  1.
</event>
<event>
 5   0  0.7770905E-04  0.1479364E+04  0.7818609E-02  0.8898293E-01
        2   -1    0    0  501    0  0.00000000000E+00  0.00000000000E+00  0.81549052969E+03  0.81549052970E+03  0.25500000920E-02 0.  1.
       -2   -1    0    0    0  501  0.00000000000E+00  0.00000000000E+00 -0.67092061459E+03  0.67092061460E+03  0.25500000920E-02 0. -1.
    10030    2    1    2    0    0  0.00000000000E+00  0.00000000000E+00  0.14456991510E+03  0.14864111443E+04  0.14793639273E+04 0.  0.
        2    1    3    3  502    0 -0.39150166466E+03 -0.12961271677E+03 -0.54468935824E+03  0.68319799968E+03  0.25500000920E-02 0.  1.
       -2    1    3    3    0  502  0.39150166466E+03  0.12961271677E+03  0.68925927334E+03  0.80321314461E+03  0.25500000920E-02 0. -1.
</event>
<event>
 5   0  0.3950195E-04  0.1618043E+04  0.7818609E-02  0.8809539E-01
        1   -1    0    0  501    0  0.00000000000E+00  0.00000000000E+00  0.68462184425E+03  0.68462184426E+03  0.50400001928E-02 0.  1.
       -1   -1    0    0    0  501  0.00000000000E+00  0.00000000000E+00 -0.95602559186E+03  0.95602559188E+03  0.50400001928E-02 0. -1.
    10030    2    1    2    0    0  0.00000000000E+00  0.00000000000E+00 -0.27140374762E+03  0.16406474361E+04  0.16180432675E+04 0.  0.
        2    1    3    3  502    0  0.34501982974E+03  0.69650936335E+03 -0.36322922754E+03  0.85796238140E+03  0.25500000920E-02 0. -1.
       -2    1    3    3    0  502 -0.34501982974E+03 -0.69650936335E+03  0.91825479926E+02  0.78268505474E+03  0.25500000920E-02 0.  1.
</event>
<event>
 5   0  0.4110803E-04  0.1592002E+04  0.7818609E-02  0.8825477E-01
       -1   -1    0    0    0  501  0.00000000000E+00  0.00000000000E+00  0.35507442712E+03  0.35507442715E+03  0.50400001928E-02 0. -1.
        1   -1    0    0  501    0  0.00000000000E+00  0.00000000000E+00 -0.17844639599E+04  0.17844639599E+04  0.50400001928E-02 0.  1.
    10030    2    1    2    0    0  0.00000000000E+00  0.00000000000E+00 -0.14293895328E+04  0.21395383871E+04  0.15920019074E+04 0.  0.
        5    1    3    3  502    0  0.38396045065E+02 -0.26436735416E+03 -0.17224009457E+04  0.17430007063E+04  0.46999998093E+01 0.  1.
       -5    1    3    3    0  502 -0.38396045065E+02  0.26436735416E+03  0.29301141291E+03  0.39653768082E+03  0.46999998093E+01 0. -1.
</event>
<event>
 5   0  0.7395088E-04  0.1642949E+04  0.7818609E-02  0.8794589E-01
       -2   -1    0    0    0  501  0.00000000000E+00  0.00000000000E+00  0.32959482710E+03  0.32959482711E+03  0.25500000920E-02 0. -1.
        2   -1    0    0  501    0  0.00000000000E+00  0.00000000000E+00 -0.20474230147E+04  0.20474230147E+04  0.25500000920E-02 0.  1.
    10030    2    1    2    0    0  0.00000000000E+00  0.00000000000E+00 -0.17178281876E+04  0.23770178418E+04  0.16429486109E+04 0.  0.
        1    1    3    3  502    0  0.45127144395E+03  0.27495394839E+03 -0.17688746668E+04  0.18461211165E+04  0.50400001928E-02 0.  1.
       -1    1    3    3    0  502 -0.45127144395E+03 -0.27495394839E+03  0.51046479233E+02  0.53089672529E+03  0.50400001928E-02 0. -1.
</event>
<event>
 5   0  0.7770905E-04  0.1558744E+04  0.7818609E-02  0.8846302E-01
        2   -1    0    0  501    0  0.00000000000E+00  0.00000000000E+00  0.10648402783E+04  0.10648402783E+04  0.25500000920E-02 0.  1.
       -2   -1    0    0    0  501  0.00000000000E+00  0.00000000000E+00 -0.57043382621E+03  0.57043382621E+03  0.25500000920E-02 0. -1.
    10030    2    1    2    0    0  0.00000000000E+00  0.00000000000E+00  0.49440645211E+03  0.16352741045E+04  0.15587442565E+04 0.  0.
        2    1    3    3  502    0 -0.65726728020E+03 -0.23416557548E+03  0.61150908394E+03  0.92778076834E+03  0.25500000920E-02 0.  1.
       -2    1    3    3    0  502  0.65726728020E+03  0.23416557548E+03 -0.11710263184E+03  0.70749333618E+03  0.25500000920E-02 0. -1.
</event>
<event>
 5   0  0.7553070E-04  0.1629309E+04  0.7818609E-02  0.8802742E-01
       -2   -1    0    0    0  501  0.00000000000E+00  0.00000000000E+00  0.78351525199E+03  0.78351525200E+03  0.25500000920E-02 0.  1.
        2   -1    0    0  501    0  0.00000000000E+00  0.00000000000E+00 -0.84703149738E+03  0.84703149738E+03  0.25500000920E-02 0. -1.
    10030    2    1    2    0    0  0.00000000000E+00  0.00000000000E+00 -0.63516245384E+02  0.16305467494E+04  0.16293091752E+04 0.  0.
        4    1    3    3  502    0  0.30633723856E+03 -0.48872509161E+03  0.54397509636E+03  0.79284628854E+03  0.12699999809E+01 0.  1.
       -4    1    3    3    0  502 -0.30633723856E+03  0.48872509161E+03 -0.60749134175E+03  0.83770046084E+03  0.12699999809E+01 0. -1.
</event>
<event>
 5   0  0.7415102E-04  0.1367182E+04  0.7818609E-02  0.8977922E-01
       -2   -1    0    0    0  501  0.00000000000E+00  0.00000000000E+00  0.28807197482E+03  0.28807197483E+03  0.25500000920E-02 0. -1.
        2   -1    0    0  501    0  0.00000000000E+00  0.00000000000E+00 -0.16221528745E+04  0.16221528745E+04  0.25500000920E-02 0.  1.
    10030    2    1    2    0    0  0.00000000000E+00  0.00000000000E+00 -0.13340808997E+04  0.19102248494E+04  0.13671821854E+04 0.  0.
        5    1    3    3  502    0 -0.12005119124E+03 -0.17945094002E+02 -0.16069515244E+04  0.16115364118E+04  0.46999998093E+01 0.  1.
       -5    1    3    3    0  502  0.12005119124E+03  0.17945094002E+02  0.27287062467E+03  0.29868843754E+03  0.46999998093E+01 0. -1.
</event>
<event>
 5   0  0.7553070E-04  0.1597561E+04  0.7818609E-02  0.8822048E-01
        2   -1    0    0  501    0  0.00000000000E+00  0.00000000000E+00  0.81430894625E+03  0.81430894625E+03  0.25500000920E-02 0. -1.
       -2   -1    0    0    0  501  0.00000000000E+00  0.00000000000E+00 -0.78354799852E+03  0.78354799852E+03  0.25500000920E-02 0.  1.
    10030    2    1    2    0    0  0.00000000000E+00  0.00000000000E+00  0.30760947731E+02  0.15978569448E+04  0.15975608220E+04 0.  0.
        4    1    3    3  502    0  0.15081569368E+03 -0.49253358985E+03  0.62599656133E+03  0.81068367338E+03  0.12699999809E+01 0. -1.
       -4    1    3    3    0  502 -0.15081569368E+03  0.49253358985E+03 -0.59523561360E+03  0.78717327139E+03  0.12699999809E+01 0.  1.
</event>
<event>
 5   0  0.7395088E-04  0.1608389E+04  0.7818609E-02  0.8815411E-01
       -2   -1    0    0    0  501  0.00000000000E+00  0.00000000000E+00  0.49114166152E+03  0.49114166153E+03  0.25500000920E-02 0.  1.
        2   -1    0    0  501    0  0.00000000000E+00  0.00000000000E+00 -0.13167866738E+04  0.13167866738E+04  0.25500000920E-02 0. -1.
    10030    2    1    2    0    0  0.00000000000E+00  0.00000000000E+00 -0.82564501229E+03  0.18079283353E+04  0.16083890013E+04 0.  0.
        1    1    3    3  502    0 -0.25232041337E+03 -0.60749902599E+03  0.10717978875E+03  0.66648943332E+03  0.50400001928E-02 0.  1.
       -1    1    3    3    0  502  0.25232041337E+03  0.60749902599E+03 -0.93282480104E+03  0.11414389020E+04  0.50400001928E-02 0. -1.
</event>
<event>
 5   0  0.3950195E-04  0.1573425E+04  0.7818609E-02  0.8837042E-01
        1   -1    0    0  501    0  0.00000000000E+00  0.00000000000E+00  0.56516825602E+03  0.56516825604E+03  0.50400001928E-02 0. -1.
       -1   -1    0    0    0  501  0.00000000000E+00  0.00000000000E+00 -0.10951014707E+04  0.10951014707E+04  0.50400001928E-02 0.  1.
    10030    2    1    2    0    0  0.00000000000E+00  0.00000000000E+00 -0.52993321463E+03  0.16602697267E+04  0.15734250390E+04 0.  0.
        2    1    3    3  502    0  0.47104559115E+03  0.16831724196E+03 -0.90568959613E+03  0.10346440390E+04  0.25500000920E-02 0.  1.
       -2    1    3    3    0  502 -0.47104559115E+03 -0.16831724196E+03  0.37575638150E+03  0.62562568771E+03  0.25500000920E-02 0. -1.
</event>
<event>
 5   0  0.7770905E-04  0.1600652E+04  0.7818609E-02  0.8820147E-01
       -2   -1    0    0    0  501  0.00000000000E+00  0.00000000000E+00  0.18026806374E+03  0.18026806376E+03  0.25500000920E-02 0. -1.
        2   -1    0    0  501    0  0.00000000000E+00  0.00000000000E+00 -0.35531629643E+04  0.35531629643E+04  0.25500000920E-02 0.  1.
    10030    2    1    2    0    0  0.00000000000E+00  0.00000000000E+00 -0.33728949005E+04  0.37334310280E+04  0.16006521268E+04 0.  0.
        2    1    3    3  502    0 -0.30004687005E+03 -0.23777365967E+03 -0.33257379102E+04  0.33477002680E+04  0.25500000920E-02 0.  1.
       -2    1    3    3    0  502  0.30004687005E+03  0.23777365967E+03 -0.47156990357E+02  0.38573075999E+03  0.25500000920E-02 0. -1.
</event>
<event>
 5   0  0.7488884E-04  0.1597306E+04  0.7818609E-02  0.8822205E-01
       -2   -1    0    0    0  501  0.00000000000E+00  0.00000000000E+00  0.66243950154E+03  0.66243950155E+03  0.25500000920E-02 0. -1.
        2   -1    0    0  501    0  0.00000000000E+00  0.00000000000E+00 -0.96287566074E+03  0.96287566075E+03  0.25500000920E-02 0.  1.
    10030    2    1    2    0    0  0.00000000000E+00  0.00000000000E+00 -0.30043615920E+03  0.16253151623E+04  0.15973063235E+04 0.  0.
        3    1    3    3  502    0  0.39943480190E+03 -0.65707082387E+03  0.69335318266E+02  0.77207358789E+03  0.10100000352E+00 0.  1.
       -3    1    3    3    0  502 -0.39943480190E+03  0.65707082387E+03 -0.36977147747E+03  0.85324157441E+03  0.10100000352E+00 0. -1.
</event>
<event>
 5   0  0.2781000E-04  0.1584891E+04  0.7818609E-02  0.8829884E-01
        4   -1    0    0  501    0  0.00000000000E+00  0.00000000000E+00  0.45516639102E+03  0.45516816278E+03  0.12699999809E+01 0.  1.
       -4   -1    0    0    0  501  0.00000000000E+00  0.00000000000E+00 -0.13796438465E+04  0.13796444310E+04  0.12699999809E+01 0. -1.
    10030    2    1    2    0    0  0.00000000000E+00  0.00000000000E+00 -0.92447745550E+03  0.18348125938E+04  0.15848907498E+04 0.  0.
        2    1    3    3  502    0  0.45761785660E+02  0.65735399861E+03  0.47357080949E+02  0.66064446841E+03  0.25500000920E-02 0.  1.
       -2    1    3    3    0  502 -0.45761785660E+02 -0.65735399861E+03 -0.97183453645E+03  0.11741681254E+04  0.25500000920E-02 0. -1.
</event>
<event>
 5   0  0.7395088E-04  0.1631476E+04  0.7818609E-02  0.8801441E-01
       -2   -1    0    0    0  501  0.00000000000E+00  0.00000000000E+00  0.10034979712E+04  0.10034979712E+04  0.25500000920E-02 0.  1.
        2   -1    0    0  501    0  0.00000000000E+00  0.00000000000E+00 -0.66310922467E+03  0.66310922468E+03  0.25500000920E-02 0. -1.
    10030    2    1    2    0    0  0.00000000000E+00  0.00000000000E+00  0.34038874650E+03  0.16666071959E+04  0.16314763396E+04 0.  0.
        1    1    3    3  502    0 -0.15255269266E+03  0.25211192923E+03  0.94722867522E+03  0.99200550002E+03  0.50400001928E-02 0.  1.
       -1    1    3    3    0  502  0.15255269266E+03 -0.25211192923E+03 -0.60683992872E+03  0.67460169583E+03  0.50400001928E-02 0. -1.
</event>
<event>
 5   0  0.3889847E-04  0.1602073E+04  0.7818609E-02  0.8819275E-01
        1   -1    0    0  501    0  0.00000000000E+00  0.00000000000E+00  0.75186433545E+03  0.75186433547E+03  0.50400001928E-02 0.  1.
       -1   -1    0    0    0  501  0.00000000000E+00  0.00000000000E+00 -0.85342458572E+03  0.85342458573E+03  0.50400001928E-02 0. -1.
    10030    2    1    2    0    0  0.00000000000E+00  0.00000000000E+00 -0.10156025026E+03  0.16052889212E+04  0.16020730433E+04 0.  0.
        1    1    3    3  502    0  0.12587267258E+03 -0.11324995268E+03 -0.83528852871E+03  0.85227718948E+03  0.50400001928E-02 0. -1.
       -1    1    3    3    0  502 -0.12587267258E+03  0.11324995268E+03  0.73372827845E+03  0.75301173172E+03  0.50400001928E-02 0.  1.
</event>
<event>
 5   0  0.7770905E-04  0.1602724E+04  0.7818609E-02  0.8818877E-01
       -2   -1    0    0    0  501  0.00000000000E+00  0.00000000000E+00  0.85153287541E+03  0.85153287542E+03  0.25500000920E-02 0. -1.
        2   -1    0    0  501    0  0.00000000000E+00  0.00000000000E+00 -0.75414679703E+03  0.75414679703E+03  0.25500000920E-02 0.  1.
    10030    2    1    2    0    0  0.00000000000E+00  0.00000000000E+00  0.97386078383E+02  0.16056796725E+04  0.16027236700E+04 0.  0.
        2    1    3    3  502    0  0.36428477316E+03 -0.50767615129E+03 -0.45397164452E+03  0.77235272032E+03  0.25500000920E-02 0.  1.
       -2    1    3    3    0  502 -0.36428477316E+03  0.50767615129E+03  0.55135772290E+03  0.83332695214E+03  0.25500000920E-02 0. -1.
</event>
<event>
 5   0  0.3973227E-04  0.1605600E+04  0.7818609E-02  0.8817115E-01
       -1   -1    0    0    0  501  0.00000000000E+00  0.00000000000E+00  0.37354173268E+03  0.37354173272E+03  0.50400001928E-02 0. -1.
        1   -1    0    0  501    0  0.00000000000E+00  0.00000000000E+00 -0.17253426832E+04  0.17253426832E+04  0.50400001928E-02 0.  1.
    10030    2    1    2    0    0  0.00000000000E+00  0.00000000000E+00 -0.13518009505E+04  0.20988844159E+04  0.16055995707E+04 0.  0.
        3    1    3    3  502    0  0.32877270279E+03  0.22546010195E+03 -0.15868082364E+04  0.16361186195E+04  0.10100000352E+00 0.  1.
       -3    1    3    3    0  502 -0.32877270279E+03 -0.22546010195E+03  0.23500728594E+03  0.46276579640E+03  0.10100000352E+00 0. -1.
</event>
<event>
 5   0  0.7415102E-04  0.1833072E+04  0.7818609E-02  0.8688907E-01
        2   -1    0    0  501    0  0.00000000000E+00  0.00000000000E+00  0.93088683352E+03  0.93088683352E+03  0.25500000920E-02 0.  1.
       -2   -1    0    0    0  501  0.00000000000E+00  0.00000000000E+00 -0.90240680248E+03  0.90240680249E+03  0.25500000920E-02 0. -1.
    10030    2    1    2    0    0  0.00000000000E+00  0.00000000000E+00  0.28480031037E+02  0.18332936360E+04  0.18330724055E+04 0.  0.
        5    1    3    3  502    0  0.28309906287E+03 -0.17228955881E+03  0.86885338450E+03  0.92992315017E+03  0.46999998093E+01 0.  1.
       -5    1    3    3    0  502 -0.28309906287E+03  0.17228955881E+03 -0.84037335346E+03  0.90337048584E+03  0.46999998093E+01 0. -1.
</event>
<event>
 5   0  0.3837251E-04  0.1589105E+04  0.7818609E-02  0.8827269E-01
       -1   -1    0    0    0  501  0.00000000000E+00  0.00000000000E+00  0.79030596232E+03  0.79030596234E+03  0.50400001928E-02 0. -1.
        1   -1    0    0  501    0  0.00000000000E+00  0.00000000000E+00 -0.79882186741E+03  0.79882186742E+03  0.50400001928E-02 0.  1.
    10030    2    1    2    0    0  0.00000000000E+00  0.00000000000E+00 -0.85159050869E+01  0.15891278298E+04  0.15891050118E+04 0.  0.
        4    1    3    3  502    0 -0.14378873367E+02 -0.41315062410E+03 -0.68280426913E+03  0.79820014598E+03  0.12699999809E+01 0.  1.
       -4    1    3    3    0  502  0.14378873367E+02  0.41315062410E+03  0.67428836404E+03  0.79092768378E+03  0.12699999809E+01 0. -1.
</event>
<event>
 5   0  0.7553070E-04  0.1453021E+04  0.7818609E-02  0.8916309E-01
        2   -1    0    0  501    0  0.00000000000E+00  0.00000000000E+00  0.18229062538E+04  0.18229062538E+04  0.25500000920E-02 0. -1.
       -2   -1    0    0    0  501  0.00000000000E+00  0.00000000000E+00 -0.28954728448E+03  0.28954728449E+03  0.25500000920E-02 0.  1.
    10030    2    1    2    0    0  0.00000000000E+00  0.00000000000E+00  0.15333589693E+04  0.21124535383E+04  0.14530210675E+04 0.  0.
        4    1    3    3  502    0  0.26015076500E+02  0.12083036632E+03  0.18075070603E+04  0.18117284972E+04  0.12699999809E+01 0. -1.
       -4    1    3    3    0  502 -0.26015076500E+02 -0.12083036632E+03 -0.27414809099E+03  0.30072504107E+03  0.12699999809E+01 0.  1.
</event>
<event>
 5   0  0.3889847E-04  0.1606626E+04  0.7818609E-02  0.8816488E-01
       -1   -1    0    0    0  501  0.00000000000E+00  0.00000000000E+00  0.10502077168E+04  0.10502077168E+04  0.50400001928E-02 0.  1.
        1   -1    0    0  501    0  0.00000000000E+00  0.00000000000E+00 -0.61446077499E+03  0.61446077501E+03  0.50400001928E-02 0. -1.
    10030    2    1    2    0    0  0.00000000000E+00  0.00000000000E+00  0.43574694182E+03  0.16646684918E+04  0.16066255912E+04 0.  0.
        1    1    3    3  502    0  0.12436336550E+03  0.38591956450E+03 -0.50065762156E+03  0.64425011524E+03  0.50400001928E-02 0. -1.
       -1    1    3    3    0  502 -0.12436336550E+03 -0.38591956450E+03  0.93640456338E+03  0.10204183766E+04  0.50400001928E-02 0.  1.
</event>
<event>
 5   0  0.7395088E-04  0.1598062E+04  0.7818609E-02  0.8821739E-01
        2   -1    0    0  501    0  0.00000000000E+00  0.00000000000E+00  0.12070046851E+04  0.12070046851E+04  0.25500000920E-02 0.  1.
       -2   -1    0    0    0  501  0.00000000000E+00  0.00000000000E+00 -0.52895463069E+03  0.52895463069E+03  0.25500000920E-02 0. -1.
    10030    2    1    2    0    0  0.00000000000E+00  0.00000000000E+00  0.67805005440E+03  0.17359593158E+04  0.15980622234E+04 0.  0.
        1    1    3    3  502    0 -0.32723732311E+03 -0.23581153519E+03 -0.41024702439E+03  0.57532075124E+03  0.50400001928E-02 0. -1.
       -1    1    3    3    0  502  0.32723732311E+03  0.23581153519E+03  0.10882970788E+04  0.11606385645E+04  0.50400001928E-02 0.  1.
</event>
<event>
 5   0  0.3837251E-04  0.1617617E+04  0.7818609E-02  0.8809798E-01
        1   -1    0    0  501    0  0.00000000000E+00  0.00000000000E+00  0.21167677723E+04  0.21167677723E+04  0.50400001928E-02 0.  1.
       -1   -1    0    0    0  501  0.00000000000E+00  0.00000000000E+00 -0.30904254950E+03  0.30904254955E+03  0.50400001928E-02 0. -1.
    10030    2    1    2    0    0  0.00000000000E+00  0.00000000000E+00  0.18077252228E+04  0.24258103219E+04  0.16176171477E+04 0.  0.
        4    1    3    3  502    0  0.27926975892E+03  0.69481614128E+03  0.13621887159E+04  0.15544519224E+04  0.12699999809E+01 0.  1.
       -4    1    3    3    0  502 -0.27926975892E+03 -0.69481614128E+03  0.44553650690E+03  0.87135839945E+03  0.12699999809E+01 0. -1.
</event>
<event>
 5   0  0.7488884E-04  0.2047618E+04  0.7818609E-02  0.8584676E-01
        2   -1    0    0  501    0  0.00000000000E+00  0.00000000000E+00  0.16661602838E+04  0.16661602838E+04  0.25500000920E-02 0.  1.
       -2   -1    0    0    0  501  0.00000000000E+00  0.00000000000E+00 -0.62910224394E+03  0.62910224395E+03  0.25500000920E-02 0. -1.
    10030    2    1    2    0    0  0.00000000000E+00  0.00000000000E+00  0.10370580399E+04  0.22952625277E+04  0.20476182977E+04 0.  0.
        3    1    3    3  502    0 -0.81605584434E+03 -0.60452241574E+03  0.37327860242E+03  0.10820034276E+04  0.10100000352E+00 0.  1.
       -3    1    3    3    0  502  0.81605584434E+03  0.60452241574E+03  0.66377943743E+03  0.12132591001E+04  0.10100000352E+00 0. -1.
</event>
<event>
 5   0  0.3973227E-04  0.1605566E+04  0.7818609E-02  0.8817136E-01
       -1   -1    0    0    0  501  0.00000000000E+00  0.00000000000E+00  0.58647233852E+03  0.58647233854E+03  0.50400001928E-02 0. -1.
        1   -1    0    0  501    0  0.00000000000E+00  0.00000000000E+00 -0.10988766203E+04  0.10988766203E+04  0.50400001928E-02 0.  1.
    10030    2    1    2    0    0  0.00000000000E+00  0.00000000000E+00 -0.51240428178E+03  0.16853489589E+04  0.16055662444E+04 0.  0.
        3    1    3    3  502    0 -0.23077876442E+03 -0.62128469674E+03 -0.73171024727E+03  0.98724536396E+03  0.10100000352E+00 0.  1.
       -3    1    3    3    0  502  0.23077876442E+03  0.62128469674E+03  0.21930596549E+03  0.69810359489E+03  0.10100000352E+00 0. -1.
</event>
<event>
 5   0  0.7395088E-04  0.1591383E+04  0.7818609E-02  0.8825859E-01
        2   -1    0    0  501    0  0.00000000000E+00  0.00000000000E+00  0.16686435206E+04  0.16686435206E+04  0.25500000920E-02 0. -1.
       -2   -1    0    0    0  501  0.00000000000E+00  0.00000000000E+00 -0.37942488704E+03  0.37942488705E+03  0.25500000920E-02 0.  1.
    10030    2    1    2    0    0  0.00000000000E+00  0.00000000000E+00  0.12892186336E+04  0.20480684077E+04  0.15913828946E+04 0.  0.
        1    1    3    3  502    0  0.36666298912E+03 -0.17299086715E+03  0.15257470326E+04  0.15786930022E+04  0.50400001928E-02 0. -1.
       -1    1    3    3    0  502 -0.36666298912E+03  0.17299086715E+03 -0.23652839900E+03  0.46937540548E+03  0.50400001928E-02 0.  1.
</event>
<event>
 5   0  0.3837251E-04  0.1593518E+04  0.7818609E-02  0.8824540E-01
        1   -1    0    0  501    0  0.00000000000E+00  0.00000000000E+00  0.60737542063E+03  0.60737542065E+03  0.50400001928E-02 0. -1.
       -1   -1    0    0    0  501  0.00000000000E+00  0.00000000000E+00 -0.10451937531E+04  0.10451937532E+04  0.50400001928E-02 0.  1.
    10030    2    1    2    0    0  0.00000000000E+00  0.00000000000E+00 -0.43781833251E+03  0.16525691738E+04  0.15935181147E+04 0.  0.
        4    1    3    3  502    0  0.21537544096E+03 -0.44833066845E+03 -0.86441899688E+03  0.99730074897E+03  0.12699999809E+01 0.  1.
       -4    1    3    3    0  502 -0.21537544096E+03  0.44833066845E+03  0.42660066436E+03  0.65526842483E+03  0.12699999809E+01 0. -1.
</event>
<event>
 5   0  0.7488884E-04  0.1376057E+04  0.7818609E-02  0.8971334E-01
       -2   -1    0    0    0  501  0.00000000000E+00  0.00000000000E+00  0.24214240459E+03  0.24214240460E+03  0.25500000920E-02 0. -1.
        2   -1    0    0  501    0  0.00000000000E+00  0.00000000000E+00 -0.19549790117E+04  0.19549790117E+04  0.25500000920E-02 0.  1.
    10030    2    1    2    0    0  0.00000000000E+00  0.00000000000E+00 -0.17128366071E+04  0.21971214163E+04  0.13760571483E+04 0.  0.
        3    1    3    3  502    0 -0.66262802624E+03  0.25088099051E+02 -0.11494338742E+04  0.13269904126E+04  0.10100000352E+00 0.  1.
       -3    1    3    3    0  502  0.66262802624E+03 -0.25088099051E+02 -0.56340273290E+03  0.87013100365E+03  0.10100000352E+00 0. -1.
</event>
<event>
 5   0  0.3837251E-04  0.1590112E+04  0.7818609E-02  0.8826646E-01
       -1   -1    0    0    0  501  0.00000000000E+00  0.00000000000E+00  0.57978359534E+03  0.57978359536E+03  0.50400001928E-02 0. -1.
        1   -1    0    0  501    0  0.00000000000E+00  0.00000000000E+00 -0.10902581738E+04  0.10902581738E+04  0.50400001928E-02 0.  1.
    10030    2    1    2    0    0  0.00000000000E+00  0.00000000000E+00 -0.51047457845E+03  0.16700417692E+04  0.15901116991E+04 0.  0.
        4    1    3    3  502    0  0.87713668963E+02 -0.58387146301E+03 -0.81446141159E+03  0.10059565482E+04  0.12699999809E+01 0.  1.
       -4    1    3    3    0  502 -0.87713668963E+02  0.58387146301E+03  0.30398683314E+03  0.66408522094E+03  0.12699999809E+01 0. -1.
</event>
<event>
 5   0  0.2781000E-04  0.1603515E+04  0.7818609E-02  0.8818391E-01
       -3   -1    0    0    0  501  0.00000000000E+00  0.00000000000E+00  0.64693748717E+03  0.64693749505E+03  0.10100000352E+00 0.  1.
        3   -1    0    0  501    0  0.00000000000E+00  0.00000000000E+00 -0.99362793599E+03  0.99362794112E+03  0.10100000352E+00 0. -1.
    10030    2    1    2    0    0  0.00000000000E+00  0.00000000000E+00 -0.34669044882E+03  0.16405654362E+04  0.16035151022E+04 0.  0.
        2    1    3    3  502    0  0.34551304361E+03 -0.27320667012E+03 -0.85874512177E+03  0.96512399829E+03  0.25500000920E-02 0. -1.
       -2    1    3    3    0  502 -0.34551304361E+03  0.27320667012E+03  0.51205467295E+03  0.67544143788E+03  0.25500000920E-02 0.  1.
</event>
<event>
 5   0  0.3837251E-04  0.1621039E+04  0.7818609E-02  0.8807726E-01
       -1   -1    0    0    0  501  0.00000000000E+00  0.00000000000E+00  0.81359147373E+03  0.81359147374E+03  0.50400001928E-02 0.  1.
        1   -1    0    0  501    0  0.00000000000E+00  0.00000000000E+00 -0.80745948135E+03  0.80745948137E+03  0.50400001928E-02 0. -1.
    10030    2    1    2    0    0  0.00000000000E+00  0.00000000000E+00  0.61319923732E+01  0.16210509551E+04  0.16210393572E+04 0.  0.
        4    1    3    3  502    0  0.14722703666E+03  0.46067110309E+01 -0.79396135859E+03  0.80751054107E+03  0.12699999809E+01 0. -1.
       -4    1    3    3    0  502 -0.14722703666E+03 -0.46067110309E+01  0.80009335096E+03  0.81354041403E+03  0.12699999809E+01 0.  1.
</event>
<event>
 5   0  0.4110803E-04  0.1643063E+04  0.7818609E-02  0.8794521E-01
        1   -1    0    0  501    0  0.00000000000E+00  0.00000000000E+00  0.16214020582E+04  0.16214020582E+04  0.50400001928E-02 0. -1.
       -1   -1    0    0    0  501  0.00000000000E+00  0.00000000000E+00 -0.41625357056E+03  0.41625357059E+03  0.50400001928E-02 0.  1.
    10030    2    1    2    0    0  0.00000000000E+00  0.00000000000E+00  0.12051484876E+04  0.20376556288E+04  0.16430634754E+04 0.  0.
        5    1    3    3  502    0  0.69076592942E+03  0.41701365098E+03  0.79403427215E+03  0.11320646932E+04  0.46999998093E+01 0. -1.
       -5    1    3    3    0  502 -0.69076592942E+03 -0.41701365098E+03  0.41111421546E+03  0.90559093552E+03  0.46999998093E+01 0.  1.
</event>
<event>
 5   0  0.7770905E-04  0.1599846E+04  0.7818609E-02  0.8820642E-01
       -2   -1    0    0    0  501  0.00000000000E+00  0.00000000000E+00  0.39181846028E+03  0.39181846029E+03  0.25500000920E-02 0.  1.
        2   -1    0    0  501    0  0.00000000000E+00  0.00000000000E+00 -0.16330959225E+04  0.16330959225E+04  0.25500000920E-02 0. -1.
    10030    2    1    2    0    0  0.00000000000E+00  0.00000000000E+00 -0.12412774622E+04  0.20249143828E+04  0.15998464049E+04 0.  0.
        2    1    3    3  502    0  0.60812245204E+02 -0.26189102890E+03  0.33291801398E+03  0.42792457772E+03  0.25500000920E-02 0.  1.
       -2    1    3    3    0  502 -0.60812245204E+02  0.26189102890E+03 -0.15741954762E+04  0.15969898050E+04  0.25500000920E-02 0. -1.
</event>
<event>
 5   0  0.7553070E-04  0.1587024E+04  0.7818609E-02  0.8828559E-01
        2   -1    0    0  501    0  0.00000000000E+00  0.00000000000E+00  0.93038672253E+03  0.93038672253E+03  0.25500000920E-02 0.  1.
       -2   -1    0    0    0  501  0.00000000000E+00  0.00000000000E+00 -0.67677392844E+03  0.67677392845E+03  0.25500000920E-02 0. -1.
    10030    2    1    2    0    0  0.00000000000E+00  0.00000000000E+00  0.25361279408E+03  0.16071606510E+04  0.15870242307E+04 0.  0.
        4    1    3    3  502    0 -0.28411522160E+03 -0.31656138057E+03  0.80517693516E+03  0.91062839656E+03  0.12699999809E+01 0.  1.
       -4    1    3    3    0  502  0.28411522160E+03  0.31656138057E+03 -0.55156414108E+03  0.69653225441E+03  0.12699999809E+01 0. -1.
</event>
<event>
 5   0  0.7415102E-04  0.1574169E+04  0.7818609E-02  0.8836576E-01
       -2   -1    0    0    0  501  0.00000000000E+00  0.00000000000E+00  0.80788768222E+03  0.80788768222E+03  0.25500000920E-02 0.  1.
        2   -1    0    0  501    0  0.00000000000E+00  0.00000000000E+00 -0.76681665459E+03  0.76681665459E+03  0.25500000920E-02 0. -1.
    10030    2    1    2    0    0  0.00000000000E+00  0.00000000000E+00  0.41071027625E+02  0.15747043368E+04  0.15741686438E+04 0.  0.
        5    1    3    3  502    0 -0.41877820881E+03 -0.42566893256E+02  0.68581259040E+03  0.80470375153E+03  0.46999998093E+01 0.  1.
       -5    1    3    3    0  502  0.41877820881E+03  0.42566893256E+02 -0.64474156277E+03  0.77000058529E+03  0.46999998093E+01 0. -1.
</event>
<event>
 5   0  0.7415102E-04  0.1585111E+04  0.7818609E-02  0.8829748E-01
        2   -1    0    0  501    0  0.00000000000E+00  0.00000000000E+00  0.16869135851E+04  0.16869135851E+04  0.25500000920E-02 0.  1.
       -2   -1    0    0    0  501  0.00000000000E+00  0.00000000000E+00 -0.37236293319E+03  0.37236293320E+03  0.25500000920E-02 0. -1.
    10030    2    1    2    0    0  0.00000000000E+00  0.00000000000E+00  0.13145506519E+04  0.20592765183E+04  0.15851108360E+04 0.  0.
        5    1    3    3  502    0 -0.44825910165E+03 -0.11092685484E+03 -0.17951530969E+03  0.49546828935E+03  0.46999998093E+01 0. -1.
       -5    1    3    3    0  502  0.44825910165E+03  0.11092685484E+03  0.14940659616E+04  0.15638082289E+04  0.46999998093E+01 0.  1.
</event>
<event>
 5   0  0.3837251E-04  0.1578793E+04  0.7818609E-02  0.8833683E-01
       -1   -1    0    0    0  501  0.00000000000E+00  0.00000000000E+00  0.16162370655E+04  0.16162370655E+04  0.50400001928E-02 0. -1.
        1   -1    0    0  501    0  0.00000000000E+00  0.00000000000E+00 -0.38555415133E+03  0.38555415136E+03  0.50400001928E-02 0.  1.
    10030    2    1    2    0    0  0.00000000000E+00  0.00000000000E+00  0.12306829142E+04  0.20017912169E+04  0.15787930963E+04 0.  0.
        4    1    3    3  502    0 -0.55943757375E+03 -0.18304586060E+03 -0.51578783666E+02  0.59087914993E+03  0.12699999809E+01 0.  1.
       -4    1    3    3    0  502  0.55943757375E+03  0.18304586060E+03  0.12822616979E+04  0.14109120670E+04  0.12699999809E+01 0. -1.
</event>
<event>
 5   0  0.3889847E-04  0.1601753E+04  0.7818609E-02  0.8819472E-01
       -1   -1    0    0    0  501  0.00000000000E+00  0.00000000000E+00  0.12582269952E+04  0.12582269953E+04  0.50400001928E-02 0.  1.
        1   -1    0    0  501    0  0.00000000000E+00  0.00000000000E+00 -0.50976721565E+03  0.50976721568E+03  0.50400001928E-02 0. -1.
    10030    2    1    2    0    0  0.00000000000E+00  0.00000000000E+00  0.74845977959E+03  0.17679942109E+04  0.16017526302E+04 0.  0.
        1    1    3    3  502    0  0.55180040955E+03 -0.57951462292E+03  0.33792247014E+03  0.86862678177E+03  0.50400001928E-02 0. -1.
       -1    1    3    3    0  502 -0.55180040955E+03  0.57951462292E+03  0.41053730945E+03  0.89936742916E+03  0.50400001928E-02 0.  1.
</event>
<event>
 5   0  0.7488884E-04  0.1601708E+04  0.7818609E-02  0.8819500E-01
        2   -1    0    0  501    0  0.00000000000E+00  0.00000000000E+00  0.21159439663E+04  0.21159439663E+04  0.25500000920E-02 0. -1.
       -2   -1    0    0    0  501  0.00000000000E+00  0.00000000000E+00 -0.30311149113E+03  0.30311149114E+03  0.25500000920E-02 0.  1.
    10030    2    1    2    0    0  0.00000000000E+00  0.00000000000E+00  0.18128324751E+04  0.24190554574E+04  0.16017077521E+04 0.  0.
        3    1    3    3  502    0  0.34521741920E+03  0.11925893593E+02  0.19976516276E+04  0.20272960634E+04  0.10100000352E+00 0. -1.
       -3    1    3    3    0  502 -0.34521741920E+03 -0.11925893593E+02 -0.18481915244E+03  0.39175939397E+03  0.10100000352E+00 0.  1.
</event>
<event>
 5   0  0.7395088E-04  0.1591935E+04  0.7818609E-02  0.8825518E-01
       -2   -1    0    0    0  501  0.00000000000E+00  0.00000000000E+00  0.38525398320E+03  0.38525398321E+03  0.25500000920E-02 0.  1.
        2   -1    0    0  501    0  0.00000000000E+00  0.00000000000E+00 -0.16445359918E+04  0.16445359918E+04  0.25500000920E-02 0. -1.
    10030    2    1    2    0    0  0.00000000000E+00  0.00000000000E+00 -0.12592820086E+04  0.20297899750E+04  0.15919347240E+04 0.  0.
        1    1    3    3  502    0  0.72650558351E+03 -0.29315766307E+03 -0.45017057976E+03  0.90355150888E+03  0.50400001928E-02 0.  1.
       -1    1    3    3    0  502 -0.72650558351E+03  0.29315766307E+03 -0.80911142887E+03  0.11262384662E+04  0.50400001928E-02 0. -1.
</event>
<event>
 5   0  0.2781000E-04  0.1605702E+04  0.7818609E-02  0.8817053E-01
        3   -1    0    0  501    0  0.00000000000E+00  0.00000000000E+00  0.64841814733E+03  0.64841815520E+03  0.10100000352E+00 0.  1.
       -3   -1    0    0    0  501  0.00000000000E+00  0.00000000000E+00 -0.99406456428E+03  0.99406456941E+03  0.10100000352E+00 0. -1.
    10030    2    1    2    0    0  0.00000000000E+00  0.00000000000E+00 -0.34564641695E+03  0.16424827246E+04  0.16057017329E+04 0.  0.
        5    1    3    3  502    0 -0.27335671305E+03 -0.31606106420E+03  0.52839313156E+03  0.67367639142E+03  0.46999998093E+01 0.  1.
       -5    1    3    3    0  502  0.27335671305E+03  0.31606106420E+03 -0.87403954851E+03  0.96880633319E+03  0.46999998093E+01 0. -1.
</event>
<event>
 5   0  0.7415102E-04  0.1586544E+04  0.7818609E-02  0.8828857E-01
        2   -1    0    0  501    0  0.00000000000E+00  0.00000000000E+00  0.20981420903E+04  0.20981420903E+04  0.25500000920E-02 0.  1.
       -2   -1    0    0    0  501  0.00000000000E+00  0.00000000000E+00 -0.29992269862E+03  0.29992269863E+03  0.25500000920E-02 0. -1.
    10030    2    1    2    0    0  0.00000000000E+00  0.00000000000E+00  0.17982193917E+04  0.23980647889E+04  0.15865439645E+04 0.  0.
        5    1    3    3  502    0 -0.11602760647E+03 -0.26262091490E+03  0.20168308161E+04  0.20371697969E+04  0.46999998093E+01 0.  1.
       -5    1    3    3    0  502  0.11602760647E+03  0.26262091490E+03 -0.21861142443E+03  0.36089499207E+03  0.46999998093E+01 0. -1.
</event>
<event>
 5   0  0.3973227E-04  0.1576783E+04  0.7818609E-02  0.8834939E-01
       -1   -1    0    0    0  501  0.00000000000E+00  0.00000000000E+00  0.36741276488E+03  0.36741276491E+03  0.50400001928E-02 0. -1.
        1   -1    0    0  501    0  0.00000000000E+00  0.00000000000E+00 -0.16917245368E+04  0.16917245368E+04  0.50400001928E-02 0.  1.
    10030    2    1    2    0    0  0.00000000000E+00  0.00000000000E+00 -0.13243117719E+04  0.20591373017E+04  0.15767830409E+04 0.  0.
        3    1    3    3  502    0  0.39342828491E+03 -0.58422993810E+03 -0.11246966201E+04  0.13270466960E+04  0.10100000352E+00 0.  1.
       -3    1    3    3    0  502 -0.39342828491E+03  0.58422993810E+03 -0.19961515182E+03  0.73209060571E+03  0.10100000352E+00 0. -1.
</event>
<event>
 5   0  0.7770905E-04  0.1594531E+04  0.7818609E-02  0.8823915E-01
       -2   -1    0    0    0  501  0.00000000000E+00  0.00000000000E+00  0.50991371952E+03  0.50991371953E+03  0.25500000920E-02 0.  1.
        2   -1    0    0  501    0  0.00000000000E+00  0.00000000000E+00 -0.12465479102E+04  0.12465479102E+04  0.25500000920E-02 0. -1.
    10030    2    1    2    0    0  0.00000000000E+00  0.00000000000E+00 -0.73663419063E+03  0.17564616297E+04  0.15945305032E+04 0.  0.
        2    1    3    3  502    0  0.50997855055E+03 -0.61083482488E+03 -0.42266934376E+03  0.90102534896E+03  0.25500000920E-02 0.  1.
       -2    1    3    3    0  502 -0.50997855055E+03  0.61083482488E+03 -0.31396484688E+03  0.85543628073E+03  0.25500000920E-02 0. -1.
</event>
<event>
 5   0  0.3889847E-04  0.1591642E+04  0.7818609E-02  0.8825699E-01
        1   -1    0    0  501    0  0.00000000000E+00  0.00000000000E+00  0.67601383204E+03  0.67601383206E+03  0.50400001928E-02 0. -1.
       -1   -1    0    0    0  501  0.00000000000E+00  0.00000000000E+00 -0.93686058035E+03  0.93686058036E+03  0.50400001928E-02 0.  1.
    10030    2    1    2    0    0  0.00000000000E+00  0.00000000000E+00 -0.26084674831E+03  0.16128744124E+04  0.15916415564E+04 0.  0.
        1    1    3    3  502    0  0.34569137533E+03 -0.53486924587E+03 -0.61401399744E+03  0.88464728917E+03  0.50400001928E-02 0.  1.
       -1    1    3    3    0  502 -0.34569137533E+03  0.53486924587E+03  0.35316724913E+03  0.72822712325E+03  0.50400001928E-02 0. -1.
</event>
<event>
 5   0  0.7488884E-04  0.1592484E+04  0.7818609E-02  0.8825179E-01
       -2   -1    0    0    0  501  0.00000000000E+00  0.00000000000E+00  0.97662554338E+03  0.97662554338E+03  0.25500000920E-02 0.  1.
        2   -1    0    0  501    0  0.00000000000E+00  0.00000000000E+00 -0.64917519537E+03  0.64917519538E+03  0.25500000920E-02 0. -1.
    10030    2    1    2    0    0  0.00000000000E+00  0.00000000000E+00  0.32745034801E+03  0.16258007388E+04  0.15924836928E+04 0.  0.
        3    1    3    3  502    0 -0.29385097219E+03 -0.16105729555E+03  0.90113385205E+03  0.96142086300E+03  0.10100000352E+00 0.  1.
       -3    1    3    3    0  502  0.29385097219E+03  0.16105729555E+03 -0.57368350404E+03  0.66437987576E+03  0.10100000352E+00 0. -1.
</event>
<event>
 5   0  0.7770905E-04  0.1686067E+04  0.7818609E-02  0.8769351E-01
        2   -1    0    0  501    0  0.00000000000E+00  0.00000000000E+00  0.95519177448E+03  0.95519177449E+03  0.25500000920E-02 0.  1.
       -2   -1    0    0    0  501  0.00000000000E+00  0.00000000000E+00 -0.74404514764E+03  0.74404514764E+03  0.25500000920E-02 0. -1.
    10030    2    1    2    0    0  0.00000000000E+00  0.00000000000E+00  0.21114662685E+03  0.16992369221E+04  0.16860673828E+04 0.  0.
        2    1    3    3  502    0 -0.46384691666E+03  0.69346790067E+03 -0.16426392793E+02  0.83445881728E+03  0.25500000920E-02 0. -1.
       -2    1    3    3    0  502  0.46384691666E+03 -0.69346790067E+03  0.22757301964E+03  0.86477810485E+03  0.25500000920E-02 0.  1.
</event>
<event>
 5   0  0.3889847E-04  0.1586224E+04  0.7818609E-02  0.8829056E-01
        1   -1    0    0  501    0  0.00000000000E+00  0.00000000000E+00  0.10835891142E+04  0.10835891142E+04  0.50400001928E-02 0. -1.
       -1   -1    0    0    0  501  0.00000000000E+00  0.00000000000E+00 -0.58050263862E+03  0.58050263864E+03  0.50400001928E-02 0.  1.
    10030    2    1    2    0    0  0.00000000000E+00  0.00000000000E+00  0.50308647562E+03  0.16640917529E+04  0.15862236160E+04 0.  0.
        1    1    3    3  502    0 -0.20342424403E+03  0.32396413758E+03 -0.47732324051E+03  0.61169572620E+03  0.50400001928E-02 0.  1.
       -1    1    3    3    0  502  0.20342424403E+03 -0.32396413758E+03  0.98040971612E+03  0.10523960267E+04  0.50400001928E-02 0. -1.
</event>
<event>
 5   0  0.7415102E-04  0.1621411E+04  0.7818609E-02  0.8807501E-01
        2   -1    0    0  501    0  0.00000000000E+00  0.00000000000E+00  0.18406915795E+04  0.18406915795E+04  0.25500000920E-02 0.  1.
       -2   -1    0    0    0  501  0.00000000000E+00  0.00000000000E+00 -0.35706348809E+03  0.35706348810E+03  0.25500000920E-02 0. -1.
    10030    2    1    2    0    0  0.00000000000E+00  0.00000000000E+00  0.14836280914E+04  0.21977550676E+04  0.16214114295E+04 0.  0.
        5    1    3    3  502    0 -0.69469116969E+03 -0.27212583688E+03  0.11716745750E+04  0.13890614428E+04  0.46999998093E+01 0.  1.
       -5    1    3    3    0  502  0.69469116969E+03  0.27212583688E+03  0.31195351646E+03  0.80869362479E+03  0.46999998093E+01 0. -1.
</event>
<event>
 5   0  0.7770905E-04  0.1590917E+04  0.7818609E-02  0.8826148E-01
       -2   -1    0    0    0  501  0.00000000000E+00  0.00000000000E+00  0.46984415158E+03  0.46984415159E+03  0.25500000920E-02 0. -1.
        2   -1    0    0  501    0  0.00000000000E+00  0.00000000000E+00 -0.13467314659E+04  0.13467314659E+04  0.25500000920E-02 0.  1.
    10030    2    1    2    0    0  0.00000000000E+00  0.00000000000E+00 -0.87688731432E+03  0.18165756175E+04  0.15909165949E+04 0.  0.
        2    1    3    3  502    0 -0.36110795243E+03  0.38304632961E+03 -0.11193784791E+04  0.12369848921E+04  0.25500000920E-02 0.  1.
       -2    1    3    3    0  502  0.36110795243E+03 -0.38304632961E+03  0.24249116475E+03  0.57959072536E+03  0.25500000920E-02 0. -1.
</event>
<event>
 5   0  0.7415102E-04  0.1603967E+04  0.7818609E-02  0.8818115E-01
       -2   -1    0    0    0  501  0.00000000000E+00  0.00000000000E+00  0.11081658657E+04  0.11081658657E+04  0.25500000920E-02 0.  1.
        2   -1    0    0  501    0  0.00000000000E+00  0.00000000000E+00 -0.58039837919E+03  0.58039837920E+03  0.25500000920E-02 0. -1.
    10030    2    1    2    0    0  0.00000000000E+00  0.00000000000E+00  0.52776748649E+03  0.16885642449E+04  0.16039671721E+04 0.  0.
        5    1    3    3  502    0 -0.34601212287E+03  0.35232486467E+03 -0.40134482099E+03  0.63636228265E+03  0.46999998093E+01 0. -1.
       -5    1    3    3    0  502  0.34601212287E+03 -0.35232486467E+03  0.92911230748E+03  0.10522019622E+04  0.46999998093E+01 0.  1.
</event>
<event>
 5   0  0.3889847E-04  0.1602641E+04  0.7818609E-02  0.8818927E-01
        1   -1    0    0  501    0  0.00000000000E+00  0.00000000000E+00  0.67555036877E+03  0.67555036879E+03  0.50400001928E-02 0. -1.
       -1   -1    0    0    0  501  0.00000000000E+00  0.00000000000E+00 -0.95050585950E+03  0.95050585952E+03  0.50400001928E-02 0.  1.
    10030    2    1    2    0    0  0.00000000000E+00  0.00000000000E+00 -0.27495549073E+03  0.16260562283E+04  0.16026410502E+04 0.  0.
        1    1    3    3  502    0  0.40290792216E+03  0.20981339877E+02  0.56498118686E+03  0.69424689548E+03  0.50400001928E-02 0. -1.
       -1    1    3    3    0  502 -0.40290792216E+03 -0.20981339877E+02 -0.83993667759E+03  0.93180933283E+03  0.50400001928E-02 0.  1.
</event>
<event>
 5   0  0.7553070E-04  0.1596465E+04  0.7818609E-02  0.8822722E-01
       -2   -1    0    0    0  501  0.00000000000E+00  0.00000000000E+00  0.44799256281E+03  0.44799256282E+03  0.25500000920E-02 0.  1.
        2   -1    0    0  501    0  0.00000000000E+00  0.00000000000E+00 -0.14222902859E+04  0.14222902859E+04  0.25500000920E-02 0. -1.
    10030    2    1    2    0    0  0.00000000000E+00  0.00000000000E+00 -0.97429772304E+03  0.18702828487E+04  0.15964654337E+04 0.  0.
        4    1    3    3  502    0  0.24427715431E+03 -0.62320063737E+03 -0.99662108804E+03  0.12005438637E+04  0.12699999809E+01 0.  1.
       -4    1    3    3    0  502 -0.24427715431E+03  0.62320063737E+03  0.22323364997E+02  0.66973898502E+03  0.12699999809E+01 0. -1.
</event>
<event>
 5   0  0.7488884E-04  0.1606894E+04  0.7818609E-02  0.8816324E-01
        2   -1    0    0  501    0  0.00000000000E+00  0.00000000000E+00  0.70639571457E+03  0.70639571457E+03  0.25500000920E-02 0.  1.
       -2   -1    0    0    0  501  0.00000000000E+00  0.00000000000E+00 -0.91383195736E+03  0.91383195736E+03  0.25500000920E-02 0. -1.
    10030    2    1    2    0    0  0.00000000000E+00  0.00000000000E+00 -0.20743624279E+03  0.16202276719E+04  0.16068938714E+04 0.  0.
        3    1    3    3  502    0  0.23243694346E+02 -0.37331562917E+03  0.61325337775E+03  0.71832064138E+03  0.10100000352E+00 0.  1.
       -3    1    3    3    0  502 -0.23243694346E+02  0.37331562917E+03 -0.82068962054E+03  0.90190703056E+03  0.10100000352E+00 0. -1.
</event>
<event>
 5   0  0.7415102E-04  0.1644997E+04  0.7818609E-02  0.8793371E-01
       -2   -1    0    0    0  501  0.00000000000E+00  0.00000000000E+00  0.63032253097E+03  0.63032253097E+03  0.25500000920E-02 0. -1.
        2   -1    0    0  501    0  0.00000000000E+00  0.00000000000E+00 -0.10732666963E+04  0.10732666963E+04  0.25500000920E-02 0.  1.
    10030    2    1    2    0    0  0.00000000000E+00  0.00000000000E+00 -0.44294416538E+03  0.17035892273E+04  0.16449974838E+04 0.  0.
        5    1    3    3  502    0  0.81893296804E+03  0.74827539000E+02 -0.23723675271E+03  0.85589352934E+03  0.46999998093E+01 0. -1.
       -5    1    3    3    0  502 -0.81893296804E+03 -0.74827539000E+02 -0.20570741267E+03  0.84769569797E+03  0.46999998093E+01 0.  1.
</event>
<event>
 5   0  0.7488884E-04  0.1581844E+04  0.7818609E-02  0.8831780E-01
        2   -1    0    0  501    0  0.00000000000E+00  0.00000000000E+00  0.20148000969E+04  0.20148000969E+04  0.25500000920E-02 0. -1.
       -2   -1    0    0    0  501  0.00000000000E+00  0.00000000000E+00 -0.31048133427E+03  0.31048133428E+03  0.25500000920E-02 0.  1.
    10030    2    1    2    0    0  0.00000000000E+00  0.00000000000E+00  0.17043187626E+04  0.23252814312E+04  0.15818442684E+04 0.  0.
        3    1    3    3  502    0  0.13500920622E+03 -0.69328282115E+03  0.13753761950E+04  0.15461333202E+04  0.10100000352E+00 0. -1.
       -3    1    3    3    0  502 -0.13500920622E+03  0.69328282115E+03  0.32894256766E+03  0.77914811101E+03  0.10100000352E+00 0.  1.
</event>
<event>
 5   0  0.3973227E-04  0.1574990E+04  0.7818609E-02  0.8836062E-01
        1   -1    0    0  501    0  0.00000000000E+00  0.00000000000E+00  0.61837909618E+03  0.61837909620E+03  0.50400001928E-02 0. -1.
       -1   -1    0    0    0  501  0.00000000000E+00  0.00000000000E+00 -0.10028613352E+04  0.10028613352E+04  0.50400001928E-02 0.  1.
    10030    2    1    2    0    0  0.00000000000E+00  0.00000000000E+00 -0.38448223897E+03  0.16212404314E+04  0.15749901410E+04 0.  0.
        3    1    3    3  502    0  0.51091893625E+03  0.98510501918E+02 -0.80070494547E+03  0.95491931508E+03  0.10100000352E+00 0.  1.
       -3    1    3    3    0  502 -0.51091893625E+03 -0.98510501918E+02  0.41622270650E+03  0.66632111629E+03  0.10100000352E+00 0. -1.
</event>
<event>
 5   0  0.3973227E-04  0.1589034E+04  0.7818609E-02  0.8827313E-01
       -1   -1    0    0    0  501  0.00000000000E+00  0.00000000000E+00  0.42628939982E+03  0.42628939985E+03  0.50400001928E-02 0.  1.
        1   -1    0    0  501    0  0.00000000000E+00  0.00000000000E+00 -0.14808193107E+04  0.14808193107E+04  0.50400001928E-02 0. -1.
    10030    2    1    2    0    0  0.00000000000E+00  0.00000000000E+00 -0.10545299109E+04  0.19071087106E+04  0.15890343926E+04 0.  0.
        3    1    3    3  502    0  0.68981780539E+03  0.37184433795E+03 -0.37013570198E+03  0.86667021662E+03  0.10100000352E+00 0.  1.
       -3    1    3    3    0  502 -0.68981780539E+03 -0.37184433795E+03 -0.68439420890E+03  0.10404384939E+04  0.10100000352E+00 0. -1.
</event>
<event>
 5   0  0.7553070E-04  0.1614349E+04  0.7818609E-02  0.8811781E-01
       -2   -1    0    0    0  501  0.00000000000E+00  0.00000000000E+00  0.13401889642E+04  0.13401889642E+04  0.25500000920E-02 0. -1.
        2   -1    0    0  501    0  0.00000000000E+00  0.00000000000E+00 -0.48614810278E+03  0.48614810279E+03  0.25500000920E-02 0.  1.
    10030    2    1    2    0    0  0.00000000000E+00  0.00000000000E+00  0.85404086140E+03  0.18263370670E+04  0.16143485650E+04 0.  0.
        4    1    3    3  502    0 -0.51250473003E+03 -0.61083200060E+03  0.28503303501E+03  0.84677167832E+03  0.12699999809E+01 0.  1.
       -4    1    3    3    0  502  0.51250473003E+03  0.61083200060E+03  0.56900782639E+03  0.97956538865E+03  0.12699999809E+01 0. -1.
</event>
<event>
 5   0  0.4110803E-04  0.1588226E+04  0.7818609E-02  0.8827814E-01
       -1   -1    0    0    0  501  0.00000000000E+00  0.00000000000E+00  0.32244218817E+03  0.32244218821E+03  0.50400001928E-02 0. -1.
        1   -1    0    0  501    0  0.00000000000E+00  0.00000000000E+00 -0.19557467989E+04  0.19557467989E+04  0.50400001928E-02 0.  1.
    10030    2    1    2    0    0  0.00000000000E+00  0.00000000000E+00 -0.16333046108E+04  0.22781889871E+04  0.15882257741E+04 0.  0.
        5    1    3    3  502    0  0.54713706337E+02  0.23955696721E+03 -0.18998200198E+04  0.19156511498E+04  0.46999998093E+01 0.  1.
       -5    1    3    3    0  502 -0.54713706337E+02 -0.23955696721E+03  0.26651540907E+03  0.36253783729E+03  0.46999998093E+01 0. -1.
</event>
<event>
 5   0  0.2781000E-04  0.1610511E+04  0.7818609E-02  0.8814117E-01
        3   -1    0    0  501    0  0.00000000000E+00  0.00000000000E+00  0.50545961507E+03  0.50545962516E+03  0.10100000352E+00 0.  1.
       -3   -1    0    0    0  501  0.00000000000E+00  0.00000000000E+00 -0.12828650685E+04  0.12828650725E+04  0.10100000352E+00 0. -1.
    10030    2    1    2    0    0  0.00000000000E+00  0.00000000000E+00 -0.77740545347E+03  0.17883246977E+04  0.16105110944E+04 0.  0.
        3    1    3    3  502    0 -0.69206179460E+03  0.41161081459E+03 -0.37985451676E+03  0.89031592950E+03  0.10100000352E+00 0. -1.
       -3    1    3    3    0  502  0.69206179460E+03 -0.41161081459E+03 -0.39755093672E+03  0.89800876817E+03  0.10100000352E+00 0.  1.
</event>
<event>
 5   0  0.3973227E-04  0.1625620E+04  0.7818609E-02  0.8804961E-01
        1   -1    0    0  501    0  0.00000000000E+00  0.00000000000E+00  0.78638776592E+03  0.78638776594E+03  0.50400001928E-02 0.  1.
       -1   -1    0    0    0  501  0.00000000000E+00  0.00000000000E+00 -0.84012038642E+03  0.84012038644E+03  0.50400001928E-02 0. -1.
    10030    2    1    2    0    0  0.00000000000E+00  0.00000000000E+00 -0.53732620502E+02  0.16265081524E+04  0.16256203663E+04 0.  0.
        3    1    3    3  502    0  0.80888211948E+03 -0.37409642463E+01 -0.10663503773E+03  0.81588928140E+03  0.10100000352E+00 0. -1.
       -3    1    3    3    0  502 -0.80888211948E+03  0.37409642463E+01  0.52902417232E+02  0.81061887098E+03  0.10100000352E+00 0.  1.
</event>
<event>
 5   0  0.2781000E-04  0.1579396E+04  0.7818609E-02  0.8833307E-01
        3   -1    0    0  501    0  0.00000000000E+00  0.00000000000E+00  0.93356803324E+03  0.93356803870E+03  0.10100000352E+00 0. -1.
       -3   -1    0    0    0  501  0.00000000000E+00  0.00000000000E+00 -0.66799943781E+03  0.66799944544E+03  0.10100000352E+00 0.  1.
    10030    2    1    2    0    0  0.00000000000E+00  0.00000000000E+00  0.26556859543E+03  0.16015674841E+04  0.15793960008E+04 0.  0.
        4    1    3    3  502    0 -0.48277337533E+02  0.78753180632E+03  0.99393771395E+02  0.79524699432E+03  0.12699999809E+01 0.  1.
       -4    1    3    3    0  502  0.48277337533E+02 -0.78753180632E+03  0.16617482404E+03  0.80632048983E+03  0.12699999809E+01 0. -1.
</event>
<event>
 5   0  0.3973227E-04  0.1627175E+04  0.7818609E-02  0.8804025E-01
        1   -1    0    0  501    0  0.00000000000E+00  0.00000000000E+00  0.14948052233E+04  0.14948052233E+04  0.50400001928E-02 0. -1.
       -1   -1    0    0    0  501  0.00000000000E+00  0.00000000000E+00 -0.44281680463E+03  0.44281680466E+03  0.50400001928E-02 0.  1.
    10030    2    1    2    0    0  0.00000000000E+00  0.00000000000E+00  0.10519884187E+04  0.19376220280E+04  0.16271753103E+04 0.  0.
        3    1    3    3  502    0 -0.41615248560E+03  0.65919686724E+03  0.80322420305E+03  0.11193268207E+04  0.10100000352E+00 0. -1.
       -3    1    3    3    0  502  0.41615248560E+03 -0.65919686724E+03  0.24876421564E+03  0.81829520726E+03  0.10100000352E+00 0.  1.
</event>
<event>
 5   0  0.7395088E-04  0.1613943E+04  0.7818609E-02  0.8812028E-01
        2   -1    0    0  501    0  0.00000000000E+00  0.00000000000E+00  0.17585452366E+04  0.17585452366E+04  0.25500000920E-02 0.  1.
       -2   -1    0    0    0  501  0.00000000000E+00  0.00000000000E+00 -0.37030779653E+03  0.37030779654E+03  0.25500000920E-02 0. -1.
    10030    2    1    2    0    0  0.00000000000E+00  0.00000000000E+00  0.13882374401E+04  0.21288530331E+04  0.16139430122E+04 0.  0.
        1    1    3    3  502    0 -0.10396343742E+03  0.78669541475E+03  0.50068748722E+03  0.93828888504E+03  0.50400001928E-02 0. -1.
       -1    1    3    3    0  502  0.10396343742E+03 -0.78669541475E+03  0.88754995286E+03  0.11905641481E+04  0.50400001928E-02 0.  1.
</event>
<event>
 5   0  0.3950195E-04  0.1671007E+04  0.7818609E-02  0.8778075E-01
        1   -1    0    0  501    0  0.00000000000E+00  0.00000000000E+00  0.82006725294E+03  0.82006725296E+03  0.50400001928E-02 0. -1.
       -1   -1    0    0    0  501  0.00000000000E+00  0.00000000000E+00 -0.85123057048E+03  0.85123057050E+03  0.50400001928E-02 0.  1.
    10030    2    1    2    0    0  0.00000000000E+00  0.00000000000E+00 -0.31163317541E+02  0.16712978235E+04  0.16710072598E+04 0.  0.
        2    1    3    3  502    0 -0.25443904170E+03 -0.77124998869E+03 -0.21183133417E+03  0.83930821820E+03  0.25500000920E-02 0. -1.
       -2    1    3    3    0  502  0.25443904170E+03  0.77124998869E+03  0.18066801663E+03  0.83198960525E+03  0.25500000920E-02 0.  1.
</event>
<event>
 5   0  0.3973227E-04  0.1694650E+04  0.7818609E-02  0.8764421E-01
       -1   -1    0    0    0  501  0.00000000000E+00  0.00000000000E+00  0.84758111497E+03  0.84758111499E+03  0.50400001928E-02 0. -1.
        1   -1    0    0  501    0  0.00000000000E+00  0.00000000000E+00 -0.84706929590E+03  0.84706929591E+03  0.50400001928E-02 0.  1.
    10030    2    1    2    0    0  0.00000000000E+00  0.00000000000E+00  0.51181907919E+00  0.16946504109E+04  0.16946503336E+04 0.  0.
        3    1    3    3  502    0  0.25194226562E+03 -0.54902967024E+02  0.80739328727E+03  0.84756897744E+03  0.10100000352E+00 0. -1.
       -3    1    3    3    0  502 -0.25194226562E+03  0.54902967024E+02 -0.80688146819E+03  0.84708143346E+03  0.10100000352E+00 0.  1.
</event>
<event>
 5   0  0.3950195E-04  0.1603231E+04  0.7818609E-02  0.8818565E-01
        1   -1    0    0  501    0  0.00000000000E+00  0.00000000000E+00  0.11536424944E+04  0.11536424944E+04  0.50400001928E-02 0.  1.
       -1   -1    0    0    0  501  0.00000000000E+00  0.00000000000E+00 -0.55700748137E+03  0.55700748139E+03  0.50400001928E-02 0. -1.
    10030    2    1    2    0    0  0.00000000000E+00  0.00000000000E+00  0.59663501300E+03  0.17106499758E+04  0.16032311127E+04 0.  0.
        2    1    3    3  502    0  0.32817669432E+02 -0.41895459005E+03  0.10266877267E+04  0.11093636176E+04  0.25500000920E-02 0.  1.
       -2    1    3    3    0  502 -0.32817669432E+02  0.41895459005E+03 -0.43005271369E+03  0.60128635816E+03  0.25500000920E-02 0. -1.
</event>
<event>
 5   0  0.3973227E-04  0.1598380E+04  0.7818609E-02  0.8821544E-01
       -1   -1    0    0    0  501  0.00000000000E+00  0.00000000000E+00  0.14896723192E+04  0.14896723192E+04  0.50400001928E-02 0.  1.
        1   -1    0    0  501    0  0.00000000000E+00  0.00000000000E+00 -0.42875489138E+03  0.42875489141E+03  0.50400001928E-02 0. -1.
    10030    2    1    2    0    0  0.00000000000E+00  0.00000000000E+00  0.10609174278E+04  0.19184272106E+04  0.15983795462E+04 0.  0.
        3    1    3    3  502    0 -0.18491551725E+03 -0.33364689702E+03 -0.31243471459E+03  0.49308159720E+03  0.10100000352E+00 0. -1.
       -3    1    3    3    0  502  0.18491551725E+03  0.33364689702E+03  0.13733521424E+04  0.14253456134E+04  0.10100000352E+00 0.  1.
</event>
<event>
 5   0  0.7415102E-04  0.1579241E+04  0.7818609E-02  0.8833403E-01
        2   -1    0    0  501    0  0.00000000000E+00  0.00000000000E+00  0.23585754553E+04  0.23585754553E+04  0.25500000920E-02 0. -1.
       -2   -1    0    0    0  501  0.00000000000E+00  0.00000000000E+00 -0.26435483392E+03  0.26435483393E+03  0.25500000920E-02 0.  1.
    10030    2    1    2    0    0  0.00000000000E+00  0.00000000000E+00  0.20942206214E+04  0.26229302892E+04  0.15792413657E+04 0.  0.
        5    1    3    3  502    0 -0.48029285943E+03 -0.60462894615E+03  0.77308354629E+03  0.10926745412E+04  0.46999998093E+01 0.  1.
       -5    1    3    3    0  502  0.48029285943E+03  0.60462894615E+03  0.13211370751E+04  0.15302557481E+04  0.46999998093E+01 0. -1.
</event>
<event>
 5   0  0.7395088E-04  0.1583651E+04  0.7818609E-02  0.8830655E-01
        2   -1    0    0  501    0  0.00000000000E+00  0.00000000000E+00  0.15352443614E+04  0.15352443614E+04  0.25500000920E-02 0. -1.
       -2   -1    0    0    0  501  0.00000000000E+00  0.00000000000E+00 -0.40839595441E+03  0.40839595442E+03  0.25500000920E-02 0.  1.
    10030    2    1    2    0    0  0.00000000000E+00  0.00000000000E+00  0.11268484070E+04  0.19436403159E+04  0.15836509543E+04 0.  0.
        1    1    3    3  502    0 -0.53712661179E+03 -0.12145749789E+03 -0.13488594218E+03  0.56696661128E+03  0.50400001928E-02 0.  1.
       -1    1    3    3    0  502  0.53712661179E+03  0.12145749789E+03  0.12617343492E+04  0.13766737046E+04  0.50400001928E-02 0. -1.
</event>
<event>
 5   0  0.3889847E-04  0.1650725E+04  0.7818609E-02  0.8789978E-01
        1   -1    0    0  501    0  0.00000000000E+00  0.00000000000E+00  0.13345428380E+04  0.13345428380E+04  0.50400001928E-02 0. -1.
       -1   -1    0    0    0  501  0.00000000000E+00  0.00000000000E+00 -0.51045419757E+03  0.51045419760E+03  0.50400001928E-02 0.  1.
    10030    2    1    2    0    0  0.00000000000E+00  0.00000000000E+00  0.82408864044E+03  0.18449970356E+04  0.16507246815E+04 0.  0.
        1    1    3    3  502    0  0.38891377267E+03 -0.39021831416E+03  0.10989447606E+04  0.12293103116E+04  0.50400001928E-02 0. -1.
       -1    1    3    3    0  502 -0.38891377267E+03  0.39021831416E+03 -0.27485612020E+03  0.61568672401E+03  0.50400001928E-02 0.  1.
</event>
<event>
 5   0  0.7770905E-04  0.1594757E+04  0.7818609E-02  0.8823776E-01
        2   -1    0    0  501    0  0.00000000000E+00  0.00000000000E+00  0.16001035321E+04  0.16001035321E+04  0.25500000920E-02 0. -1.
       -2   -1    0    0    0  501  0.00000000000E+00  0.00000000000E+00 -0.39735703083E+03  0.39735703083E+03  0.25500000920E-02 0.  1.
    10030    2    1    2    0    0  0.00000000000E+00  0.00000000000E+00  0.12027465013E+04  0.19974605629E+04  0.15947568950E+04 0.  0.
        2    1    3    3  502    0  0.37386456326E+03  0.49200355210E+03 -0.29838521312E+02  0.61865381620E+03  0.25500000920E-02 0.  1.
       -2    1    3    3    0  502 -0.37386456326E+03 -0.49200355210E+03  0.12325850226E+04  0.13788067467E+04  0.25500000920E-02 0. -1.
</event>
<event>
 5   0  0.7415102E-04  0.1602117E+04  0.7818609E-02  0.8819248E-01
       -2   -1    0    0    0  501  0.00000000000E+00  0.00000000000E+00  0.10290212777E+04  0.10290212777E+04  0.25500000920E-02 0.  1.
        2   -1    0    0  501    0  0.00000000000E+00  0.00000000000E+00 -0.62359720929E+03  0.62359720930E+03  0.25500000920E-02 0. -1.
    10030    2    1    2    0    0  0.00000000000E+00  0.00000000000E+00  0.40542406842E+03  0.16526184870E+04  0.16021170957E+04 0.  0.
        5    1    3    3  502    0 -0.23077471697E+03 -0.54129251227E+03 -0.35794456899E+03  0.68876770997E+03  0.46999998093E+01 0. -1.
       -5    1    3    3    0  502  0.23077471697E+03  0.54129251227E+03  0.76336863741E+03  0.96385077704E+03  0.46999998093E+01 0.  1.
</event>
<event>
 5   0  0.3950195E-04  0.1581268E+04  0.7818609E-02  0.8832139E-01
       -1   -1    0    0    0  501  0.00000000000E+00  0.00000000000E+00  0.79749867858E+03  0.79749867860E+03  0.50400001928E-02 0. -1.
        1   -1    0    0  501    0  0.00000000000E+00  0.00000000000E+00 -0.78382852828E+03  0.78382852830E+03  0.50400001928E-02 0.  1.
    10030    2    1    2    0    0  0.00000000000E+00  0.00000000000E+00  0.13670150306E+02  0.15813272069E+04  0.15812681184E+04 0.  0.
        2    1    3    3  502    0 -0.72837488404E+03  0.22746868092E+03 -0.20012734671E+03  0.78887446873E+03  0.25500000920E-02 0.  1.
       -2    1    3    3    0  502  0.72837488404E+03 -0.22746868092E+03  0.21379749702E+03  0.79245273817E+03  0.25500000920E-02 0. -1.
</event>
<event>
 5   0  0.7770905E-04  0.1617313E+04  0.7818609E-02  0.8809982E-01
        2   -1    0    0  501    0  0.00000000000E+00  0.00000000000E+00  0.11484070913E+04  0.11484070913E+04  0.25500000920E-02 0. -1.
       -2   -1    0    0    0  501  0.00000000000E+00  0.00000000000E+00 -0.56941918943E+03  0.56941918944E+03  0.25500000920E-02 0.  1.
    10030    2    1    2    0    0  0.00000000000E+00  0.00000000000E+00  0.57898790183E+03  0.17178262807E+04  0.16173126291E+04 0.  0.
        2    1    3    3  502    0  0.34841239304E+03  0.71839895621E+03  0.15332012965E+03  0.81301618561E+03  0.25500000920E-02 0.  1.
       -2    1    3    3    0  502 -0.34841239304E+03 -0.71839895621E+03  0.42566777218E+03  0.90481009509E+03  0.25500000920E-02 0. -1.
</event>
<event>
 5   0  0.7488884E-04  0.1612910E+04  0.7818609E-02  0.8812656E-01
       -2   -1    0    0    0  501  0.00000000000E+00  0.00000000000E+00  0.55862685510E+03  0.55862685511E+03  0.25500000920E-02 0.  1.
        2   -1    0    0  501    0  0.00000000000E+00  0.00000000000E+00 -0.11642285347E+04  0.11642285347E+04  0.25500000920E-02 0. -1.
    10030    2    1    2    0    0  0.00000000000E+00  0.00000000000E+00 -0.60560167959E+03  0.17228553898E+04  0.16129095758E+04 0.  0.
        3    1    3    3  502    0  0.71321072873E+03 -0.30418926467E+03 -0.53965608279E+03  0.94468478881E+03  0.10100000352E+00 0.  1.
       -3    1    3    3    0  502 -0.71321072873E+03  0.30418926467E+03 -0.65945596799E+02  0.77817060099E+03  0.10100000352E+00 0. -1.
</event>
<event>
 5   0  0.2781000E-04  0.1582336E+04  0.7818609E-02  0.8831474E-01
       -3   -1    0    0    0  501  0.00000000000E+00  0.00000000000E+00  0.50366540957E+03  0.50366541970E+03  0.10100000352E+00 0. -1.
        3   -1    0    0  501    0  0.00000000000E+00  0.00000000000E+00 -0.12427828158E+04  0.12427828200E+04  0.10100000352E+00 0.  1.
    10030    2    1    2    0    0  0.00000000000E+00  0.00000000000E+00 -0.73911740628E+03  0.17464482396E+04  0.15823359041E+04 0.  0.
        2    1    3    3  502    0 -0.11671143871E+02 -0.15869605397E+03 -0.12249387736E+04  0.12352310117E+04  0.25500000920E-02 0.  1.
       -2    1    3    3    0  502  0.11671143871E+02  0.15869605397E+03  0.48582136736E+03  0.51121722793E+03  0.25500000920E-02 0. -1.
</event>
<event>
 5   0  0.4110803E-04  0.1510072E+04  0.7818609E-02  0.8877783E-01
       -1   -1    0    0    0  501  0.00000000000E+00  0.00000000000E+00  0.75417821745E+03  0.75417821746E+03  0.50400001928E-02 0.  1.
        1   -1    0    0  501    0  0.00000000000E+00  0.00000000000E+00 -0.75589456342E+03  0.75589456343E+03  0.50400001928E-02 0. -1.
    10030    2    1    2    0    0  0.00000000000E+00  0.00000000000E+00 -0.17163459681E+01  0.15100727809E+04  0.15100718055E+04 0.  0.
        5    1    3    3  502    0 -0.24278912670E+03 -0.26590687427E+03  0.66277174463E+03  0.75428210989E+03  0.46999998093E+01 0.  1.
       -5    1    3    3    0  502  0.24278912670E+03  0.26590687427E+03 -0.66448809060E+03  0.75579067100E+03  0.46999998093E+01 0. -1.
</event>
<event>
 5   0  0.7395088E-04  0.1335806E+04  0.7818609E-02  0.9001643E-01
        2   -1    0    0  501    0  0.00000000000E+00  0.00000000000E+00  0.82526405439E+03  0.82526405439E+03  0.25500000920E-02 0. -1.
       -2   -1    0    0    0  501  0.00000000000E+00  0.00000000000E+00 -0.54054766437E+03  0.54054766438E+03  0.25500000920E-02 0.  1.
    10030    2    1    2    0    0  0.00000000000E+00  0.00000000000E+00  0.28471639002E+03  0.13658117188E+04  0.13358062091E+04 0.  0.
        1    1    3    3  502    0  0.36770137529E+03  0.40885811273E+03  0.52998516620E+03  0.76371037321E+03  0.50400001928E-02 0. -1.
       -1    1    3    3    0  502 -0.36770137529E+03 -0.40885811273E+03 -0.24526877618E+03  0.60210134556E+03  0.50400001928E-02 0.  1.
</event>
<event>
 5   0  0.3837251E-04  0.1411569E+04  0.7818609E-02  0.8945486E-01
        1   -1    0    0  501    0  0.00000000000E+00  0.00000000000E+00  0.60729577457E+03  0.60729577459E+03  0.50400001928E-02 0.  1.
       -1   -1    0    0    0  501  0.00000000000E+00  0.00000000000E+00 -0.82024621053E+03  0.82024621055E+03  0.50400001928E-02 0. -1.
    10030    2    1    2    0    0  0.00000000000E+00  0.00000000000E+00 -0.21295043596E+03  0.14275419851E+04  0.14115694213E+04 0.  0.
        4    1    3    3  502    0  0.19921187482E+03 -0.67500023827E+03 -0.16017742278E+03  0.72178190086E+03  0.12699999809E+01 0. -1.
       -4    1    3    3    0  502 -0.19921187482E+03  0.67500023827E+03 -0.52773013185E+02  0.70576008428E+03  0.12699999809E+01 0.  1.
</event>
<event>
 5   0  0.3950195E-04  0.1606669E+04  0.7818609E-02  0.8816462E-01
       -1   -1    0    0    0  501  0.00000000000E+00  0.00000000000E+00  0.49257292513E+03  0.49257292516E+03  0.50400001928E-02 0.  1.
        1   -1    0    0  501    0  0.00000000000E+00  0.00000000000E+00 -0.13101535696E+04  0.13101535696E+04  0.50400001928E-02 0. -1.
    10030    2    1    2    0    0  0.00000000000E+00  0.00000000000E+00 -0.81758064443E+03  0.18027264947E+04  0.16066688223E+04 0.  0.
        2    1    3    3  502    0  0.64812282198E+03  0.33169610927E+03 -0.27861306538E+02  0.72860260340E+03  0.25500000920E-02 0.  1.
       -2    1    3    3    0  502 -0.64812282198E+03 -0.33169610927E+03 -0.78971933790E+03  0.10741238913E+04  0.25500000920E-02 0. -1.
</event>
<event>
 5   0  0.7553070E-04  0.1617046E+04  0.7818609E-02  0.8810144E-01
        2   -1    0    0  501    0  0.00000000000E+00  0.00000000000E+00  0.31738007766E+04  0.31738007766E+04  0.25500000920E-02 0.  1.
       -2   -1    0    0    0  501  0.00000000000E+00  0.00000000000E+00 -0.20597060053E+03  0.20597060054E+03  0.25500000920E-02 0. -1.
    10030    2    1    2    0    0  0.00000000000E+00  0.00000000000E+00  0.29678301760E+04  0.33797713771E+04  0.16170462602E+04 0.  0.
        4    1    3    3  502    0  0.23004847130E+03  0.77387421768E+03  0.13927039308E+04  0.16097917430E+04  0.12699999809E+01 0.  1.
       -4    1    3    3    0  502 -0.23004847130E+03 -0.77387421768E+03  0.15751262452E+04  0.17699796341E+04  0.12699999809E+01 0. -1.
</event>
<event>
 5   0  0.7770905E-04  0.1357310E+04  0.7818609E-02  0.8985313E-01
       -2   -1    0    0    0  501  0.00000000000E+00  0.00000000000E+00  0.51062201212E+03  0.51062201213E+03  0.25500000920E-02 0. -1.
        2   -1    0    0  501    0  0.00000000000E+00  0.00000000000E+00 -0.90198372422E+03  0.90198372422E+03  0.25500000920E-02 0.  1.
    10030    2    1    2    0    0  0.00000000000E+00  0.00000000000E+00 -0.39136171210E+03  0.14126057364E+04  0.13573101991E+04 0.  0.
        2    1    3    3  502    0  0.15180029472E+03 -0.64109804290E+03 -0.26188219761E+02  0.65934501814E+03  0.25500000920E-02 0.  1.
       -2    1    3    3    0  502 -0.15180029472E+03  0.64109804290E+03 -0.36517349234E+03  0.75326071821E+03  0.25500000920E-02 0. -1.
</event>
<event>
 5   0  0.7415102E-04  0.1603517E+04  0.7818609E-02  0.8818390E-01
       -2   -1    0    0    0  501  0.00000000000E+00  0.00000000000E+00  0.70950911274E+03  0.70950911275E+03  0.25500000920E-02 0.  1.
        2   -1    0    0  501    0  0.00000000000E+00  0.00000000000E+00 -0.90600232748E+03  0.90600232748E+03  0.25500000920E-02 0. -1.
    10030    2    1    2    0    0  0.00000000000E+00  0.00000000000E+00 -0.19649321473E+03  0.16155114402E+04  0.16035172684E+04 0.  0.
        5    1    3    3  502    0  0.21170855839E+03 -0.70004229261E+03 -0.42920811786E+03  0.84801027327E+03  0.46999998093E+01 0. -1.
       -5    1    3    3    0  502 -0.21170855839E+03  0.70004229261E+03  0.23271490313E+03  0.76750116696E+03  0.46999998093E+01 0.  1.
</event>
<event>
 5   0  0.2781000E-04  0.1613866E+04  0.7818609E-02  0.8812074E-01
        4   -1    0    0  501    0  0.00000000000E+00  0.00000000000E+00  0.96837868512E+03  0.96837951790E+03  0.12699999809E+01 0. -1.
       -4   -1    0    0    0  501  0.00000000000E+00  0.00000000000E+00 -0.67240182859E+03  0.67240302794E+03  0.12699999809E+01 0.  1.
    10030    2    1    2    0    0  0.00000000000E+00  0.00000000000E+00  0.29597685653E+03  0.16407825458E+04  0.16138664948E+04 0.  0.
        5    1    3    3  502    0  0.17974327316E+03  0.75932414226E+03 -0.60959005222E+02  0.78269974293E+03  0.46999998093E+01 0.  1.
       -5    1    3    3    0  502 -0.17974327316E+03 -0.75932414226E+03  0.35693586175E+03  0.85808280292E+03  0.46999998093E+01 0. -1.
</event>
<event>
 5   0  0.7553070E-04  0.1673729E+04  0.7818609E-02  0.8776491E-01
        2   -1    0    0  501    0  0.00000000000E+00  0.00000000000E+00  0.13479205346E+04  0.13479205346E+04  0.25500000920E-02 0. -1.
       -2   -1    0    0    0  501  0.00000000000E+00  0.00000000000E+00 -0.51957247701E+03  0.51957247701E+03  0.25500000920E-02 0.  1.
    10030    2    1    2    0    0  0.00000000000E+00  0.00000000000E+00  0.82834805758E+03  0.18674930116E+04  0.16737292624E+04 0.  0.
        4    1    3    3  502    0 -0.38300148952E+03 -0.56352417517E+03  0.95631676108E+03  0.11742201656E+04  0.12699999809E+01 0. -1.
       -4    1    3    3    0  502  0.38300148952E+03  0.56352417517E+03 -0.12796870350E+03  0.69327284596E+03  0.12699999809E+01 0.  1.
</event>
<event>
 5   0  0.7488884E-04  0.1620377E+04  0.7818609E-02  0.8808127E-01
        2   -1    0    0  501    0  0.00000000000E+00  0.00000000000E+00  0.12145172900E+04  0.12145172900E+04  0.25500000920E-02 0.  1.
       -2   -1    0    0    0  501  0.00000000000E+00  0.00000000000E+00 -0.54046599142E+03  0.54046599143E+03  0.25500000920E-02 0. -1.
    10030    2    1    2    0    0  0.00000000000E+00  0.00000000000E+00  0.67405129862E+03  0.17549832815E+04  0.16203768590E+04 0.  0.
        3    1    3    3  502    0 -0.56271275964E+03 -0.54969711793E+03  0.54702055880E+03  0.95814616488E+03  0.10100000352E+00 0.  1.
       -3    1    3    3    0  502  0.56271275964E+03  0.54969711793E+03  0.12703073982E+03  0.79683711659E+03  0.10100000352E+00 0. -1.
</event>
<event>
 5   0  0.3973227E-04  0.1609215E+04  0.7818609E-02  0.8814907E-01
        1   -1    0    0  501    0  0.00000000000E+00  0.00000000000E+00  0.92452483468E+03  0.92452483469E+03  0.50400001928E-02 0.  1.
       -1   -1    0    0    0  501  0.00000000000E+00  0.00000000000E+00 -0.70024463991E+03  0.70024463993E+03  0.50400001928E-02 0. -1.
    10030    2    1    2    0    0  0.00000000000E+00  0.00000000000E+00  0.22428019476E+03  0.16247694746E+04  0.16092154113E+04 0.  0.
        3    1    3    3  502    0 -0.70894164925E+03 -0.11295113443E+01 -0.27205592909E+03  0.75935102330E+03  0.10100000352E+00 0. -1.
       -3    1    3    3    0  502  0.70894164925E+03  0.11295113443E+01  0.49633612385E+03  0.86541845132E+03  0.10100000352E+00 0.  1.
</event>
<event>
 5   0  0.7488884E-04  0.1607427E+04  0.7818609E-02  0.8815998E-01
        2   -1    0    0  501    0  0.00000000000E+00  0.00000000000E+00  0.80563677124E+03  0.80563677124E+03  0.25500000920E-02 0.  1.
       -2   -1    0    0    0  501  0.00000000000E+00  0.00000000000E+00 -0.80179457782E+03  0.80179457782E+03  0.25500000920E-02 0. -1.
    10030    2    1    2    0    0  0.00000000000E+00  0.00000000000E+00  0.38421934196E+01  0.16074313491E+04  0.16074267571E+04 0.  0.
        3    1    3    3  502    0 -0.36768376504E+03 -0.10137470527E+03 -0.70553198458E+03  0.80202467132E+03  0.10100000352E+00 0. -1.
       -3    1    3    3    0  502  0.36768376504E+03  0.10137470527E+03  0.70937417800E+03  0.80540667774E+03  0.10100000352E+00 0.  1.
</event>
<event>
 5   0  0.3950195E-04  0.1593739E+04  0.7818609E-02  0.8824403E-01
        1   -1    0    0  501    0  0.00000000000E+00  0.00000000000E+00  0.11520014467E+04  0.11520014467E+04  0.50400001928E-02 0.  1.
       -1   -1    0    0    0  501  0.00000000000E+00  0.00000000000E+00 -0.55121569330E+03  0.55121569333E+03  0.50400001928E-02 0. -1.
    10030    2    1    2    0    0  0.00000000000E+00  0.00000000000E+00  0.60078575335E+03  0.17032171400E+04  0.15937393465E+04 0.  0.
        2    1    3    3  502    0  0.48883610192E+03 -0.24811881188E+03  0.91846085156E+03  0.10696233053E+04  0.25500000920E-02 0.  1.
       -2    1    3    3    0  502 -0.48883610192E+03  0.24811881188E+03 -0.31767509821E+03  0.63359383471E+03  0.25500000920E-02 0. -1.
</event>
<event>
 5   0  0.3889847E-04  0.1603399E+04  0.7818609E-02  0.8818463E-01
       -1   -1    0    0    0  501  0.00000000000E+00  0.00000000000E+00  0.66018381982E+03  0.66018381984E+03  0.50400001928E-02 0. -1.
        1   -1    0    0  501    0  0.00000000000E+00  0.00000000000E+00 -0.97354983066E+03  0.97354983067E+03  0.50400001928E-02 0.  1.
    10030    2    1    2    0    0  0.00000000000E+00  0.00000000000E+00 -0.31336601084E+03  0.16337336505E+04  0.16033986978E+04 0.  0.
        1    1    3    3  502    0  0.13653744400E+03  0.74915088604E+03 -0.41212976176E+03  0.86586399869E+03  0.50400001928E-02 0. -1.
       -1    1    3    3    0  502 -0.13653744400E+03 -0.74915088604E+03  0.98763750916E+02  0.76786965182E+03  0.50400001928E-02 0.  1.
</event>
<event>
 5   0  0.7553070E-04  0.1259058E+04  0.7818609E-02  0.9062678E-01
        2   -1    0    0  501    0  0.00000000000E+00  0.00000000000E+00  0.81909221817E+03  0.81909221818E+03  0.25500000920E-02 0. -1.
       -2   -1    0    0    0  501  0.00000000000E+00  0.00000000000E+00 -0.48383658875E+03  0.48383658876E+03  0.25500000920E-02 0.  1.
    10030    2    1    2    0    0  0.00000000000E+00  0.00000000000E+00  0.33525562942E+03  0.13029288069E+04  0.12590580363E+04 0.  0.
        4    1    3    3  502    0 -0.21170189683E+03 -0.12193682034E+03  0.76803264693E+03  0.80595411838E+03  0.12699999809E+01 0. -1.
       -4    1    3    3    0  502  0.21170189683E+03  0.12193682034E+03 -0.43277701751E+03  0.49697468855E+03  0.12699999809E+01 0.  1.
</event>
<event>
 5   0  0.7553070E-04  0.1587365E+04  0.7818609E-02  0.8828348E-01
        2   -1    0    0  501    0  0.00000000000E+00  0.00000000000E+00  0.69255451563E+03  0.69255451564E+03  0.25500000920E-02 0.  1.
       -2   -1    0    0    0  501  0.00000000000E+00  0.00000000000E+00 -0.90957742293E+03  0.90957742294E+03  0.25500000920E-02 0. -1.
    10030    2    1    2    0    0  0.00000000000E+00  0.00000000000E+00 -0.21702290730E+03  0.16021319386E+04  0.15873650514E+04 0.  0.
        4    1    3    3  502    0  0.67378152119E+03 -0.24397126544E+03 -0.45289943393E+03  0.84771635988E+03  0.12699999809E+01 0. -1.
       -4    1    3    3    0  502 -0.67378152119E+03  0.24397126544E+03  0.23587652664E+03  0.75441557869E+03  0.12699999809E+01 0.  1.
</event>
<event>
 5   0  0.7553070E-04  0.1598541E+04  0.7818609E-02  0.8821445E-01
        2   -1    0    0  501    0  0.00000000000E+00  0.00000000000E+00  0.15465464512E+04  0.15465464512E+04  0.25500000920E-02 0.  1.
       -2   -1    0    0    0  501  0.00000000000E+00  0.00000000000E+00 -0.41307065732E+03  0.41307065733E+03  0.25500000920E-02 0. -1.
    10030    2    1    2    0    0  0.00000000000E+00  0.00000000000E+00  0.11334757939E+04  0.19596171086E+04  0.15985405334E+04 0.  0.
        4    1    3    3  502    0  0.16235767739E+03  0.36356583276E+03 -0.28283351804E+03  0.48840202905E+03  0.12699999809E+01 0. -1.
       -4    1    3    3    0  502 -0.16235767739E+03 -0.36356583276E+03  0.14163093119E+04  0.14712150795E+04  0.12699999809E+01 0.  1.
</event>
<event>
 5   0  0.2781000E-04  0.1622343E+04  0.7818609E-02  0.8806939E-01
       -3   -1    0    0    0  501  0.00000000000E+00  0.00000000000E+00  0.68829953878E+03  0.68829954619E+03  0.10100000352E+00 0.  1.
        3   -1    0    0  501    0  0.00000000000E+00  0.00000000000E+00 -0.95597741825E+03  0.95597742359E+03  0.10100000352E+00 0. -1.
    10030    2    1    2    0    0  0.00000000000E+00  0.00000000000E+00 -0.26767787947E+03  0.16442769698E+04  0.16223425366E+04 0.  0.
        5    1    3    3  502    0  0.64222927607E+03  0.49450298388E+03 -0.10202840909E+03  0.81695993192E+03  0.46999998093E+01 0. -1.
       -5    1    3    3    0  502 -0.64222927607E+03 -0.49450298388E+03 -0.16564947038E+03  0.82731703786E+03  0.46999998093E+01 0.  1.
</event>
<event>
 5   0  0.3889847E-04  0.1507719E+04  0.7818609E-02  0.8879336E-01
       -1   -1    0    0    0  501  0.00000000000E+00  0.00000000000E+00  0.13675505359E+04  0.13675505360E+04  0.50400001928E-02 0.  1.
        1   -1    0    0  501    0  0.00000000000E+00  0.00000000000E+00 -0.41556331429E+03  0.41556331432E+03  0.50400001928E-02 0. -1.
    10030    2    1    2    0    0  0.00000000000E+00  0.00000000000E+00  0.95198722165E+03  0.17831138503E+04  0.15077185854E+04 0.  0.
        1    1    3    3  502    0 -0.20665456964E+03 -0.72201920688E+03  0.39856807740E+03  0.85022018242E+03  0.50400001928E-02 0.  1.
       -1    1    3    3    0  502  0.20665456964E+03  0.72201920688E+03  0.55341914426E+03  0.93289366785E+03  0.50400001928E-02 0. -1.
</event>
<event>
 5   0  0.2781000E-04  0.1583025E+04  0.7818609E-02  0.8831045E-01
        3   -1    0    0  501    0  0.00000000000E+00  0.00000000000E+00  0.12425638801E+04  0.12425638842E+04  0.10100000352E+00 0.  1.
       -3   -1    0    0    0  501  0.00000000000E+00  0.00000000000E+00 -0.50419303391E+03  0.50419304403E+03  0.10100000352E+00 0. -1.
    10030    2    1    2    0    0  0.00000000000E+00  0.00000000000E+00  0.73837084617E+03  0.17467569282E+04  0.15830250345E+04 0.  0.
        5    1    3    3  502    0  0.22899209813E+03  0.50280856285E+03 -0.25619369116E+03  0.60902473618E+03  0.46999998093E+01 0. -1.
       -5    1    3    3    0  502 -0.22899209813E+03 -0.50280856285E+03  0.99456453734E+03  0.11377321920E+04  0.46999998093E+01 0.  1.
</event>
<event>
 5   0  0.7488884E-04  0.1593345E+04  0.7818609E-02  0.8824647E-01
        2   -1    0    0  501    0  0.00000000000E+00  0.00000000000E+00  0.84660106168E+03  0.84660106168E+03  0.25500000920E-02 0. -1.
       -2   -1    0    0    0  501  0.00000000000E+00  0.00000000000E+00 -0.74968892479E+03  0.74968892480E+03  0.25500000920E-02 0.  1.
    10030    2    1    2    0    0  0.00000000000E+00  0.00000000000E+00  0.96912136888E+02  0.15962899865E+04  0.15933454612E+04 0.  0.
        3    1    3    3  502    0  0.71625215269E+03  0.27457616235E+03 -0.16706520186E+03  0.78506051171E+03  0.10100000352E+00 0.  1.
       -3    1    3    3    0  502 -0.71625215269E+03 -0.27457616235E+03  0.26397733875E+03  0.81122947477E+03  0.10100000352E+00 0. -1.
</event>
<event>
 5   0  0.7395088E-04  0.1614658E+04  0.7818609E-02  0.8811593E-01
        2   -1    0    0  501    0  0.00000000000E+00  0.00000000000E+00  0.14447188915E+04  0.14447188915E+04  0.25500000920E-02 0.  1.
       -2   -1    0    0    0  501  0.00000000000E+00  0.00000000000E+00 -0.45114650725E+03  0.45114650726E+03  0.25500000920E-02 0. -1.
    10030    2    1    2    0    0  0.00000000000E+00  0.00000000000E+00  0.99357238423E+03  0.18958653987E+04  0.16146577122E+04 0.  0.
        1    1    3    3  502    0  0.29878838966E+03  0.19805743885E+02  0.13771027838E+04  0.14092830966E+04  0.50400001928E-02 0.  1.
       -1    1    3    3    0  502 -0.29878838966E+03 -0.19805743885E+02 -0.38353039958E+03  0.48658230210E+03  0.50400001928E-02 0. -1.
</event>
<event>
 5   0  0.2781000E-04  0.1585815E+04  0.7818609E-02  0.8829310E-01
       -4   -1    0    0    0  501  0.00000000000E+00  0.00000000000E+00  0.10951958312E+04  0.10951965675E+04  0.12699999809E+01 0.  1.
        4   -1    0    0  501    0  0.00000000000E+00  0.00000000000E+00 -0.57405326491E+03  0.57405466974E+03  0.12699999809E+01 0. -1.
    10030    2    1    2    0    0  0.00000000000E+00  0.00000000000E+00  0.52114256625E+03  0.16692512373E+04  0.15858152852E+04 0.  0.
        5    1    3    3  502    0  0.60998159208E+03  0.53402225365E+02  0.79081199947E+03  0.10001675104E+04  0.46999998093E+01 0.  1.
       -5    1    3    3    0  502 -0.60998159208E+03 -0.53402225365E+02 -0.26966943322E+03  0.66908372686E+03  0.46999998093E+01 0. -1.
</event>
<event>
 5   0  0.3889847E-04  0.1603722E+04  0.7818609E-02  0.8818265E-01
        1   -1    0    0  501    0  0.00000000000E+00  0.00000000000E+00  0.12129016249E+04  0.12129016249E+04  0.50400001928E-02 0. -1.
       -1   -1    0    0    0  501  0.00000000000E+00  0.00000000000E+00 -0.53011816732E+03  0.53011816735E+03  0.50400001928E-02 0.  1.
    10030    2    1    2    0    0  0.00000000000E+00  0.00000000000E+00  0.68278345761E+03  0.17430197923E+04  0.16037221537E+04 0.  0.
        1    1    3    3  502    0  0.24911023025E+03 -0.67978967164E+03  0.71602127931E+03  0.10182614482E+04  0.50400001928E-02 0. -1.
       -1    1    3    3    0  502 -0.24911023025E+03  0.67978967164E+03 -0.33237821705E+02  0.72475834407E+03  0.50400001928E-02 0.  1.
</event>
<event>
 5   0  0.3950195E-04  0.1585453E+04  0.7818609E-02  0.8829535E-01
       -1   -1    0    0    0  501  0.00000000000E+00  0.00000000000E+00  0.87828803454E+03  0.87828803455E+03  0.50400001928E-02 0. -1.
        1   -1    0    0  501    0  0.00000000000E+00  0.00000000000E+00 -0.71549995706E+03  0.71549995708E+03  0.50400001928E-02 0.  1.
    10030    2    1    2    0    0  0.00000000000E+00  0.00000000000E+00  0.16278807747E+03  0.15937879916E+04  0.15854526811E+04 0.  0.
        2    1    3    3  502    0  0.58294365837E+03  0.37079749743E+03 -0.30936665738E+03  0.75698204843E+03  0.25500000920E-02 0.  1.
       -2    1    3    3    0  502 -0.58294365837E+03 -0.37079749743E+03  0.47215473485E+03  0.83680594321E+03  0.25500000920E-02 0. -1.
</event>
<event>
 5   0  0.7488884E-04  0.1593979E+04  0.7818609E-02  0.8824256E-01
        2   -1    0    0  501    0  0.00000000000E+00  0.00000000000E+00  0.11116669813E+04  0.11116669813E+04  0.25500000920E-02 0.  1.
       -2   -1    0    0    0  501  0.00000000000E+00  0.00000000000E+00 -0.57138689618E+03  0.57138689618E+03  0.25500000920E-02 0. -1.
    10030    2    1    2    0    0  0.00000000000E+00  0.00000000000E+00  0.54028008517E+03  0.16830538775E+04  0.15939786022E+04 0.  0.
        3    1    3    3  502    0 -0.33487658545E+03 -0.18675458868E+03 -0.46759788664E+03  0.60470438866E+03  0.10100000352E+00 0. -1.
       -3    1    3    3    0  502  0.33487658545E+03  0.18675458868E+03  0.10078779718E+04  0.10783494889E+04  0.10100000352E+00 0.  1.
</event>
<event>
 5   0  0.3950195E-04  0.1607615E+04  0.7818609E-02  0.8815883E-01
        1   -1    0    0  501    0  0.00000000000E+00  0.00000000000E+00  0.12548637079E+04  0.12548637079E+04  0.50400001928E-02 0. -1.
       -1   -1    0    0    0  501  0.00000000000E+00  0.00000000000E+00 -0.51488198275E+03  0.51488198277E+03  0.50400001928E-02 0.  1.
    10030    2    1    2    0    0  0.00000000000E+00  0.00000000000E+00  0.73998172512E+03  0.17697456907E+04  0.16076152699E+04 0.  0.
        2    1    3    3  502    0 -0.55473013821E+03  0.57243523388E+03  0.48385898957E+03  0.93248439398E+03  0.25500000920E-02 0. -1.
       -2    1    3    3    0  502  0.55473013821E+03 -0.57243523388E+03  0.25612273555E+03  0.83726129667E+03  0.25500000920E-02 0.  1.
</event>
<event>
 5   0  0.7553070E-04  0.1345352E+04  0.7818609E-02  0.8994354E-01
        2   -1    0    0  501    0  0.00000000000E+00  0.00000000000E+00  0.98885090568E+03  0.98885090569E+03  0.25500000920E-02 0.  1.
       -2   -1    0    0    0  501  0.00000000000E+00  0.00000000000E+00 -0.45759453525E+03  0.45759453526E+03  0.25500000920E-02 0. -1.
    10030    2    1    2    0    0  0.00000000000E+00  0.00000000000E+00  0.53125637043E+03  0.14464454409E+04  0.13453516576E+04 0.  0.
        4    1    3    3  502    0 -0.58659346441E+02 -0.38419333053E+03 -0.32466912243E+03  0.50641592205E+03  0.12699999809E+01 0. -1.
       -4    1    3    3    0  502  0.58659346441E+02  0.38419333053E+03  0.85592549287E+03  0.94002951889E+03  0.12699999809E+01 0.  1.
</event>
<event>
 5   0  0.3973227E-04  0.1609708E+04  0.7818609E-02  0.8814606E-01
        1   -1    0    0  501    0  0.00000000000E+00  0.00000000000E+00  0.11721736820E+04  0.11721736820E+04  0.50400001928E-02 0. -1.
       -1   -1    0    0    0  501  0.00000000000E+00  0.00000000000E+00 -0.55264016670E+03  0.55264016673E+03  0.50400001928E-02 0.  1.
    10030    2    1    2    0    0  0.00000000000E+00  0.00000000000E+00  0.61953351533E+03  0.17248138488E+04  0.16097083699E+04 0.  0.
        3    1    3    3  502    0  0.25528532864E+02 -0.37585720194E+03  0.10718711254E+04  0.11361461446E+04  0.10100000352E+00 0. -1.
       -3    1    3    3    0  502 -0.25528532864E+02  0.37585720194E+03 -0.45233761007E+03  0.58866770416E+03  0.10100000352E+00 0.  1.
</event>
<event>
 5   0  0.3889847E-04  0.1586360E+04  0.7818609E-02  0.8828972E-01
       -1   -1    0    0    0  501  0.00000000000E+00  0.00000000000E+00  0.39317980285E+03  0.39317980288E+03  0.50400001928E-02 0.  1.
        1   -1    0    0  501    0  0.00000000000E+00  0.00000000000E+00 -0.16001194423E+04  0.16001194423E+04  0.50400001928E-02 0. -1.
    10030    2    1    2    0    0  0.00000000000E+00  0.00000000000E+00 -0.12069396394E+04  0.19932992452E+04  0.15863601695E+04 0.  0.
        1    1    3    3  502    0 -0.58364452082E+03  0.36700188747E+03 -0.11068924328E+03  0.69827173843E+03  0.50400001928E-02 0.  1.
       -1    1    3    3    0  502  0.58364452082E+03 -0.36700188747E+03 -0.10962503961E+04  0.12950275067E+04  0.50400001928E-02 0. -1.
</event>
<event>
 5   0  0.7553070E-04  0.1610316E+04  0.7818609E-02  0.8814236E-01
        2   -1    0    0  501    0  0.00000000000E+00  0.00000000000E+00  0.71812754532E+03  0.71812754532E+03  0.25500000920E-02 0.  1.
       -2   -1    0    0    0  501  0.00000000000E+00  0.00000000000E+00 -0.90273538096E+03  0.90273538097E+03  0.25500000920E-02 0. -1.
    10030    2    1    2    0    0  0.00000000000E+00  0.00000000000E+00 -0.18460783565E+03  0.16208629263E+04  0.16103156749E+04 0.  0.
        4    1    3    3  502    0  0.41709726067E+02  0.15980718085E+01  0.71703678280E+03  0.71825177749E+03  0.12699999809E+01 0.  1.
       -4    1    3    3    0  502 -0.41709726067E+02 -0.15980718085E+01 -0.90164461844E+03  0.90261114880E+03  0.12699999809E+01 0. -1.
</event>
<event>
 5   0  0.7415102E-04  0.1611656E+04  0.7818609E-02  0.8813419E-01
        2   -1    0    0  501    0  0.00000000000E+00  0.00000000000E+00  0.17643837093E+04  0.17643837093E+04  0.25500000920E-02 0.  1.
       -2   -1    0    0    0  501  0.00000000000E+00  0.00000000000E+00 -0.36803729600E+03  0.36803729601E+03  0.25500000920E-02 0. -1.
    10030    2    1    2    0    0  0.00000000000E+00  0.00000000000E+00  0.13963464133E+04  0.21324210053E+04  0.16116563027E+04 0.  0.
        5    1    3    3  502    0 -0.68249995181E+03  0.40069871795E+03  0.49763688264E+03  0.93489582508E+03  0.46999998093E+01 0.  1.
       -5    1    3    3    0  502  0.68249995181E+03 -0.40069871795E+03  0.89870953067E+03  0.11975251802E+04  0.46999998093E+01 0. -1.
</event>
<event>
 5   0  0.3950195E-04  0.1549992E+04  0.7818609E-02  0.8851873E-01
       -1   -1    0    0    0  501  0.00000000000E+00  0.00000000000E+00  0.55922477672E+03  0.55922477674E+03  0.50400001928E-02 0. -1.
        1   -1    0    0  501    0  0.00000000000E+00  0.00000000000E+00 -0.10740210270E+04  0.10740210270E+04  0.50400001928E-02 0.  1.
    10030    2    1    2    0    0  0.00000000000E+00  0.00000000000E+00 -0.51479625031E+03  0.16332458038E+04  0.15499924762E+04 0.  0.
        2    1    3    3  502    0 -0.13118183476E+03  0.20222767944E+03  0.51871963289E+03  0.57199192796E+03  0.25500000920E-02 0. -1.
       -2    1    3    3    0  502  0.13118183476E+03 -0.20222767944E+03 -0.10335158832E+04  0.10612538758E+04  0.25500000920E-02 0.  1.
</event>
<event>
 5   0  0.3950195E-04  0.1570893E+04  0.7818609E-02  0.8838632E-01
       -1   -1    0    0    0  501  0.00000000000E+00  0.00000000000E+00  0.86782763096E+03  0.86782763097E+03  0.50400001928E-02 0. -1.
        1   -1    0    0  501    0  0.00000000000E+00  0.00000000000E+00 -0.71088594045E+03  0.71088594047E+03  0.50400001928E-02 0.  1.
    10030    2    1    2    0    0  0.00000000000E+00  0.00000000000E+00  0.15694169051E+03  0.15787135714E+04  0.15708933275E+04 0.  0.
        2    1    3    3  502    0 -0.45345704907E+02 -0.77567199490E+03  0.19394798049E+03  0.80083649753E+03  0.25500000920E-02 0.  1.
       -2    1    3    3    0  502  0.45345704907E+02  0.77567199490E+03 -0.37006289988E+02  0.77787707392E+03  0.25500000920E-02 0. -1.
</event>
<event>
 5   0  0.3889847E-04  0.1577116E+04  0.7818609E-02  0.8834731E-01
       -1   -1    0    0    0  501  0.00000000000E+00  0.00000000000E+00  0.45011331339E+03  0.45011331342E+03  0.50400001928E-02 0. -1.
        1   -1    0    0  501    0  0.00000000000E+00  0.00000000000E+00 -0.13814833838E+04  0.13814833838E+04  0.50400001928E-02 0.  1.
    10030    2    1    2    0    0  0.00000000000E+00  0.00000000000E+00 -0.93137007044E+03  0.18315966973E+04  0.15771164362E+04 0.  0.
        1    1    3    3  502    0 -0.48291851647E+02  0.10070002671E+03 -0.13722522804E+04  0.13767893519E+04  0.50400001928E-02 0.  1.
       -1    1    3    3    0  502  0.48291851647E+02 -0.10070002671E+03  0.44088220997E+03  0.45480734538E+03  0.50400001928E-02 0. -1.
</event>
<event>
 5   0  0.4110803E-04  0.1573452E+04  0.7818609E-02  0.8837025E-01
        1   -1    0    0  501    0  0.00000000000E+00  0.00000000000E+00  0.85656525058E+03  0.85656525060E+03  0.50400001928E-02 0. -1.
       -1   -1    0    0    0  501  0.00000000000E+00  0.00000000000E+00 -0.72258127211E+03  0.72258127213E+03  0.50400001928E-02 0.  1.
    10030    2    1    2    0    0  0.00000000000E+00  0.00000000000E+00  0.13398397847E+03  0.15791465227E+04  0.15734522661E+04 0.  0.
        5    1    3    3  502    0  0.50604810736E+03  0.59802618661E+03 -0.53515469180E+01  0.78343521486E+03  0.46999998093E+01 0.  1.
       -5    1    3    3    0  502 -0.50604810736E+03 -0.59802618661E+03  0.13933552539E+03  0.79571130786E+03  0.46999998093E+01 0. -1.
</event>
<event>
 5   0  0.3973227E-04  0.1620677E+04  0.7818609E-02  0.8807945E-01
        1   -1    0    0  501    0  0.00000000000E+00  0.00000000000E+00  0.13782867367E+04  0.13782867367E+04  0.50400001928E-02 0.  1.
       -1   -1    0    0    0  501  0.00000000000E+00  0.00000000000E+00 -0.47642383335E+03  0.47642383338E+03  0.50400001928E-02 0. -1.
    10030    2    1    2    0    0  0.00000000000E+00  0.00000000000E+00  0.90186290335E+03  0.18547105701E+04  0.16206772049E+04 0.  0.
        3    1    3    3  502    0  0.33396530908E+03  0.53097532553E+02  0.12936799939E+04  0.13371462569E+04  0.10100000352E+00 0.  1.
       -3    1    3    3    0  502 -0.33396530908E+03 -0.53097532553E+02 -0.39181709053E+03  0.51756431317E+03  0.10100000352E+00 0. -1.
</event>
<event>
 5   0  0.7395088E-04  0.1618675E+04  0.7818609E-02  0.8809157E-01
        2   -1    0    0  501    0  0.00000000000E+00  0.00000000000E+00  0.18155705492E+04  0.18155705492E+04  0.25500000920E-02 0. -1.
       -2   -1    0    0    0  501  0.00000000000E+00  0.00000000000E+00 -0.36078319060E+03  0.36078319061E+03  0.25500000920E-02 0.  1.
    10030    2    1    2    0    0  0.00000000000E+00  0.00000000000E+00  0.14547873586E+04  0.21763537398E+04  0.16186751811E+04 0.  0.
        1    1    3    3  502    0 -0.44191349148E+03  0.62678511634E+03  0.10751048338E+04  0.13206049825E+04  0.50400001928E-02 0. -1.
       -1    1    3    3    0  502  0.44191349148E+03 -0.62678511634E+03  0.37968252479E+03  0.85574875733E+03  0.50400001928E-02 0.  1.
</event>
<event>
 5   0  0.4110803E-04  0.1594369E+04  0.7818609E-02  0.8824015E-01
        1   -1    0    0  501    0  0.00000000000E+00  0.00000000000E+00  0.23547544140E+04  0.23547544140E+04  0.50400001928E-02 0.  1.
       -1   -1    0    0    0  501  0.00000000000E+00  0.00000000000E+00 -0.26988071710E+03  0.26988071715E+03  0.50400001928E-02 0. -1.
    10030    2    1    2    0    0  0.00000000000E+00  0.00000000000E+00  0.20848736969E+04  0.26246351312E+04  0.15943686022E+04 0.  0.
        5    1    3    3  502    0 -0.18185044724E+03 -0.26258108961E+03 -0.15991637883E+03  0.35723067057E+03  0.46999998093E+01 0. -1.
       -5    1    3    3    0  502  0.18185044724E+03  0.26258108961E+03  0.22447900757E+04  0.22674044606E+04  0.46999998093E+01 0.  1.
</event>
<event>
 5   0  0.3889847E-04  0.1285721E+04  0.7818609E-02  0.9040966E-01
        1   -1    0    0  501    0  0.00000000000E+00  0.00000000000E+00  0.17513773701E+04  0.17513773701E+04  0.50400001928E-02 0.  1.
       -1   -1    0    0    0  501  0.00000000000E+00  0.00000000000E+00 -0.23596829310E+03  0.23596829316E+03  0.50400001928E-02 0. -1.
    10030    2    1    2    0    0  0.00000000000E+00  0.00000000000E+00  0.15154090770E+04  0.19873456633E+04  0.12857208541E+04 0.  0.
        1    1    3    3  502    0 -0.12841069452E+03  0.10107761835E+03  0.17187350289E+04  0.17264866321E+04  0.50400001928E-02 0.  1.
       -1    1    3    3    0  502  0.12841069452E+03 -0.10107761835E+03 -0.20332595187E+03  0.26085903114E+03  0.50400001928E-02 0. -1.
</event>
<event>
 5   0  0.3889847E-04  0.1605158E+04  0.7818609E-02  0.8817386E-01
        1   -1    0    0  501    0  0.00000000000E+00  0.00000000000E+00  0.90065931395E+03  0.90065931396E+03  0.50400001928E-02 0.  1.
       -1   -1    0    0    0  501  0.00000000000E+00  0.00000000000E+00 -0.71517923835E+03  0.71517923837E+03  0.50400001928E-02 0. -1.
    10030    2    1    2    0    0  0.00000000000E+00  0.00000000000E+00  0.18548007560E+03  0.16158385523E+04  0.16051577395E+04 0.  0.
        1    1    3    3  502    0  0.75914492404E+03  0.12109990668E+03 -0.13937316931E+03  0.78127529299E+03  0.50400001928E-02 0. -1.
       -1    1    3    3    0  502 -0.75914492404E+03 -0.12109990668E+03  0.32485324491E+03  0.83456325934E+03  0.50400001928E-02 0.  1.
</event>
<event>
 5   0  0.3837251E-04  0.1663027E+04  0.7818609E-02  0.8782737E-01
       -1   -1    0    0    0  501  0.00000000000E+00  0.00000000000E+00  0.44234512577E+03  0.44234512580E+03  0.50400001928E-02 0. -1.
        1   -1    0    0  501    0  0.00000000000E+00  0.00000000000E+00 -0.15630652803E+04  0.15630652803E+04  0.50400001928E-02 0.  1.
    10030    2    1    2    0    0  0.00000000000E+00  0.00000000000E+00 -0.11207201545E+04  0.20054104061E+04  0.16630265278E+04 0.  0.
        4    1    3    3  502    0  0.20158118538E+03  0.62049079096E+03  0.61304563315E+02  0.65528898842E+03  0.12699999809E+01 0.  1.
       -4    1    3    3    0  502 -0.20158118538E+03 -0.62049079096E+03 -0.11820247178E+04  0.13501214176E+04  0.12699999809E+01 0. -1.
</event>
<event>
 5   0  0.3973227E-04  0.1601121E+04  0.7818609E-02  0.8819860E-01
        1   -1    0    0  501    0  0.00000000000E+00  0.00000000000E+00  0.48693675097E+03  0.48693675099E+03  0.50400001928E-02 0. -1.
       -1   -1    0    0    0  501  0.00000000000E+00  0.00000000000E+00 -0.13161814276E+04  0.13161814276E+04  0.50400001928E-02 0.  1.
    10030    2    1    2    0    0  0.00000000000E+00  0.00000000000E+00 -0.82924467666E+03  0.18031181786E+04  0.16011209924E+04 0.  0.
        3    1    3    3  502    0  0.57395328400E+03  0.22703721628E+03  0.15953016751E+03  0.63750933667E+03  0.10100000352E+00 0. -1.
       -3    1    3    3    0  502 -0.57395328400E+03 -0.22703721628E+03 -0.98877484417E+03  0.11656088420E+04  0.10100000352E+00 0.  1.
</event>
<event>
 5   0  0.7395088E-04  0.1589629E+04  0.7818609E-02  0.8826945E-01
       -2   -1    0    0    0  501  0.00000000000E+00  0.00000000000E+00  0.48727665521E+03  0.48727665521E+03  0.25500000920E-02 0. -1.
        2   -1    0    0  501    0  0.00000000000E+00  0.00000000000E+00 -0.12964503822E+04  0.12964503822E+04  0.25500000920E-02 0.  1.
    10030    2    1    2    0    0  0.00000000000E+00  0.00000000000E+00 -0.80917372701E+03  0.17837270374E+04  0.15896288949E+04 0.  0.
        1    1    3    3  502    0 -0.59642784604E+03 -0.13818942050E+03 -0.97333639324E+03  0.11498722650E+04  0.50400001928E-02 0.  1.
       -1    1    3    3    0  502  0.59642784604E+03  0.13818942050E+03  0.16416266623E+03  0.63385477239E+03  0.50400001928E-02 0. -1.
</event>
<event>
 5   0  0.7488884E-04  0.1581016E+04  0.7818609E-02  0.8832296E-01
       -2   -1    0    0    0  501  0.00000000000E+00  0.00000000000E+00  0.54971090088E+03  0.54971090088E+03  0.25500000920E-02 0.  1.
        2   -1    0    0  501    0  0.00000000000E+00  0.00000000000E+00 -0.11367852048E+04  0.11367852048E+04  0.25500000920E-02 0. -1.
    10030    2    1    2    0    0  0.00000000000E+00  0.00000000000E+00 -0.58707430394E+03  0.16864961057E+04  0.15810164060E+04 0.  0.
        3    1    3    3  502    0 -0.10568448329E+03 -0.27615162695E+03  0.48850076184E+03  0.57101833210E+03  0.10100000352E+00 0.  1.
       -3    1    3    3    0  502  0.10568448329E+03  0.27615162695E+03 -0.10755750658E+04  0.11154777736E+04  0.10100000352E+00 0. -1.
</event>
<event>
 5   0  0.3973227E-04  0.1576875E+04  0.7818609E-02  0.8834882E-01
        1   -1    0    0  501    0  0.00000000000E+00  0.00000000000E+00  0.93985793172E+03  0.93985793173E+03  0.50400001928E-02 0.  1.
       -1   -1    0    0    0  501  0.00000000000E+00  0.00000000000E+00 -0.66141269530E+03  0.66141269532E+03  0.50400001928E-02 0. -1.
    10030    2    1    2    0    0  0.00000000000E+00  0.00000000000E+00  0.27844523641E+03  0.16012706271E+04  0.15768753506E+04 0.  0.
        3    1    3    3  502    0  0.76895455100E+02 -0.71523911047E+03 -0.18849929213E+03  0.74364769178E+03  0.10100000352E+00 0. -1.
       -3    1    3    3    0  502 -0.76895455100E+02  0.71523911047E+03  0.46694452854E+03  0.85762293527E+03  0.10100000352E+00 0.  1.
</event>
<event>
 5   0  0.2781000E-04  0.1606136E+04  0.7818609E-02  0.8816787E-01
       -4   -1    0    0    0  501  0.00000000000E+00  0.00000000000E+00  0.77479451054E+03  0.77479555139E+03  0.12699999809E+01 0.  1.
        4   -1    0    0  501    0  0.00000000000E+00  0.00000000000E+00 -0.83237115898E+03  0.83237212784E+03  0.12699999809E+01 0. -1.
    10030    2    1    2    0    0  0.00000000000E+00  0.00000000000E+00 -0.57576648448E+02  0.16071676792E+04  0.16061360088E+04 0.  0.
        2    1    3    3  502    0  0.46374761916E+02 -0.60718686773E+03  0.49508564621E+03  0.78481609819E+03  0.25500000920E-02 0.  1.
       -2    1    3    3    0  502 -0.46374761916E+02  0.60718686773E+03 -0.55266229466E+03  0.82235158104E+03  0.25500000920E-02 0. -1.
</event>
<event>
 5   0  0.3837251E-04  0.1525064E+04  0.7818609E-02  0.8867955E-01
       -1   -1    0    0    0  501  0.00000000000E+00  0.00000000000E+00  0.12080044474E+04  0.12080044474E+04  0.50400001928E-02 0.  1.
        1   -1    0    0  501    0  0.00000000000E+00  0.00000000000E+00 -0.48133505157E+03  0.48133505160E+03  0.50400001928E-02 0. -1.
    10030    2    1    2    0    0  0.00000000000E+00  0.00000000000E+00  0.72666939578E+03  0.16893394990E+04  0.15250637796E+04 0.  0.
        4    1    3    3  502    0  0.40927599085E+03  0.32311308232E+03  0.97963216694E+03  0.11097701095E+04  0.12699999809E+01 0.  1.
       -4    1    3    3    0  502 -0.40927599085E+03 -0.32311308232E+03 -0.25296277115E+03  0.57956938941E+03  0.12699999809E+01 0. -1.
</event>
<event>
 5   0  0.3950195E-04  0.1604817E+04  0.7818609E-02  0.8817594E-01
       -1   -1    0    0    0  501  0.00000000000E+00  0.00000000000E+00  0.99642917174E+03  0.99642917175E+03  0.50400001928E-02 0.  1.
        1   -1    0    0  501    0  0.00000000000E+00  0.00000000000E+00 -0.64616688872E+03  0.64616688874E+03  0.50400001928E-02 0. -1.
    10030    2    1    2    0    0  0.00000000000E+00  0.00000000000E+00  0.35026228302E+03  0.16425960605E+04  0.16048171706E+04 0.  0.
        2    1    3    3  502    0 -0.71671330250E+03  0.17625694841E+03 -0.14710559902E+03  0.75258522914E+03  0.25500000920E-02 0. -1.
       -2    1    3    3    0  502  0.71671330250E+03 -0.17625694841E+03  0.49736788203E+03  0.89001083136E+03  0.25500000920E-02 0.  1.
</event>
<event>
 5   0  0.3889847E-04  0.1577632E+04  0.7818609E-02  0.8834408E-01
        1   -1    0    0  501    0  0.00000000000E+00  0.00000000000E+00  0.13780243432E+04  0.13780243432E+04  0.50400001928E-02 0.  1.
       -1   -1    0    0    0  501  0.00000000000E+00  0.00000000000E+00 -0.45153836403E+03  0.45153836406E+03  0.50400001928E-02 0. -1.
    10030    2    1    2    0    0  0.00000000000E+00  0.00000000000E+00  0.92648597914E+03  0.18295627072E+04  0.15776322227E+04 0.  0.
        1    1    3    3  502    0  0.13114350797E+02  0.11254657156E+03  0.13685376433E+04  0.13732203021E+04  0.50400001928E-02 0.  1.
       -1    1    3    3    0  502 -0.13114350797E+02 -0.11254657156E+03 -0.44205166413E+03  0.45634240517E+03  0.50400001928E-02 0. -1.
</event>
<event>
 5   0  0.4110803E-04  0.1605789E+04  0.7818609E-02  0.8816999E-01
        1   -1    0    0  501    0  0.00000000000E+00  0.00000000000E+00  0.11176621498E+04  0.11176621498E+04  0.50400001928E-02 0. -1.
       -1   -1    0    0    0  501  0.00000000000E+00  0.00000000000E+00 -0.57677502590E+03  0.57677502592E+03  0.50400001928E-02 0.  1.
    10030    2    1    2    0    0  0.00000000000E+00  0.00000000000E+00  0.54088712385E+03  0.16944371757E+04  0.16057890464E+04 0.  0.
        5    1    3    3  502    0  0.51133635949E+03 -0.49149130564E+03 -0.12661234346E+03  0.72047300544E+03  0.46999998093E+01 0. -1.
       -5    1    3    3    0  502 -0.51133635949E+03  0.49149130564E+03  0.66749946731E+03  0.97396417024E+03  0.46999998093E+01 0.  1.
</event>
<event>
 5   0  0.7415102E-04  0.1608683E+04  0.7818609E-02  0.8815231E-01
       -2   -1    0    0    0  501  0.00000000000E+00  0.00000000000E+00  0.34247995808E+03  0.34247995808E+03  0.25500000920E-02 0. -1.
        2   -1    0    0  501    0  0.00000000000E+00  0.00000000000E+00 -0.18890601969E+04  0.18890601969E+04  0.25500000920E-02 0.  1.
    10030    2    1    2    0    0  0.00000000000E+00  0.00000000000E+00 -0.15465802388E+04  0.22315401549E+04  0.16086830105E+04 0.  0.
        5    1    3    3  502    0 -0.73231898677E+03  0.13653849389E+03 -0.35251493995E+03  0.82414970217E+03  0.46999998093E+01 0. -1.
       -5    1    3    3    0  502  0.73231898677E+03 -0.13653849389E+03 -0.11940652988E+04  0.14073904528E+04  0.46999998093E+01 0.  1.
</event>
<event>
 5   0  0.7553070E-04  0.1603835E+04  0.7818609E-02  0.8818196E-01
        2   -1    0    0  501    0  0.00000000000E+00  0.00000000000E+00  0.25285142902E+04  0.25285142902E+04  0.25500000920E-02 0. -1.
       -2   -1    0    0    0  501  0.00000000000E+00  0.00000000000E+00 -0.25432773040E+03  0.25432773042E+03  0.25500000920E-02 0.  1.
    10030    2    1    2    0    0  0.00000000000E+00  0.00000000000E+00  0.22741865598E+04  0.27828420207E+04  0.16038345311E+04 0.  0.
        4    1    3    3  502    0  0.11367097651E+03 -0.28506152026E+02 -0.23938790448E+03  0.26653681418E+03  0.12699999809E+01 0.  1.
       -4    1    3    3    0  502 -0.11367097651E+03  0.28506152026E+02  0.25135744643E+04  0.25163052065E+04  0.12699999809E+01 0. -1.
</event>
<event>
 5   0  0.4110803E-04  0.1582312E+04  0.7818609E-02  0.8831489E-01
       -1   -1    0    0    0  501  0.00000000000E+00  0.00000000000E+00  0.12653068129E+04  0.12653068129E+04  0.50400001928E-02 0.  1.
        1   -1    0    0  501    0  0.00000000000E+00  0.00000000000E+00 -0.49468473940E+03  0.49468473943E+03  0.50400001928E-02 0. -1.
    10030    2    1    2    0    0  0.00000000000E+00  0.00000000000E+00  0.77062207353E+03  0.17599915524E+04  0.15823121956E+04 0.  0.
        5    1    3    3  502    0 -0.70603642007E+02  0.18252927184E+03 -0.46731934962E+03  0.50666682729E+03  0.46999998093E+01 0. -1.
       -5    1    3    3    0  502  0.70603642007E+02 -0.18252927184E+03  0.12379414232E+04  0.12533247251E+04  0.46999998093E+01 0.  1.
</event>
<event>
 5   0  0.2781000E-04  0.1597131E+04  0.7818609E-02  0.8822313E-01
        3   -1    0    0  501    0  0.00000000000E+00  0.00000000000E+00  0.59833991131E+03  0.59833991984E+03  0.10100000352E+00 0. -1.
       -3   -1    0    0    0  501  0.00000000000E+00  0.00000000000E+00 -0.10657929641E+04  0.10657929689E+04  0.10100000352E+00 0.  1.
    10030    2    1    2    0    0  0.00000000000E+00  0.00000000000E+00 -0.46745305284E+03  0.16641328888E+04  0.15971305253E+04 0.  0.
        4    1    3    3  502    0  0.41890513337E+03  0.11051714264E+03 -0.93269622033E+03  0.10284062436E+04  0.12699999809E+01 0.  1.
       -4    1    3    3    0  502 -0.41890513337E+03 -0.11051714264E+03  0.46524316749E+03  0.63572664517E+03  0.12699999809E+01 0. -1.
</event>
<event>
 5   0  0.7395088E-04  0.1598122E+04  0.7818609E-02  0.8821702E-01
        2   -1    0    0  501    0  0.00000000000E+00  0.00000000000E+00  0.85683290749E+03  0.85683290750E+03  0.25500000920E-02 0. -1.
       -2   -1    0    0    0  501  0.00000000000E+00  0.00000000000E+00 -0.74518460127E+03  0.74518460128E+03  0.25500000920E-02 0.  1.
    10030    2    1    2    0    0  0.00000000000E+00  0.00000000000E+00  0.11164830622E+03  0.16020175088E+04  0.15981222588E+04 0.  0.
        1    1    3    3  502    0  0.68908936883E+03  0.39369708105E+03 -0.37446376833E+02  0.79450851539E+03  0.50400001928E-02 0. -1.
       -1    1    3    3    0  502 -0.68908936883E+03 -0.39369708105E+03  0.14909468305E+03  0.80750899339E+03  0.50400001928E-02 0.  1.
</event>
<event>
 5   0  0.7553070E-04  0.1605664E+04  0.7818609E-02  0.8817076E-01
       -2   -1    0    0    0  501  0.00000000000E+00  0.00000000000E+00  0.10152397583E+04  0.10152397583E+04  0.25500000920E-02 0. -1.
        2   -1    0    0  501    0  0.00000000000E+00  0.00000000000E+00 -0.63486421923E+03  0.63486421924E+03  0.25500000920E-02 0.  1.
    10030    2    1    2    0    0  0.00000000000E+00  0.00000000000E+00  0.38037553908E+03  0.16501039775E+04  0.16056642196E+04 0.  0.
        4    1    3    3  502    0  0.48698231783E+03 -0.16163255897E+03  0.82474051593E+03  0.97132661526E+03  0.12699999809E+01 0. -1.
       -4    1    3    3    0  502 -0.48698231783E+03  0.16163255897E+03 -0.44436497685E+03  0.67877736229E+03  0.12699999809E+01 0.  1.
</event>
<event>
 5   0  0.7553070E-04  0.1662684E+04  0.7818609E-02  0.8782938E-01
       -2   -1    0    0    0  501  0.00000000000E+00  0.00000000000E+00  0.29964000596E+03  0.29964000598E+03  0.25500000920E-02 0. -1.
        2   -1    0    0  501    0  0.00000000000E+00  0.00000000000E+00 -0.23065342259E+04  0.23065342259E+04  0.25500000920E-02 0.  1.
    10030    2    1    2    0    0  0.00000000000E+00  0.00000000000E+00 -0.20068942200E+04  0.26061742319E+04  0.16626844911E+04 0.  0.
        4    1    3    3  502    0  0.34213564037E+03 -0.71332518299E+03 -0.60309118464E+03  0.99479153746E+03  0.12699999809E+01 0.  1.
       -4    1    3    3    0  502 -0.34213564037E+03  0.71332518299E+03 -0.14038030353E+04  0.16113826945E+04  0.12699999809E+01 0. -1.
</event>
<event>
 5   0  0.3837251E-04  0.1621501E+04  0.7818609E-02  0.8807447E-01
        1   -1    0    0  501    0  0.00000000000E+00  0.00000000000E+00  0.11878143088E+04  0.11878143088E+04  0.50400001928E-02 0.  1.
       -1   -1    0    0    0  501  0.00000000000E+00  0.00000000000E+00 -0.55338296296E+03  0.55338296299E+03  0.50400001928E-02 0. -1.
    10030    2    1    2    0    0  0.00000000000E+00  0.00000000000E+00  0.63443134585E+03  0.17411972718E+04  0.16215007884E+04 0.  0.
        4    1    3    3  502    0 -0.60647725695E+03 -0.14596834638E+03  0.87331794384E+03  0.10732228405E+04  0.12699999809E+01 0.  1.
       -4    1    3    3    0  502  0.60647725695E+03  0.14596834638E+03 -0.23888659799E+03  0.66797443136E+03  0.12699999809E+01 0. -1.
</event>
<event>
 5   0  0.3973227E-04  0.1601581E+04  0.7818609E-02  0.8819577E-01
       -1   -1    0    0    0  501  0.00000000000E+00  0.00000000000E+00  0.55770137206E+03  0.55770137208E+03  0.50400001928E-02 0. -1.
        1   -1    0    0  501    0  0.00000000000E+00  0.00000000000E+00 -0.11498362218E+04  0.11498362218E+04  0.50400001928E-02 0.  1.
    10030    2    1    2    0    0  0.00000000000E+00  0.00000000000E+00 -0.59213484977E+03  0.17075375939E+04  0.16015807673E+04 0.  0.
        3    1    3    3  502    0  0.17070979417E+02  0.78255373779E+03 -0.47631889254E+03  0.91627586919E+03  0.10100000352E+00 0. -1.
       -3    1    3    3    0  502 -0.17070979417E+02 -0.78255373779E+03 -0.11581595722E+03  0.79126172473E+03  0.10100000352E+00 0.  1.
</event>
<event>
 5   0  0.3973227E-04  0.1583879E+04  0.7818609E-02  0.8830513E-01
        1   -1    0    0  501    0  0.00000000000E+00  0.00000000000E+00  0.98240989409E+03  0.98240989411E+03  0.50400001928E-02 0. -1.
       -1   -1    0    0    0  501  0.00000000000E+00  0.00000000000E+00 -0.63839762702E+03  0.63839762704E+03  0.50400001928E-02 0.  1.
    10030    2    1    2    0    0  0.00000000000E+00  0.00000000000E+00  0.34401226708E+03  0.16208075211E+04  0.15838789666E+04 0.  0.
        3    1    3    3  502    0  0.70558433338E+02 -0.35753884880E+03 -0.54749119708E+03  0.65769228519E+03  0.10100000352E+00 0.  1.
       -3    1    3    3    0  502 -0.70558433338E+02  0.35753884880E+03  0.89150346416E+03  0.96311523595E+03  0.10100000352E+00 0. -1.
</event>
<event>
 5   0  0.7395088E-04  0.1555492E+04  0.7818609E-02  0.8848367E-01
       -2   -1    0    0    0  501  0.00000000000E+00  0.00000000000E+00  0.49593900539E+03  0.49593900539E+03  0.25500000920E-02 0.  1.
        2   -1    0    0  501    0  0.00000000000E+00  0.00000000000E+00 -0.12196837358E+04  0.12196837358E+04  0.25500000920E-02 0. -1.
    10030    2    1    2    0    0  0.00000000000E+00  0.00000000000E+00 -0.72374473042E+03  0.17156227412E+04  0.15554918693E+04 0.  0.
        1    1    3    3  502    0 -0.51006749380E+02  0.28113865895E+01 -0.12178313641E+04  0.12189023028E+04  0.50400001928E-02 0. -1.
       -1    1    3    3    0  502  0.51006749380E+02 -0.28113865895E+01  0.49408663365E+03  0.49672043843E+03  0.50400001928E-02 0.  1.
</event>
<event>
 5   0  0.3837251E-04  0.1629441E+04  0.7818609E-02  0.8802663E-01
        1   -1    0    0  501    0  0.00000000000E+00  0.00000000000E+00  0.14155951527E+04  0.14155951527E+04  0.50400001928E-02 0.  1.
       -1   -1    0    0    0  501  0.00000000000E+00  0.00000000000E+00 -0.46889761550E+03  0.46889761553E+03  0.50400001928E-02 0. -1.
    10030    2    1    2    0    0  0.00000000000E+00  0.00000000000E+00  0.94669753719E+03  0.18844927682E+04  0.16294406300E+04 0.  0.
        4    1    3    3  502    0 -0.36868371201E+03 -0.34001131191E+02 -0.36597770832E+03  0.52060066491E+03  0.12699999809E+01 0. -1.
       -4    1    3    3    0  502  0.36868371201E+03  0.34001131191E+02  0.13126752455E+04  0.13638921033E+04  0.12699999809E+01 0.  1.
</event>
<event>
 5   0  0.7488884E-04  0.1561820E+04  0.7818609E-02  0.8844353E-01
       -2   -1    0    0    0  501  0.00000000000E+00  0.00000000000E+00  0.57402235724E+03  0.57402235725E+03  0.25500000920E-02 0.  1.
        2   -1    0    0  501    0  0.00000000000E+00  0.00000000000E+00 -0.10623639816E+04  0.10623639816E+04  0.25500000920E-02 0. -1.
    10030    2    1    2    0    0  0.00000000000E+00  0.00000000000E+00 -0.48834162436E+03  0.16363863389E+04  0.15618203187E+04 0.  0.
        3    1    3    3  502    0 -0.12193044430E+03  0.46324394073E+03 -0.89034773709E+03  0.10110297152E+04  0.10100000352E+00 0. -1.
       -3    1    3    3    0  502  0.12193044430E+03 -0.46324394073E+03  0.40200611273E+03  0.62535662365E+03  0.10100000352E+00 0.  1.
</event>
<event>
 5   0  0.4110803E-04  0.1553689E+04  0.7818609E-02  0.8849515E-01
        1   -1    0    0  501    0  0.00000000000E+00  0.00000000000E+00  0.61647684142E+03  0.61647684145E+03  0.50400001928E-02 0. -1.
       -1   -1    0    0    0  501  0.00000000000E+00  0.00000000000E+00 -0.97892912420E+03  0.97892912422E+03  0.50400001928E-02 0.  1.
    10030    2    1    2    0    0  0.00000000000E+00  0.00000000000E+00 -0.36245228278E+03  0.15954059657E+04  0.15536886876E+04 0.  0.
        5    1    3    3  502    0 -0.13853168300E+03 -0.12563211360E+03 -0.95545409574E+03  0.97359595019E+03  0.46999998093E+01 0.  1.
       -5    1    3    3    0  502  0.13853168300E+03  0.12563211360E+03  0.59300181296E+03  0.62181001547E+03  0.46999998093E+01 0. -1.
</event>
<event>
 5   0  0.7488884E-04  0.1589258E+04  0.7818609E-02  0.8827174E-01
        2   -1    0    0  501    0  0.00000000000E+00  0.00000000000E+00  0.16799824857E+04  0.16799824857E+04  0.25500000920E-02 0. -1.
       -2   -1    0    0    0  501  0.00000000000E+00  0.00000000000E+00 -0.37585826626E+03  0.37585826626E+03  0.25500000920E-02 0.  1.
    10030    2    1    2    0    0  0.00000000000E+00  0.00000000000E+00  0.13041242194E+04  0.20558407520E+04  0.15892580715E+04 0.  0.
        3    1    3    3  502    0  0.24685179475E+03 -0.23586082617E+03 -0.27614199099E+03  0.43911336495E+03  0.10100000352E+00 0.  1.
       -3    1    3    3    0  502 -0.24685179475E+03  0.23586082617E+03  0.15802662104E+04  0.16167273870E+04  0.10100000352E+00 0. -1.
</event>
<event>
 5   0  0.7395088E-04  0.1533228E+04  0.7818609E-02  0.8862652E-01
       -2   -1    0    0    0  501  0.00000000000E+00  0.00000000000E+00  0.65230867807E+03  0.65230867807E+03  0.25500000920E-02 0.  1.
        2   -1    0    0  501    0  0.00000000000E+00  0.00000000000E+00 -0.90094939798E+03  0.90094939798E+03  0.25500000920E-02 0. -1.
    10030    2    1    2    0    0  0.00000000000E+00  0.00000000000E+00 -0.24864071991E+03  0.15532580761E+04  0.15332281119E+04 0.  0.
        1    1    3    3  502    0 -0.63362140909E+02  0.71635481157E+02  0.64624159274E+03  0.65327987821E+03  0.50400001928E-02 0.  1.
       -1    1    3    3    0  502  0.63362140909E+02 -0.71635481157E+02 -0.89488231266E+03  0.89997819784E+03  0.50400001928E-02 0. -1.
</event>
<event>
 5   0  0.4110803E-04  0.1604838E+04  0.7818609E-02  0.8817582E-01
       -1   -1    0    0    0  501  0.00000000000E+00  0.00000000000E+00  0.43205759367E+03  0.43205759370E+03  0.50400001928E-02 0.  1.
        1   -1    0    0  501    0  0.00000000000E+00  0.00000000000E+00 -0.14902546999E+04  0.14902546999E+04  0.50400001928E-02 0. -1.
    10030    2    1    2    0    0  0.00000000000E+00  0.00000000000E+00 -0.10581971062E+04  0.19223122936E+04  0.16048375116E+04 0.  0.
        5    1    3    3  502    0  0.75578197200E+03  0.25715540489E+03 -0.43238975554E+03  0.90791975536E+03  0.46999998093E+01 0.  1.
       -5    1    3    3    0  502 -0.75578197200E+03 -0.25715540489E+03 -0.62580735066E+03  0.10143925382E+04  0.46999998093E+01 0. -1.
</event>
<event>
 5   0  0.3950195E-04  0.1629571E+04  0.7818609E-02  0.8802585E-01
        1   -1    0    0  501    0  0.00000000000E+00  0.00000000000E+00  0.57911416673E+03  0.57911416675E+03  0.50400001928E-02 0. -1.
       -1   -1    0    0    0  501  0.00000000000E+00  0.00000000000E+00 -0.11463630164E+04  0.11463630164E+04  0.50400001928E-02 0.  1.
    10030    2    1    2    0    0  0.00000000000E+00  0.00000000000E+00 -0.56724884964E+03  0.17254771831E+04  0.16295705729E+04 0.  0.
        2    1    3    3  502    0  0.64087567565E+03  0.41486263900E+03  0.17809586858E+02  0.76364247019E+03  0.25500000920E-02 0. -1.
       -2    1    3    3    0  502 -0.64087567565E+03 -0.41486263900E+03 -0.58505843650E+03  0.96183471294E+03  0.25500000920E-02 0.  1.
</event>
<event>
 5   0  0.7770905E-04  0.1601591E+04  0.7818609E-02  0.8819571E-01
       -2   -1    0    0    0  501  0.00000000000E+00  0.00000000000E+00  0.29792350236E+03  0.29792350237E+03  0.25500000920E-02 0. -1.
        2   -1    0    0  501    0  0.00000000000E+00  0.00000000000E+00 -0.21524764307E+04  0.21524764307E+04  0.25500000920E-02 0.  1.
    10030    2    1    2    0    0  0.00000000000E+00  0.00000000000E+00 -0.18545529284E+04  0.24503999331E+04  0.16015908554E+04 0.  0.
        2    1    3    3  502    0 -0.51789602756E+03  0.86013904542E+02 -0.21027071812E+01  0.52499438903E+03  0.25500000920E-02 0. -1.
       -2    1    3    3    0  502  0.51789602756E+03 -0.86013904542E+02 -0.18524502212E+04  0.19254055441E+04  0.25500000920E-02 0.  1.
</event>
<event>
 5   0  0.7770905E-04  0.1642204E+04  0.7818609E-02  0.8795032E-01
        2   -1    0    0  501    0  0.00000000000E+00  0.00000000000E+00  0.12584284953E+04  0.12584284953E+04  0.25500000920E-02 0.  1.
       -2   -1    0    0    0  501  0.00000000000E+00  0.00000000000E+00 -0.53575442580E+03  0.53575442581E+03  0.25500000920E-02 0. -1.
    10030    2    1    2    0    0  0.00000000000E+00  0.00000000000E+00  0.72267406953E+03  0.17941829211E+04  0.16422041724E+04 0.  0.
        2    1    3    3  502    0  0.52289426727E+03 -0.77833713468E+02  0.10477584249E+04  0.11735732694E+04  0.25500000920E-02 0.  1.
       -2    1    3    3    0  502 -0.52289426727E+03  0.77833713468E+02 -0.32508435539E+03  0.62060965173E+03  0.25500000920E-02 0. -1.
</event>
<event>
 5   0  0.3973227E-04  0.1562658E+04  0.7818609E-02  0.8843823E-01
        1   -1    0    0  501    0  0.00000000000E+00  0.00000000000E+00  0.63013278975E+03  0.63013278977E+03  0.50400001928E-02 0.  1.
       -1   -1    0    0    0  501  0.00000000000E+00  0.00000000000E+00 -0.96880342692E+03  0.96880342694E+03  0.50400001928E-02 0. -1.
    10030    2    1    2    0    0  0.00000000000E+00  0.00000000000E+00 -0.33867063717E+03  0.15989362167E+04  0.15626577439E+04 0.  0.
        3    1    3    3  502    0 -0.39485726488E+03  0.44314856821E+03 -0.68924769151E+03  0.90959073412E+03  0.10100000352E+00 0. -1.
       -3    1    3    3    0  502  0.39485726488E+03 -0.44314856821E+03  0.35057705434E+03  0.68934548259E+03  0.10100000352E+00 0.  1.
</event>
<event>
 5   0  0.3950195E-04  0.1638467E+04  0.7818609E-02  0.8797258E-01
        1   -1    0    0  501    0  0.00000000000E+00  0.00000000000E+00  0.66861172992E+03  0.66861172994E+03  0.50400001928E-02 0. -1.
       -1   -1    0    0    0  501  0.00000000000E+00  0.00000000000E+00 -0.10037871852E+04  0.10037871852E+04  0.50400001928E-02 0.  1.
    10030    2    1    2    0    0  0.00000000000E+00  0.00000000000E+00 -0.33517545527E+03  0.16723989152E+04  0.16384674381E+04 0.  0.
        2    1    3    3  502    0  0.15164029253E+03 -0.61774250793E+03 -0.69455779700E+03  0.94181267660E+03  0.25500000920E-02 0. -1.
       -2    1    3    3    0  502 -0.15164029253E+03  0.61774250793E+03  0.35938234173E+03  0.73058623856E+03  0.25500000920E-02 0.  1.
</event>
<event>
 5   0  0.7395088E-04  0.1529175E+04  0.7818609E-02  0.8865280E-01
       -2   -1    0    0    0  501  0.00000000000E+00  0.00000000000E+00  0.57244426510E+03  0.57244426511E+03  0.25500000920E-02 0.  1.
        2   -1    0    0  501    0  0.00000000000E+00  0.00000000000E+00 -0.10212244648E+04  0.10212244648E+04  0.25500000920E-02 0. -1.
    10030    2    1    2    0    0  0.00000000000E+00  0.00000000000E+00 -0.44878019971E+03  0.15936687299E+04  0.15291750564E+04 0.  0.
        1    1    3    3  502    0  0.26546948365E+03  0.32794335613E+03 -0.88891340760E+03  0.98396541495E+03  0.50400001928E-02 0. -1.
       -1    1    3    3    0  502 -0.26546948365E+03 -0.32794335613E+03  0.44013320789E+03  0.60970331497E+03  0.50400001928E-02 0.  1.
</event>
<event>
 5   0  0.3837251E-04  0.1591503E+04  0.7818609E-02  0.8825785E-01
       -1   -1    0    0    0  501  0.00000000000E+00  0.00000000000E+00  0.57366017297E+03  0.57366017299E+03  0.50400001928E-02 0.  1.
        1   -1    0    0  501    0  0.00000000000E+00  0.00000000000E+00 -0.11038245320E+04  0.11038245320E+04  0.50400001928E-02 0. -1.
    10030    2    1    2    0    0  0.00000000000E+00  0.00000000000E+00 -0.53016435902E+03  0.16774847050E+04  0.15915026509E+04 0.  0.
        4    1    3    3  502    0 -0.11469652679E+03 -0.41004509515E+02  0.56377477536E+03  0.57678442532E+03  0.12699999809E+01 0.  1.
       -4    1    3    3    0  502  0.11469652679E+03  0.41004509515E+02 -0.10939391344E+04  0.11007002797E+04  0.12699999809E+01 0. -1.
</event>
<event>
 5   0  0.7395088E-04  0.1606914E+04  0.7818609E-02  0.8816311E-01
        2   -1    0    0  501    0  0.00000000000E+00  0.00000000000E+00  0.88723479217E+03  0.88723479218E+03  0.25500000920E-02 0. -1.
       -2   -1    0    0    0  501  0.00000000000E+00  0.00000000000E+00 -0.72759031926E+03  0.72759031926E+03  0.25500000920E-02 0.  1.
    10030    2    1    2    0    0  0.00000000000E+00  0.00000000000E+00  0.15964447291E+03  0.16148251114E+04  0.16069143670E+04 0.  0.
        1    1    3    3  502    0 -0.15633107286E+03 -0.54047060829E+03 -0.49658281874E+03  0.75042813024E+03  0.50400001928E-02 0.  1.
       -1    1    3    3    0  502  0.15633107286E+03  0.54047060829E+03  0.65622729165E+03  0.86439698120E+03  0.50400001928E-02 0. -1.
</event>
<event>
 5   0  0.3889847E-04  0.1615434E+04  0.7818609E-02  0.8811122E-01
        1   -1    0    0  501    0  0.00000000000E+00  0.00000000000E+00  0.12942855564E+04  0.12942855564E+04  0.50400001928E-02 0.  1.
       -1   -1    0    0    0  501  0.00000000000E+00  0.00000000000E+00 -0.50406732033E+03  0.50406732036E+03  0.50400001928E-02 0. -1.
    10030    2    1    2    0    0  0.00000000000E+00  0.00000000000E+00  0.79021823608E+03  0.17983528768E+04  0.16154343715E+04 0.  0.
        1    1    3    3  502    0 -0.42707176855E+03 -0.26415171681E+03  0.10993904551E+04  0.12086462666E+04  0.50400001928E-02 0.  1.
       -1    1    3    3    0  502  0.42707176855E+03  0.26415171681E+03 -0.30917221905E+03  0.58970661014E+03  0.50400001928E-02 0. -1.
</event>
<event>
 5   0  0.7553070E-04  0.1556602E+04  0.7818609E-02  0.8847662E-01
        2   -1    0    0  501    0  0.00000000000E+00  0.00000000000E+00  0.68443126911E+03  0.68443126911E+03  0.25500000920E-02 0.  1.
       -2   -1    0    0    0  501  0.00000000000E+00  0.00000000000E+00 -0.88504520042E+03  0.88504520043E+03  0.25500000920E-02 0. -1.
    10030    2    1    2    0    0  0.00000000000E+00  0.00000000000E+00 -0.20061393131E+03  0.15694764695E+04  0.15566022096E+04 0.  0.
        4    1    3    3  502    0 -0.76367751117E+03  0.13651619343E+03 -0.16336206670E+03  0.79279807635E+03  0.12699999809E+01 0.  1.
       -4    1    3    3    0  502  0.76367751117E+03 -0.13651619343E+03 -0.37251864613E+02  0.77667839319E+03  0.12699999809E+01 0. -1.
</event>
<event>
 5   0  0.2781000E-04  0.1617402E+04  0.7818609E-02  0.8809928E-01
       -3   -1    0    0    0  501  0.00000000000E+00  0.00000000000E+00  0.40812574914E+03  0.40812576164E+03  0.10100000352E+00 0.  1.
        3   -1    0    0  501    0  0.00000000000E+00  0.00000000000E+00 -0.16024411735E+04  0.16024411767E+04  0.10100000352E+00 0. -1.
    10030    2    1    2    0    0  0.00000000000E+00  0.00000000000E+00 -0.11943154244E+04  0.20105669383E+04  0.16174022631E+04 0.  0.
        2    1    3    3  502    0 -0.35818315597E+03  0.20776058603E+02 -0.14980898503E+04  0.15404544840E+04  0.25500000920E-02 0. -1.
       -2    1    3    3    0  502  0.35818315597E+03 -0.20776058603E+02  0.30377442592E+03  0.47011245429E+03  0.25500000920E-02 0.  1.
</event>
<event>
 5   0  0.7488884E-04  0.1578285E+04  0.7818609E-02  0.8834000E-01
        2   -1    0    0  501    0  0.00000000000E+00  0.00000000000E+00  0.97082662610E+03  0.97082662610E+03  0.25500000920E-02 0. -1.
       -2   -1    0    0    0  501  0.00000000000E+00  0.00000000000E+00 -0.64145973081E+03  0.64145973081E+03  0.25500000920E-02 0.  1.
    10030    2    1    2    0    0  0.00000000000E+00  0.00000000000E+00  0.32936689529E+03  0.16122863569E+04  0.15782853813E+04 0.  0.
        3    1    3    3  502    0  0.38246123733E+03 -0.51453525521E+03  0.63472983050E+03  0.90216688858E+03  0.10100000352E+00 0.  1.
       -3    1    3    3    0  502 -0.38246123733E+03  0.51453525521E+03 -0.30536293521E+03  0.71011946834E+03  0.10100000352E+00 0. -1.
</event>
<event>
 5   0  0.7770905E-04  0.1581475E+04  0.7818609E-02  0.8832010E-01
       -2   -1    0    0    0  501  0.00000000000E+00  0.00000000000E+00  0.42310035078E+03  0.42310035079E+03  0.25500000920E-02 0.  1.
        2   -1    0    0  501    0  0.00000000000E+00  0.00000000000E+00 -0.14778189524E+04  0.14778189524E+04  0.25500000920E-02 0. -1.
    10030    2    1    2    0    0  0.00000000000E+00  0.00000000000E+00 -0.10547186016E+04  0.19009193032E+04  0.15814749029E+04 0.  0.
        2    1    3    3  502    0 -0.39808374159E+02 -0.70029922372E+03 -0.88571492129E+02  0.70699973028E+03  0.25500000920E-02 0.  1.
       -2    1    3    3    0  502  0.39808374159E+02  0.70029922372E+03 -0.96614710947E+03  0.11939195729E+04  0.25500000920E-02 0. -1.
</event>
<event>
 5   0  0.7395088E-04  0.1583819E+04  0.7818609E-02  0.8830551E-01
       -2   -1    0    0    0  501  0.00000000000E+00  0.00000000000E+00  0.44266033177E+03  0.44266033178E+03  0.25500000920E-02 0.  1.
        2   -1    0    0  501    0  0.00000000000E+00  0.00000000000E+00 -0.14167089482E+04  0.14167089482E+04  0.25500000920E-02 0. -1.
    10030    2    1    2    0    0  0.00000000000E+00  0.00000000000E+00 -0.97404861639E+03  0.18593692799E+04  0.15838192486E+04 0.  0.
        1    1    3    3  502    0 -0.10855182644E+03 -0.67037737607E+03 -0.88078811199E+01  0.67916633026E+03  0.50400001928E-02 0.  1.
       -1    1    3    3    0  502  0.10855182644E+03  0.67037737607E+03 -0.96524073527E+03  0.11802029497E+04  0.50400001928E-02 0. -1.
</event>
<event>
 5   0  0.3950195E-04  0.1587883E+04  0.7818609E-02  0.8828027E-01
        1   -1    0    0  501    0  0.00000000000E+00  0.00000000000E+00  0.24556624118E+03  0.24556624123E+03  0.50400001928E-02 0.  1.
       -1   -1    0    0    0  501  0.00000000000E+00  0.00000000000E+00 -0.25668967141E+04  0.25668967141E+04  0.50400001928E-02 0. -1.
    10030    2    1    2    0    0  0.00000000000E+00  0.00000000000E+00 -0.23213304730E+04  0.28124629554E+04  0.15878830910E+04 0.  0.
        2    1    3    3  502    0  0.17772226140E+03  0.70716703353E+03 -0.60429110472E+03  0.94701539309E+03  0.25500000920E-02 0.  1.
       -2    1    3    3    0  502 -0.17772226140E+03 -0.70716703353E+03 -0.17170393682E+04  0.18654475623E+04  0.25500000920E-02 0. -1.
</event>
<event>
 5   0  0.7770905E-04  0.1626841E+04  0.7818609E-02  0.8804226E-01
       -2   -1    0    0    0  501  0.00000000000E+00  0.00000000000E+00  0.77222411615E+03  0.77222411616E+03  0.25500000920E-02 0. -1.
        2   -1    0    0  501    0  0.00000000000E+00  0.00000000000E+00 -0.85681476359E+03  0.85681476359E+03  0.25500000920E-02 0.  1.
    10030    2    1    2    0    0  0.00000000000E+00  0.00000000000E+00 -0.84590647434E+02  0.16290388797E+04  0.16268411398E+04 0.  0.
        2    1    3    3  502    0 -0.38777304877E+02 -0.73195072651E+03  0.31088141446E+03  0.79618012992E+03  0.25500000920E-02 0. -1.
       -2    1    3    3    0  502  0.38777304877E+02  0.73195072651E+03 -0.39547206190E+03  0.83285874983E+03  0.25500000920E-02 0.  1.
</event>
<event>
 5   0  0.3973227E-04  0.1598340E+04  0.7818609E-02  0.8821569E-01
        1   -1    0    0  501    0  0.00000000000E+00  0.00000000000E+00  0.46768105876E+03  0.46768105878E+03  0.50400001928E-02 0. -1.
       -1   -1    0    0    0  501  0.00000000000E+00  0.00000000000E+00 -0.13656155931E+04  0.13656155931E+04  0.50400001928E-02 0.  1.
    10030    2    1    2    0    0  0.00000000000E+00  0.00000000000E+00 -0.89793453438E+03  0.18332966519E+04  0.15983398218E+04 0.  0.
        3    1    3    3  502    0  0.30734725011E+03  0.68465175085E+03 -0.76405268990E+03  0.10709747314E+04  0.10100000352E+00 0.  1.
       -3    1    3    3    0  502 -0.30734725011E+03 -0.68465175085E+03 -0.13388184447E+03  0.76232192056E+03  0.10100000352E+00 0. -1.
</event>
<event>
 5   0  0.3837251E-04  0.1228185E+04  0.7818609E-02  0.9088538E-01
       -1   -1    0    0    0  501  0.00000000000E+00  0.00000000000E+00  0.31227694452E+03  0.31227694456E+03  0.50400001928E-02 0.  1.
        1   -1    0    0  501    0  0.00000000000E+00  0.00000000000E+00 -0.12076119147E+04  0.12076119147E+04  0.50400001928E-02 0. -1.
    10030    2    1    2    0    0  0.00000000000E+00  0.00000000000E+00 -0.89533497021E+03  0.15198888593E+04  0.12281846098E+04 0.  0.
        4    1    3    3  502    0 -0.52646183348E+03 -0.31107934013E+03 -0.37793382158E+03  0.71886577632E+03  0.12699999809E+01 0.  1.
       -4    1    3    3    0  502  0.52646183348E+03  0.31107934013E+03 -0.51740114862E+03  0.80102308298E+03  0.12699999809E+01 0. -1.
</event>
<event>
 5   0  0.3950195E-04  0.1487075E+04  0.7818609E-02  0.8893094E-01
       -1   -1    0    0    0  501  0.00000000000E+00  0.00000000000E+00  0.93260191071E+03  0.93260191072E+03  0.50400001928E-02 0. -1.
        1   -1    0    0  501    0  0.00000000000E+00  0.00000000000E+00 -0.59280190521E+03  0.59280190523E+03  0.50400001928E-02 0.  1.
    10030    2    1    2    0    0  0.00000000000E+00  0.00000000000E+00  0.33980000550E+03  0.15254038160E+04  0.14870752362E+04 0.  0.
        2    1    3    3  502    0 -0.72083244175E+02 -0.38287638669E+03 -0.47971404424E+03  0.61799343510E+03  0.25500000920E-02 0.  1.
       -2    1    3    3    0  502  0.72083244175E+02  0.38287638669E+03  0.81951404973E+03  0.90741038086E+03  0.25500000920E-02 0. -1.
</event>
<event>
 5   0  0.4110803E-04  0.1572628E+04  0.7818609E-02  0.8837543E-01
        1   -1    0    0  501    0  0.00000000000E+00  0.00000000000E+00  0.63231481463E+03  0.63231481465E+03  0.50400001928E-02 0.  1.
       -1   -1    0    0    0  501  0.00000000000E+00  0.00000000000E+00 -0.97781915372E+03  0.97781915373E+03  0.50400001928E-02 0. -1.
    10030    2    1    2    0    0  0.00000000000E+00  0.00000000000E+00 -0.34550433909E+03  0.16101339684E+04  0.15726277843E+04 0.  0.
        5    1    3    3  502    0  0.55846983178E+02  0.65978422203E+03  0.26142919114E+03  0.71189986455E+03  0.46999998093E+01 0.  1.
       -5    1    3    3    0  502 -0.55846983178E+02 -0.65978422203E+03 -0.60693353023E+03  0.89823410383E+03  0.46999998093E+01 0. -1.
</event>
<event>
 5   0  0.7488884E-04  0.1552322E+04  0.7818609E-02  0.8850386E-01
       -2   -1    0    0    0  501  0.00000000000E+00  0.00000000000E+00  0.31543718780E+03  0.31543718781E+03  0.25500000920E-02 0.  1.
        2   -1    0    0  501    0  0.00000000000E+00  0.00000000000E+00 -0.19098136689E+04  0.19098136689E+04  0.25500000920E-02 0. -1.
    10030    2    1    2    0    0  0.00000000000E+00  0.00000000000E+00 -0.15943764811E+04  0.22252508568E+04  0.15523224575E+04 0.  0.
        3    1    3    3  502    0  0.44924320321E+03 -0.87459997841E+02  0.10141886293E+03  0.46877980205E+03  0.10100000352E+00 0.  1.
       -3    1    3    3    0  502 -0.44924320321E+03  0.87459997841E+02 -0.16957953441E+04  0.17564710547E+04  0.10100000352E+00 0. -1.
</event>
<event>
 5   0  0.7553070E-04  0.1617257E+04  0.7818609E-02  0.8810016E-01
       -2   -1    0    0    0  501  0.00000000000E+00  0.00000000000E+00  0.30189054802E+03  0.30189054803E+03  0.25500000920E-02 0.  1.
        2   -1    0    0  501    0  0.00000000000E+00  0.00000000000E+00 -0.21659513063E+04  0.21659513063E+04  0.25500000920E-02 0. -1.
    10030    2    1    2    0    0  0.00000000000E+00  0.00000000000E+00 -0.18640607583E+04  0.24678418544E+04  0.16172572175E+04 0.  0.
        4    1    3    3  502    0 -0.66682687613E+03  0.44752427178E+03 -0.78772946052E+03  0.11249246074E+04  0.12699999809E+01 0. -1.
       -4    1    3    3    0  502  0.66682687613E+03 -0.44752427178E+03 -0.10763312978E+04  0.13429172469E+04  0.12699999809E+01 0.  1.
</event>
<event>
 5   0  0.7415102E-04  0.1597549E+04  0.7818609E-02  0.8822055E-01
       -2   -1    0    0    0  501  0.00000000000E+00  0.00000000000E+00  0.45130400952E+03  0.45130400953E+03  0.25500000920E-02 0. -1.
        2   -1    0    0  501    0  0.00000000000E+00  0.00000000000E+00 -0.14137711753E+04  0.14137711753E+04  0.25500000920E-02 0.  1.
    10030    2    1    2    0    0  0.00000000000E+00  0.00000000000E+00 -0.96246716573E+03  0.18650751848E+04  0.15975488724E+04 0.  0.
        5    1    3    3  502    0 -0.12054006779E+03 -0.78646959062E+03 -0.56340642384E+03  0.97494267182E+03  0.46999998093E+01 0.  1.
       -5    1    3    3    0  502  0.12054006779E+03  0.78646959062E+03 -0.39906074189E+03  0.89013251296E+03  0.46999998093E+01 0. -1.
</event>
<event>
 5   0  0.3950195E-04  0.1610479E+04  0.7818609E-02  0.8814136E-01
       -1   -1    0    0    0  501  0.00000000000E+00  0.00000000000E+00  0.75499855834E+03  0.75499855836E+03  0.50400001928E-02 0. -1.
        1   -1    0    0  501    0  0.00000000000E+00  0.00000000000E+00 -0.85882354901E+03  0.85882354902E+03  0.50400001928E-02 0.  1.
    10030    2    1    2    0    0  0.00000000000E+00  0.00000000000E+00 -0.10382499066E+03  0.16138221074E+04  0.16104788622E+04 0.  0.
        2    1    3    3  502    0 -0.41057003189E+03  0.68791144326E+03 -0.13344870236E+03  0.81215667271E+03  0.25500000920E-02 0.  1.
       -2    1    3    3    0  502  0.41057003189E+03 -0.68791144326E+03  0.29623711698E+02  0.80166543467E+03  0.25500000920E-02 0. -1.
</event>
<event>
 5   0  0.2781000E-04  0.1626716E+04  0.7818609E-02  0.8804301E-01
        4   -1    0    0  501    0  0.00000000000E+00  0.00000000000E+00  0.10248290665E+04  0.10248298534E+04  0.12699999809E+01 0.  1.
       -4   -1    0    0    0  501  0.00000000000E+00  0.00000000000E+00 -0.64552179544E+03  0.64552304474E+03  0.12699999809E+01 0. -1.
    10030    2    1    2    0    0  0.00000000000E+00  0.00000000000E+00  0.37930727104E+03  0.16703528981E+04  0.16267159551E+04 0.  0.
        5    1    3    3  502    0 -0.17631646474E+03  0.75522820359E+03  0.44132422227E+03  0.89232633851E+03  0.46999998093E+01 0. -1.
       -5    1    3    3    0  502  0.17631646474E+03 -0.75522820359E+03 -0.62016951236E+02  0.77802655962E+03  0.46999998093E+01 0.  1.
</event>
<event>
 5   0  0.2781000E-04  0.1532721E+04  0.7818609E-02  0.8862981E-01
       -3   -1    0    0    0  501  0.00000000000E+00  0.00000000000E+00  0.87637289326E+03  0.87637289908E+03  0.10100000352E+00 0.  1.
        3   -1    0    0  501    0  0.00000000000E+00  0.00000000000E+00 -0.67015804415E+03  0.67015805176E+03  0.10100000352E+00 0. -1.
    10030    2    1    2    0    0  0.00000000000E+00  0.00000000000E+00  0.20621484911E+03  0.15465309508E+04  0.15327209198E+04 0.  0.
        1    1    3    3  502    0 -0.51895178669E+02  0.63479526260E+03 -0.32693717123E+03  0.71592321442E+03  0.50400001928E-02 0. -1.
       -1    1    3    3    0  502  0.51895178669E+02 -0.63479526260E+03  0.53315202034E+03  0.83060773642E+03  0.50400001928E-02 0.  1.
</event>
<event>
 5   0  0.2781000E-04  0.1594839E+04  0.7818609E-02  0.8823725E-01
        3   -1    0    0  501    0  0.00000000000E+00  0.00000000000E+00  0.95021960421E+03  0.95021960958E+03  0.10100000352E+00 0. -1.
       -3   -1    0    0    0  501  0.00000000000E+00  0.00000000000E+00 -0.66919000846E+03  0.66919001608E+03  0.10100000352E+00 0.  1.
    10030    2    1    2    0    0  0.00000000000E+00  0.00000000000E+00  0.28102959575E+03  0.16194096257E+04  0.15948385191E+04 0.  0.
        2    1    3    3  502    0  0.49124269776E+03 -0.61172794651E+03 -0.43257855824E+01  0.78456942400E+03  0.25500000920E-02 0.  1.
       -2    1    3    3    0  502 -0.49124269776E+03  0.61172794651E+03  0.28535538134E+03  0.83484020166E+03  0.25500000920E-02 0. -1.
</event>
<event>
 5   0  0.3837251E-04  0.1586658E+04  0.7818609E-02  0.8828787E-01
       -1   -1    0    0    0  501  0.00000000000E+00  0.00000000000E+00  0.11786307684E+04  0.11786307684E+04  0.50400001928E-02 0. -1.
        1   -1    0    0  501    0  0.00000000000E+00  0.00000000000E+00 -0.53398467014E+03  0.53398467017E+03  0.50400001928E-02 0.  1.
    10030    2    1    2    0    0  0.00000000000E+00  0.00000000000E+00  0.64464609826E+03  0.17126154386E+04  0.15866578234E+04 0.  0.
        4    1    3    3  502    0  0.65662411501E+03 -0.40088212387E+03  0.11328020311E+03  0.77762183802E+03  0.12699999809E+01 0. -1.
       -4    1    3    3    0  502 -0.65662411501E+03  0.40088212387E+03  0.53136589516E+03  0.93499360056E+03  0.12699999809E+01 0.  1.
</event>
<event>
 5   0  0.3889847E-04  0.1569915E+04  0.7818609E-02  0.8839247E-01
       -1   -1    0    0    0  501  0.00000000000E+00  0.00000000000E+00  0.53448424946E+03  0.53448424948E+03  0.50400001928E-02 0. -1.
        1   -1    0    0  501    0  0.00000000000E+00  0.00000000000E+00 -0.11528085783E+04  0.11528085783E+04  0.50400001928E-02 0.  1.
    10030    2    1    2    0    0  0.00000000000E+00  0.00000000000E+00 -0.61832432881E+03  0.16872928278E+04  0.15699146827E+04 0.  0.
        1    1    3    3  502    0  0.23610194704E+02  0.47565491146E+03  0.36147276143E+03  0.59788593676E+03  0.50400001928E-02 0. -1.
       -1    1    3    3    0  502 -0.23610194704E+02 -0.47565491146E+03 -0.97979709023E+03  0.10894068910E+04  0.50400001928E-02 0.  1.
</event>
<event>
 5   0  0.7553070E-04  0.1629175E+04  0.7818609E-02  0.8802823E-01
       -2   -1    0    0    0  501  0.00000000000E+00  0.00000000000E+00  0.43255693156E+03  0.43255693157E+03  0.25500000920E-02 0.  1.
        2   -1    0    0  501    0  0.00000000000E+00  0.00000000000E+00 -0.15340236512E+04  0.15340236512E+04  0.25500000920E-02 0. -1.
    10030    2    1    2    0    0  0.00000000000E+00  0.00000000000E+00 -0.11014667197E+04  0.19665805828E+04  0.16291747157E+04 0.  0.
        4    1    3    3  502    0  0.22669739908E+03 -0.49291469652E+03 -0.12841852021E+04  0.13940910497E+04  0.12699999809E+01 0. -1.
       -4    1    3    3    0  502 -0.22669739908E+03  0.49291469652E+03  0.18271848239E+03  0.57248953309E+03  0.12699999809E+01 0.  1.
</event>
<event>
 5   0  0.7415102E-04  0.1597141E+04  0.7818609E-02  0.8822306E-01
       -2   -1    0    0    0  501  0.00000000000E+00  0.00000000000E+00  0.35119035526E+03  0.35119035527E+03  0.25500000920E-02 0. -1.
        2   -1    0    0  501    0  0.00000000000E+00  0.00000000000E+00 -0.18158665071E+04  0.18158665071E+04  0.25500000920E-02 0.  1.
    10030    2    1    2    0    0  0.00000000000E+00  0.00000000000E+00 -0.14646761519E+04  0.21670568624E+04  0.15971409503E+04 0.  0.
        5    1    3    3  502    0  0.59111960298E+03 -0.31063887162E+03 -0.13815302408E+03  0.68192905910E+03  0.46999998093E+01 0.  1.
       -5    1    3    3    0  502 -0.59111960298E+03  0.31063887162E+03 -0.13265231278E+04  0.14851278033E+04  0.46999998093E+01 0. -1.
</event>
<event>
 5   0  0.4110803E-04  0.1599574E+04  0.7818609E-02  0.8820810E-01
        1   -1    0    0  501    0  0.00000000000E+00  0.00000000000E+00  0.88184537914E+03  0.88184537915E+03  0.50400001928E-02 0. -1.
       -1   -1    0    0    0  501  0.00000000000E+00  0.00000000000E+00 -0.72536420486E+03  0.72536420488E+03  0.50400001928E-02 0.  1.
    10030    2    1    2    0    0  0.00000000000E+00  0.00000000000E+00  0.15648117428E+03  0.16072095840E+04  0.15995737836E+04 0.  0.
        5    1    3    3  502    0 -0.82628194338E+02  0.22854324809E+02  0.87720133967E+03  0.88139322608E+03  0.46999998093E+01 0. -1.
       -5    1    3    3    0  502  0.82628194338E+02 -0.22854324809E+02 -0.72072016540E+03  0.72581635795E+03  0.46999998093E+01 0.  1.
</event>
<event>
 5   0  0.7395088E-04  0.1497978E+04  0.7818609E-02  0.8885799E-01
        2   -1    0    0  501    0  0.00000000000E+00  0.00000000000E+00  0.12928015520E+04  0.12928015520E+04  0.25500000920E-02 0.  1.
       -2   -1    0    0    0  501  0.00000000000E+00  0.00000000000E+00 -0.43392926327E+03  0.43392926328E+03  0.25500000920E-02 0. -1.
    10030    2    1    2    0    0  0.00000000000E+00  0.00000000000E+00  0.85887228870E+03  0.17267308152E+04  0.14979778703E+04 0.  0.
        1    1    3    3  502    0 -0.23514585222E+03  0.23477868540E+03  0.12031854854E+04  0.12482267083E+04  0.50400001928E-02 0.  1.
       -1    1    3    3    0  502  0.23514585222E+03 -0.23477868540E+03 -0.34431319671E+03  0.47850410697E+03  0.50400001928E-02 0. -1.
</event>
<event>
 5   0  0.7770905E-04  0.1668631E+04  0.7818609E-02  0.8779460E-01
        2   -1    0    0  501    0  0.00000000000E+00  0.00000000000E+00  0.59594872222E+03  0.59594872223E+03  0.25500000920E-02 0. -1.
       -2   -1    0    0    0  501  0.00000000000E+00  0.00000000000E+00 -0.11680244055E+04  0.11680244055E+04  0.25500000920E-02 0.  1.
    10030    2    1    2    0    0  0.00000000000E+00  0.00000000000E+00 -0.57207568332E+03  0.17639731278E+04  0.16686313577E+04 0.  0.
        2    1    3    3  502    0  0.14409035874E+02 -0.83355611212E+03 -0.32044340533E+03  0.89314466263E+03  0.25500000920E-02 0.  1.
       -2    1    3    3    0  502 -0.14409035874E+02  0.83355611212E+03 -0.25163227800E+03  0.87082846514E+03  0.25500000920E-02 0. -1.
</event>
<event>
 5   0  0.7770905E-04  0.1607415E+04  0.7818609E-02  0.8816006E-01
        2   -1    0    0  501    0  0.00000000000E+00  0.00000000000E+00  0.11855932104E+04  0.11855932104E+04  0.25500000920E-02 0.  1.
       -2   -1    0    0    0  501  0.00000000000E+00  0.00000000000E+00 -0.54482881483E+03  0.54482881483E+03  0.25500000920E-02 0. -1.
    10030    2    1    2    0    0  0.00000000000E+00  0.00000000000E+00  0.64076439561E+03  0.17304220253E+04  0.16074145000E+04 0.  0.
        2    1    3    3  502    0  0.14862528109E+03  0.52217660459E+03  0.95834249923E+03  0.11014437010E+04  0.25500000920E-02 0.  1.
       -2    1    3    3    0  502 -0.14862528109E+03 -0.52217660459E+03 -0.31757810362E+03  0.62897832432E+03  0.25500000920E-02 0. -1.
</event>
<event>
 5   0  0.3837251E-04  0.1588357E+04  0.7818609E-02  0.8827733E-01
        1   -1    0    0  501    0  0.00000000000E+00  0.00000000000E+00  0.12381703238E+04  0.12381703238E+04  0.50400001928E-02 0. -1.
       -1   -1    0    0    0  501  0.00000000000E+00  0.00000000000E+00 -0.50939614413E+03  0.50939614416E+03  0.50400001928E-02 0.  1.
    10030    2    1    2    0    0  0.00000000000E+00  0.00000000000E+00  0.72877417968E+03  0.17475664680E+04  0.15883566209E+04 0.  0.
        4    1    3    3  502    0 -0.11162397984E+03  0.36907115652E+03  0.11282740405E+04  0.11923411235E+04  0.12699999809E+01 0. -1.
       -4    1    3    3    0  502  0.11162397984E+03 -0.36907115652E+03 -0.39949986082E+03  0.55522534447E+03  0.12699999809E+01 0.  1.
</event>
<event>
 5   0  0.3889847E-04  0.1647109E+04  0.7818609E-02  0.8792118E-01
       -1   -1    0    0    0  501  0.00000000000E+00  0.00000000000E+00  0.56756478175E+03  0.56756478177E+03  0.50400001928E-02 0. -1.
        1   -1    0    0  501    0  0.00000000000E+00  0.00000000000E+00 -0.11950042941E+04  0.11950042941E+04  0.50400001928E-02 0.  1.
    10030    2    1    2    0    0  0.00000000000E+00  0.00000000000E+00 -0.62743951232E+03  0.17625690758E+04  0.16471094091E+04 0.  0.
        1    1    3    3  502    0  0.56774166631E+03  0.37942244619E+03  0.17893284069E+03  0.70591001823E+03  0.50400001928E-02 0. -1.
       -1    1    3    3    0  502 -0.56774166631E+03 -0.37942244619E+03 -0.80637235300E+03  0.10566590576E+04  0.50400001928E-02 0.  1.
</event>
<event>
 5   0  0.7415102E-04  0.1495696E+04  0.7818609E-02  0.8887320E-01
        2   -1    0    0  501    0  0.00000000000E+00  0.00000000000E+00  0.60013850410E+03  0.60013850410E+03  0.25500000920E-02 0. -1.
       -2   -1    0    0    0  501  0.00000000000E+00  0.00000000000E+00 -0.93191296602E+03  0.93191296602E+03  0.25500000920E-02 0.  1.
    10030    2    1    2    0    0  0.00000000000E+00  0.00000000000E+00 -0.33177446192E+03  0.15320514701E+04  0.14956962972E+04 0.  0.
        5    1    3    3  502    0 -0.70409033959E+03  0.15624101567E+03  0.36657054141E+02  0.72216361782E+03  0.46999998093E+01 0.  1.
       -5    1    3    3    0  502  0.70409033959E+03 -0.15624101567E+03 -0.36843151607E+03  0.80988785231E+03  0.46999998093E+01 0. -1.
</event>
<event>
 5   0  0.4110803E-04  0.1632207E+04  0.7818609E-02  0.8801003E-01
       -1   -1    0    0    0  501  0.00000000000E+00  0.00000000000E+00  0.12877348096E+04  0.12877348096E+04  0.50400001928E-02 0.  1.
        1   -1    0    0  501    0  0.00000000000E+00  0.00000000000E+00 -0.51720632736E+03  0.51720632738E+03  0.50400001928E-02 0. -1.
    10030    2    1    2    0    0  0.00000000000E+00  0.00000000000E+00  0.77052848226E+03  0.18049411370E+04  0.16322065942E+04 0.  0.
        5    1    3    3  502    0 -0.49923261273E+03 -0.95422427466E+02 -0.32079155309E+03  0.60105569776E+03  0.46999998093E+01 0. -1.
       -5    1    3    3    0  502  0.49923261273E+03  0.95422427466E+02  0.10913200354E+04  0.12038854393E+04  0.46999998093E+01 0.  1.
</event>
<event>
 5   0  0.7770905E-04  0.1587527E+04  0.7818609E-02  0.8828247E-01
        2   -1    0    0  501    0  0.00000000000E+00  0.00000000000E+00  0.13715254715E+04  0.13715254715E+04  0.25500000920E-02 0. -1.
       -2   -1    0    0    0  501  0.00000000000E+00  0.00000000000E+00 -0.45938682758E+03  0.45938682759E+03  0.25500000920E-02 0.  1.
    10030    2    1    2    0    0  0.00000000000E+00  0.00000000000E+00  0.91213864393E+03  0.18309122991E+04  0.15875273041E+04 0.  0.
        2    1    3    3  502    0 -0.52623887300E+03 -0.59420101722E+03  0.44724555391E+03  0.91106025367E+03  0.25500000920E-02 0.  1.
       -2    1    3    3    0  502  0.52623887300E+03  0.59420101722E+03  0.46489309002E+03  0.91985204543E+03  0.25500000920E-02 0. -1.
</event>
<event>
 5   0  0.7553070E-04  0.1582347E+04  0.7818609E-02  0.8831467E-01
        2   -1    0    0  501    0  0.00000000000E+00  0.00000000000E+00  0.16180275153E+04  0.16180275153E+04  0.25500000920E-02 0.  1.
       -2   -1    0    0    0  501  0.00000000000E+00  0.00000000000E+00 -0.38686332979E+03  0.38686332980E+03  0.25500000920E-02 0. -1.
    10030    2    1    2    0    0  0.00000000000E+00  0.00000000000E+00  0.12311641855E+04  0.20048908451E+04  0.15823470065E+04 0.  0.
        4    1    3    3  502    0  0.39546183793E+03  0.37622293554E+03  0.13412522372E+04  0.14480652400E+04  0.12699999809E+01 0.  1.
       -4    1    3    3    0  502 -0.39546183793E+03 -0.37622293554E+03 -0.11008805171E+03  0.55682560512E+03  0.12699999809E+01 0. -1.
</event>
<event>
 5   0  0.3837251E-04  0.1579010E+04  0.7818609E-02  0.8833548E-01
       -1   -1    0    0    0  501  0.00000000000E+00  0.00000000000E+00  0.23619607829E+03  0.23619607834E+03  0.50400001928E-02 0.  1.
        1   -1    0    0  501    0  0.00000000000E+00  0.00000000000E+00 -0.26389863034E+04  0.26389863034E+04  0.50400001928E-02 0. -1.
    10030    2    1    2    0    0  0.00000000000E+00  0.00000000000E+00 -0.24027902251E+04  0.28751823818E+04  0.15790100894E+04 0.  0.
        4    1    3    3  502    0 -0.72011724139E+03 -0.27403091361E+03 -0.15149605147E+04  0.16996378311E+04  0.12699999809E+01 0. -1.
       -4    1    3    3    0  502  0.72011724139E+03  0.27403091361E+03 -0.88782971047E+03  0.11755445507E+04  0.12699999809E+01 0.  1.
</event>
<event>
 5   0  0.7415102E-04  0.1591840E+04  0.7818609E-02  0.8825577E-01
       -2   -1    0    0    0  501  0.00000000000E+00  0.00000000000E+00  0.48755642185E+03  0.48755642186E+03  0.25500000920E-02 0. -1.
        2   -1    0    0  501    0  0.00000000000E+00  0.00000000000E+00 -0.12993138170E+04  0.12993138170E+04  0.25500000920E-02 0.  1.
    10030    2    1    2    0    0  0.00000000000E+00  0.00000000000E+00 -0.81175739518E+03  0.17868702389E+04  0.15918401873E+04 0.  0.
        5    1    3    3  502    0 -0.30785806947E+03  0.66174917573E+03 -0.49528727529E+02  0.73154886874E+03  0.46999998093E+01 0. -1.
       -5    1    3    3    0  502  0.30785806947E+03 -0.66174917573E+03 -0.76222866765E+03  0.10553213702E+04  0.46999998093E+01 0.  1.
</event>
<event>
 5   0  0.7488884E-04  0.1613843E+04  0.7818609E-02  0.8812088E-01
        2   -1    0    0  501    0  0.00000000000E+00  0.00000000000E+00  0.13863073906E+04  0.13863073906E+04  0.25500000920E-02 0.  1.
       -2   -1    0    0    0  501  0.00000000000E+00  0.00000000000E+00 -0.46968116617E+03  0.46968116617E+03  0.25500000920E-02 0. -1.
    10030    2    1    2    0    0  0.00000000000E+00  0.00000000000E+00  0.91662622445E+03  0.18559885568E+04  0.16138432042E+04 0.  0.
        3    1    3    3  502    0 -0.91472812367E+02 -0.64500233093E+03 -0.89289799925E+02  0.65754692676E+03  0.10100000352E+00 0. -1.
       -3    1    3    3    0  502  0.91472812367E+02  0.64500233093E+03  0.10059160244E+04  0.11984416300E+04  0.10100000352E+00 0.  1.
</event>
<event>
 5   0  0.7553070E-04  0.1588538E+04  0.7818609E-02  0.8827621E-01
       -2   -1    0    0    0  501  0.00000000000E+00  0.00000000000E+00  0.58618565341E+03  0.58618565342E+03  0.25500000920E-02 0. -1.
        2   -1    0    0  501    0  0.00000000000E+00  0.00000000000E+00 -0.10762172324E+04  0.10762172324E+04  0.25500000920E-02 0.  1.
    10030    2    1    2    0    0  0.00000000000E+00  0.00000000000E+00 -0.49003157897E+03  0.16624028858E+04  0.15885378202E+04 0.  0.
        4    1    3    3  502    0 -0.63635096489E+03  0.31631971010E+03 -0.61628072438E+03  0.94064034235E+03  0.12699999809E+01 0.  1.
       -4    1    3    3    0  502  0.63635096489E+03 -0.31631971010E+03  0.12624914541E+03  0.72176254345E+03  0.12699999809E+01 0. -1.
</event>
<event>
 5   0  0.3950195E-04  0.1597613E+04  0.7818609E-02  0.8822016E-01
        1   -1    0    0  501    0  0.00000000000E+00  0.00000000000E+00  0.30053471511E+03  0.30053471515E+03  0.50400001928E-02 0.  1.
       -1   -1    0    0    0  501  0.00000000000E+00  0.00000000000E+00 -0.21231881405E+04  0.21231881405E+04  0.50400001928E-02 0. -1.
    10030    2    1    2    0    0  0.00000000000E+00  0.00000000000E+00 -0.18226534254E+04  0.24237228556E+04  0.15976128980E+04 0.  0.
        2    1    3    3  502    0 -0.99613807333E+02 -0.72956493160E+03 -0.44150897939E+03  0.85855581002E+03  0.25500000920E-02 0.  1.
       -2    1    3    3    0  502  0.99613807333E+02  0.72956493160E+03 -0.13811444460E+04  0.15651670456E+04  0.25500000920E-02 0. -1.
</event>
<event>
 5   0  0.7415102E-04  0.1619560E+04  0.7818609E-02  0.8808621E-01
        2   -1    0    0  501    0  0.00000000000E+00  0.00000000000E+00  0.47637560032E+03  0.47637560033E+03  0.25500000920E-02 0. -1.
       -2   -1    0    0    0  501  0.00000000000E+00  0.00000000000E+00 -0.13765272798E+04  0.13765272798E+04  0.25500000920E-02 0.  1.
    10030    2    1    2    0    0  0.00000000000E+00  0.00000000000E+00 -0.90015167952E+03  0.18529028802E+04  0.16195604457E+04 0.  0.
        5    1    3    3  502    0 -0.18205016219E+03 -0.66163805196E+01  0.45261220129E+03  0.48792000656E+03  0.46999998093E+01 0. -1.
       -5    1    3    3    0  502  0.18205016219E+03  0.66163805196E+01 -0.13527638808E+04  0.13649828736E+04  0.46999998093E+01 0.  1.
</event>
<event>
 5   0  0.3973227E-04  0.1599198E+04  0.7818609E-02  0.8821041E-01
        1   -1    0    0  501    0  0.00000000000E+00  0.00000000000E+00  0.52599748624E+03  0.52599748627E+03  0.50400001928E-02 0.  1.
       -1   -1    0    0    0  501  0.00000000000E+00  0.00000000000E+00 -0.12155159071E+04  0.12155159071E+04  0.50400001928E-02 0. -1.
    10030    2    1    2    0    0  0.00000000000E+00  0.00000000000E+00 -0.68951842082E+03  0.17415133933E+04  0.15991976884E+04 0.  0.
        3    1    3    3  502    0 -0.28915114097E+03 -0.44324055451E+02 -0.11551516414E+04  0.11916158479E+04  0.10100000352E+00 0. -1.
       -3    1    3    3    0  502  0.28915114097E+03  0.44324055451E+02  0.46563322054E+03  0.54989754545E+03  0.10100000352E+00 0.  1.
</event>
<event>
 5   0  0.7553070E-04  0.1620225E+04  0.7818609E-02  0.8808219E-01
        2   -1    0    0  501    0  0.00000000000E+00  0.00000000000E+00  0.23777119223E+04  0.23777119223E+04  0.25500000920E-02 0. -1.
       -2   -1    0    0    0  501  0.00000000000E+00  0.00000000000E+00 -0.27601412099E+03  0.27601412100E+03  0.25500000920E-02 0.  1.
    10030    2    1    2    0    0  0.00000000000E+00  0.00000000000E+00  0.21016978013E+04  0.26537260433E+04  0.16202247575E+04 0.  0.
        4    1    3    3  502    0  0.55074427027E+03 -0.32774469592E+03  0.18624563616E+04  0.19696398526E+04  0.12699999809E+01 0. -1.
       -4    1    3    3    0  502 -0.55074427027E+03  0.32774469592E+03  0.23924143963E+03  0.68408619068E+03  0.12699999809E+01 0.  1.
</event>
<event>
 5   0  0.3889847E-04  0.1588802E+04  0.7818609E-02  0.8827457E-01
        1   -1    0    0  501    0  0.00000000000E+00  0.00000000000E+00  0.11712743279E+04  0.11712743279E+04  0.50400001928E-02 0.  1.
       -1   -1    0    0    0  501  0.00000000000E+00  0.00000000000E+00 -0.53879200762E+03  0.53879200764E+03  0.50400001928E-02 0. -1.
    10030    2    1    2    0    0  0.00000000000E+00  0.00000000000E+00  0.63248232029E+03  0.17100663356E+04  0.15888023749E+04 0.  0.
        1    1    3    3  502    0 -0.16016098523E+02  0.42482963079E+03 -0.40604893440E+03  0.58788814222E+03  0.50400001928E-02 0. -1.
       -1    1    3    3    0  502  0.16016098523E+02 -0.42482963079E+03  0.10385312547E+04  0.11221781933E+04  0.50400001928E-02 0.  1.
</event>
<event>
 5   0  0.7415102E-04  0.1600568E+04  0.7818609E-02  0.8820199E-01
        2   -1    0    0  501    0  0.00000000000E+00  0.00000000000E+00  0.11235631412E+04  0.11235631412E+04  0.25500000920E-02 0.  1.
       -2   -1    0    0    0  501  0.00000000000E+00  0.00000000000E+00 -0.57002083615E+03  0.57002083616E+03  0.25500000920E-02 0. -1.
    10030    2    1    2    0    0  0.00000000000E+00  0.00000000000E+00  0.55354230509E+03  0.16935839774E+04  0.16005679008E+04 0.  0.
        5    1    3    3  502    0  0.60853323564E+03 -0.63502063102E+02  0.82258499265E+03  0.10251894318E+04  0.46999998093E+01 0.  1.
       -5    1    3    3    0  502 -0.60853323564E+03  0.63502063102E+02 -0.26904268756E+03  0.66839454562E+03  0.46999998093E+01 0. -1.
</event>
<event>
 5   0  0.4110803E-04  0.1599267E+04  0.7818609E-02  0.8820998E-01
       -1   -1    0    0    0  501  0.00000000000E+00  0.00000000000E+00  0.54371189417E+03  0.54371189419E+03  0.50400001928E-02 0. -1.
        1   -1    0    0  501    0  0.00000000000E+00  0.00000000000E+00 -0.11760162393E+04  0.11760162393E+04  0.50400001928E-02 0.  1.
    10030    2    1    2    0    0  0.00000000000E+00  0.00000000000E+00 -0.63230434513E+03  0.17197281335E+04  0.15992673536E+04 0.  0.
        5    1    3    3  502    0  0.22437877259E+03  0.73016437023E+03 -0.57040644999E+03  0.95334749663E+03  0.46999998093E+01 0.  1.
       -5    1    3    3    0  502 -0.22437877259E+03 -0.73016437023E+03 -0.61897895139E+02  0.76638063687E+03  0.46999998093E+01 0. -1.
</event>
<event>
 5   0  0.4110803E-04  0.1621966E+04  0.7818609E-02  0.8807166E-01
        1   -1    0    0  501    0  0.00000000000E+00  0.00000000000E+00  0.10636618531E+04  0.10636618531E+04  0.50400001928E-02 0. -1.
       -1   -1    0    0    0  501  0.00000000000E+00  0.00000000000E+00 -0.61832961957E+03  0.61832961959E+03  0.50400001928E-02 0.  1.
    10030    2    1    2    0    0  0.00000000000E+00  0.00000000000E+00  0.44533223349E+03  0.16819914727E+04  0.16219662499E+04 0.  0.
        5    1    3    3  502    0  0.47777981551E+02  0.75661054377E+03 -0.75965610577E+02  0.76192854944E+03  0.46999998093E+01 0.  1.
       -5    1    3    3    0  502 -0.47777981551E+02 -0.75661054377E+03  0.52129784407E+03  0.92006292322E+03  0.46999998093E+01 0. -1.
</event>
<event>
 5   0  0.7415102E-04  0.1589722E+04  0.7818609E-02  0.8826887E-01
       -2   -1    0    0    0  501  0.00000000000E+00  0.00000000000E+00  0.65019377860E+03  0.65019377861E+03  0.25500000920E-02 0.  1.
        2   -1    0    0  501    0  0.00000000000E+00  0.00000000000E+00 -0.97171629254E+03  0.97171629254E+03  0.25500000920E-02 0. -1.
    10030    2    1    2    0    0  0.00000000000E+00  0.00000000000E+00 -0.32152251394E+03  0.16219100711E+04  0.15897218473E+04 0.  0.
        5    1    3    3  502    0 -0.10340044093E+03  0.34916013976E+03 -0.88159160135E+03  0.95385024818E+03  0.46999998093E+01 0. -1.
       -5    1    3    3    0  502  0.10340044093E+03 -0.34916013976E+03  0.56006908742E+03  0.66805982297E+03  0.46999998093E+01 0.  1.
</event>
<event>
 5   0  0.3837251E-04  0.1221915E+04  0.7818609E-02  0.9093888E-01
       -1   -1    0    0    0  501  0.00000000000E+00  0.00000000000E+00  0.49514684190E+03  0.49514684193E+03  0.50400001928E-02 0. -1.
        1   -1    0    0  501    0  0.00000000000E+00  0.00000000000E+00 -0.75385513820E+03  0.75385513822E+03  0.50400001928E-02 0.  1.
    10030    2    1    2    0    0  0.00000000000E+00  0.00000000000E+00 -0.25870829630E+03  0.12490019801E+04  0.12219148759E+04 0.  0.
        4    1    3    3  502    0 -0.26289171561E+03  0.51514082957E+03 -0.33065956922E+03  0.66619778747E+03  0.12699999809E+01 0.  1.
       -4    1    3    3    0  502  0.26289171561E+03 -0.51514082957E+03  0.71951272917E+02  0.58280419267E+03  0.12699999809E+01 0. -1.
</event>
<event>
 5   0  0.3837251E-04  0.1614234E+04  0.7818609E-02  0.8811851E-01
       -1   -1    0    0    0  501  0.00000000000E+00  0.00000000000E+00  0.18033140364E+04  0.18033140364E+04  0.50400001928E-02 0. -1.
        1   -1    0    0  501    0  0.00000000000E+00  0.00000000000E+00 -0.36124494458E+03  0.36124494461E+03  0.50400001928E-02 0.  1.
    10030    2    1    2    0    0  0.00000000000E+00  0.00000000000E+00  0.14420690918E+04  0.21645589810E+04  0.16142342819E+04 0.  0.
        4    1    3    3  502    0  0.70120491049E+03 -0.23770595128E+03  0.11518936877E+04  0.13693257927E+04  0.12699999809E+01 0. -1.
       -4    1    3    3    0  502 -0.70120491049E+03  0.23770595128E+03  0.29017540407E+03  0.79523318832E+03  0.12699999809E+01 0.  1.
</event>
<event>
 5   0  0.4110803E-04  0.1616683E+04  0.7818609E-02  0.8810364E-01
       -1   -1    0    0    0  501  0.00000000000E+00  0.00000000000E+00  0.56703760933E+03  0.56703760935E+03  0.50400001928E-02 0.  1.
        1   -1    0    0  501    0  0.00000000000E+00  0.00000000000E+00 -0.11523332573E+04  0.11523332573E+04  0.50400001928E-02 0. -1.
    10030    2    1    2    0    0  0.00000000000E+00  0.00000000000E+00 -0.58529564800E+03  0.17193708667E+04  0.16166833894E+04 0.  0.
        5    1    3    3  502    0 -0.10534565726E+03  0.70853347816E+03  0.10567713981E+03  0.72409056413E+03  0.46999998093E+01 0.  1.
       -5    1    3    3    0  502  0.10534565726E+03 -0.70853347816E+03 -0.69097278781E+03  0.99528030256E+03  0.46999998093E+01 0. -1.
</event>
<event>
 5   0  0.3837251E-04  0.1606702E+04  0.7818609E-02  0.8816442E-01
       -1   -1    0    0    0  501  0.00000000000E+00  0.00000000000E+00  0.75823570487E+03  0.75823570489E+03  0.50400001928E-02 0.  1.
        1   -1    0    0  501    0  0.00000000000E+00  0.00000000000E+00 -0.85115018786E+03  0.85115018788E+03  0.50400001928E-02 0. -1.
    10030    2    1    2    0    0  0.00000000000E+00  0.00000000000E+00 -0.92914482988E+02  0.16093858928E+04  0.16067015438E+04 0.  0.
        4    1    3    3  502    0 -0.35229431035E+03  0.71477086398E+03 -0.14842210900E+03  0.81057967187E+03  0.12699999809E+01 0. -1.
       -4    1    3    3    0  502  0.35229431035E+03 -0.71477086398E+03  0.55507626012E+02  0.79880622090E+03  0.12699999809E+01 0.  1.
</event>
<event>
 5   0  0.3837251E-04  0.1716133E+04  0.7818609E-02  0.8752216E-01
        1   -1    0    0  501    0  0.00000000000E+00  0.00000000000E+00  0.42662406793E+03  0.42662406796E+03  0.50400001928E-02 0.  1.
       -1   -1    0    0    0  501  0.00000000000E+00  0.00000000000E+00 -0.17258244477E+04  0.17258244477E+04  0.50400001928E-02 0. -1.
    10030    2    1    2    0    0  0.00000000000E+00  0.00000000000E+00 -0.12992003798E+04  0.21524485157E+04  0.17161331492E+04 0.  0.
        4    1    3    3  502    0 -0.41245379685E+03  0.54785012462E+03 -0.12965013174E+04  0.14666885056E+04  0.12699999809E+01 0. -1.
       -4    1    3    3    0  502  0.41245379685E+03 -0.54785012462E+03 -0.26990623843E+01  0.68576001008E+03  0.12699999809E+01 0.  1.
</event>
<event>
 5   0  0.3837251E-04  0.1611258E+04  0.7818609E-02  0.8813661E-01
        1   -1    0    0  501    0  0.00000000000E+00  0.00000000000E+00  0.10234080767E+04  0.10234080767E+04  0.50400001928E-02 0.  1.
       -1   -1    0    0    0  501  0.00000000000E+00  0.00000000000E+00 -0.63419295887E+03  0.63419295889E+03  0.50400001928E-02 0. -1.
    10030    2    1    2    0    0  0.00000000000E+00  0.00000000000E+00  0.38921511786E+03  0.16576010356E+04  0.16112581374E+04 0.  0.
        4    1    3    3  502    0 -0.21060736041E+03  0.14433950672E+03  0.98068348811E+03  0.10133760754E+04  0.12699999809E+01 0.  1.
       -4    1    3    3    0  502  0.21060736041E+03 -0.14433950672E+03 -0.59146837025E+03  0.64422496022E+03  0.12699999809E+01 0. -1.
</event>
<event>
 5   0  0.3889847E-04  0.1588297E+04  0.7818609E-02  0.8827770E-01
       -1   -1    0    0    0  501  0.00000000000E+00  0.00000000000E+00  0.13381670084E+04  0.13381670084E+04  0.50400001928E-02 0. -1.
        1   -1    0    0  501    0  0.00000000000E+00  0.00000000000E+00 -0.47129515333E+03  0.47129515336E+03  0.50400001928E-02 0.  1.
    10030    2    1    2    0    0  0.00000000000E+00  0.00000000000E+00  0.86687185506E+03  0.18094621618E+04  0.15882967298E+04 0.  0.
        1    1    3    3  502    0  0.36235801657E+03 -0.66446663548E+03  0.70745354928E+03  0.10360066439E+04  0.50400001928E-02 0.  1.
       -1    1    3    3    0  502 -0.36235801657E+03  0.66446663548E+03  0.15941830578E+03  0.77345551784E+03  0.50400001928E-02 0. -1.
</event>
<event>
 5   0  0.7770905E-04  0.1603770E+04  0.7818609E-02  0.8818235E-01
        2   -1    0    0  501    0  0.00000000000E+00  0.00000000000E+00  0.81263604765E+03  0.81263604766E+03  0.25500000920E-02 0.  1.
       -2   -1    0    0    0  501  0.00000000000E+00  0.00000000000E+00 -0.79127588435E+03  0.79127588436E+03  0.25500000920E-02 0. -1.
    10030    2    1    2    0    0  0.00000000000E+00  0.00000000000E+00  0.21360163302E+02  0.16039119320E+04  0.16037696933E+04 0.  0.
        2    1    3    3  502    0 -0.25903482610E+03  0.30788233325E+03  0.70437603929E+03  0.81119429053E+03  0.25500000920E-02 0.  1.
       -2    1    3    3    0  502  0.25903482610E+03 -0.30788233325E+03 -0.68301587598E+03  0.79271764148E+03  0.25500000920E-02 0. -1.
</event>
<event>
 5   0  0.3889847E-04  0.1523278E+04  0.7818609E-02  0.8869119E-01
        1   -1    0    0  501    0  0.00000000000E+00  0.00000000000E+00  0.46268692295E+03  0.46268692298E+03  0.50400001928E-02 0. -1.
       -1   -1    0    0    0  501  0.00000000000E+00  0.00000000000E+00 -0.12537508445E+04  0.12537508445E+04  0.50400001928E-02 0.  1.
    10030    2    1    2    0    0  0.00000000000E+00  0.00000000000E+00 -0.79106392157E+03  0.17164377675E+04  0.15232782023E+04 0.  0.
        1    1    3    3  502    0  0.60225992745E+02 -0.12709412488E+03  0.44792821952E+03  0.46948884614E+03  0.50400001928E-02 0. -1.
       -1    1    3    3    0  502 -0.60225992745E+02  0.12709412488E+03 -0.12389921411E+04  0.12469489214E+04  0.50400001928E-02 0.  1.
</event>
<event>
 5   0  0.3837251E-04  0.1600534E+04  0.7818609E-02  0.8820220E-01
       -1   -1    0    0    0  501  0.00000000000E+00  0.00000000000E+00  0.65853836441E+03  0.65853836443E+03  0.50400001928E-02 0.  1.
        1   -1    0    0  501    0  0.00000000000E+00  0.00000000000E+00 -0.97249837994E+03  0.97249837996E+03  0.50400001928E-02 0. -1.
    10030    2    1    2    0    0  0.00000000000E+00  0.00000000000E+00 -0.31396001553E+03  0.16310367444E+04  0.16005342765E+04 0.  0.
        4    1    3    3  502    0  0.59656506795E+03 -0.53247288761E+03 -0.12461592774E+03  0.80928857565E+03  0.12699999809E+01 0.  1.
       -4    1    3    3    0  502 -0.59656506795E+03  0.53247288761E+03 -0.18934408779E+03  0.82174816874E+03  0.12699999809E+01 0. -1.
</event>
<event>
 5   0  0.7415102E-04  0.1593898E+04  0.7818609E-02  0.8824306E-01
        2   -1    0    0  501    0  0.00000000000E+00  0.00000000000E+00  0.62633885536E+03  0.62633885536E+03  0.25500000920E-02 0. -1.
       -2   -1    0    0    0  501  0.00000000000E+00  0.00000000000E+00 -0.10140318144E+04  0.10140318144E+04  0.25500000920E-02 0.  1.
    10030    2    1    2    0    0  0.00000000000E+00  0.00000000000E+00 -0.38769295904E+03  0.16403706698E+04  0.15938977708E+04 0.  0.
        5    1    3    3  502    0 -0.89572364283E+01  0.25554036987E+03  0.58296191974E+03  0.63659076539E+03  0.46999998093E+01 0. -1.
       -5    1    3    3    0  502  0.89572364283E+01 -0.25554036987E+03 -0.97065487878E+03  0.10037799044E+04  0.46999998093E+01 0.  1.
</event>
<event>
 5   0  0.2781000E-04  0.1613805E+04  0.7818609E-02  0.8812112E-01
        4   -1    0    0  501    0  0.00000000000E+00  0.00000000000E+00  0.12154886507E+04  0.12154893142E+04  0.12699999809E+01 0.  1.
       -4   -1    0    0    0  501  0.00000000000E+00  0.00000000000E+00 -0.53566060881E+03  0.53566211434E+03  0.12699999809E+01 0. -1.
    10030    2    1    2    0    0  0.00000000000E+00  0.00000000000E+00  0.67982804186E+03  0.17511514285E+04  0.16138045603E+04 0.  0.
        4    1    3    3  502    0 -0.11560145225E+03  0.58145649446E+03 -0.25406149948E+03  0.64498388285E+03  0.12699999809E+01 0. -1.
       -4    1    3    3    0  502  0.11560145225E+03 -0.58145649446E+03  0.93388954134E+03  0.11061675456E+04  0.12699999809E+01 0.  1.
</event>
<event>
 5   0  0.3973227E-04  0.1622655E+04  0.7818609E-02  0.8806750E-01
        1   -1    0    0  501    0  0.00000000000E+00  0.00000000000E+00  0.28809924569E+03  0.28809924573E+03  0.50400001928E-02 0. -1.
       -1   -1    0    0    0  501  0.00000000000E+00  0.00000000000E+00 -0.22848120420E+04  0.22848120420E+04  0.50400001928E-02 0.  1.
    10030    2    1    2    0    0  0.00000000000E+00  0.00000000000E+00 -0.19967127963E+04  0.25729112878E+04  0.16226553866E+04 0.  0.
        3    1    3    3  502    0 -0.65236340503E+03 -0.27028011920E+03 -0.16318563781E+04  0.17780845323E+04  0.10100000352E+00 0.  1.
       -3    1    3    3    0  502  0.65236340503E+03  0.27028011920E+03 -0.36485641824E+03  0.79482675546E+03  0.10100000352E+00 0. -1.
</event>
<event>
 5   0  0.3837251E-04  0.1586398E+04  0.7818609E-02  0.8828948E-01
        1   -1    0    0  501    0  0.00000000000E+00  0.00000000000E+00  0.58578962071E+03  0.58578962073E+03  0.50400001928E-02 0.  1.
       -1   -1    0    0    0  501  0.00000000000E+00  0.00000000000E+00 -0.10740447936E+04  0.10740447936E+04  0.50400001928E-02 0. -1.
    10030    2    1    2    0    0  0.00000000000E+00  0.00000000000E+00 -0.48825517292E+03  0.16598344144E+04  0.15863975445E+04 0.  0.
        4    1    3    3  502    0 -0.34936067468E+03 -0.66613329014E+03 -0.50752770399E+03  0.90739871306E+03  0.12699999809E+01 0. -1.
       -4    1    3    3    0  502  0.34936067468E+03  0.66613329014E+03  0.19272531075E+02  0.75243570131E+03  0.12699999809E+01 0.  1.
</event>
<event>
 5   0  0.3837251E-04  0.1571376E+04  0.7818609E-02  0.8838328E-01
        1   -1    0    0  501    0  0.00000000000E+00  0.00000000000E+00  0.95000691086E+03  0.95000691087E+03  0.50400001928E-02 0.  1.
       -1   -1    0    0    0  501  0.00000000000E+00  0.00000000000E+00 -0.64979096737E+03  0.64979096739E+03  0.50400001928E-02 0. -1.
    10030    2    1    2    0    0  0.00000000000E+00  0.00000000000E+00  0.30021594348E+03  0.15997978783E+04  0.15713763517E+04 0.  0.
        4    1    3    3  502    0  0.43198932858E+03  0.53626187550E+03  0.53525275334E+03  0.87217469694E+03  0.12699999809E+01 0.  1.
       -4    1    3    3    0  502 -0.43198932858E+03 -0.53626187550E+03 -0.23503680986E+03  0.72762318133E+03  0.12699999809E+01 0. -1.
</event>
<event>
 5   0  0.7553070E-04  0.1591640E+04  0.7818609E-02  0.8825700E-01
        2   -1    0    0  501    0  0.00000000000E+00  0.00000000000E+00  0.30183735566E+03  0.30183735567E+03  0.25500000920E-02 0. -1.
       -2   -1    0    0    0  501  0.00000000000E+00  0.00000000000E+00 -0.20982486577E+04  0.20982486577E+04  0.25500000920E-02 0.  1.
    10030    2    1    2    0    0  0.00000000000E+00  0.00000000000E+00 -0.17964113020E+04  0.24000860134E+04  0.15916404448E+04 0.  0.
        4    1    3    3  502    0 -0.68578548758E+03 -0.31145455053E+03 -0.51074468347E+03  0.91003704135E+03  0.12699999809E+01 0. -1.
       -4    1    3    3    0  502  0.68578548758E+03  0.31145455053E+03 -0.12856666186E+04  0.14900489720E+04  0.12699999809E+01 0.  1.
</event>
<event>
 5   0  0.2781000E-04  0.1590440E+04  0.7818609E-02  0.8826443E-01
        3   -1    0    0  501    0  0.00000000000E+00  0.00000000000E+00  0.16794013611E+04  0.16794013642E+04  0.10100000352E+00 0. -1.
       -3   -1    0    0    0  501  0.00000000000E+00  0.00000000000E+00 -0.37654758409E+03  0.37654759764E+03  0.10100000352E+00 0.  1.
    10030    2    1    2    0    0  0.00000000000E+00  0.00000000000E+00  0.13028537770E+04  0.20559489618E+04  0.15904396151E+04 0.  0.
        4    1    3    3  502    0  0.46299046830E+03 -0.45300256032E+03  0.12477510713E+04  0.14058648023E+04  0.12699999809E+01 0. -1.
       -4    1    3    3    0  502 -0.46299046830E+03  0.45300256032E+03  0.55102705719E+02  0.65008415953E+03  0.12699999809E+01 0.  1.
</event>
<event>
 5   0  0.3973227E-04  0.1602926E+04  0.7818609E-02  0.8818753E-01
       -1   -1    0    0    0  501  0.00000000000E+00  0.00000000000E+00  0.66820979508E+03  0.66820979510E+03  0.50400001928E-02 0. -1.
        1   -1    0    0  501    0  0.00000000000E+00  0.00000000000E+00 -0.96128885525E+03  0.96128885527E+03  0.50400001928E-02 0.  1.
    10030    2    1    2    0    0  0.00000000000E+00  0.00000000000E+00 -0.29307906017E+03  0.16294986504E+04  0.16029256115E+04 0.  0.
        3    1    3    3  502    0 -0.13230612847E+03  0.64178296722E+02  0.65437856417E+03  0.67069745851E+03  0.10100000352E+00 0. -1.
       -3    1    3    3    0  502  0.13230612847E+03 -0.64178296722E+02 -0.94745762434E+03  0.95880119186E+03  0.10100000352E+00 0.  1.
</event>
<event>
 5   0  0.7770905E-04  0.1589542E+04  0.7818609E-02  0.8826998E-01
        2   -1    0    0  501    0  0.00000000000E+00  0.00000000000E+00  0.64050909321E+03  0.64050909321E+03  0.25500000920E-02 0.  1.
       -2   -1    0    0    0  501  0.00000000000E+00  0.00000000000E+00 -0.98618601691E+03  0.98618601691E+03  0.25500000920E-02 0. -1.
    10030    2    1    2    0    0  0.00000000000E+00  0.00000000000E+00 -0.34567692370E+03  0.16266951101E+04  0.15895422126E+04 0.  0.
        2    1    3    3  502    0 -0.55187864041E+02  0.27814180211E+03  0.58697922857E+03  0.65188432808E+03  0.25500000920E-02 0.  1.
       -2    1    3    3    0  502  0.55187864041E+02 -0.27814180211E+03 -0.93265615227E+03  0.97481078205E+03  0.25500000920E-02 0. -1.
</event>
<event>
 5   0  0.7415102E-04  0.1613319E+04  0.7818609E-02  0.8812407E-01
       -2   -1    0    0    0  501  0.00000000000E+00  0.00000000000E+00  0.77894434373E+03  0.77894434373E+03  0.25500000920E-02 0.  1.
        2   -1    0    0  501    0  0.00000000000E+00  0.00000000000E+00 -0.83536118899E+03  0.83536118900E+03  0.25500000920E-02 0. -1.
    10030    2    1    2    0    0  0.00000000000E+00  0.00000000000E+00 -0.56416845265E+02  0.16143055327E+04  0.16133194019E+04 0.  0.
        5    1    3    3  502    0  0.32378295062E+03  0.63766805127E+03  0.34514407743E+03  0.79410482110E+03  0.46999998093E+01 0.  1.
       -5    1    3    3    0  502 -0.32378295062E+03 -0.63766805127E+03 -0.40156092269E+03  0.82020071163E+03  0.46999998093E+01 0. -1.
</event>
<event>
 5   0  0.7488884E-04  0.1570153E+04  0.7818609E-02  0.8839097E-01
        2   -1    0    0  501    0  0.00000000000E+00  0.00000000000E+00  0.11255376492E+04  0.11255376492E+04  0.25500000920E-02 0. -1.
       -2   -1    0    0    0  501  0.00000000000E+00  0.00000000000E+00 -0.54760029243E+03  0.54760029243E+03  0.25500000920E-02 0.  1.
    10030    2    1    2    0    0  0.00000000000E+00  0.00000000000E+00  0.57793735675E+03  0.16731379416E+04  0.15701525351E+04 0.  0.
        3    1    3    3  502    0 -0.29865806974E+02 -0.81812144603E+01  0.11248866290E+04  0.11253127730E+04  0.10100000352E+00 0. -1.
       -3    1    3    3    0  502  0.29865806974E+02  0.81812144603E+01 -0.54694927229E+03  0.54782516861E+03  0.10100000352E+00 0.  1.
</event>
<event>
 5   0  0.3950195E-04  0.1455053E+04  0.7818609E-02  0.8914905E-01
       -1   -1    0    0    0  501  0.00000000000E+00  0.00000000000E+00  0.60694699202E+03  0.60694699204E+03  0.50400001928E-02 0.  1.
        1   -1    0    0  501    0  0.00000000000E+00  0.00000000000E+00 -0.87206090956E+03  0.87206090958E+03  0.50400001928E-02 0. -1.
    10030    2    1    2    0    0  0.00000000000E+00  0.00000000000E+00 -0.26511391754E+03  0.14790079016E+04  0.14550529144E+04 0.  0.
        2    1    3    3  502    0 -0.51585318765E+03  0.80494352873E+01  0.38884556367E+03  0.64604193131E+03  0.25500000920E-02 0.  1.
       -2    1    3    3    0  502  0.51585318765E+03 -0.80494352873E+01 -0.65395948121E+03  0.83296597031E+03  0.25500000920E-02 0. -1.
</event>
<event>
 5   0  0.7488884E-04  0.1561038E+04  0.7818609E-02  0.8844848E-01
        2   -1    0    0  501    0  0.00000000000E+00  0.00000000000E+00  0.69936834804E+03  0.69936834805E+03  0.25500000920E-02 0.  1.
       -2   -1    0    0    0  501  0.00000000000E+00  0.00000000000E+00 -0.87108564392E+03  0.87108564392E+03  0.25500000920E-02 0. -1.
    10030    2    1    2    0    0  0.00000000000E+00  0.00000000000E+00 -0.17171729587E+03  0.15704539920E+04  0.15610377674E+04 0.  0.
        3    1    3    3  502    0  0.29280142753E+03  0.41488866525E+03  0.51045994168E+03  0.72002405708E+03  0.10100000352E+00 0.  1.
       -3    1    3    3    0  502 -0.29280142753E+03 -0.41488866525E+03 -0.68217723756E+03  0.85042993489E+03  0.10100000352E+00 0. -1.
</event>
<event>
 5   0  0.4110803E-04  0.1597362E+04  0.7818609E-02  0.8822171E-01
        1   -1    0    0  501    0  0.00000000000E+00  0.00000000000E+00  0.10391825120E+04  0.10391825120E+04  0.50400001928E-02 0. -1.
       -1   -1    0    0    0  501  0.00000000000E+00  0.00000000000E+00 -0.61383918556E+03  0.61383918558E+03  0.50400001928E-02 0.  1.
    10030    2    1    2    0    0  0.00000000000E+00  0.00000000000E+00  0.42534332644E+03  0.16530216976E+04  0.15973615080E+04 0.  0.
        5    1    3    3  502    0  0.46472689261E+03  0.64950399300E+03  0.21940493539E+03  0.82824340463E+03  0.46999998093E+01 0. -1.
       -5    1    3    3    0  502 -0.46472689261E+03 -0.64950399300E+03  0.20593839105E+03  0.82477829296E+03  0.46999998093E+01 0.  1.
</event>
<event>
 5   0  0.3973227E-04  0.1573660E+04  0.7818609E-02  0.8836895E-01
       -1   -1    0    0    0  501  0.00000000000E+00  0.00000000000E+00  0.35967553896E+03  0.35967553900E+03  0.50400001928E-02 0.  1.
        1   -1    0    0  501    0  0.00000000000E+00  0.00000000000E+00 -0.17212777182E+04  0.17212777182E+04  0.50400001928E-02 0. -1.
    10030    2    1    2    0    0  0.00000000000E+00  0.00000000000E+00 -0.13616021792E+04  0.20809532572E+04  0.15736600536E+04 0.  0.
        3    1    3    3  502    0 -0.42970810112E+03 -0.39357421874E+03 -0.13799706661E+04  0.14979548615E+04  0.10100000352E+00 0. -1.
       -3    1    3    3    0  502  0.42970810112E+03  0.39357421874E+03  0.18368486836E+02  0.58299839565E+03  0.10100000352E+00 0.  1.
</event>
<event>
 5   0  0.3837251E-04  0.1601339E+04  0.7818609E-02  0.8819726E-01
       -1   -1    0    0    0  501  0.00000000000E+00  0.00000000000E+00  0.11529933574E+04  0.11529933574E+04  0.50400001928E-02 0.  1.
        1   -1    0    0  501    0  0.00000000000E+00  0.00000000000E+00 -0.55600637273E+03  0.55600637275E+03  0.50400001928E-02 0. -1.
    10030    2    1    2    0    0  0.00000000000E+00  0.00000000000E+00  0.59698698467E+03  0.17089997302E+04  0.16013390078E+04 0.  0.
        4    1    3    3  502    0 -0.17886808122E+03 -0.77772309913E+03  0.22913958950E+03  0.83027319225E+03  0.12699999809E+01 0. -1.
       -4    1    3    3    0  502  0.17886808122E+03  0.77772309913E+03  0.36784739516E+03  0.87872653791E+03  0.12699999809E+01 0.  1.
</event>
<event>
 5   0  0.7553070E-04  0.1652294E+04  0.7818609E-02  0.8789051E-01
        2   -1    0    0  501    0  0.00000000000E+00  0.00000000000E+00  0.10818066652E+04  0.10818066652E+04  0.25500000920E-02 0.  1.
       -2   -1    0    0    0  501  0.00000000000E+00  0.00000000000E+00 -0.63090613840E+03  0.63090613841E+03  0.25500000920E-02 0. -1.
    10030    2    1    2    0    0  0.00000000000E+00  0.00000000000E+00  0.45090052683E+03  0.17127128036E+04  0.16522935159E+04 0.  0.
        4    1    3    3  502    0  0.14473082416E+03  0.14179456626E+03  0.10556518099E+04  0.10749209585E+04  0.12699999809E+01 0.  1.
       -4    1    3    3    0  502 -0.14473082416E+03 -0.14179456626E+03 -0.60475128304E+03  0.63779184513E+03  0.12699999809E+01 0. -1.
</event>
<event>
 5   0  0.3837251E-04  0.1572486E+04  0.7818609E-02  0.8837631E-01
        1   -1    0    0  501    0  0.00000000000E+00  0.00000000000E+00  0.11378202689E+04  0.11378202689E+04  0.50400001928E-02 0. -1.
       -1   -1    0    0    0  501  0.00000000000E+00  0.00000000000E+00 -0.54330036979E+03  0.54330036981E+03  0.50400001928E-02 0.  1.
    10030    2    1    2    0    0  0.00000000000E+00  0.00000000000E+00  0.59451989910E+03  0.16811206387E+04  0.15724861499E+04 0.  0.
        4    1    3    3  502    0  0.62003348086E+03 -0.12032856338E+03  0.79785652352E+03  0.10175937920E+04  0.12699999809E+01 0. -1.
       -4    1    3    3    0  502 -0.62003348086E+03  0.12032856338E+03 -0.20333662441E+03  0.66352684669E+03  0.12699999809E+01 0.  1.
</event>
<event>
 5   0  0.7415102E-04  0.1740488E+04  0.7818609E-02  0.8738604E-01
        2   -1    0    0  501    0  0.00000000000E+00  0.00000000000E+00  0.90257859014E+03  0.90257859014E+03  0.25500000920E-02 0.  1.
       -2   -1    0    0    0  501  0.00000000000E+00  0.00000000000E+00 -0.83906757852E+03  0.83906757853E+03  0.25500000920E-02 0. -1.
    10030    2    1    2    0    0  0.00000000000E+00  0.00000000000E+00  0.63511011614E+02  0.17416461687E+04  0.17404877846E+04 0.  0.
        5    1    3    3  502    0  0.28486216532E+03  0.25025438297E+03  0.81555750510E+03  0.89940527214E+03  0.46999998093E+01 0.  1.
       -5    1    3    3    0  502 -0.28486216532E+03 -0.25025438297E+03 -0.75204649348E+03  0.84224089653E+03  0.46999998093E+01 0. -1.
</event>
<event>
 5   0  0.3973227E-04  0.1571559E+04  0.7818609E-02  0.8838213E-01
       -1   -1    0    0    0  501  0.00000000000E+00  0.00000000000E+00  0.38077177030E+03  0.38077177034E+03  0.50400001928E-02 0.  1.
        1   -1    0    0  501    0  0.00000000000E+00  0.00000000000E+00 -0.16215735786E+04  0.16215735786E+04  0.50400001928E-02 0. -1.
    10030    2    1    2    0    0  0.00000000000E+00  0.00000000000E+00 -0.12408018083E+04  0.20023453490E+04  0.15715590250E+04 0.  0.
        3    1    3    3  502    0  0.20745017119E+03  0.10932187864E+03  0.33515281183E+03  0.40904066321E+03  0.10100000352E+00 0.  1.
       -3    1    3    3    0  502 -0.20745017119E+03 -0.10932187864E+03 -0.15759546202E+04  0.15933046858E+04  0.10100000352E+00 0. -1.
</event>
<event>
 5   0  0.7770905E-04  0.1611493E+04  0.7818609E-02  0.8813518E-01
        2   -1    0    0  501    0  0.00000000000E+00  0.00000000000E+00  0.93624857120E+03  0.93624857121E+03  0.25500000920E-02 0. -1.
       -2   -1    0    0    0  501  0.00000000000E+00  0.00000000000E+00 -0.69343530945E+03  0.69343530946E+03  0.25500000920E-02 0.  1.
    10030    2    1    2    0    0  0.00000000000E+00  0.00000000000E+00  0.24281326175E+03  0.16296838807E+04  0.16114934908E+04 0.  0.
        2    1    3    3  502    0  0.56610976602E+03  0.54300621167E+02 -0.45582441759E+03  0.72883792733E+03  0.25500000920E-02 0.  1.
       -2    1    3    3    0  502 -0.56610976602E+03 -0.54300621167E+02  0.69863767934E+03  0.90084595333E+03  0.25500000920E-02 0. -1.
</event>
<event>
 5   0  0.7553070E-04  0.1594584E+04  0.7818609E-02  0.8823882E-01
        2   -1    0    0  501    0  0.00000000000E+00  0.00000000000E+00  0.14762189342E+04  0.14762189342E+04  0.25500000920E-02 0. -1.
       -2   -1    0    0    0  501  0.00000000000E+00  0.00000000000E+00 -0.43060980849E+03  0.43060980849E+03  0.25500000920E-02 0.  1.
    10030    2    1    2    0    0  0.00000000000E+00  0.00000000000E+00  0.10456091257E+04  0.19068287426E+04  0.15945837733E+04 0.  0.
        4    1    3    3  502    0 -0.32852606555E+03 -0.52413786228E+03  0.11243164772E+04  0.12832532985E+04  0.12699999809E+01 0. -1.
       -4    1    3    3    0  502  0.32852606555E+03  0.52413786228E+03 -0.78707351517E+02  0.62357544412E+03  0.12699999809E+01 0.  1.
</event>
<event>
 5   0  0.7770905E-04  0.1453803E+04  0.7818609E-02  0.8915768E-01
       -2   -1    0    0    0  501  0.00000000000E+00  0.00000000000E+00  0.10237785130E+04  0.10237785130E+04  0.25500000920E-02 0.  1.
        2   -1    0    0  501    0  0.00000000000E+00  0.00000000000E+00 -0.51611332508E+03  0.51611332508E+03  0.25500000920E-02 0. -1.
    10030    2    1    2    0    0  0.00000000000E+00  0.00000000000E+00  0.50766518796E+03  0.15398918381E+04  0.14538029199E+04 0.  0.
        2    1    3    3  502    0 -0.46954460654E+03  0.46614219253E+03 -0.65033845988E+02  0.66482334670E+03  0.25500000920E-02 0. -1.
       -2    1    3    3    0  502  0.46954460654E+03 -0.46614219253E+03  0.57269903394E+03  0.87506849142E+03  0.25500000920E-02 0.  1.
</event>
<event>
 5   0  0.3837251E-04  0.1515143E+04  0.7818609E-02  0.8874445E-01
       -1   -1    0    0    0  501  0.00000000000E+00  0.00000000000E+00  0.52077046150E+03  0.52077046153E+03  0.50400001928E-02 0. -1.
        1   -1    0    0  501    0  0.00000000000E+00  0.00000000000E+00 -0.11020489538E+04  0.11020489538E+04  0.50400001928E-02 0.  1.
    10030    2    1    2    0    0  0.00000000000E+00  0.00000000000E+00 -0.58127849232E+03  0.16228194154E+04  0.15151429534E+04 0.  0.
        4    1    3    3  502    0  0.26373236473E+03 -0.70962702758E+03 -0.26057962677E+03  0.80064263768E+03  0.12699999809E+01 0. -1.
       -4    1    3    3    0  502 -0.26373236473E+03  0.70962702758E+03 -0.32069886554E+03  0.82217677767E+03  0.12699999809E+01 0.  1.
</event>
<event>
 5   0  0.7415102E-04  0.1622483E+04  0.7818609E-02  0.8806854E-01
       -2   -1    0    0    0  501  0.00000000000E+00  0.00000000000E+00  0.44820948046E+03  0.44820948047E+03  0.25500000920E-02 0.  1.
        2   -1    0    0  501    0  0.00000000000E+00  0.00000000000E+00 -0.14683148694E+04  0.14683148694E+04  0.25500000920E-02 0. -1.
    10030    2    1    2    0    0  0.00000000000E+00  0.00000000000E+00 -0.10201053889E+04  0.19165243498E+04  0.16224828440E+04 0.  0.
        5    1    3    3  502    0 -0.46836893901E+03  0.26389628642E+03  0.20756706931E+03  0.57629583660E+03  0.46999998093E+01 0.  1.
       -5    1    3    3    0  502  0.46836893901E+03 -0.26389628642E+03 -0.12276724582E+04  0.13402285132E+04  0.46999998093E+01 0. -1.
</event>
<event>
 5   0  0.3950195E-04  0.1621137E+04  0.7818609E-02  0.8807667E-01
        1   -1    0    0  501    0  0.00000000000E+00  0.00000000000E+00  0.73762932317E+03  0.73762932319E+03  0.50400001928E-02 0. -1.
       -1   -1    0    0    0  501  0.00000000000E+00  0.00000000000E+00 -0.89071971637E+03  0.89071971639E+03  0.50400001928E-02 0.  1.
    10030    2    1    2    0    0  0.00000000000E+00  0.00000000000E+00 -0.15309039320E+03  0.16283490396E+04  0.16211366155E+04 0.  0.
        2    1    3    3  502    0  0.65053535130E+03 -0.33328715460E+03  0.27536248762E+03  0.78108966855E+03  0.25500000920E-02 0. -1.
       -2    1    3    3    0  502 -0.65053535130E+03  0.33328715460E+03 -0.42845288082E+03  0.84725937103E+03  0.25500000920E-02 0.  1.
</event>
<event>
 5   0  0.3889847E-04  0.1432331E+04  0.7818609E-02  0.8930742E-01
        1   -1    0    0  501    0  0.00000000000E+00  0.00000000000E+00  0.17052421590E+04  0.17052421590E+04  0.50400001928E-02 0.  1.
       -1   -1    0    0    0  501  0.00000000000E+00  0.00000000000E+00 -0.30077444776E+03  0.30077444780E+03  0.50400001928E-02 0. -1.
    10030    2    1    2    0    0  0.00000000000E+00  0.00000000000E+00  0.14044677112E+04  0.20060166068E+04  0.14323313426E+04 0.  0.
        1    1    3    3  502    0 -0.36456459153E+03  0.61365184240E+03  0.62036186446E+03  0.94568745788E+03  0.50400001928E-02 0.  1.
       -1    1    3    3    0  502  0.36456459153E+03 -0.61365184240E+03  0.78410584677E+03  0.10603291489E+04  0.50400001928E-02 0. -1.
</event>
<event>
 5   0  0.4110803E-04  0.1608212E+04  0.7818609E-02  0.8815519E-01
       -1   -1    0    0    0  501  0.00000000000E+00  0.00000000000E+00  0.10226438613E+04  0.10226438613E+04  0.50400001928E-02 0.  1.
        1   -1    0    0  501    0  0.00000000000E+00  0.00000000000E+00 -0.63226927834E+03  0.63226927836E+03  0.50400001928E-02 0. -1.
    10030    2    1    2    0    0  0.00000000000E+00  0.00000000000E+00  0.39037458294E+03  0.16549131397E+04  0.16082117972E+04 0.  0.
        5    1    3    3  502    0 -0.12514914955E+03  0.57583627544E+03  0.75817099613E+03  0.96025781700E+03  0.46999998093E+01 0.  1.
       -5    1    3    3    0  502  0.12514914955E+03 -0.57583627544E+03 -0.36779641319E+03  0.69465532266E+03  0.46999998093E+01 0. -1.
</event>
<event>
 5   0  0.3837251E-04  0.1597213E+04  0.7818609E-02  0.8822262E-01
       -1   -1    0    0    0  501  0.00000000000E+00  0.00000000000E+00  0.41520040496E+03  0.41520040499E+03  0.50400001928E-02 0. -1.
        1   -1    0    0  501    0  0.00000000000E+00  0.00000000000E+00 -0.15360594677E+04  0.15360594677E+04  0.50400001928E-02 0.  1.
    10030    2    1    2    0    0  0.00000000000E+00  0.00000000000E+00 -0.11208590628E+04  0.19512598727E+04  0.15972132144E+04 0.  0.
        4    1    3    3  502    0  0.69619489771E+02 -0.72180663272E+03 -0.15172962308E+03  0.74086110696E+03  0.12699999809E+01 0. -1.
       -4    1    3    3    0  502 -0.69619489771E+02  0.72180663272E+03 -0.96912943969E+03  0.12103987658E+04  0.12699999809E+01 0.  1.
</event>
<event>
 5   0  0.7395088E-04  0.1607471E+04  0.7818609E-02  0.8815971E-01
        2   -1    0    0  501    0  0.00000000000E+00  0.00000000000E+00  0.48664775806E+03  0.48664775807E+03  0.25500000920E-02 0. -1.
       -2   -1    0    0    0  501  0.00000000000E+00  0.00000000000E+00 -0.13274297895E+04  0.13274297895E+04  0.25500000920E-02 0.  1.
    10030    2    1    2    0    0  0.00000000000E+00  0.00000000000E+00 -0.84078203141E+03  0.18140775475E+04  0.16074709715E+04 0.  0.
        1    1    3    3  502    0 -0.59340646592E+03  0.31619857848E+02  0.19032949012E+03  0.62398426587E+03  0.50400001928E-02 0. -1.
       -1    1    3    3    0  502  0.59340646592E+03 -0.31619857848E+02 -0.10311115215E+04  0.11900932817E+04  0.50400001928E-02 0.  1.
</event>
<event>
 5   0  0.3889847E-04  0.1631043E+04  0.7818609E-02  0.8801701E-01
       -1   -1    0    0    0  501  0.00000000000E+00  0.00000000000E+00  0.58783203023E+03  0.58783203025E+03  0.50400001928E-02 0.  1.
        1   -1    0    0  501    0  0.00000000000E+00  0.00000000000E+00 -0.11314034933E+04  0.11314034933E+04  0.50400001928E-02 0. -1.
    10030    2    1    2    0    0  0.00000000000E+00  0.00000000000E+00 -0.54357146308E+03  0.17192355236E+04  0.16310428719E+04 0.  0.
        1    1    3    3  502    0 -0.57391080129E+03  0.87713522504E+02  0.33190176319E+03  0.66874961705E+03  0.50400001928E-02 0.  1.
       -1    1    3    3    0  502  0.57391080129E+03 -0.87713522504E+02 -0.87547322627E+03  0.10504859065E+04  0.50400001928E-02 0. -1.
</event>
<event>
 5   0  0.7488884E-04  0.1494705E+04  0.7818609E-02  0.8887982E-01
       -2   -1    0    0    0  501  0.00000000000E+00  0.00000000000E+00  0.12080367293E+04  0.12080367293E+04  0.25500000920E-02 0.  1.
        2   -1    0    0  501    0  0.00000000000E+00  0.00000000000E+00 -0.46235013143E+03  0.46235013144E+03  0.25500000920E-02 0. -1.
    10030    2    1    2    0    0  0.00000000000E+00  0.00000000000E+00  0.74568659788E+03  0.16703868608E+04  0.14947052426E+04 0.  0.
        3    1    3    3  502    0  0.48192150392E+03  0.11358039427E+03 -0.25276436043E+03  0.55591246973E+03  0.10100000352E+00 0. -1.
       -3    1    3    3    0  502 -0.48192150392E+03 -0.11358039427E+03  0.99845095831E+03  0.11144743910E+04  0.10100000352E+00 0.  1.
</event>
<event>
 5   0  0.7395088E-04  0.1581164E+04  0.7818609E-02  0.8832204E-01
        2   -1    0    0  501    0  0.00000000000E+00  0.00000000000E+00  0.74494995629E+03  0.74494995629E+03  0.25500000920E-02 0.  1.
       -2   -1    0    0    0  501  0.00000000000E+00  0.00000000000E+00 -0.83900934897E+03  0.83900934897E+03  0.25500000920E-02 0. -1.
    10030    2    1    2    0    0  0.00000000000E+00  0.00000000000E+00 -0.94059392678E+02  0.15839593053E+04  0.15811641001E+04 0.  0.
        1    1    3    3  502    0 -0.12374549577E+02 -0.79033160039E+03 -0.62639597505E+02  0.79290660689E+03  0.50400001928E-02 0. -1.
       -1    1    3    3    0  502  0.12374549577E+02  0.79033160039E+03 -0.31419795172E+02  0.79105269837E+03  0.50400001928E-02 0.  1.
</event>
<event>
 5   0  0.7395088E-04  0.1547531E+04  0.7818609E-02  0.8853447E-01
        2   -1    0    0  501    0  0.00000000000E+00  0.00000000000E+00  0.14702667248E+04  0.14702667248E+04  0.25500000920E-02 0. -1.
       -2   -1    0    0    0  501  0.00000000000E+00  0.00000000000E+00 -0.40721367100E+03  0.40721367100E+03  0.25500000920E-02 0.  1.
    10030    2    1    2    0    0  0.00000000000E+00  0.00000000000E+00  0.10630530538E+04  0.18774803958E+04  0.15475305624E+04 0.  0.
        1    1    3    3  502    0  0.13027575541E+03 -0.56750270353E+03  0.11497660730E+04  0.12887952179E+04  0.50400001928E-02 0. -1.
       -1    1    3    3    0  502 -0.13027575541E+03  0.56750270353E+03 -0.86713019222E+02  0.58868517791E+03  0.50400001928E-02 0.  1.
</event>
<event>
 5   0  0.7415102E-04  0.1588773E+04  0.7818609E-02  0.8827475E-01
        2   -1    0    0  501    0  0.00000000000E+00  0.00000000000E+00  0.12771886842E+04  0.12771886842E+04  0.25500000920E-02 0. -1.
       -2   -1    0    0    0  501  0.00000000000E+00  0.00000000000E+00 -0.49409279887E+03  0.49409279887E+03  0.25500000920E-02 0.  1.
    10030    2    1    2    0    0  0.00000000000E+00  0.00000000000E+00  0.78309588533E+03  0.17712814831E+04  0.15887727738E+04 0.  0.
        5    1    3    3  502    0  0.77586960787E+03 -0.13604964076E+03  0.50603029711E+03  0.93625418811E+03  0.46999998093E+01 0.  1.
       -5    1    3    3    0  502 -0.77586960787E+03  0.13604964076E+03  0.27706558822E+03  0.83502729497E+03  0.46999998093E+01 0. -1.
</event>
<event>
 5   0  0.4110803E-04  0.1621231E+04  0.7818609E-02  0.8807610E-01
        1   -1    0    0  501    0  0.00000000000E+00  0.00000000000E+00  0.12616081554E+04  0.12616081555E+04  0.50400001928E-02 0. -1.
       -1   -1    0    0    0  501  0.00000000000E+00  0.00000000000E+00 -0.52084089825E+03  0.52084089827E+03  0.50400001928E-02 0.  1.
    10030    2    1    2    0    0  0.00000000000E+00  0.00000000000E+00  0.74076725720E+03  0.17824490537E+04  0.16212305511E+04 0.  0.
        5    1    3    3  502    0 -0.20204060387E+03 -0.86405238307E+02  0.12282223797E+04  0.12477333749E+04  0.46999998093E+01 0. -1.
       -5    1    3    3    0  502  0.20204060387E+03  0.86405238307E+02 -0.48745512246E+03  0.53471567887E+03  0.46999998093E+01 0.  1.
</event>
<event>
 5   0  0.7488884E-04  0.1483046E+04  0.7818609E-02  0.8895806E-01
       -2   -1    0    0    0  501  0.00000000000E+00  0.00000000000E+00  0.10239790675E+04  0.10239790675E+04  0.25500000920E-02 0.  1.
        2   -1    0    0  501    0  0.00000000000E+00  0.00000000000E+00 -0.53697993731E+03  0.53697993732E+03  0.25500000920E-02 0. -1.
    10030    2    1    2    0    0  0.00000000000E+00  0.00000000000E+00  0.48699913023E+03  0.15609590049E+04  0.14830458058E+04 0.  0.
        3    1    3    3  502    0 -0.36373518158E+03 -0.90891964951E+02 -0.42986976896E+03  0.57039693204E+03  0.10100000352E+00 0. -1.
       -3    1    3    3    0  502  0.36373518158E+03  0.90891964951E+02  0.91686889919E+03  0.99056207283E+03  0.10100000352E+00 0.  1.
</event>
<event>
 5   0  0.3950195E-04  0.1604907E+04  0.7818609E-02  0.8817539E-01
        1   -1    0    0  501    0  0.00000000000E+00  0.00000000000E+00  0.89887591724E+03  0.89887591726E+03  0.50400001928E-02 0. -1.
       -1   -1    0    0    0  501  0.00000000000E+00  0.00000000000E+00 -0.71637415531E+03  0.71637415533E+03  0.50400001928E-02 0.  1.
    10030    2    1    2    0    0  0.00000000000E+00  0.00000000000E+00  0.18250176194E+03  0.16152500726E+04  0.16049068209E+04 0.  0.
        2    1    3    3  502    0  0.32893455750E+03  0.25609825895E+03 -0.59884093999E+03  0.72965384449E+03  0.25500000920E-02 0.  1.
       -2    1    3    3    0  502 -0.32893455750E+03 -0.25609825895E+03  0.78134270193E+03  0.88559622810E+03  0.25500000920E-02 0. -1.
</event>
<event>
 5   0  0.3889847E-04  0.1587189E+04  0.7818609E-02  0.8828457E-01
        1   -1    0    0  501    0  0.00000000000E+00  0.00000000000E+00  0.15169584709E+04  0.15169584709E+04  0.50400001928E-02 0.  1.
       -1   -1    0    0    0  501  0.00000000000E+00  0.00000000000E+00 -0.41516750532E+03  0.41516750535E+03  0.50400001928E-02 0. -1.
    10030    2    1    2    0    0  0.00000000000E+00  0.00000000000E+00  0.11017909656E+04  0.19321259762E+04  0.15871885384E+04 0.  0.
        1    1    3    3  502    0 -0.62356198397E+03 -0.41622427103E+03  0.23411067551E+03  0.78541708668E+03  0.50400001928E-02 0.  1.
       -1    1    3    3    0  502  0.62356198397E+03  0.41622427103E+03  0.86768029004E+03  0.11467088896E+04  0.50400001928E-02 0. -1.
</event>
<event>
 5   0  0.3973227E-04  0.1549378E+04  0.7818609E-02  0.8852265E-01
        1   -1    0    0  501    0  0.00000000000E+00  0.00000000000E+00  0.13405081696E+04  0.13405081696E+04  0.50400001928E-02 0. -1.
       -1   -1    0    0    0  501  0.00000000000E+00  0.00000000000E+00 -0.44769828754E+03  0.44769828757E+03  0.50400001928E-02 0.  1.
    10030    2    1    2    0    0  0.00000000000E+00  0.00000000000E+00  0.89280988208E+03  0.17882064572E+04  0.15493782134E+04 0.  0.
        3    1    3    3  502    0  0.19190531591E+03  0.55271419618E+03  0.10324360619E+04  0.11866949334E+04  0.10100000352E+00 0. -1.
       -3    1    3    3    0  502 -0.19190531591E+03 -0.55271419618E+03 -0.13962617982E+03  0.60151152377E+03  0.10100000352E+00 0.  1.
</event>
<event>
 5   0  0.3973227E-04  0.1540630E+04  0.7818609E-02  0.8857875E-01
       -1   -1    0    0    0  501  0.00000000000E+00  0.00000000000E+00  0.65777066296E+03  0.65777066297E+03  0.50400001928E-02 0. -1.
        1   -1    0    0  501    0  0.00000000000E+00  0.00000000000E+00 -0.90211598502E+03  0.90211598504E+03  0.50400001928E-02 0.  1.
    10030    2    1    2    0    0  0.00000000000E+00  0.00000000000E+00 -0.24434532207E+03  0.15598866480E+04  0.15406302990E+04 0.  0.
        3    1    3    3  502    0 -0.53248333569E+03 -0.55269268874E+03 -0.55181420537E+02  0.76944961521E+03  0.10100000352E+00 0. -1.
       -3    1    3    3    0  502  0.53248333569E+03  0.55269268874E+03 -0.18916390153E+03  0.79043703280E+03  0.10100000352E+00 0.  1.
</event>
<event>
 5   0  0.7770905E-04  0.1579211E+04  0.7818609E-02  0.8833422E-01
       -2   -1    0    0    0  501  0.00000000000E+00  0.00000000000E+00  0.14864877743E+04  0.14864877743E+04  0.25500000920E-02 0. -1.
        2   -1    0    0  501    0  0.00000000000E+00  0.00000000000E+00 -0.41942954648E+03  0.41942954649E+03  0.25500000920E-02 0.  1.
    10030    2    1    2    0    0  0.00000000000E+00  0.00000000000E+00  0.10670582278E+04  0.19059173208E+04  0.15792110600E+04 0.  0.
        2    1    3    3  502    0 -0.88168918676E+01  0.62699048385E+03  0.11126829801E+04  0.12772071948E+04  0.25500000920E-02 0. -1.
       -2    1    3    3    0  502  0.88168918676E+01 -0.62699048385E+03 -0.45624752269E+02  0.62871012593E+03  0.25500000920E-02 0.  1.
</event>
<event>
 5   0  0.4110803E-04  0.1607385E+04  0.7818609E-02  0.8816024E-01
       -1   -1    0    0    0  501  0.00000000000E+00  0.00000000000E+00  0.65688725425E+03  0.65688725427E+03  0.50400001928E-02 0. -1.
        1   -1    0    0  501    0  0.00000000000E+00  0.00000000000E+00 -0.98330722001E+03  0.98330722003E+03  0.50400001928E-02 0.  1.
    10030    2    1    2    0    0  0.00000000000E+00  0.00000000000E+00 -0.32641996576E+03  0.16401944743E+04  0.16073854297E+04 0.  0.
        5    1    3    3  502    0 -0.79692867123E+03 -0.97067285267E+02 -0.12526871776E+03  0.81254643347E+03  0.46999998093E+01 0. -1.
       -5    1    3    3    0  502  0.79692867123E+03  0.97067285267E+02 -0.20115124800E+03  0.82764804082E+03  0.46999998093E+01 0.  1.
</event>
<event>
 5   0  0.7415102E-04  0.1577959E+04  0.7818609E-02  0.8834204E-01
        2   -1    0    0  501    0  0.00000000000E+00  0.00000000000E+00  0.78418202694E+03  0.78418202694E+03  0.25500000920E-02 0. -1.
       -2   -1    0    0    0  501  0.00000000000E+00  0.00000000000E+00 -0.79380595537E+03  0.79380595537E+03  0.25500000920E-02 0.  1.
    10030    2    1    2    0    0  0.00000000000E+00  0.00000000000E+00 -0.96239284275E+01  0.15779879823E+04  0.15779586345E+04 0.  0.
        5    1    3    3  502    0  0.75131123978E+03  0.17757299864E+03  0.15787334143E+03  0.78800179619E+03  0.46999998093E+01 0. -1.
       -5    1    3    3    0  502 -0.75131123978E+03 -0.17757299864E+03 -0.16749726986E+03  0.78998618613E+03  0.46999998093E+01 0.  1.
</event>
<event>
 5   0  0.3950195E-04  0.1602954E+04  0.7818609E-02  0.8818735E-01
       -1   -1    0    0    0  501  0.00000000000E+00  0.00000000000E+00  0.51581432937E+03  0.51581432940E+03  0.50400001928E-02 0.  1.
        1   -1    0    0  501    0  0.00000000000E+00  0.00000000000E+00 -0.12453420638E+04  0.12453420638E+04  0.50400001928E-02 0. -1.
    10030    2    1    2    0    0  0.00000000000E+00  0.00000000000E+00 -0.72952773439E+03  0.17611563932E+04  0.16029538752E+04 0.  0.
        2    1    3    3  502    0  0.67159857844E+03  0.30474216183E+03 -0.70950335713E+03  0.10233804031E+04  0.25500000920E-02 0. -1.
       -2    1    3    3    0  502 -0.67159857844E+03 -0.30474216183E+03 -0.20024377256E+02  0.73777599002E+03  0.25500000920E-02 0.  1.
</event>
<event>
 5   0  0.2781000E-04  0.1573847E+04  0.7818609E-02  0.8836778E-01
        4   -1    0    0  501    0  0.00000000000E+00  0.00000000000E+00  0.20280519513E+04  0.20280523489E+04  0.12699999809E+01 0.  1.
       -4   -1    0    0    0  501  0.00000000000E+00  0.00000000000E+00 -0.30533976752E+03  0.30534240867E+03  0.12699999809E+01 0. -1.
    10030    2    1    2    0    0  0.00000000000E+00  0.00000000000E+00  0.17227121838E+04  0.23333947576E+04  0.15738468244E+04 0.  0.
        1    1    3    3  502    0  0.94725875569E+02  0.74812016629E+03  0.52787953048E+03  0.92049637339E+03  0.50400001928E-02 0. -1.
       -1    1    3    3    0  502 -0.94725875569E+02 -0.74812016629E+03  0.11948326533E+04  0.14128983842E+04  0.50400001928E-02 0.  1.
</event>
<event>
 5   0  0.3889847E-04  0.1814182E+04  0.7818609E-02  0.8698794E-01
        1   -1    0    0  501    0  0.00000000000E+00  0.00000000000E+00  0.66560684236E+03  0.66560684237E+03  0.50400001928E-02 0. -1.
       -1   -1    0    0    0  501  0.00000000000E+00  0.00000000000E+00 -0.12361868316E+04  0.12361868316E+04  0.50400001928E-02 0.  1.
    10030    2    1    2    0    0  0.00000000000E+00  0.00000000000E+00 -0.57057998920E+03  0.19017936739E+04  0.18141823652E+04 0.  0.
        1    1    3    3  502    0 -0.38388857549E+03 -0.20536570296E+03  0.54892220859E+03  0.70061480248E+03  0.50400001928E-02 0. -1.
       -1    1    3    3    0  502  0.38388857549E+03  0.20536570296E+03 -0.11195021978E+04  0.12011788715E+04  0.50400001928E-02 0.  1.
</event>
<event>
 5   0  0.3950195E-04  0.1565219E+04  0.7818609E-02  0.8842205E-01
        1   -1    0    0  501    0  0.00000000000E+00  0.00000000000E+00  0.83625964805E+03  0.83625964807E+03  0.50400001928E-02 0. -1.
       -1   -1    0    0    0  501  0.00000000000E+00  0.00000000000E+00 -0.73240159378E+03  0.73240159380E+03  0.50400001928E-02 0.  1.
    10030    2    1    2    0    0  0.00000000000E+00  0.00000000000E+00  0.10385805427E+03  0.15686612419E+04  0.15652193445E+04 0.  0.
        2    1    3    3  502    0  0.41514463262E+03  0.58047491260E+03  0.37385448183E+03  0.80564468827E+03  0.25500000920E-02 0. -1.
       -2    1    3    3    0  502 -0.41514463262E+03 -0.58047491260E+03 -0.26999642756E+03  0.76301655359E+03  0.25500000920E-02 0.  1.
</event>
<event>
 5   0  0.7395088E-04  0.1616372E+04  0.7818609E-02  0.8810553E-01
       -2   -1    0    0    0  501  0.00000000000E+00  0.00000000000E+00  0.45806592865E+03  0.45806592866E+03  0.25500000920E-02 0. -1.
        2   -1    0    0  501    0  0.00000000000E+00  0.00000000000E+00 -0.14259183134E+04  0.14259183134E+04  0.25500000920E-02 0.  1.
    10030    2    1    2    0    0  0.00000000000E+00  0.00000000000E+00 -0.96785238475E+03  0.18839842421E+04  0.16163719825E+04 0.  0.
        1    1    3    3  502    0  0.17313131093E+03  0.27645385046E+03 -0.13457841093E+04  0.13847512597E+04  0.50400001928E-02 0.  1.
       -1    1    3    3    0  502 -0.17313131093E+03 -0.27645385046E+03  0.37793172456E+03  0.49923298239E+03  0.50400001928E-02 0. -1.
</event>
<event>
 5   0  0.7395088E-04  0.1660285E+04  0.7818609E-02  0.8784345E-01
       -2   -1    0    0    0  501  0.00000000000E+00  0.00000000000E+00  0.51339518906E+03  0.51339518907E+03  0.25500000920E-02 0.  1.
        2   -1    0    0  501    0  0.00000000000E+00  0.00000000000E+00 -0.13423114014E+04  0.13423114014E+04  0.25500000920E-02 0. -1.
    10030    2    1    2    0    0  0.00000000000E+00  0.00000000000E+00 -0.82891621230E+03  0.18557065904E+04  0.16602845728E+04 0.  0.
        1    1    3    3  502    0 -0.25429698847E+03  0.55751001157E+01 -0.12976834057E+04  0.13223767472E+04  0.50400001928E-02 0. -1.
       -1    1    3    3    0  502  0.25429698847E+03 -0.55751001157E+01  0.46876719338E+03  0.53332984325E+03  0.50400001928E-02 0.  1.
</event>
<event>
 5   0  0.2781000E-04  0.1601440E+04  0.7818609E-02  0.8819664E-01
       -3   -1    0    0    0  501  0.00000000000E+00  0.00000000000E+00  0.43988928260E+03  0.43988929420E+03  0.10100000352E+00 0.  1.
        3   -1    0    0  501    0  0.00000000000E+00  0.00000000000E+00 -0.14575311243E+04  0.14575311278E+04  0.10100000352E+00 0. -1.
    10030    2    1    2    0    0  0.00000000000E+00  0.00000000000E+00 -0.10176418417E+04  0.18974204220E+04  0.16014397709E+04 0.  0.
        1    1    3    3  502    0  0.68436425760E+03  0.33086106252E+03 -0.80698394132E+03  0.11086237240E+04  0.50400001928E-02 0. -1.
       -1    1    3    3    0  502 -0.68436425760E+03 -0.33086106252E+03 -0.21065790035E+03  0.78879669800E+03  0.50400001928E-02 0.  1.
</event>
<event>
 5   0  0.3837251E-04  0.1246053E+04  0.7818609E-02  0.9073475E-01
        1   -1    0    0  501    0  0.00000000000E+00  0.00000000000E+00  0.59282930423E+03  0.59282930425E+03  0.50400001928E-02 0. -1.
       -1   -1    0    0    0  501  0.00000000000E+00  0.00000000000E+00 -0.65476150155E+03  0.65476150157E+03  0.50400001928E-02 0.  1.
    10030    2    1    2    0    0  0.00000000000E+00  0.00000000000E+00 -0.61932197324E+02  0.12475908058E+04  0.12460526561E+04 0.  0.
        4    1    3    3  502    0  0.54894924409E+03 -0.21392562669E+03 -0.23382604120E+03  0.63386566147E+03  0.12699999809E+01 0.  1.
       -4    1    3    3    0  502 -0.54894924409E+03  0.21392562669E+03  0.17189384388E+03  0.61372514435E+03  0.12699999809E+01 0. -1.
</event>
<event>
 5   0  0.7415102E-04  0.1603784E+04  0.7818609E-02  0.8818227E-01
       -2   -1    0    0    0  501  0.00000000000E+00  0.00000000000E+00  0.16194330541E+04  0.16194330541E+04  0.25500000920E-02 0.  1.
        2   -1    0    0  501    0  0.00000000000E+00  0.00000000000E+00 -0.39707158400E+03  0.39707158401E+03  0.25500000920E-02 0. -1.
    10030    2    1    2    0    0  0.00000000000E+00  0.00000000000E+00  0.12223614701E+04  0.20165046381E+04  0.16037840852E+04 0.  0.
        5    1    3    3  502    0  0.44103440912E+03  0.60349619032E+03  0.24614050905E+03  0.78697283432E+03  0.46999998093E+01 0. -1.
       -5    1    3    3    0  502 -0.44103440912E+03 -0.60349619032E+03  0.97622096104E+03  0.12295318038E+04  0.46999998093E+01 0.  1.
</event>
<event>
 5   0  0.4110803E-04  0.1613783E+04  0.7818609E-02  0.8812125E-01
       -1   -1    0    0    0  501  0.00000000000E+00  0.00000000000E+00  0.11644321255E+04  0.11644321255E+04  0.50400001928E-02 0.  1.
        1   -1    0    0  501    0  0.00000000000E+00  0.00000000000E+00 -0.55913430362E+03  0.55913430365E+03  0.50400001928E-02 0. -1.
    10030    2    1    2    0    0  0.00000000000E+00  0.00000000000E+00  0.60529782187E+03  0.17235664292E+04  0.16137830655E+04 0.  0.
        5    1    3    3  502    0 -0.57256138855E+03 -0.39926244114E+03 -0.12962543330E+03  0.70997315690E+03  0.46999998093E+01 0. -1.
       -5    1    3    3    0  502  0.57256138855E+03  0.39926244114E+03  0.73492325517E+03  0.10135932722E+04  0.46999998093E+01 0.  1.
</event>
<event>
 5   0  0.3950195E-04  0.1630293E+04  0.7818609E-02  0.8802151E-01
        1   -1    0    0  501    0  0.00000000000E+00  0.00000000000E+00  0.29263670830E+03  0.29263670834E+03  0.50400001928E-02 0.  1.
       -1   -1    0    0    0  501  0.00000000000E+00  0.00000000000E+00 -0.22706089068E+04  0.22706089068E+04  0.50400001928E-02 0. -1.
    10030    2    1    2    0    0  0.00000000000E+00  0.00000000000E+00 -0.19779721985E+04  0.25632456152E+04  0.16302926319E+04 0.  0.
        2    1    3    3  502    0 -0.58771809936E+03  0.17849564061E+03 -0.18315629239E+04  0.19318115856E+04  0.25500000920E-02 0. -1.
       -2    1    3    3    0  502  0.58771809936E+03 -0.17849564061E+03 -0.14640927466E+03  0.63143402961E+03  0.25500000920E-02 0.  1.
</event>
<event>
 5   0  0.7415102E-04  0.1690947E+04  0.7818609E-02  0.8766544E-01
       -2   -1    0    0    0  501  0.00000000000E+00  0.00000000000E+00  0.56716975998E+03  0.56716975998E+03  0.25500000920E-02 0.  1.
        2   -1    0    0  501    0  0.00000000000E+00  0.00000000000E+00 -0.12603380293E+04  0.12603380293E+04  0.25500000920E-02 0. -1.
    10030    2    1    2    0    0  0.00000000000E+00  0.00000000000E+00 -0.69316826934E+03  0.18275077893E+04  0.16909472110E+04 0.  0.
        5    1    3    3  502    0 -0.44056683141E+03 -0.16344812647E+03  0.41302096560E+03  0.62563793924E+03  0.46999998093E+01 0.  1.
       -5    1    3    3    0  502  0.44056683141E+03  0.16344812647E+03 -0.11061892349E+04  0.12018698501E+04  0.46999998093E+01 0. -1.
</event>
<event>
 5   0  0.7395088E-04  0.1434585E+04  0.7818609E-02  0.8929157E-01
       -2   -1    0    0    0  501  0.00000000000E+00  0.00000000000E+00  0.71271396712E+03  0.71271396713E+03  0.25500000920E-02 0.  1.
        2   -1    0    0  501    0  0.00000000000E+00  0.00000000000E+00 -0.72190087445E+03  0.72190087445E+03  0.25500000920E-02 0. -1.
    10030    2    1    2    0    0  0.00000000000E+00  0.00000000000E+00 -0.91869073262E+01  0.14346148416E+04  0.14345854260E+04 0.  0.
        1    1    3    3  502    0  0.68886844592E+02  0.36131354919E+03 -0.62041121030E+03  0.72125096054E+03  0.50400001928E-02 0. -1.
       -1    1    3    3    0  502 -0.68886844592E+02 -0.36131354919E+03  0.61122430298E+03  0.71336388103E+03  0.50400001928E-02 0.  1.
</event>
<event>
 5   0  0.3950195E-04  0.1674981E+04  0.7818609E-02  0.8775763E-01
        1   -1    0    0  501    0  0.00000000000E+00  0.00000000000E+00  0.11819678004E+04  0.11819678004E+04  0.50400001928E-02 0. -1.
       -1   -1    0    0    0  501  0.00000000000E+00  0.00000000000E+00 -0.59340935560E+03  0.59340935562E+03  0.50400001928E-02 0.  1.
    10030    2    1    2    0    0  0.00000000000E+00  0.00000000000E+00  0.58855844482E+03  0.17753771561E+04  0.16749814934E+04 0.  0.
        2    1    3    3  502    0 -0.27621693433E+03  0.43079187484E+02 -0.54249438595E+03  0.61028826795E+03  0.25500000920E-02 0.  1.
       -2    1    3    3    0  502  0.27621693433E+03 -0.43079187484E+02  0.11310528308E+04  0.11650888881E+04  0.25500000920E-02 0. -1.
</event>
<event>
 5   0  0.4110803E-04  0.1569248E+04  0.7818609E-02  0.8839666E-01
        1   -1    0    0  501    0  0.00000000000E+00  0.00000000000E+00  0.17592025362E+04  0.17592025362E+04  0.50400001928E-02 0.  1.
       -1   -1    0    0    0  501  0.00000000000E+00  0.00000000000E+00 -0.34995099940E+03  0.34995099943E+03  0.50400001928E-02 0. -1.
    10030    2    1    2    0    0  0.00000000000E+00  0.00000000000E+00  0.14092515368E+04  0.21091535357E+04  0.15692478271E+04 0.  0.
        5    1    3    3  502    0  0.20440815653E+03 -0.46599626522E+03  0.15073279523E+04  0.15909100727E+04  0.46999998093E+01 0.  1.
       -5    1    3    3    0  502 -0.20440815653E+03  0.46599626522E+03 -0.98076415450E+02  0.51824346298E+03  0.46999998093E+01 0. -1.
</event>
<event>
 5   0  0.3973227E-04  0.1643730E+04  0.7818609E-02  0.8794124E-01
        1   -1    0    0  501    0  0.00000000000E+00  0.00000000000E+00  0.84194229504E+03  0.84194229505E+03  0.50400001928E-02 0.  1.
       -1   -1    0    0    0  501  0.00000000000E+00  0.00000000000E+00 -0.80226687532E+03  0.80226687534E+03  0.50400001928E-02 0. -1.
    10030    2    1    2    0    0  0.00000000000E+00  0.00000000000E+00  0.39675419713E+02  0.16442091704E+04  0.16437304089E+04 0.  0.
        3    1    3    3  502    0  0.28720711766E+03 -0.55285771200E+03 -0.51634343918E+03  0.80916632131E+03  0.10100000352E+00 0. -1.
       -3    1    3    3    0  502 -0.28720711766E+03  0.55285771200E+03  0.55601885889E+03  0.83504284908E+03  0.10100000352E+00 0.  1.
</event>
<event>
 5   0  0.3973227E-04  0.1627979E+04  0.7818609E-02  0.8803542E-01
        1   -1    0    0  501    0  0.00000000000E+00  0.00000000000E+00  0.45314564784E+03  0.45314564787E+03  0.50400001928E-02 0. -1.
       -1   -1    0    0    0  501  0.00000000000E+00  0.00000000000E+00 -0.14621759951E+04  0.14621759951E+04  0.50400001928E-02 0.  1.
    10030    2    1    2    0    0  0.00000000000E+00  0.00000000000E+00 -0.10090303473E+04  0.19153216430E+04  0.16279787328E+04 0.  0.
        3    1    3    3  502    0 -0.20319539394E+02  0.45173995635E+03 -0.13008058326E+04  0.13771629156E+04  0.10100000352E+00 0.  1.
       -3    1    3    3    0  502  0.20319539394E+02 -0.45173995635E+03  0.29177548531E+03  0.53815872739E+03  0.10100000352E+00 0. -1.
</event>
<event>
 5   0  0.4110803E-04  0.1603365E+04  0.7818609E-02  0.8818483E-01
        1   -1    0    0  501    0  0.00000000000E+00  0.00000000000E+00  0.77977888634E+03  0.77977888636E+03  0.50400001928E-02 0.  1.
       -1   -1    0    0    0  501  0.00000000000E+00  0.00000000000E+00 -0.82420157297E+03  0.82420157299E+03  0.50400001928E-02 0. -1.
    10030    2    1    2    0    0  0.00000000000E+00  0.00000000000E+00 -0.44422686631E+02  0.16039804593E+04  0.16033651920E+04 0.  0.
        5    1    3    3  502    0 -0.76967838620E+03 -0.31476226450E+02 -0.24428148952E+03  0.80814052437E+03  0.46999998093E+01 0. -1.
       -5    1    3    3    0  502  0.76967838620E+03  0.31476226450E+02  0.19985880289E+03  0.79583993498E+03  0.46999998093E+01 0.  1.
</event>
<event>
 5   0  0.3837251E-04  0.1605800E+04  0.7818609E-02  0.8816993E-01
        1   -1    0    0  501    0  0.00000000000E+00  0.00000000000E+00  0.84130654874E+03  0.84130654876E+03  0.50400001928E-02 0. -1.
       -1   -1    0    0    0  501  0.00000000000E+00  0.00000000000E+00 -0.76624694100E+03  0.76624694101E+03  0.50400001928E-02 0.  1.
    10030    2    1    2    0    0  0.00000000000E+00  0.00000000000E+00  0.75059607747E+02  0.16075534898E+04  0.16058001986E+04 0.  0.
        4    1    3    3  502    0  0.24246120891E+03 -0.51610452038E+03  0.60338641608E+03  0.83019762333E+03  0.12699999809E+01 0.  1.
       -4    1    3    3    0  502 -0.24246120891E+03  0.51610452038E+03 -0.52832680833E+03  0.77735586644E+03  0.12699999809E+01 0. -1.
</event>
<event>
 5   0  0.4110803E-04  0.1598463E+04  0.7818609E-02  0.8821493E-01
       -1   -1    0    0    0  501  0.00000000000E+00  0.00000000000E+00  0.88347776034E+03  0.88347776036E+03  0.50400001928E-02 0. -1.
        1   -1    0    0  501    0  0.00000000000E+00  0.00000000000E+00 -0.72301882427E+03  0.72301882429E+03  0.50400001928E-02 0.  1.
    10030    2    1    2    0    0  0.00000000000E+00  0.00000000000E+00  0.16045893607E+03  0.16064965846E+04  0.15984630763E+04 0.  0.
        5    1    3    3  502    0 -0.57520947108E+03  0.55069850861E+03  0.11960333577E+02  0.79642948375E+03  0.46999998093E+01 0.  1.
       -5    1    3    3    0  502  0.57520947108E+03 -0.55069850861E+03  0.14849860250E+03  0.81006710089E+03  0.46999998093E+01 0. -1.
</event>
<event>
 5   0  0.7553070E-04  0.1339769E+04  0.7818609E-02  0.8998610E-01
       -2   -1    0    0    0  501  0.00000000000E+00  0.00000000000E+00  0.11595561862E+04  0.11595561862E+04  0.25500000920E-02 0. -1.
        2   -1    0    0  501    0  0.00000000000E+00  0.00000000000E+00 -0.38699713786E+03  0.38699713787E+03  0.25500000920E-02 0.  1.
    10030    2    1    2    0    0  0.00000000000E+00  0.00000000000E+00  0.77255904837E+03  0.15465533241E+04  0.13397685252E+04 0.  0.
        4    1    3    3  502    0  0.32066246856E+03 -0.58640790120E+03  0.43847663023E+03  0.79935099518E+03  0.12699999809E+01 0. -1.
       -4    1    3    3    0  502 -0.32066246856E+03  0.58640790120E+03  0.33408241814E+03  0.74720232893E+03  0.12699999809E+01 0.  1.
</event>
<event>
 5   0  0.3973227E-04  0.1589759E+04  0.7818609E-02  0.8826864E-01
        1   -1    0    0  501    0  0.00000000000E+00  0.00000000000E+00  0.72006363145E+03  0.72006363146E+03  0.50400001928E-02 0. -1.
       -1   -1    0    0    0  501  0.00000000000E+00  0.00000000000E+00 -0.87746891782E+03  0.87746891784E+03  0.50400001928E-02 0.  1.
    10030    2    1    2    0    0  0.00000000000E+00  0.00000000000E+00 -0.15740528638E+03  0.15975325493E+04  0.15897590452E+04 0.  0.
        3    1    3    3  502    0 -0.49191920450E+03  0.60020783333E+03  0.94183659268E+02  0.78173174352E+03  0.10100000352E+00 0. -1.
       -3    1    3    3    0  502  0.49191920450E+03 -0.60020783333E+03 -0.25158894564E+03  0.81580080578E+03  0.10100000352E+00 0.  1.
</event>
<event>
 5   0  0.7488884E-04  0.1605254E+04  0.7818609E-02  0.8817327E-01
       -2   -1    0    0    0  501  0.00000000000E+00  0.00000000000E+00  0.63111566765E+03  0.63111566766E+03  0.25500000920E-02 0.  1.
        2   -1    0    0  501    0  0.00000000000E+00  0.00000000000E+00 -0.10207482257E+04  0.10207482257E+04  0.25500000920E-02 0. -1.
    10030    2    1    2    0    0  0.00000000000E+00  0.00000000000E+00 -0.38963255801E+03  0.16518638933E+04  0.16052541206E+04 0.  0.
        3    1    3    3  502    0  0.76395031111E+03 -0.13612855576E+03 -0.40585424378E+03  0.87571041957E+03  0.10100000352E+00 0. -1.
       -3    1    3    3    0  502 -0.76395031111E+03  0.13612855576E+03  0.16221685762E+02  0.77615347376E+03  0.10100000352E+00 0.  1.
</event>
<event>
 5   0  0.7488884E-04  0.1524133E+04  0.7818609E-02  0.8868561E-01
        2   -1    0    0  501    0  0.00000000000E+00  0.00000000000E+00  0.96576380254E+03  0.96576380255E+03  0.25500000920E-02 0.  1.
       -2   -1    0    0    0  501  0.00000000000E+00  0.00000000000E+00 -0.60133303585E+03  0.60133303586E+03  0.25500000920E-02 0. -1.
    10030    2    1    2    0    0  0.00000000000E+00  0.00000000000E+00  0.36443076669E+03  0.15670968384E+04  0.15241334316E+04 0.  0.
        3    1    3    3  502    0  0.55582379074E+03  0.50213221312E+03  0.32641431222E+03  0.81708210067E+03  0.10100000352E+00 0. -1.
       -3    1    3    3    0  502 -0.55582379074E+03 -0.50213221312E+03  0.38016454466E+02  0.75001473773E+03  0.10100000352E+00 0.  1.
</event>
<event>
 5   0  0.2781000E-04  0.1551941E+04  0.7818609E-02  0.8850629E-01
        4   -1    0    0  501    0  0.00000000000E+00  0.00000000000E+00  0.92479670915E+03  0.92479758118E+03  0.12699999809E+01 0.  1.
       -4   -1    0    0    0  501  0.00000000000E+00  0.00000000000E+00 -0.65109246192E+03  0.65109370053E+03  0.12699999809E+01 0. -1.
    10030    2    1    2    0    0  0.00000000000E+00  0.00000000000E+00  0.27370424723E+03  0.15758912817E+04  0.15519405004E+04 0.  0.
        3    1    3    3  502    0  0.58729964823E+03  0.26630278344E+02 -0.37742200430E+03  0.69862538464E+03  0.10100000352E+00 0. -1.
       -3    1    3    3    0  502 -0.58729964823E+03 -0.26630278344E+02  0.65112625152E+03  0.87726589707E+03  0.10100000352E+00 0.  1.
</event>
<event>
 5   0  0.7415102E-04  0.1635401E+04  0.7818609E-02  0.8799090E-01
        2   -1    0    0  501    0  0.00000000000E+00  0.00000000000E+00  0.26840473171E+04  0.26840473171E+04  0.25500000920E-02 0.  1.
       -2   -1    0    0    0  501  0.00000000000E+00  0.00000000000E+00 -0.24911416937E+03  0.24911416939E+03  0.25500000920E-02 0. -1.
    10030    2    1    2    0    0  0.00000000000E+00  0.00000000000E+00  0.24349331477E+04  0.29331614865E+04  0.16354011349E+04 0.  0.
        5    1    3    3  502    0 -0.12142678587E+03  0.76733041366E+03  0.75994902663E+03  0.10867773650E+04  0.46999998093E+01 0. -1.
       -5    1    3    3    0  502  0.12142678587E+03 -0.76733041366E+03  0.16749841211E+04  0.18463841215E+04  0.46999998093E+01 0.  1.
</event>
<event>
 5   0  0.4110803E-04  0.1766727E+04  0.7818609E-02  0.8724196E-01
        1   -1    0    0  501    0  0.00000000000E+00  0.00000000000E+00  0.12996889209E+04  0.12996889209E+04  0.50400001928E-02 0. -1.
       -1   -1    0    0    0  501  0.00000000000E+00  0.00000000000E+00 -0.60039849701E+03  0.60039849703E+03  0.50400001928E-02 0.  1.
    10030    2    1    2    0    0  0.00000000000E+00  0.00000000000E+00  0.69929042392E+03  0.19000874180E+04  0.17667272282E+04 0.  0.
        5    1    3    3  502    0 -0.67096940335E+03  0.27053609464E+03 -0.19548792868E+03  0.74941800018E+03  0.46999998093E+01 0.  1.
       -5    1    3    3    0  502  0.67096940335E+03 -0.27053609464E+03  0.89477835260E+03  0.11506694178E+04  0.46999998093E+01 0. -1.
</event>
<event>
 5   0  0.3950195E-04  0.1596517E+04  0.7818609E-02  0.8822691E-01
       -1   -1    0    0    0  501  0.00000000000E+00  0.00000000000E+00  0.46913349532E+03  0.46913349535E+03  0.50400001928E-02 0.  1.
        1   -1    0    0  501    0  0.00000000000E+00  0.00000000000E+00 -0.13582836674E+04  0.13582836674E+04  0.50400001928E-02 0. -1.
    10030    2    1    2    0    0  0.00000000000E+00  0.00000000000E+00 -0.88915017205E+03  0.18274171627E+04  0.15965166639E+04 0.  0.
        2    1    3    3  502    0  0.37283484009E+03 -0.10399904118E+03  0.35453141737E+03  0.52489441267E+03  0.25500000920E-02 0.  1.
       -2    1    3    3    0  502 -0.37283484009E+03  0.10399904118E+03 -0.12436815894E+04  0.13025227501E+04  0.25500000920E-02 0. -1.
</event>
<event>
 5   0  0.7415102E-04  0.1606737E+04  0.7818609E-02  0.8816420E-01
       -2   -1    0    0    0  501  0.00000000000E+00  0.00000000000E+00  0.87469517543E+03  0.87469517543E+03  0.25500000920E-02 0.  1.
        2   -1    0    0  501    0  0.00000000000E+00  0.00000000000E+00 -0.73785803955E+03  0.73785803956E+03  0.25500000920E-02 0. -1.
    10030    2    1    2    0    0  0.00000000000E+00  0.00000000000E+00  0.13683713587E+03  0.16125532150E+04  0.16067369011E+04 0.  0.
        5    1    3    3  502    0 -0.30205889612E+03  0.19599157806E+03 -0.65232207378E+03  0.74511640255E+03  0.46999998093E+01 0. -1.
       -5    1    3    3    0  502  0.30205889612E+03 -0.19599157806E+03  0.78915920966E+03  0.86743681245E+03  0.46999998093E+01 0.  1.
</event>
<event>
 5   0  0.7395088E-04  0.1583731E+04  0.7818609E-02  0.8830605E-01
        2   -1    0    0  501    0  0.00000000000E+00  0.00000000000E+00  0.71296396145E+03  0.71296396146E+03  0.25500000920E-02 0. -1.
       -2   -1    0    0    0  501  0.00000000000E+00  0.00000000000E+00 -0.87949894661E+03  0.87949894661E+03  0.25500000920E-02 0.  1.
    10030    2    1    2    0    0  0.00000000000E+00  0.00000000000E+00 -0.16653498516E+03  0.15924629081E+04  0.15837311048E+04 0.  0.
        1    1    3    3  502    0 -0.17928626971E+03  0.41532265391E+03  0.57025016858E+03  0.72788854102E+03  0.50400001928E-02 0. -1.
       -1    1    3    3    0  502  0.17928626971E+03 -0.41532265391E+03 -0.73678515374E+03  0.86457436705E+03  0.50400001928E-02 0.  1.
</event>
<event>
 5   0  0.3950195E-04  0.1589706E+04  0.7818609E-02  0.8826897E-01
       -1   -1    0    0    0  501  0.00000000000E+00  0.00000000000E+00  0.89198879080E+03  0.89198879082E+03  0.50400001928E-02 0. -1.
        1   -1    0    0  501    0  0.00000000000E+00  0.00000000000E+00 -0.70829466697E+03  0.70829466699E+03  0.50400001928E-02 0.  1.
    10030    2    1    2    0    0  0.00000000000E+00  0.00000000000E+00  0.18369412383E+03  0.16002834578E+04  0.15897055118E+04 0.  0.
        2    1    3    3  502    0 -0.54586136328E+03  0.39407524981E+03  0.51718784081E+03  0.84896595522E+03  0.25500000920E-02 0. -1.
       -2    1    3    3    0  502  0.54586136328E+03 -0.39407524981E+03 -0.33349371698E+03  0.75131750259E+03  0.25500000920E-02 0.  1.
</event>
<event>
 5   0  0.7395088E-04  0.1807149E+04  0.7818609E-02  0.8702507E-01
       -2   -1    0    0    0  501  0.00000000000E+00  0.00000000000E+00  0.13137873183E+04  0.13137873183E+04  0.25500000920E-02 0. -1.
        2   -1    0    0  501    0  0.00000000000E+00  0.00000000000E+00 -0.62144508886E+03  0.62144508887E+03  0.25500000920E-02 0.  1.
    10030    2    1    2    0    0  0.00000000000E+00  0.00000000000E+00  0.69234222942E+03  0.19352324072E+04  0.18071487783E+04 0.  0.
        1    1    3    3  502    0 -0.34088035419E+03 -0.72184869752E+03 -0.10712925017E+03  0.80544499145E+03  0.50400001928E-02 0.  1.
       -1    1    3    3    0  502  0.34088035419E+03  0.72184869752E+03  0.79947147959E+03  0.11297874157E+04  0.50400001928E-02 0. -1.
</event>
<event>
 5   0  0.3837251E-04  0.1604111E+04  0.7818609E-02  0.8818027E-01
        1   -1    0    0  501    0  0.00000000000E+00  0.00000000000E+00  0.11520967414E+04  0.11520967414E+04  0.50400001928E-02 0. -1.
       -1   -1    0    0    0  501  0.00000000000E+00  0.00000000000E+00 -0.55836694363E+03  0.55836694365E+03  0.50400001928E-02 0.  1.
    10030    2    1    2    0    0  0.00000000000E+00  0.00000000000E+00  0.59372979776E+03  0.17104636851E+04  0.16041106399E+04 0.  0.
        4    1    3    3  502    0  0.36804288209E+03 -0.37957437704E+03  0.93997647094E+03  0.10784663414E+04  0.12699999809E+01 0.  1.
       -4    1    3    3    0  502 -0.36804288209E+03  0.37957437704E+03 -0.34624667318E+03  0.63199734363E+03  0.12699999809E+01 0. -1.
</event>
<event>
 5   0  0.7488884E-04  0.1597863E+04  0.7818609E-02  0.8821862E-01
       -2   -1    0    0    0  501  0.00000000000E+00  0.00000000000E+00  0.59458882244E+03  0.59458882245E+03  0.25500000920E-02 0. -1.
        2   -1    0    0  501    0  0.00000000000E+00  0.00000000000E+00 -0.10735005401E+04  0.10735005401E+04  0.25500000920E-02 0.  1.
    10030    2    1    2    0    0  0.00000000000E+00  0.00000000000E+00 -0.47891171769E+03  0.16680893626E+04  0.15978628503E+04 0.  0.
        3    1    3    3  502    0  0.45723335303E+03 -0.63008181555E+03 -0.42686159050E+03  0.88784923329E+03  0.10100000352E+00 0.  1.
       -3    1    3    3    0  502 -0.45723335303E+03  0.63008181555E+03 -0.52050127191E+02  0.78024012929E+03  0.10100000352E+00 0. -1.
</event>
<event>
 5   0  0.3837251E-04  0.1591620E+04  0.7818609E-02  0.8825713E-01
       -1   -1    0    0    0  501  0.00000000000E+00  0.00000000000E+00  0.40834009174E+03  0.40834009177E+03  0.50400001928E-02 0.  1.
        1   -1    0    0  501    0  0.00000000000E+00  0.00000000000E+00 -0.15509467642E+04  0.15509467642E+04  0.50400001928E-02 0. -1.
    10030    2    1    2    0    0  0.00000000000E+00  0.00000000000E+00 -0.11426066725E+04  0.19592868560E+04  0.15916202361E+04 0.  0.
        4    1    3    3  502    0  0.70669753185E+02  0.78999034478E+03 -0.49121089277E+03  0.93293553526E+03  0.12699999809E+01 0.  1.
       -4    1    3    3    0  502 -0.70669753185E+02 -0.78999034478E+03 -0.65139577970E+03  0.10263513207E+04  0.12699999809E+01 0. -1.
</event>
<event>
 5   0  0.7488884E-04  0.1594778E+04  0.7818609E-02  0.8823763E-01
       -2   -1    0    0    0  501  0.00000000000E+00  0.00000000000E+00  0.31666164790E+03  0.31666164791E+03  0.25500000920E-02 0. -1.
        2   -1    0    0  501    0  0.00000000000E+00  0.00000000000E+00 -0.20079125947E+04  0.20079125947E+04  0.25500000920E-02 0.  1.
    10030    2    1    2    0    0  0.00000000000E+00  0.00000000000E+00 -0.16912509468E+04  0.23245742426E+04  0.15947776160E+04 0.  0.
        3    1    3    3  502    0  0.63448927360E+03  0.48270261727E+03 -0.86869295690E+03  0.11790699380E+04  0.10100000352E+00 0. -1.
       -3    1    3    3    0  502 -0.63448927360E+03 -0.48270261727E+03 -0.82255798993E+03  0.11455043047E+04  0.10100000352E+00 0.  1.
</event>
<event>
 5   0  0.7553070E-04  0.1625083E+04  0.7818609E-02  0.8805285E-01
       -2   -1    0    0    0  501  0.00000000000E+00  0.00000000000E+00  0.15406519610E+04  0.15406519611E+04  0.25500000920E-02 0. -1.
        2   -1    0    0  501    0  0.00000000000E+00  0.00000000000E+00 -0.42853522191E+03  0.42853522192E+03  0.25500000920E-02 0.  1.
    10030    2    1    2    0    0  0.00000000000E+00  0.00000000000E+00  0.11121167391E+04  0.19691871830E+04  0.16250829271E+04 0.  0.
        4    1    3    3  502    0 -0.56373746427E+03 -0.26030060248E+03 -0.79000045184E+02  0.62593845728E+03  0.12699999809E+01 0.  1.
       -4    1    3    3    0  502  0.56373746427E+03  0.26030060248E+03  0.11911167843E+04  0.13432487257E+04  0.12699999809E+01 0. -1.
</event>
<event>
 5   0  0.7770905E-04  0.1594472E+04  0.7818609E-02  0.8823951E-01
       -2   -1    0    0    0  501  0.00000000000E+00  0.00000000000E+00  0.66979516730E+03  0.66979516731E+03  0.25500000920E-02 0.  1.
        2   -1    0    0  501    0  0.00000000000E+00  0.00000000000E+00 -0.94892496681E+03  0.94892496681E+03  0.25500000920E-02 0. -1.
    10030    2    1    2    0    0  0.00000000000E+00  0.00000000000E+00 -0.27912979951E+03  0.16187201341E+04  0.15944721470E+04 0.  0.
        2    1    3    3  502    0  0.42479475587E+03  0.44280596869E+03 -0.65628224375E+03  0.89846207153E+03  0.25500000920E-02 0. -1.
       -2    1    3    3    0  502 -0.42479475587E+03 -0.44280596869E+03  0.37715244424E+03  0.72025806259E+03  0.25500000920E-02 0.  1.
</event>
<event>
 5   0  0.7770905E-04  0.1603341E+04  0.7818609E-02  0.8818498E-01
       -2   -1    0    0    0  501  0.00000000000E+00  0.00000000000E+00  0.27487256177E+03  0.27487256179E+03  0.25500000920E-02 0. -1.
        2   -1    0    0  501    0  0.00000000000E+00  0.00000000000E+00 -0.23380863982E+04  0.23380863982E+04  0.25500000920E-02 0.  1.
    10030    2    1    2    0    0  0.00000000000E+00  0.00000000000E+00 -0.20632138365E+04  0.26129589600E+04  0.16033412587E+04 0.  0.
        2    1    3    3  502    0  0.22144400046E+03 -0.75038382375E+03 -0.13165124245E+04  0.15314432057E+04  0.25500000920E-02 0.  1.
       -2    1    3    3    0  502 -0.22144400046E+03  0.75038382375E+03 -0.74670141192E+03  0.10815157543E+04  0.25500000920E-02 0. -1.
</event>
<event>
 5   0  0.3837251E-04  0.1446052E+04  0.7818609E-02  0.8921142E-01
       -1   -1    0    0    0  501  0.00000000000E+00  0.00000000000E+00  0.94003827624E+03  0.94003827625E+03  0.50400001928E-02 0.  1.
        1   -1    0    0  501    0  0.00000000000E+00  0.00000000000E+00 -0.55611177073E+03  0.55611177075E+03  0.50400001928E-02 0. -1.
    10030    2    1    2    0    0  0.00000000000E+00  0.00000000000E+00  0.38392650551E+03  0.14961500470E+04  0.14460516594E+04 0.  0.
        4    1    3    3  502    0  0.28048520951E+03  0.17771945343E+03 -0.47255640967E+03  0.57755288079E+03  0.12699999809E+01 0. -1.
       -4    1    3    3    0  502 -0.28048520951E+03 -0.17771945343E+03  0.85648291519E+03  0.91859716622E+03  0.12699999809E+01 0.  1.
</event>
<event>
 5   0  0.7770905E-04  0.1601308E+04  0.7818609E-02  0.8819745E-01
       -2   -1    0    0    0  501  0.00000000000E+00  0.00000000000E+00  0.64847615698E+03  0.64847615698E+03  0.25500000920E-02 0.  1.
        2   -1    0    0  501    0  0.00000000000E+00  0.00000000000E+00 -0.98854335345E+03  0.98854335346E+03  0.25500000920E-02 0. -1.
    10030    2    1    2    0    0  0.00000000000E+00  0.00000000000E+00 -0.34006719647E+03  0.16370195104E+04  0.16013079590E+04 0.  0.
        2    1    3    3  502    0  0.71946602320E+02  0.57883350618E+03  0.39067081363E+03  0.70203149935E+03  0.25500000920E-02 0.  1.
       -2    1    3    3    0  502 -0.71946602320E+02 -0.57883350618E+03 -0.73073801010E+03  0.93498801108E+03  0.25500000920E-02 0. -1.
</event>
<event>
 5   0  0.7415102E-04  0.1594969E+04  0.7818609E-02  0.8823644E-01
        2   -1    0    0  501    0  0.00000000000E+00  0.00000000000E+00  0.69761602561E+03  0.69761602561E+03  0.25500000920E-02 0. -1.
       -2   -1    0    0    0  501  0.00000000000E+00  0.00000000000E+00 -0.91165029746E+03  0.91165029747E+03  0.25500000920E-02 0.  1.
    10030    2    1    2    0    0  0.00000000000E+00  0.00000000000E+00 -0.21403427186E+03  0.16092663231E+04  0.15949694132E+04 0.  0.
        5    1    3    3  502    0 -0.49721471520E+03 -0.10119491182E+03  0.51371855668E+03  0.72207460049E+03  0.46999998093E+01 0. -1.
       -5    1    3    3    0  502  0.49721471520E+03  0.10119491182E+03 -0.72775282854E+03  0.88719172259E+03  0.46999998093E+01 0.  1.
</event>
<event>
 5   0  0.7415102E-04  0.1573456E+04  0.7818609E-02  0.8837023E-01
       -2   -1    0    0    0  501  0.00000000000E+00  0.00000000000E+00  0.80832614674E+03  0.80832614674E+03  0.25500000920E-02 0. -1.
        2   -1    0    0  501    0  0.00000000000E+00  0.00000000000E+00 -0.76570706838E+03  0.76570706839E+03  0.25500000920E-02 0.  1.
    10030    2    1    2    0    0  0.00000000000E+00  0.00000000000E+00  0.42619078353E+02  0.15740332151E+04  0.15734561247E+04 0.  0.
        5    1    3    3  502    0 -0.31305379967E+02  0.22825969679E+03  0.77380643186E+03  0.80739147877E+03  0.46999998093E+01 0. -1.
       -5    1    3    3    0  502  0.31305379967E+02 -0.22825969679E+03 -0.73118735351E+03  0.76664173636E+03  0.46999998093E+01 0.  1.
</event>
<event>
 5   0  0.7488884E-04  0.1582700E+04  0.7818609E-02  0.8831247E-01
        2   -1    0    0  501    0  0.00000000000E+00  0.00000000000E+00  0.19146301214E+04  0.19146301214E+04  0.25500000920E-02 0. -1.
       -2   -1    0    0    0  501  0.00000000000E+00  0.00000000000E+00 -0.32707875385E+03  0.32707875386E+03  0.25500000920E-02 0.  1.
    10030    2    1    2    0    0  0.00000000000E+00  0.00000000000E+00  0.15875513675E+04  0.22417088752E+04  0.15827000148E+04 0.  0.
        3    1    3    3  502    0 -0.44996715595E+03 -0.62819045511E+03  0.10355631776E+04  0.12920854439E+04  0.10100000352E+00 0. -1.
       -3    1    3    3    0  502  0.44996715595E+03  0.62819045511E+03  0.55198818998E+03  0.94962343137E+03  0.10100000352E+00 0.  1.
</event>
<event>
 5   0  0.4110803E-04  0.1588684E+04  0.7818609E-02  0.8827530E-01
       -1   -1    0    0    0  501  0.00000000000E+00  0.00000000000E+00  0.13064098194E+04  0.13064098194E+04  0.50400001928E-02 0. -1.
        1   -1    0    0  501    0  0.00000000000E+00  0.00000000000E+00 -0.48298716311E+03  0.48298716314E+03  0.50400001928E-02 0.  1.
    10030    2    1    2    0    0  0.00000000000E+00  0.00000000000E+00  0.82342265630E+03  0.17893969826E+04  0.15886839491E+04 0.  0.
        5    1    3    3  502    0  0.22095689974E+03 -0.29108014122E+03  0.12060859294E+04  0.12602440078E+04  0.46999998093E+01 0. -1.
       -5    1    3    3    0  502 -0.22095689974E+03  0.29108014122E+03 -0.38266327306E+03  0.52915297477E+03  0.46999998093E+01 0.  1.
</event>
<event>
 5   0  0.3889847E-04  0.1655088E+04  0.7818609E-02  0.8787402E-01
       -1   -1    0    0    0  501  0.00000000000E+00  0.00000000000E+00  0.44706681424E+03  0.44706681427E+03  0.50400001928E-02 0.  1.
        1   -1    0    0  501    0  0.00000000000E+00  0.00000000000E+00 -0.15318267485E+04  0.15318267485E+04  0.50400001928E-02 0. -1.
    10030    2    1    2    0    0  0.00000000000E+00  0.00000000000E+00 -0.10847599343E+04  0.19788935628E+04  0.16550877976E+04 0.  0.
        1    1    3    3  502    0 -0.22158854819E+02 -0.23111752587E+03 -0.14920865184E+04  0.15100425504E+04  0.50400001928E-02 0. -1.
       -1    1    3    3    0  502  0.22158854819E+02  0.23111752587E+03  0.40732658416E+03  0.46885101236E+03  0.50400001928E-02 0.  1.
</event>
<event>
 5   0  0.7488884E-04  0.1598338E+04  0.7818609E-02  0.8821570E-01
        2   -1    0    0  501    0  0.00000000000E+00  0.00000000000E+00  0.63545817473E+03  0.63545817473E+03  0.25500000920E-02 0. -1.
       -2   -1    0    0    0  501  0.00000000000E+00  0.00000000000E+00 -0.10050560535E+04  0.10050560535E+04  0.25500000920E-02 0.  1.
    10030    2    1    2    0    0  0.00000000000E+00  0.00000000000E+00 -0.36959787875E+03  0.16405142282E+04  0.15983379934E+04 0.  0.
        3    1    3    3  502    0 -0.11337578089E+03  0.27158049743E+02 -0.99628112129E+03  0.10030791146E+04  0.10100000352E+00 0.  1.
       -3    1    3    3    0  502  0.11337578089E+03 -0.27158049743E+02  0.62668324254E+03  0.63743511359E+03  0.10100000352E+00 0. -1.
</event>
<event>
 5   0  0.3950195E-04  0.1606172E+04  0.7818609E-02  0.8816765E-01
        1   -1    0    0  501    0  0.00000000000E+00  0.00000000000E+00  0.98080167001E+03  0.98080167002E+03  0.50400001928E-02 0.  1.
       -1   -1    0    0    0  501  0.00000000000E+00  0.00000000000E+00 -0.65757135046E+03  0.65757135048E+03  0.50400001928E-02 0. -1.
    10030    2    1    2    0    0  0.00000000000E+00  0.00000000000E+00  0.32323031954E+03  0.16383730205E+04  0.16061719444E+04 0.  0.
        2    1    3    3  502    0  0.57410595727E+03 -0.56155574912E+03  0.16379557257E+03  0.81961667818E+03  0.25500000920E-02 0. -1.
       -2    1    3    3    0  502 -0.57410595727E+03  0.56155574912E+03  0.15943474697E+03  0.81875634232E+03  0.25500000920E-02 0.  1.
</event>
<event>
 5   0  0.7553070E-04  0.1644371E+04  0.7818609E-02  0.8793744E-01
       -2   -1    0    0    0  501  0.00000000000E+00  0.00000000000E+00  0.42166868982E+03  0.42166868982E+03  0.25500000920E-02 0.  1.
        2   -1    0    0  501    0  0.00000000000E+00  0.00000000000E+00 -0.16031273934E+04  0.16031273934E+04  0.25500000920E-02 0. -1.
    10030    2    1    2    0    0  0.00000000000E+00  0.00000000000E+00 -0.11814587036E+04  0.20247960832E+04  0.16443705514E+04 0.  0.
        4    1    3    3  502    0  0.10176899146E+02 -0.16629780349E+03  0.40066321301E+03  0.43392528376E+03  0.12699999809E+01 0.  1.
       -4    1    3    3    0  502 -0.10176899146E+02  0.16629780349E+03 -0.15821219166E+04  0.15908707995E+04  0.12699999809E+01 0. -1.
</event>
<event>
 5   0  0.3837251E-04  0.1598526E+04  0.7818609E-02  0.8821454E-01
        1   -1    0    0  501    0  0.00000000000E+00  0.00000000000E+00  0.17149024195E+04  0.17149024196E+04  0.50400001928E-02 0.  1.
       -1   -1    0    0    0  501  0.00000000000E+00  0.00000000000E+00 -0.37251189368E+03  0.37251189372E+03  0.50400001928E-02 0. -1.
    10030    2    1    2    0    0  0.00000000000E+00  0.00000000000E+00  0.13423905259E+04  0.20874143133E+04  0.15985262561E+04 0.  0.
        4    1    3    3  502    0  0.26991124141E+03  0.19552439767E+03 -0.27743744338E+03  0.43365310585E+03  0.12699999809E+01 0. -1.
       -4    1    3    3    0  502 -0.26991124141E+03 -0.19552439767E+03  0.16198279692E+04  0.16537612074E+04  0.12699999809E+01 0.  1.
</event>
<event>
 5   0  0.7553070E-04  0.1609958E+04  0.7818609E-02  0.8814454E-01
        2   -1    0    0  501    0  0.00000000000E+00  0.00000000000E+00  0.70966802543E+03  0.70966802543E+03  0.25500000920E-02 0.  1.
       -2   -1    0    0    0  501  0.00000000000E+00  0.00000000000E+00 -0.91309066936E+03  0.91309066937E+03  0.25500000920E-02 0. -1.
    10030    2    1    2    0    0  0.00000000000E+00  0.00000000000E+00 -0.20342264393E+03  0.16227586948E+04  0.16099580769E+04 0.  0.
        4    1    3    3  502    0  0.27678966651E+03 -0.67462049922E+03  0.24197525600E+03  0.76829615050E+03  0.12699999809E+01 0.  1.
       -4    1    3    3    0  502 -0.27678966651E+03  0.67462049922E+03 -0.44539789993E+03  0.85446254430E+03  0.12699999809E+01 0. -1.
</event>
<event>
 5   0  0.7395088E-04  0.1608836E+04  0.7818609E-02  0.8815138E-01
       -2   -1    0    0    0  501  0.00000000000E+00  0.00000000000E+00  0.68194399706E+03  0.68194399707E+03  0.25500000920E-02 0.  1.
        2   -1    0    0  501    0  0.00000000000E+00  0.00000000000E+00 -0.94888823724E+03  0.94888823724E+03  0.25500000920E-02 0. -1.
    10030    2    1    2    0    0  0.00000000000E+00  0.00000000000E+00 -0.26694424018E+03  0.16308322343E+04  0.16088363960E+04 0.  0.
        1    1    3    3  502    0 -0.74535823459E+02 -0.40855323671E+03 -0.83181576779E+03  0.92972512485E+03  0.50400001928E-02 0. -1.
       -1    1    3    3    0  502  0.74535823459E+02  0.40855323671E+03  0.56487152761E+03  0.70110710946E+03  0.50400001928E-02 0.  1.
</event>
<event>
 5   0  0.7770905E-04  0.1592907E+04  0.7818609E-02  0.8824917E-01
        2   -1    0    0  501    0  0.00000000000E+00  0.00000000000E+00  0.13897792121E+04  0.13897792121E+04  0.25500000920E-02 0.  1.
       -2   -1    0    0    0  501  0.00000000000E+00  0.00000000000E+00 -0.45643088648E+03  0.45643088648E+03  0.25500000920E-02 0. -1.
    10030    2    1    2    0    0  0.00000000000E+00  0.00000000000E+00  0.93334832561E+03  0.18462100986E+04  0.15929069750E+04 0.  0.
        2    1    3    3  502    0  0.27803875141E+03 -0.31460588743E+03  0.12510963625E+04  0.13196683371E+04  0.25500000920E-02 0.  1.
       -2    1    3    3    0  502 -0.27803875141E+03  0.31460588743E+03 -0.31774803684E+03  0.52654176151E+03  0.25500000920E-02 0. -1.
</event>
<event>
 5   0  0.3973227E-04  0.1400155E+04  0.7818609E-02  0.8953706E-01
        1   -1    0    0  501    0  0.00000000000E+00  0.00000000000E+00  0.10932087957E+04  0.10932087957E+04  0.50400001928E-02 0. -1.
       -1   -1    0    0    0  501  0.00000000000E+00  0.00000000000E+00 -0.44832104695E+03  0.44832104698E+03  0.50400001928E-02 0.  1.
    10030    2    1    2    0    0  0.00000000000E+00  0.00000000000E+00  0.64488774877E+03  0.15415298427E+04  0.14001550084E+04 0.  0.
        3    1    3    3  502    0 -0.13379783291E+03 -0.73556846374E+02  0.10746543829E+04  0.10854466927E+04  0.10100000352E+00 0. -1.
       -3    1    3    3    0  502  0.13379783291E+03  0.73556846374E+02 -0.42976663413E+03  0.45608315004E+03  0.10100000352E+00 0.  1.
</event>
<event>
 5   0  0.2781000E-04  0.1572584E+04  0.7818609E-02  0.8837570E-01
        3   -1    0    0  501    0  0.00000000000E+00  0.00000000000E+00  0.10832179138E+04  0.10832179185E+04  0.10100000352E+00 0.  1.
       -3   -1    0    0    0  501  0.00000000000E+00  0.00000000000E+00 -0.57075778902E+03  0.57075779795E+03  0.10100000352E+00 0. -1.
    10030    2    1    2    0    0  0.00000000000E+00  0.00000000000E+00  0.51246012476E+03  0.16539757164E+04  0.15725839536E+04 0.  0.
        5    1    3    3  502    0 -0.39801316962E+02 -0.25243866075E+03  0.10383040426E+04  0.10693020140E+04  0.46999998093E+01 0.  1.
       -5    1    3    3    0  502  0.39801316962E+02  0.25243866075E+03 -0.52584391789E+03  0.58467370238E+03  0.46999998093E+01 0. -1.
</event>
<event>
 5   0  0.3889847E-04  0.1611693E+04  0.7818609E-02  0.8813396E-01
        1   -1    0    0  501    0  0.00000000000E+00  0.00000000000E+00  0.10094911296E+04  0.10094911296E+04  0.50400001928E-02 0.  1.
       -1   -1    0    0    0  501  0.00000000000E+00  0.00000000000E+00 -0.64328323111E+03  0.64328323113E+03  0.50400001928E-02 0. -1.
    10030    2    1    2    0    0  0.00000000000E+00  0.00000000000E+00  0.36620789849E+03  0.16527743607E+04  0.16116931664E+04 0.  0.
        1    1    3    3  502    0 -0.90330508655E+02 -0.52107997828E+03  0.80663592566E+03  0.96454417273E+03  0.50400001928E-02 0.  1.
       -1    1    3    3    0  502  0.90330508655E+02  0.52107997828E+03 -0.44042802717E+03  0.68823018801E+03  0.50400001928E-02 0. -1.
</event>
<event>
 5   0  0.3950195E-04  0.1611438E+04  0.7818609E-02  0.8813552E-01
       -1   -1    0    0    0  501  0.00000000000E+00  0.00000000000E+00  0.46498856232E+03  0.46498856235E+03  0.50400001928E-02 0.  1.
        1   -1    0    0  501    0  0.00000000000E+00  0.00000000000E+00 -0.13961274638E+04  0.13961274638E+04  0.50400001928E-02 0. -1.
    10030    2    1    2    0    0  0.00000000000E+00  0.00000000000E+00 -0.93113890149E+03  0.18611160262E+04  0.16114382424E+04 0.  0.
        2    1    3    3  502    0  0.59333804952E+03  0.54193363542E+03 -0.53332026050E+03  0.96445456423E+03  0.25500000920E-02 0.  1.
       -2    1    3    3    0  502 -0.59333804952E+03 -0.54193363542E+03 -0.39781864099E+03  0.89666146194E+03  0.25500000920E-02 0. -1.
</event>
<event>
 5   0  0.7770905E-04  0.1543704E+04  0.7818609E-02  0.8855900E-01
       -2   -1    0    0    0  501  0.00000000000E+00  0.00000000000E+00  0.50987896303E+03  0.50987896304E+03  0.25500000920E-02 0.  1.
        2   -1    0    0  501    0  0.00000000000E+00  0.00000000000E+00 -0.11684247135E+04  0.11684247135E+04  0.25500000920E-02 0. -1.
    10030    2    1    2    0    0  0.00000000000E+00  0.00000000000E+00 -0.65854575046E+03  0.16783036765E+04  0.15437035743E+04 0.  0.
        2    1    3    3  502    0  0.28528693549E+03  0.70533415335E+03 -0.47048362339E+03  0.89456120155E+03  0.25500000920E-02 0.  1.
       -2    1    3    3    0  502 -0.28528693549E+03 -0.70533415335E+03 -0.18806212707E+03  0.78374247498E+03  0.25500000920E-02 0. -1.
</event>
<event>
 5   0  0.7415102E-04  0.1604676E+04  0.7818609E-02  0.8817680E-01
        2   -1    0    0  501    0  0.00000000000E+00  0.00000000000E+00  0.12197027107E+04  0.12197027107E+04  0.25500000920E-02 0.  1.
       -2   -1    0    0    0  501  0.00000000000E+00  0.00000000000E+00 -0.52778949412E+03  0.52778949413E+03  0.25500000920E-02 0. -1.
    10030    2    1    2    0    0  0.00000000000E+00  0.00000000000E+00  0.69191321659E+03  0.17474922048E+04  0.16046760130E+04 0.  0.
        5    1    3    3  502    0  0.31949048740E+03 -0.13822782451E+03  0.11331635920E+04  0.11854378598E+04  0.46999998093E+01 0.  1.
       -5    1    3    3    0  502 -0.31949048740E+03  0.13822782451E+03 -0.44125037545E+03  0.56205434509E+03  0.46999998093E+01 0. -1.
</event>
<event>
 5   0  0.3889847E-04  0.1609019E+04  0.7818609E-02  0.8815027E-01
        1   -1    0    0  501    0  0.00000000000E+00  0.00000000000E+00  0.10715422155E+04  0.10715422155E+04  0.50400001928E-02 0. -1.
       -1   -1    0    0    0  501  0.00000000000E+00  0.00000000000E+00 -0.60402213977E+03  0.60402213979E+03  0.50400001928E-02 0.  1.
    10030    2    1    2    0    0  0.00000000000E+00  0.00000000000E+00  0.46752007572E+03  0.16755643553E+04  0.16090186101E+04 0.  0.
        1    1    3    3  502    0 -0.57564007226E+03  0.48044172093E+03  0.53745380709E+03  0.92251955794E+03  0.50400001928E-02 0. -1.
       -1    1    3    3    0  502  0.57564007226E+03 -0.48044172093E+03 -0.69933731373E+02  0.75304479735E+03  0.50400001928E-02 0.  1.
</event>
<event>
 5   0  0.7395088E-04  0.1778447E+04  0.7818609E-02  0.8717846E-01
        2   -1    0    0  501    0  0.00000000000E+00  0.00000000000E+00  0.11742923442E+04  0.11742923442E+04  0.25500000920E-02 0.  1.
       -2   -1    0    0    0  501  0.00000000000E+00  0.00000000000E+00 -0.67335744563E+03  0.67335744563E+03  0.25500000920E-02 0. -1.
    10030    2    1    2    0    0  0.00000000000E+00  0.00000000000E+00  0.50093489853E+03  0.18476497898E+04  0.17784470679E+04 0.  0.
        1    1    3    3  502    0 -0.27314460396E+02 -0.88880226790E+03  0.24868545024E+03  0.92334175924E+03  0.50400001928E-02 0.  1.
       -1    1    3    3    0  502  0.27314460396E+02  0.88880226790E+03  0.25224944830E+03  0.92430803056E+03  0.50400001928E-02 0. -1.
</event>
<event>
 5   0  0.3889847E-04  0.1596437E+04  0.7818609E-02  0.8822740E-01
        1   -1    0    0  501    0  0.00000000000E+00  0.00000000000E+00  0.14483838187E+04  0.14483838187E+04  0.50400001928E-02 0.  1.
       -1   -1    0    0    0  501  0.00000000000E+00  0.00000000000E+00 -0.43990592975E+03  0.43990592978E+03  0.50400001928E-02 0. -1.
    10030    2    1    2    0    0  0.00000000000E+00  0.00000000000E+00  0.10084778890E+04  0.18882897485E+04  0.15964368205E+04 0.  0.
        1    1    3    3  502    0 -0.31397366620E+03 -0.68801032833E+03  0.20218083460E+03  0.78282486219E+03  0.50400001928E-02 0. -1.
       -1    1    3    3    0  502  0.31397366620E+03  0.68801032833E+03  0.80629705436E+03  0.11054648863E+04  0.50400001928E-02 0.  1.
</event>
<event>
 5   0  0.7415102E-04  0.1596600E+04  0.7818609E-02  0.8822639E-01
       -2   -1    0    0    0  501  0.00000000000E+00  0.00000000000E+00  0.37436438004E+03  0.37436438004E+03  0.25500000920E-02 0. -1.
        2   -1    0    0  501    0  0.00000000000E+00  0.00000000000E+00 -0.17023074259E+04  0.17023074259E+04  0.25500000920E-02 0.  1.
    10030    2    1    2    0    0  0.00000000000E+00  0.00000000000E+00 -0.13279430459E+04  0.20766718059E+04  0.15966004687E+04 0.  0.
        5    1    3    3  502    0  0.40924408845E+03 -0.12483221189E+03  0.21261324825E+03  0.47779732983E+03  0.46999998093E+01 0. -1.
       -5    1    3    3    0  502 -0.40924408845E+03  0.12483221189E+03 -0.15405562941E+04  0.15988744761E+04  0.46999998093E+01 0.  1.
</event>
<event>
 5   0  0.7395088E-04  0.1582134E+04  0.7818609E-02  0.8831600E-01
       -2   -1    0    0    0  501  0.00000000000E+00  0.00000000000E+00  0.58053194864E+03  0.58053194865E+03  0.25500000920E-02 0. -1.
        2   -1    0    0  501    0  0.00000000000E+00  0.00000000000E+00 -0.10779539898E+04  0.10779539898E+04  0.25500000920E-02 0.  1.
    10030    2    1    2    0    0  0.00000000000E+00  0.00000000000E+00 -0.49742204120E+03  0.16584859385E+04  0.15821336609E+04 0.  0.
        1    1    3    3  502    0 -0.47400239776E+03  0.27507911167E+03 -0.84671496476E+03  0.10085995352E+04  0.50400001928E-02 0.  1.
       -1    1    3    3    0  502  0.47400239776E+03 -0.27507911167E+03  0.34929292356E+03  0.64988640333E+03  0.50400001928E-02 0. -1.
</event>
<event>
 5   0  0.7415102E-04  0.1688410E+04  0.7818609E-02  0.8768002E-01
       -2   -1    0    0    0  501  0.00000000000E+00  0.00000000000E+00  0.66351478843E+03  0.66351478843E+03  0.25500000920E-02 0. -1.
        2   -1    0    0  501    0  0.00000000000E+00  0.00000000000E+00 -0.10741010025E+04  0.10741010025E+04  0.25500000920E-02 0.  1.
    10030    2    1    2    0    0  0.00000000000E+00  0.00000000000E+00 -0.41058621410E+03  0.17376157910E+04  0.16884097837E+04 0.  0.
        5    1    3    3  502    0 -0.16473516228E+03  0.32383258600E+03  0.57892131890E+03  0.68350362173E+03  0.46999998093E+01 0.  1.
       -5    1    3    3    0  502  0.16473516228E+03 -0.32383258600E+03 -0.98950753300E+03  0.10541121692E+04  0.46999998093E+01 0. -1.
</event>
<event>
 5   0  0.7415102E-04  0.1577803E+04  0.7818609E-02  0.8834302E-01
       -2   -1    0    0    0  501  0.00000000000E+00  0.00000000000E+00  0.73311592794E+03  0.73311592794E+03  0.25500000920E-02 0. -1.
        2   -1    0    0  501    0  0.00000000000E+00  0.00000000000E+00 -0.84893193730E+03  0.84893193730E+03  0.25500000920E-02 0.  1.
    10030    2    1    2    0    0  0.00000000000E+00  0.00000000000E+00 -0.11581600936E+03  0.15820478652E+04  0.15778029344E+04 0.  0.
        5    1    3    3  502    0 -0.24008204919E+03 -0.64218497593E+03 -0.44921749207E+03  0.81967028666E+03  0.46999998093E+01 0. -1.
       -5    1    3    3    0  502  0.24008204919E+03  0.64218497593E+03  0.33340148271E+03  0.76237757858E+03  0.46999998093E+01 0.  1.
</event>
<event>
 5   0  0.2781000E-04  0.1601591E+04  0.7818609E-02  0.8819571E-01
        4   -1    0    0  501    0  0.00000000000E+00  0.00000000000E+00  0.86324526837E+03  0.86324620257E+03  0.12699999809E+01 0. -1.
       -4   -1    0    0    0  501  0.00000000000E+00  0.00000000000E+00 -0.74286208655E+03  0.74286317215E+03  0.12699999809E+01 0.  1.
    10030    2    1    2    0    0  0.00000000000E+00  0.00000000000E+00  0.12038318181E+03  0.16061093747E+04  0.16015914626E+04 0.  0.
        3    1    3    3  502    0  0.51142208564E+03  0.46977516652E+03  0.46010536678E+03  0.83302954060E+03  0.10100000352E+00 0. -1.
       -3    1    3    3    0  502 -0.51142208564E+03 -0.46977516652E+03 -0.33972218497E+03  0.77307983412E+03  0.10100000352E+00 0.  1.
</event>
<event>
 5   0  0.7488884E-04  0.1587582E+04  0.7818609E-02  0.8828213E-01
       -2   -1    0    0    0  501  0.00000000000E+00  0.00000000000E+00  0.77474910603E+03  0.77474910603E+03  0.25500000920E-02 0. -1.
        2   -1    0    0  501    0  0.00000000000E+00  0.00000000000E+00 -0.81330117459E+03  0.81330117459E+03  0.25500000920E-02 0.  1.
    10030    2    1    2    0    0  0.00000000000E+00  0.00000000000E+00 -0.38552068559E+02  0.15880502806E+04  0.15875822599E+04 0.  0.
        3    1    3    3  502    0 -0.59424316776E+03  0.54572403174E+02  0.50432957456E+03  0.78131390593E+03  0.10100000352E+00 0. -1.
       -3    1    3    3    0  502  0.59424316776E+03 -0.54572403174E+02 -0.54288164312E+03  0.80673637470E+03  0.10100000352E+00 0.  1.
</event>
<event>
 5   0  0.3950195E-04  0.1603235E+04  0.7818609E-02  0.8818563E-01
       -1   -1    0    0    0  501  0.00000000000E+00  0.00000000000E+00  0.92189359539E+03  0.92189359540E+03  0.50400001928E-02 0.  1.
        1   -1    0    0  501    0  0.00000000000E+00  0.00000000000E+00 -0.69703301056E+03  0.69703301057E+03  0.50400001928E-02 0. -1.
    10030    2    1    2    0    0  0.00000000000E+00  0.00000000000E+00  0.22486058483E+03  0.16189266060E+04  0.16032345658E+04 0.  0.
        2    1    3    3  502    0 -0.64649318511E+03  0.17919802478E+03 -0.33064093006E+03  0.74792298742E+03  0.25500000920E-02 0. -1.
       -2    1    3    3    0  502  0.64649318511E+03 -0.17919802478E+03  0.55550151489E+03  0.87100361855E+03  0.25500000920E-02 0.  1.
</event>
<event>
 5   0  0.7553070E-04  0.1519175E+04  0.7818609E-02  0.8871801E-01
       -2   -1    0    0    0  501  0.00000000000E+00  0.00000000000E+00  0.62277425517E+03  0.62277425517E+03  0.25500000920E-02 0.  1.
        2   -1    0    0  501    0  0.00000000000E+00  0.00000000000E+00 -0.92645655912E+03  0.92645655912E+03  0.25500000920E-02 0. -1.
    10030    2    1    2    0    0  0.00000000000E+00  0.00000000000E+00 -0.30368230395E+03  0.15492308143E+04  0.15191751625E+04 0.  0.
        4    1    3    3  502    0 -0.27690060203E+03 -0.11029404934E+03 -0.86432880359E+03  0.91427819308E+03  0.12699999809E+01 0. -1.
       -4    1    3    3    0  502  0.27690060203E+03  0.11029404934E+03  0.56064649964E+03  0.63495262121E+03  0.12699999809E+01 0.  1.
</event>
<event>
 5   0  0.3973227E-04  0.1580567E+04  0.7818609E-02  0.8832576E-01
       -1   -1    0    0    0  501  0.00000000000E+00  0.00000000000E+00  0.68849294639E+03  0.68849294640E+03  0.50400001928E-02 0.  1.
        1   -1    0    0  501    0  0.00000000000E+00  0.00000000000E+00 -0.90712323382E+03  0.90712323384E+03  0.50400001928E-02 0. -1.
    10030    2    1    2    0    0  0.00000000000E+00  0.00000000000E+00 -0.21863028744E+03  0.15956161802E+04  0.15805669211E+04 0.  0.
        3    1    3    3  502    0  0.34003515580E+03  0.18415869856E+03  0.58645652151E+03  0.70247391073E+03  0.10100000352E+00 0.  1.
       -3    1    3    3    0  502 -0.34003515580E+03 -0.18415869856E+03 -0.80508680895E+03  0.89314226951E+03  0.10100000352E+00 0. -1.
</event>
<event>
 5   0  0.7488884E-04  0.1597494E+04  0.7818609E-02  0.8822089E-01
       -2   -1    0    0    0  501  0.00000000000E+00  0.00000000000E+00  0.39309872685E+03  0.39309872686E+03  0.25500000920E-02 0. -1.
        2   -1    0    0  501    0  0.00000000000E+00  0.00000000000E+00 -0.16229937084E+04  0.16229937084E+04  0.25500000920E-02 0.  1.
    10030    2    1    2    0    0  0.00000000000E+00  0.00000000000E+00 -0.12298949815E+04  0.20160924353E+04  0.15974939881E+04 0.  0.
        3    1    3    3  502    0 -0.15921276403E+03 -0.25097921542E+02  0.37236209846E+03  0.40574887858E+03  0.10100000352E+00 0. -1.
       -3    1    3    3    0  502  0.15921276403E+03  0.25097921542E+02 -0.16022570800E+04  0.16103435567E+04  0.10100000352E+00 0.  1.
</event>
<event>
 5   0  0.3837251E-04  0.1593304E+04  0.7818609E-02  0.8824672E-01
        1   -1    0    0  501    0  0.00000000000E+00  0.00000000000E+00  0.10877538921E+04  0.10877538921E+04  0.50400001928E-02 0.  1.
       -1   -1    0    0    0  501  0.00000000000E+00  0.00000000000E+00 -0.58345394228E+03  0.58345394230E+03  0.50400001928E-02 0. -1.
    10030    2    1    2    0    0  0.00000000000E+00  0.00000000000E+00  0.50429994977E+03  0.16712078344E+04  0.15933038588E+04 0.  0.
        4    1    3    3  502    0  0.31182831549E+03  0.43480984660E+03 -0.36692552407E+03  0.64879307499E+03  0.12699999809E+01 0. -1.
       -4    1    3    3    0  502 -0.31182831549E+03 -0.43480984660E+03  0.87122547384E+03  0.10224147594E+04  0.12699999809E+01 0.  1.
</event>
<event>
 5   0  0.7395088E-04  0.1588123E+04  0.7818609E-02  0.8827878E-01
        2   -1    0    0  501    0  0.00000000000E+00  0.00000000000E+00  0.71910900505E+03  0.71910900506E+03  0.25500000920E-02 0. -1.
       -2   -1    0    0    0  501  0.00000000000E+00  0.00000000000E+00 -0.87682653410E+03  0.87682653410E+03  0.25500000920E-02 0.  1.
    10030    2    1    2    0    0  0.00000000000E+00  0.00000000000E+00 -0.15771752905E+03  0.15959355392E+04  0.15881232402E+04 0.  0.
        1    1    3    3  502    0  0.23119201594E+03 -0.49873394873E+02 -0.84060923029E+03  0.87324737722E+03  0.50400001928E-02 0.  1.
       -1    1    3    3    0  502 -0.23119201594E+03  0.49873394873E+02  0.68289170124E+03  0.72268816194E+03  0.50400001928E-02 0. -1.
</event>
<event>
 5   0  0.4110803E-04  0.1601653E+04  0.7818609E-02  0.8819533E-01
        1   -1    0    0  501    0  0.00000000000E+00  0.00000000000E+00  0.10388955755E+04  0.10388955756E+04  0.50400001928E-02 0.  1.
       -1   -1    0    0    0  501  0.00000000000E+00  0.00000000000E+00 -0.61731256426E+03  0.61731256428E+03  0.50400001928E-02 0. -1.
    10030    2    1    2    0    0  0.00000000000E+00  0.00000000000E+00  0.42158301129E+03  0.16562081398E+04  0.16016532606E+04 0.  0.
        5    1    3    3  502    0  0.42981544109E+03 -0.66257981989E+03  0.73811044253E+02  0.79323608805E+03  0.46999998093E+01 0.  1.
       -5    1    3    3    0  502 -0.42981544109E+03  0.66257981989E+03  0.34777196703E+03  0.86297205180E+03  0.46999998093E+01 0. -1.
</event>
<event>
 5   0  0.3837251E-04  0.1624888E+04  0.7818609E-02  0.8805403E-01
       -1   -1    0    0    0  501  0.00000000000E+00  0.00000000000E+00  0.73436701216E+03  0.73436701218E+03  0.50400001928E-02 0. -1.
        1   -1    0    0  501    0  0.00000000000E+00  0.00000000000E+00 -0.89882215116E+03  0.89882215117E+03  0.50400001928E-02 0.  1.
    10030    2    1    2    0    0  0.00000000000E+00  0.00000000000E+00 -0.16445513900E+03  0.16331891634E+04  0.16248881040E+04 0.  0.
        4    1    3    3  502    0 -0.27724832265E+03  0.28172213316E+03  0.63120827711E+03  0.74475465404E+03  0.12699999809E+01 0. -1.
       -4    1    3    3    0  502  0.27724832265E+03 -0.28172213316E+03 -0.79566341610E+03  0.88843450932E+03  0.12699999809E+01 0.  1.
</event>
<event>
 5   0  0.7488884E-04  0.1652451E+04  0.7818609E-02  0.8788958E-01
       -2   -1    0    0    0  501  0.00000000000E+00  0.00000000000E+00  0.10278373656E+04  0.10278373656E+04  0.25500000920E-02 0.  1.
        2   -1    0    0  501    0  0.00000000000E+00  0.00000000000E+00 -0.66416042040E+03  0.66416042041E+03  0.25500000920E-02 0. -1.
    10030    2    1    2    0    0  0.00000000000E+00  0.00000000000E+00  0.36367694519E+03  0.16919977860E+04  0.16524513873E+04 0.  0.
        3    1    3    3  502    0  0.77032568607E+03 -0.63592484420E+02  0.48072001944E+03  0.91024030563E+03  0.10100000352E+00 0.  1.
       -3    1    3    3    0  502 -0.77032568607E+03  0.63592484420E+02 -0.11704307424E+03  0.78175748038E+03  0.10100000352E+00 0. -1.
</event>
<event>
 5   0  0.4110803E-04  0.1589773E+04  0.7818609E-02  0.8826856E-01
        1   -1    0    0  501    0  0.00000000000E+00  0.00000000000E+00  0.12923171088E+04  0.12923171088E+04  0.50400001928E-02 0. -1.
       -1   -1    0    0    0  501  0.00000000000E+00  0.00000000000E+00 -0.48892382484E+03  0.48892382486E+03  0.50400001928E-02 0.  1.
    10030    2    1    2    0    0  0.00000000000E+00  0.00000000000E+00  0.80339328397E+03  0.17812409337E+04  0.15897730955E+04 0.  0.
        5    1    3    3  502    0 -0.54294747132E+03 -0.56898207778E+03  0.53086304400E+03  0.94887840260E+03  0.46999998093E+01 0.  1.
       -5    1    3    3    0  502  0.54294747132E+03  0.56898207778E+03  0.27253023997E+03  0.83236253108E+03  0.46999998093E+01 0. -1.
</event>
<event>
 5   0  0.3973227E-04  0.1591681E+04  0.7818609E-02  0.8825675E-01
        1   -1    0    0  501    0  0.00000000000E+00  0.00000000000E+00  0.15803384048E+04  0.15803384048E+04  0.50400001928E-02 0. -1.
       -1   -1    0    0    0  501  0.00000000000E+00  0.00000000000E+00 -0.40077608376E+03  0.40077608379E+03  0.50400001928E-02 0.  1.
    10030    2    1    2    0    0  0.00000000000E+00  0.00000000000E+00  0.11795623210E+04  0.19811144886E+04  0.15916806676E+04 0.  0.
        3    1    3    3  502    0  0.71722398385E+02  0.79086880132E+03  0.52457831800E+03  0.95173524955E+03  0.10100000352E+00 0.  1.
       -3    1    3    3    0  502 -0.71722398385E+02 -0.79086880132E+03  0.65498400305E+03  0.10293792390E+04  0.10100000352E+00 0. -1.
</event>
<event>
 5   0  0.3950195E-04  0.1593968E+04  0.7818609E-02  0.8824262E-01
        1   -1    0    0  501    0  0.00000000000E+00  0.00000000000E+00  0.97579533054E+03  0.97579533056E+03  0.50400001928E-02 0.  1.
       -1   -1    0    0    0  501  0.00000000000E+00  0.00000000000E+00 -0.65093961212E+03  0.65093961214E+03  0.50400001928E-02 0. -1.
    10030    2    1    2    0    0  0.00000000000E+00  0.00000000000E+00  0.32485571843E+03  0.16267349427E+04  0.15939684238E+04 0.  0.
        2    1    3    3  502    0  0.58402467242E+03 -0.49734581959E+03  0.38308094933E+03  0.85743145266E+03  0.25500000920E-02 0.  1.
       -2    1    3    3    0  502 -0.58402467242E+03  0.49734581959E+03 -0.58225230903E+02  0.76930349004E+03  0.25500000920E-02 0. -1.
</event>
<event>
 5   0  0.7770905E-04  0.1553977E+04  0.7818609E-02  0.8849331E-01
       -2   -1    0    0    0  501  0.00000000000E+00  0.00000000000E+00  0.86461098335E+03  0.86461098335E+03  0.25500000920E-02 0.  1.
        2   -1    0    0  501    0  0.00000000000E+00  0.00000000000E+00 -0.69824598242E+03  0.69824598242E+03  0.25500000920E-02 0. -1.
    10030    2    1    2    0    0  0.00000000000E+00  0.00000000000E+00  0.16636500093E+03  0.15628569658E+04  0.15539770210E+04 0.  0.
        2    1    3    3  502    0  0.89073328862E+02 -0.35922824844E+03  0.77026438860E+03  0.85456785614E+03  0.25500000920E-02 0.  1.
       -2    1    3    3    0  502 -0.89073328862E+02  0.35922824844E+03 -0.60389938767E+03  0.70828910964E+03  0.25500000920E-02 0. -1.
</event>
<event>
 5   0  0.3950195E-04  0.1590622E+04  0.7818609E-02  0.8826330E-01
        1   -1    0    0  501    0  0.00000000000E+00  0.00000000000E+00  0.19327506804E+04  0.19327506804E+04  0.50400001928E-02 0.  1.
       -1   -1    0    0    0  501  0.00000000000E+00  0.00000000000E+00 -0.32726407065E+03  0.32726407068E+03  0.50400001928E-02 0. -1.
    10030    2    1    2    0    0  0.00000000000E+00  0.00000000000E+00  0.16054866098E+04  0.22600147511E+04  0.15906223377E+04 0.  0.
        2    1    3    3  502    0  0.73020201037E+03 -0.28105814160E+03  0.60014971184E+03  0.98608738534E+03  0.25500000920E-02 0.  1.
       -2    1    3    3    0  502 -0.73020201037E+03  0.28105814160E+03  0.10053368980E+04  0.12739273658E+04  0.25500000920E-02 0. -1.
</event>
<event>
 5   0  0.3950195E-04  0.1594036E+04  0.7818609E-02  0.8824220E-01
       -1   -1    0    0    0  501  0.00000000000E+00  0.00000000000E+00  0.50558636810E+03  0.50558636812E+03  0.50400001928E-02 0.  1.
        1   -1    0    0  501    0  0.00000000000E+00  0.00000000000E+00 -0.12564371152E+04  0.12564371152E+04  0.50400001928E-02 0. -1.
    10030    2    1    2    0    0  0.00000000000E+00  0.00000000000E+00 -0.75085074710E+03  0.17620234833E+04  0.15940357309E+04 0.  0.
        2    1    3    3  502    0  0.24487195373E+03 -0.17647938376E+03 -0.11908147857E+04  0.12284734839E+04  0.25500000920E-02 0. -1.
       -2    1    3    3    0  502 -0.24487195373E+03  0.17647938376E+03  0.43996403865E+03  0.53354999946E+03  0.25500000920E-02 0.  1.
</event>
<event>
 5   0  0.3973227E-04  0.1630698E+04  0.7818609E-02  0.8801908E-01
        1   -1    0    0  501    0  0.00000000000E+00  0.00000000000E+00  0.99569069016E+03  0.99569069017E+03  0.50400001928E-02 0. -1.
       -1   -1    0    0    0  501  0.00000000000E+00  0.00000000000E+00 -0.66767107114E+03  0.66767107116E+03  0.50400001928E-02 0.  1.
    10030    2    1    2    0    0  0.00000000000E+00  0.00000000000E+00  0.32801961902E+03  0.16633617613E+04  0.16306978502E+04 0.  0.
        3    1    3    3  502    0 -0.61421053201E+03  0.18723364613E+02  0.71064413796E+03  0.93947870813E+03  0.10100000352E+00 0. -1.
       -3    1    3    3    0  502  0.61421053201E+03 -0.18723364613E+02 -0.38262451894E+03  0.72388305320E+03  0.10100000352E+00 0.  1.
</event>
<event>
 5   0  0.7395088E-04  0.1591225E+04  0.7818609E-02  0.8825957E-01
        2   -1    0    0  501    0  0.00000000000E+00  0.00000000000E+00  0.10111156663E+04  0.10111156663E+04  0.25500000920E-02 0. -1.
       -2   -1    0    0    0  501  0.00000000000E+00  0.00000000000E+00 -0.62604075780E+03  0.62604075780E+03  0.25500000920E-02 0.  1.
    10030    2    1    2    0    0  0.00000000000E+00  0.00000000000E+00  0.38507490847E+03  0.16371564241E+04  0.15912254623E+04 0.  0.
        1    1    3    3  502    0 -0.55454366081E+03  0.20870444500E+03 -0.35375351317E+03  0.69008533184E+03  0.50400001928E-02 0.  1.
       -1    1    3    3    0  502  0.55454366081E+03 -0.20870444500E+03  0.73882842165E+03  0.94707109224E+03  0.50400001928E-02 0. -1.
</event>
<event>
 5   0  0.7553070E-04  0.1587049E+04  0.7818609E-02  0.8828544E-01
       -2   -1    0    0    0  501  0.00000000000E+00  0.00000000000E+00  0.75280790604E+03  0.75280790605E+03  0.25500000920E-02 0. -1.
        2   -1    0    0  501    0  0.00000000000E+00  0.00000000000E+00 -0.83644321686E+03  0.83644321686E+03  0.25500000920E-02 0.  1.
    10030    2    1    2    0    0  0.00000000000E+00  0.00000000000E+00 -0.83635310815E+02  0.15892511229E+04  0.15870489175E+04 0.  0.
        4    1    3    3  502    0  0.61017008623E+03 -0.45129475864E+03  0.19024722113E+03  0.78241300562E+03  0.12699999809E+01 0. -1.
       -4    1    3    3    0  502 -0.61017008623E+03  0.45129475864E+03 -0.27388253194E+03  0.80683811729E+03  0.12699999809E+01 0.  1.
</event>
<event>
 5   0  0.3889847E-04  0.1589513E+04  0.7818609E-02  0.8827016E-01
        1   -1    0    0  501    0  0.00000000000E+00  0.00000000000E+00  0.23376685347E+04  0.23376685347E+04  0.50400001928E-02 0. -1.
       -1   -1    0    0    0  501  0.00000000000E+00  0.00000000000E+00 -0.27020006152E+03  0.27020006157E+03  0.50400001928E-02 0.  1.
    10030    2    1    2    0    0  0.00000000000E+00  0.00000000000E+00  0.20674684731E+04  0.26078685962E+04  0.15895133619E+04 0.  0.
        1    1    3    3  502    0  0.11739840036E+03  0.20392594414E+02 -0.25546156031E+03  0.28188446416E+03  0.50400001928E-02 0.  1.
       -1    1    3    3    0  502 -0.11739840036E+03 -0.20392594414E+02  0.23229300335E+04  0.23259841321E+04  0.50400001928E-02 0. -1.
</event>
<event>
 5   0  0.7395088E-04  0.1597882E+04  0.7818609E-02  0.8821850E-01
        2   -1    0    0  501    0  0.00000000000E+00  0.00000000000E+00  0.19174365002E+04  0.19174365002E+04  0.25500000920E-02 0. -1.
       -2   -1    0    0    0  501  0.00000000000E+00  0.00000000000E+00 -0.33289606338E+03  0.33289606339E+03  0.25500000920E-02 0.  1.
    10030    2    1    2    0    0  0.00000000000E+00  0.00000000000E+00  0.15845404369E+04  0.22503325636E+04  0.15978824271E+04 0.  0.
        1    1    3    3  502    0  0.26520544136E+03 -0.49107029973E+03 -0.12845406076E+02  0.55825529097E+03  0.50400001928E-02 0.  1.
       -1    1    3    3    0  502 -0.26520544136E+03  0.49107029973E+03  0.15973858429E+04  0.16920772727E+04  0.50400001928E-02 0. -1.
</event>
<event>
 5   0  0.7553070E-04  0.1598817E+04  0.7818609E-02  0.8821275E-01
       -2   -1    0    0    0  501  0.00000000000E+00  0.00000000000E+00  0.73944871281E+03  0.73944871281E+03  0.25500000920E-02 0. -1.
        2   -1    0    0  501    0  0.00000000000E+00  0.00000000000E+00 -0.86423072411E+03  0.86423072411E+03  0.25500000920E-02 0.  1.
    10030    2    1    2    0    0  0.00000000000E+00  0.00000000000E+00 -0.12478201130E+03  0.16036794369E+04  0.15988174336E+04 0.  0.
        4    1    3    3  502    0  0.63022464771E+03  0.48782426509E+03 -0.12500730862E+03  0.80671188184E+03  0.12699999809E+01 0. -1.
       -4    1    3    3    0  502 -0.63022464771E+03 -0.48782426509E+03  0.22529731398E+00  0.79696755508E+03  0.12699999809E+01 0.  1.
</event>
<event>
 5   0  0.7415102E-04  0.1574227E+04  0.7818609E-02  0.8836540E-01
        2   -1    0    0  501    0  0.00000000000E+00  0.00000000000E+00  0.11550791743E+04  0.11550791743E+04  0.25500000920E-02 0. -1.
       -2   -1    0    0    0  501  0.00000000000E+00  0.00000000000E+00 -0.53636804360E+03  0.53636804361E+03  0.25500000920E-02 0.  1.
    10030    2    1    2    0    0  0.00000000000E+00  0.00000000000E+00  0.61871113069E+03  0.16914472179E+04  0.15742268667E+04 0.  0.
        5    1    3    3  502    0  0.51512706133E+03 -0.53040023212E+03  0.19359894470E+02  0.73964666636E+03  0.46999998093E+01 0.  1.
       -5    1    3    3    0  502 -0.51512706133E+03  0.53040023212E+03  0.59935123622E+03  0.95180055154E+03  0.46999998093E+01 0. -1.
</event>
<event>
 5   0  0.7395088E-04  0.1588351E+04  0.7818609E-02  0.8827736E-01
        2   -1    0    0  501    0  0.00000000000E+00  0.00000000000E+00  0.18234249922E+04  0.18234249922E+04  0.25500000920E-02 0.  1.
       -2   -1    0    0    0  501  0.00000000000E+00  0.00000000000E+00 -0.34589567643E+03  0.34589567644E+03  0.25500000920E-02 0. -1.
    10030    2    1    2    0    0  0.00000000000E+00  0.00000000000E+00  0.14775293158E+04  0.21693206687E+04  0.15883511213E+04 0.  0.
        1    1    3    3  502    0  0.52795767454E+03  0.58610709291E+03  0.86434108471E+03  0.11701907286E+04  0.50400001928E-02 0.  1.
       -1    1    3    3    0  502 -0.52795767454E+03 -0.58610709291E+03  0.61318823109E+03  0.99912994012E+03  0.50400001928E-02 0. -1.
</event>
<event>
 5   0  0.7415102E-04  0.1588877E+04  0.7818609E-02  0.8827411E-01
        2   -1    0    0  501    0  0.00000000000E+00  0.00000000000E+00  0.10338848448E+04  0.10338848448E+04  0.25500000920E-02 0. -1.
       -2   -1    0    0    0  501  0.00000000000E+00  0.00000000000E+00 -0.61044768560E+03  0.61044768561E+03  0.25500000920E-02 0.  1.
    10030    2    1    2    0    0  0.00000000000E+00  0.00000000000E+00  0.42343715921E+03  0.16443325304E+04  0.15888771012E+04 0.  0.
        5    1    3    3  502    0 -0.75205697787E+03 -0.25586130789E+03  0.20398696184E+03  0.82017527239E+03  0.46999998093E+01 0.  1.
       -5    1    3    3    0  502  0.75205697787E+03  0.25586130789E+03  0.21945019737E+03  0.82415725803E+03  0.46999998093E+01 0. -1.
</event>
<event>
 5   0  0.7395088E-04  0.1622109E+04  0.7818609E-02  0.8807080E-01
       -2   -1    0    0    0  501  0.00000000000E+00  0.00000000000E+00  0.53200086505E+03  0.53200086506E+03  0.25500000920E-02 0.  1.
        2   -1    0    0  501    0  0.00000000000E+00  0.00000000000E+00 -0.12364818819E+04  0.12364818819E+04  0.25500000920E-02 0. -1.
    10030    2    1    2    0    0  0.00000000000E+00  0.00000000000E+00 -0.70448101687E+03  0.17684827470E+04  0.16221090356E+04 0.  0.
        1    1    3    3  502    0 -0.39992598336E+03  0.35537093051E+03  0.31233912992E+03  0.61950385190E+03  0.50400001928E-02 0.  1.
       -1    1    3    3    0  502  0.39992598336E+03 -0.35537093051E+03 -0.10168201468E+04  0.11489788951E+04  0.50400001928E-02 0. -1.
</event>
<event>
 5   0  0.3837251E-04  0.1674631E+04  0.7818609E-02  0.8775967E-01
       -1   -1    0    0    0  501  0.00000000000E+00  0.00000000000E+00  0.39832756820E+03  0.39832756823E+03  0.50400001928E-02 0. -1.
        1   -1    0    0  501    0  0.00000000000E+00  0.00000000000E+00 -0.17601016941E+04  0.17601016941E+04  0.50400001928E-02 0.  1.
    10030    2    1    2    0    0  0.00000000000E+00  0.00000000000E+00 -0.13617741259E+04  0.21584292624E+04  0.16746307386E+04 0.  0.
        4    1    3    3  502    0 -0.40321466665E+03  0.12826186550E+03 -0.16121662633E+04  0.16667677844E+04  0.12699999809E+01 0.  1.
       -4    1    3    3    0  502  0.40321466665E+03 -0.12826186550E+03  0.25039213741E+03  0.49166147797E+03  0.12699999809E+01 0. -1.
</event>
<event>
 5   0  0.3973227E-04  0.1613580E+04  0.7818609E-02  0.8812249E-01
        1   -1    0    0  501    0  0.00000000000E+00  0.00000000000E+00  0.11745267817E+04  0.11745267817E+04  0.50400001928E-02 0.  1.
       -1   -1    0    0    0  501  0.00000000000E+00  0.00000000000E+00 -0.55418904494E+03  0.55418904496E+03  0.50400001928E-02 0. -1.
    10030    2    1    2    0    0  0.00000000000E+00  0.00000000000E+00  0.62033773680E+03  0.17287158267E+04  0.16135797166E+04 0.  0.
        3    1    3    3  502    0  0.46940901339E+03 -0.38500606252E+03 -0.25909789768E+03  0.66008046541E+03  0.10100000352E+00 0. -1.
       -3    1    3    3    0  502 -0.46940901339E+03  0.38500606252E+03  0.87943563448E+03  0.10686353613E+04  0.10100000352E+00 0.  1.
</event>
<event>
 5   0  0.7395088E-04  0.1588918E+04  0.7818609E-02  0.8827385E-01
       -2   -1    0    0    0  501  0.00000000000E+00  0.00000000000E+00  0.53379532410E+03  0.53379532411E+03  0.25500000920E-02 0.  1.
        2   -1    0    0  501    0  0.00000000000E+00  0.00000000000E+00 -0.11824097231E+04  0.11824097231E+04  0.25500000920E-02 0. -1.
    10030    2    1    2    0    0  0.00000000000E+00  0.00000000000E+00 -0.64861439904E+03  0.17162050473E+04  0.15889175956E+04 0.  0.
        1    1    3    3  502    0  0.35092166400E+02 -0.70379664158E+03  0.71967323480E+02  0.70833640914E+03  0.50400001928E-02 0.  1.
       -1    1    3    3    0  502 -0.35092166400E+02  0.70379664158E+03 -0.72058172252E+03  0.10078686381E+04  0.50400001928E-02 0. -1.
</event>
<event>
 5   0  0.3950195E-04  0.1590601E+04  0.7818609E-02  0.8826343E-01
       -1   -1    0    0    0  501  0.00000000000E+00  0.00000000000E+00  0.87931475035E+03  0.87931475036E+03  0.50400001928E-02 0. -1.
        1   -1    0    0  501    0  0.00000000000E+00  0.00000000000E+00 -0.71931308091E+03  0.71931308093E+03  0.50400001928E-02 0.  1.
    10030    2    1    2    0    0  0.00000000000E+00  0.00000000000E+00  0.16000166944E+03  0.15986278313E+04  0.15906006440E+04 0.  0.
        2    1    3    3  502    0  0.64513922625E+03  0.21075278580E+03  0.49667872826E+03  0.84101790533E+03  0.25500000920E-02 0. -1.
       -2    1    3    3    0  502 -0.64513922625E+03 -0.21075278580E+03 -0.33667705882E+03  0.75760992596E+03  0.25500000920E-02 0.  1.
</event>
<event>
 5   0  0.7770905E-04  0.1615395E+04  0.7818609E-02  0.8811145E-01
       -2   -1    0    0    0  501  0.00000000000E+00  0.00000000000E+00  0.81660851942E+03  0.81660851942E+03  0.25500000920E-02 0.  1.
        2   -1    0    0  501    0  0.00000000000E+00  0.00000000000E+00 -0.79888414868E+03  0.79888414868E+03  0.25500000920E-02 0. -1.
    10030    2    1    2    0    0  0.00000000000E+00  0.00000000000E+00  0.17724370738E+02  0.16154926681E+04  0.16153954338E+04 0.  0.
        2    1    3    3  502    0 -0.43058310431E+03 -0.29950556944E+03 -0.60539804033E+03  0.80100698067E+03  0.25500000920E-02 0. -1.
       -2    1    3    3    0  502  0.43058310431E+03  0.29950556944E+03  0.62312241107E+03  0.81448568743E+03  0.25500000920E-02 0.  1.
</event>
<event>
 5   0  0.3837251E-04  0.1633937E+04  0.7818609E-02  0.8799966E-01
       -1   -1    0    0    0  501  0.00000000000E+00  0.00000000000E+00  0.71831645728E+03  0.71831645730E+03  0.50400001928E-02 0.  1.
        1   -1    0    0  501    0  0.00000000000E+00  0.00000000000E+00 -0.92916957064E+03  0.92916957066E+03  0.50400001928E-02 0. -1.
    10030    2    1    2    0    0  0.00000000000E+00  0.00000000000E+00 -0.21085311336E+03  0.16474860280E+04  0.16339373234E+04 0.  0.
        4    1    3    3  502    0 -0.60565945167E+02  0.70035232467E+03  0.31428773764E+03  0.77002597834E+03  0.12699999809E+01 0.  1.
       -4    1    3    3    0  502  0.60565945167E+02 -0.70035232467E+03 -0.52514085100E+03  0.87746004962E+03  0.12699999809E+01 0. -1.
</event>
<event>
 5   0  0.7415102E-04  0.1597954E+04  0.7818609E-02  0.8821806E-01
        2   -1    0    0  501    0  0.00000000000E+00  0.00000000000E+00  0.14733319353E+04  0.14733319353E+04  0.25500000920E-02 0. -1.
       -2   -1    0    0    0  501  0.00000000000E+00  0.00000000000E+00 -0.43327907583E+03  0.43327907584E+03  0.25500000920E-02 0.  1.
    10030    2    1    2    0    0  0.00000000000E+00  0.00000000000E+00  0.10400528594E+04  0.19066110111E+04  0.15979535654E+04 0.  0.
        5    1    3    3  502    0  0.34910269687E+03 -0.71865232220E+03  0.51666092711E+03  0.95146962997E+03  0.46999998093E+01 0. -1.
       -5    1    3    3    0  502 -0.34910269687E+03  0.71865232220E+03  0.52339193234E+03  0.95514138115E+03  0.46999998093E+01 0.  1.
</event>
<event>
 5   0  0.3837251E-04  0.1169792E+04  0.7818609E-02  0.9139716E-01
        1   -1    0    0  501    0  0.00000000000E+00  0.00000000000E+00  0.16368647394E+04  0.16368647394E+04  0.50400001928E-02 0.  1.
       -1   -1    0    0    0  501  0.00000000000E+00  0.00000000000E+00 -0.20899926001E+03  0.20899926007E+03  0.50400001928E-02 0. -1.
    10030    2    1    2    0    0  0.00000000000E+00  0.00000000000E+00  0.14278654794E+04  0.18458639995E+04  0.11697923223E+04 0.  0.
        4    1    3    3  502    0  0.19074287631E+03  0.44387303916E+03  0.19370046957E+03  0.52050706486E+03  0.12699999809E+01 0. -1.
       -4    1    3    3    0  502 -0.19074287631E+03 -0.44387303916E+03  0.12341650099E+04  0.13253569347E+04  0.12699999809E+01 0.  1.
</event>
<event>
 5   0  0.7395088E-04  0.1632400E+04  0.7818609E-02  0.8800887E-01
        2   -1    0    0  501    0  0.00000000000E+00  0.00000000000E+00  0.16509280971E+04  0.16509280971E+04  0.25500000920E-02 0. -1.
       -2   -1    0    0    0  501  0.00000000000E+00  0.00000000000E+00 -0.40352013267E+03  0.40352013268E+03  0.25500000920E-02 0.  1.
    10030    2    1    2    0    0  0.00000000000E+00  0.00000000000E+00  0.12474079644E+04  0.20544482298E+04  0.16324003489E+04 0.  0.
        1    1    3    3  502    0  0.32570084206E+03 -0.23587496168E+03  0.15175936327E+04  0.15699708501E+04  0.50400001928E-02 0. -1.
       -1    1    3    3    0  502 -0.32570084206E+03  0.23587496168E+03 -0.27018566827E+03  0.48447737969E+03  0.50400001928E-02 0.  1.
</event>
<event>
 5   0  0.3950195E-04  0.1600973E+04  0.7818609E-02  0.8819951E-01
       -1   -1    0    0    0  501  0.00000000000E+00  0.00000000000E+00  0.10530997671E+04  0.10530997671E+04  0.50400001928E-02 0. -1.
        1   -1    0    0  501    0  0.00000000000E+00  0.00000000000E+00 -0.60846875973E+03  0.60846875975E+03  0.50400001928E-02 0.  1.
    10030    2    1    2    0    0  0.00000000000E+00  0.00000000000E+00  0.44463100740E+03  0.16615685269E+04  0.16009725909E+04 0.  0.
        2    1    3    3  502    0  0.31170862353E+03 -0.72632625527E+03  0.90765417831E+02  0.79558183499E+03  0.25500000920E-02 0. -1.
       -2    1    3    3    0  502 -0.31170862353E+03  0.72632625527E+03  0.35386558957E+03  0.86598669191E+03  0.25500000920E-02 0.  1.
</event>
<event>
 5   0  0.3950195E-04  0.1500035E+04  0.7818609E-02  0.8884430E-01
        1   -1    0    0  501    0  0.00000000000E+00  0.00000000000E+00  0.83394165212E+03  0.83394165213E+03  0.50400001928E-02 0. -1.
       -1   -1    0    0    0  501  0.00000000000E+00  0.00000000000E+00 -0.67453879739E+03  0.67453879741E+03  0.50400001928E-02 0.  1.
    10030    2    1    2    0    0  0.00000000000E+00  0.00000000000E+00  0.15940285473E+03  0.15084804495E+04  0.15000346651E+04 0.  0.
        2    1    3    3  502    0 -0.58016620691E+03 -0.30556993104E+03  0.44583954740E+03  0.79293045876E+03  0.25500000920E-02 0. -1.
       -2    1    3    3    0  502  0.58016620691E+03  0.30556993104E+03 -0.28643669267E+03  0.71554999078E+03  0.25500000920E-02 0.  1.
</event>
<event>
 5   0  0.3973227E-04  0.1557178E+04  0.7818609E-02  0.8847296E-01
        1   -1    0    0  501    0  0.00000000000E+00  0.00000000000E+00  0.97484818922E+03  0.97484818923E+03  0.50400001928E-02 0. -1.
       -1   -1    0    0    0  501  0.00000000000E+00  0.00000000000E+00 -0.62184111485E+03  0.62184111487E+03  0.50400001928E-02 0.  1.
    10030    2    1    2    0    0  0.00000000000E+00  0.00000000000E+00  0.35300707437E+03  0.15966893041E+04  0.15571778124E+04 0.  0.
        3    1    3    3  502    0  0.48590637477E+03 -0.32591777978E+03  0.70322365811E+03  0.91479556609E+03  0.10100000352E+00 0. -1.
       -3    1    3    3    0  502 -0.48590637477E+03  0.32591777978E+03 -0.35021658374E+03  0.68189373801E+03  0.10100000352E+00 0.  1.
</event>
<event>
 5   0  0.4110803E-04  0.1594631E+04  0.7818609E-02  0.8823853E-01
       -1   -1    0    0    0  501  0.00000000000E+00  0.00000000000E+00  0.30463905462E+03  0.30463905467E+03  0.50400001928E-02 0. -1.
        1   -1    0    0  501    0  0.00000000000E+00  0.00000000000E+00 -0.20867721913E+04  0.20867721913E+04  0.50400001928E-02 0.  1.
    10030    2    1    2    0    0  0.00000000000E+00  0.00000000000E+00 -0.17821331366E+04  0.23914112459E+04  0.15946313776E+04 0.  0.
        5    1    3    3  502    0 -0.27458866610E+03 -0.62403405523E+03 -0.15109790837E+04  0.16576782917E+04  0.46999998093E+01 0. -1.
       -5    1    3    3    0  502  0.27458866610E+03  0.62403405523E+03 -0.27115405298E+03  0.73373295420E+03  0.46999998093E+01 0.  1.
</event>
<event>
 5   0  0.3837251E-04  0.1611036E+04  0.7818609E-02  0.8813797E-01
       -1   -1    0    0    0  501  0.00000000000E+00  0.00000000000E+00  0.97582438452E+03  0.97582438454E+03  0.50400001928E-02 0.  1.
        1   -1    0    0  501    0  0.00000000000E+00  0.00000000000E+00 -0.66493435164E+03  0.66493435166E+03  0.50400001928E-02 0. -1.
    10030    2    1    2    0    0  0.00000000000E+00  0.00000000000E+00  0.31089003288E+03  0.16407587362E+04  0.16110358835E+04 0.  0.
        4    1    3    3  502    0  0.79335268700E+03 -0.13666661708E+03  0.18372953223E+03  0.82573870208E+03  0.12699999809E+01 0. -1.
       -4    1    3    3    0  502 -0.79335268700E+03  0.13666661708E+03  0.12716050066E+03  0.81502003412E+03  0.12699999809E+01 0.  1.
</event>
<event>
 5   0  0.7553070E-04  0.1591062E+04  0.7818609E-02  0.8826058E-01
        2   -1    0    0  501    0  0.00000000000E+00  0.00000000000E+00  0.74997254645E+03  0.74997254646E+03  0.25500000920E-02 0. -1.
       -2   -1    0    0    0  501  0.00000000000E+00  0.00000000000E+00 -0.84385735581E+03  0.84385735581E+03  0.25500000920E-02 0.  1.
    10030    2    1    2    0    0  0.00000000000E+00  0.00000000000E+00 -0.93884809357E+02  0.15938299023E+04  0.15910623495E+04 0.  0.
        4    1    3    3  502    0 -0.31615474580E+03 -0.89372313448E+02 -0.77272112204E+03  0.83966706440E+03  0.12699999809E+01 0.  1.
       -4    1    3    3    0  502  0.31615474580E+03  0.89372313448E+02  0.67883631268E+03  0.75416283787E+03  0.12699999809E+01 0. -1.
</event>
<event>
 5   0  0.7395088E-04  0.1386451E+04  0.7818609E-02  0.8963685E-01
       -2   -1    0    0    0  501  0.00000000000E+00  0.00000000000E+00  0.24983861291E+03  0.24983861292E+03  0.25500000920E-02 0. -1.
        2   -1    0    0  501    0  0.00000000000E+00  0.00000000000E+00 -0.19234880337E+04  0.19234880337E+04  0.25500000920E-02 0.  1.
    10030    2    1    2    0    0  0.00000000000E+00  0.00000000000E+00 -0.16736494208E+04  0.21733266467E+04  0.13864509834E+04 0.  0.
        1    1    3    3  502    0  0.55990112686E+03 -0.23324196439E+03 -0.13629941118E+04  0.14918592543E+04  0.50400001928E-02 0. -1.
       -1    1    3    3    0  502 -0.55990112686E+03  0.23324196439E+03 -0.31065530905E+03  0.68146739238E+03  0.50400001928E-02 0.  1.
</event>
<event>
 5   0  0.7415102E-04  0.1600372E+04  0.7818609E-02  0.8820320E-01
        2   -1    0    0  501    0  0.00000000000E+00  0.00000000000E+00  0.84677110731E+03  0.84677110731E+03  0.25500000920E-02 0. -1.
       -2   -1    0    0    0  501  0.00000000000E+00  0.00000000000E+00 -0.75616376294E+03  0.75616376295E+03  0.25500000920E-02 0.  1.
    10030    2    1    2    0    0  0.00000000000E+00  0.00000000000E+00  0.90607344366E+02  0.16029348703E+04  0.16003719903E+04 0.  0.
        5    1    3    3  502    0  0.67071082178E+03 -0.18329005938E+03 -0.35134476388E+03  0.77904652327E+03  0.46999998093E+01 0. -1.
       -5    1    3    3    0  502 -0.67071082178E+03  0.18329005938E+03  0.44195210824E+03  0.82388834699E+03  0.46999998093E+01 0.  1.
</event>
<event>
 5   0  0.7770905E-04  0.1612995E+04  0.7818609E-02  0.8812604E-01
       -2   -1    0    0    0  501  0.00000000000E+00  0.00000000000E+00  0.41173147662E+03  0.41173147663E+03  0.25500000920E-02 0.  1.
        2   -1    0    0  501    0  0.00000000000E+00  0.00000000000E+00 -0.15797624976E+04  0.15797624976E+04  0.25500000920E-02 0. -1.
    10030    2    1    2    0    0  0.00000000000E+00  0.00000000000E+00 -0.11680310210E+04  0.19914939742E+04  0.16129946632E+04 0.  0.
        2    1    3    3  502    0  0.52852778491E+02 -0.37121572634E+03 -0.14656010808E+04  0.15128056913E+04  0.25500000920E-02 0. -1.
       -2    1    3    3    0  502 -0.52852778491E+02  0.37121572634E+03  0.29757005982E+03  0.47868828290E+03  0.25500000920E-02 0.  1.
</event>
<event>
 5   0  0.3950195E-04  0.1520998E+04  0.7818609E-02  0.8870608E-01
       -1   -1    0    0    0  501  0.00000000000E+00  0.00000000000E+00  0.65046803585E+03  0.65046803587E+03  0.50400001928E-02 0. -1.
        1   -1    0    0  501    0  0.00000000000E+00  0.00000000000E+00 -0.88914236103E+03  0.88914236104E+03  0.50400001928E-02 0.  1.
    10030    2    1    2    0    0  0.00000000000E+00  0.00000000000E+00 -0.23867432518E+03  0.15396103969E+04  0.15209979424E+04 0.  0.
        2    1    3    3  502    0  0.56729522482E+03  0.49324442625E+02  0.39091655258E+03  0.69070436789E+03  0.25500000920E-02 0. -1.
       -2    1    3    3    0  502 -0.56729522482E+03 -0.49324442625E+02 -0.62959087775E+03  0.84890602902E+03  0.25500000920E-02 0.  1.
</event>
<event>
 5   0  0.3889847E-04  0.1596760E+04  0.7818609E-02  0.8822541E-01
        1   -1    0    0  501    0  0.00000000000E+00  0.00000000000E+00  0.14286771506E+04  0.14286771506E+04  0.50400001928E-02 0.  1.
       -1   -1    0    0    0  501  0.00000000000E+00  0.00000000000E+00 -0.44615456873E+03  0.44615456876E+03  0.50400001928E-02 0. -1.
    10030    2    1    2    0    0  0.00000000000E+00  0.00000000000E+00  0.98252258191E+03  0.18748317194E+04  0.15967602676E+04 0.  0.
        1    1    3    3  502    0 -0.18097093889E+02  0.73925588223E+03  0.13787597534E+03  0.75222107709E+03  0.50400001928E-02 0. -1.
       -1    1    3    3    0  502  0.18097093889E+02 -0.73925588223E+03  0.84464660657E+03  0.11226106423E+04  0.50400001928E-02 0.  1.
</event>
<event>
 5   0  0.7415102E-04  0.1579526E+04  0.7818609E-02  0.8833226E-01
        2   -1    0    0  501    0  0.00000000000E+00  0.00000000000E+00  0.88598569525E+03  0.88598569526E+03  0.25500000920E-02 0.  1.
       -2   -1    0    0    0  501  0.00000000000E+00  0.00000000000E+00 -0.70399053210E+03  0.70399053210E+03  0.25500000920E-02 0. -1.
    10030    2    1    2    0    0  0.00000000000E+00  0.00000000000E+00  0.18199516316E+03  0.15899762274E+04  0.15795259302E+04 0.  0.
        5    1    3    3  502    0 -0.16751070672E+03  0.28675772537E+03 -0.63027191281E+03  0.71242866590E+03  0.46999998093E+01 0. -1.
       -5    1    3    3    0  502  0.16751070672E+03 -0.28675772537E+03  0.81226707597E+03  0.87754756146E+03  0.46999998093E+01 0.  1.
</event>
<event>
 5   0  0.7395088E-04  0.1605612E+04  0.7818609E-02  0.8817108E-01
       -2   -1    0    0    0  501  0.00000000000E+00  0.00000000000E+00  0.39226541946E+03  0.39226541947E+03  0.25500000920E-02 0.  1.
        2   -1    0    0  501    0  0.00000000000E+00  0.00000000000E+00 -0.16430134500E+04  0.16430134500E+04  0.25500000920E-02 0. -1.
    10030    2    1    2    0    0  0.00000000000E+00  0.00000000000E+00 -0.12507480306E+04  0.20352788695E+04  0.16056118587E+04 0.  0.
        1    1    3    3  502    0 -0.12196818930E+03 -0.76249824311E+03 -0.34702741114E+03  0.84658598740E+03  0.50400001928E-02 0.  1.
       -1    1    3    3    0  502  0.12196818930E+03  0.76249824311E+03 -0.90372061943E+03  0.11886928821E+04  0.50400001928E-02 0. -1.
</event>
<event>
 5   0  0.4110803E-04  0.1593379E+04  0.7818609E-02  0.8824626E-01
        1   -1    0    0  501    0  0.00000000000E+00  0.00000000000E+00  0.38314946245E+03  0.38314946248E+03  0.50400001928E-02 0. -1.
       -1   -1    0    0    0  501  0.00000000000E+00  0.00000000000E+00 -0.16565701118E+04  0.16565701118E+04  0.50400001928E-02 0.  1.
    10030    2    1    2    0    0  0.00000000000E+00  0.00000000000E+00 -0.12734206494E+04  0.20397195743E+04  0.15933787345E+04 0.  0.
        5    1    3    3  502    0  0.54513792459E+03 -0.41736818823E+03 -0.11540449262E+04  0.13428377948E+04  0.46999998093E+01 0. -1.
       -5    1    3    3    0  502 -0.54513792459E+03  0.41736818823E+03 -0.11937572316E+03  0.69688177953E+03  0.46999998093E+01 0.  1.
</event>
<event>
 5   0  0.3973227E-04  0.1501815E+04  0.7818609E-02  0.8883247E-01
        1   -1    0    0  501    0  0.00000000000E+00  0.00000000000E+00  0.80956948878E+03  0.80956948880E+03  0.50400001928E-02 0. -1.
       -1   -1    0    0    0  501  0.00000000000E+00  0.00000000000E+00 -0.69649590523E+03  0.69649590525E+03  0.50400001928E-02 0.  1.
    10030    2    1    2    0    0  0.00000000000E+00  0.00000000000E+00  0.11307358355E+03  0.15060653940E+04  0.15018146809E+04 0.  0.
        3    1    3    3  502    0  0.45275797888E+03  0.24107987971E+02  0.65680499290E+03  0.79810011366E+03  0.10100000352E+00 0. -1.
       -3    1    3    3    0  502 -0.45275797888E+03 -0.24107987971E+02 -0.54373140934E+03  0.70796528039E+03  0.10100000352E+00 0.  1.
</event>
<event>
 5   0  0.7415102E-04  0.1563768E+04  0.7818609E-02  0.8843121E-01
       -2   -1    0    0    0  501  0.00000000000E+00  0.00000000000E+00  0.11107213670E+04  0.11107213670E+04  0.25500000920E-02 0.  1.
        2   -1    0    0  501    0  0.00000000000E+00  0.00000000000E+00 -0.55040104869E+03  0.55040104870E+03  0.25500000920E-02 0. -1.
    10030    2    1    2    0    0  0.00000000000E+00  0.00000000000E+00  0.56032031830E+03  0.16611224157E+04  0.15637675086E+04 0.  0.
        5    1    3    3  502    0  0.91771509798E+02  0.74180193842E+03  0.52385023471E+03  0.91276135121E+03  0.46999998093E+01 0.  1.
       -5    1    3    3    0  502 -0.91771509798E+02 -0.74180193842E+03  0.36470083598E+02  0.74836106450E+03  0.46999998093E+01 0. -1.
</event>
<event>
 5   0  0.3973227E-04  0.1639505E+04  0.7818609E-02  0.8796640E-01
        1   -1    0    0  501    0  0.00000000000E+00  0.00000000000E+00  0.13399988439E+04  0.13399988439E+04  0.50400001928E-02 0.  1.
       -1   -1    0    0    0  501  0.00000000000E+00  0.00000000000E+00 -0.50148857463E+03  0.50148857466E+03  0.50400001928E-02 0. -1.
    10030    2    1    2    0    0  0.00000000000E+00  0.00000000000E+00  0.83851026923E+03  0.18414874185E+04  0.16395049378E+04 0.  0.
        3    1    3    3  502    0 -0.80934779325E+02  0.16018927548E+03 -0.47915035002E+03  0.51166015147E+03  0.10100000352E+00 0. -1.
       -3    1    3    3    0  502  0.80934779325E+02 -0.16018927548E+03  0.13176606192E+04  0.13298272670E+04  0.10100000352E+00 0.  1.
</event>
<event>
 5   0  0.7415102E-04  0.1612343E+04  0.7818609E-02  0.8813001E-01
       -2   -1    0    0    0  501  0.00000000000E+00  0.00000000000E+00  0.82097468473E+03  0.82097468473E+03  0.25500000920E-02 0.  1.
        2   -1    0    0  501    0  0.00000000000E+00  0.00000000000E+00 -0.79163506220E+03  0.79163506221E+03  0.25500000920E-02 0. -1.
    10030    2    1    2    0    0  0.00000000000E+00  0.00000000000E+00  0.29339622526E+02  0.16126097469E+04  0.16123428241E+04 0.  0.
        5    1    3    3  502    0 -0.72995391153E+03  0.29052716722E+03 -0.16605738522E+03  0.80301674518E+03  0.46999998093E+01 0.  1.
       -5    1    3    3    0  502  0.72995391153E+03 -0.29052716722E+03  0.19539700775E+03  0.80959300176E+03  0.46999998093E+01 0. -1.
</event>
<event>
 5   0  0.3950195E-04  0.1497306E+04  0.7818609E-02  0.8886247E-01
        1   -1    0    0  501    0  0.00000000000E+00  0.00000000000E+00  0.58639797024E+03  0.58639797026E+03  0.50400001928E-02 0. -1.
       -1   -1    0    0    0  501  0.00000000000E+00  0.00000000000E+00 -0.95580314197E+03  0.95580314199E+03  0.50400001928E-02 0.  1.
    10030    2    1    2    0    0  0.00000000000E+00  0.00000000000E+00 -0.36940517174E+03  0.15422011122E+04  0.14973056100E+04 0.  0.
        2    1    3    3  502    0 -0.19500886506E+03  0.30026243261E+03  0.49250323876E+03  0.60888868119E+03  0.25500000920E-02 0. -1.
       -2    1    3    3    0  502  0.19500886506E+03 -0.30026243261E+03 -0.86190841049E+03  0.93331243106E+03  0.25500000920E-02 0.  1.
</event>
<event>
 5   0  0.7395088E-04  0.1610774E+04  0.7818609E-02  0.8813956E-01
       -2   -1    0    0    0  501  0.00000000000E+00  0.00000000000E+00  0.53818167336E+03  0.53818167337E+03  0.25500000920E-02 0.  1.
        2   -1    0    0  501    0  0.00000000000E+00  0.00000000000E+00 -0.12052589706E+04  0.12052589706E+04  0.25500000920E-02 0. -1.
    10030    2    1    2    0    0  0.00000000000E+00  0.00000000000E+00 -0.66707729721E+03  0.17434406439E+04  0.16107740867E+04 0.  0.
        1    1    3    3  502    0 -0.17728735923E+03 -0.78547304924E+03 -0.31643970027E+03  0.86517790237E+03  0.50400001928E-02 0.  1.
       -1    1    3    3    0  502  0.17728735923E+03  0.78547304924E+03 -0.35063759694E+03  0.87826274157E+03  0.50400001928E-02 0. -1.
</event>
<event>
 5   0  0.3950195E-04  0.1647618E+04  0.7818609E-02  0.8791817E-01
        1   -1    0    0  501    0  0.00000000000E+00  0.00000000000E+00  0.10723120599E+04  0.10723120600E+04  0.50400001928E-02 0. -1.
       -1   -1    0    0    0  501  0.00000000000E+00  0.00000000000E+00 -0.63289507863E+03  0.63289507865E+03  0.50400001928E-02 0.  1.
    10030    2    1    2    0    0  0.00000000000E+00  0.00000000000E+00  0.43941698132E+03  0.17052071386E+04  0.16476177051E+04 0.  0.
        2    1    3    3  502    0 -0.73324969499E+03  0.16757207266E+03  0.56749819688E+03  0.94222593798E+03  0.25500000920E-02 0.  1.
       -2    1    3    3    0  502  0.73324969499E+03 -0.16757207266E+03 -0.12808121556E+03  0.76298120063E+03  0.25500000920E-02 0. -1.
</event>
<event>
 5   0  0.7553070E-04  0.1602752E+04  0.7818609E-02  0.8818859E-01
        2   -1    0    0  501    0  0.00000000000E+00  0.00000000000E+00  0.11902930019E+04  0.11902930019E+04  0.25500000920E-02 0. -1.
       -2   -1    0    0    0  501  0.00000000000E+00  0.00000000000E+00 -0.53953391495E+03  0.53953391496E+03  0.25500000920E-02 0.  1.
    10030    2    1    2    0    0  0.00000000000E+00  0.00000000000E+00  0.65075908692E+03  0.17298269168E+04  0.16027519374E+04 0.  0.
        4    1    3    3  502    0 -0.34814391210E+03 -0.11233494453E+03  0.10949172963E+04  0.11544127606E+04  0.12699999809E+01 0. -1.
       -4    1    3    3    0  502  0.34814391210E+03  0.11233494453E+03 -0.44415820937E+03  0.57541415619E+03  0.12699999809E+01 0.  1.
</event>
<event>
 5   0  0.3837251E-04  0.1541902E+04  0.7818609E-02  0.8857057E-01
        1   -1    0    0  501    0  0.00000000000E+00  0.00000000000E+00  0.76058684573E+03  0.76058684575E+03  0.50400001928E-02 0.  1.
       -1   -1    0    0    0  501  0.00000000000E+00  0.00000000000E+00 -0.78145645886E+03  0.78145645888E+03  0.50400001928E-02 0. -1.
    10030    2    1    2    0    0  0.00000000000E+00  0.00000000000E+00 -0.20869613129E+02  0.15420433046E+04  0.15419020762E+04 0.  0.
        4    1    3    3  502    0  0.12269560278E+03  0.41047881795E+03 -0.65144344861E+03  0.77969689660E+03  0.12699999809E+01 0. -1.
       -4    1    3    3    0  502 -0.12269560278E+03 -0.41047881795E+03  0.63057383549E+03  0.76234640802E+03  0.12699999809E+01 0.  1.
</event>
<event>
 5   0  0.2781000E-04  0.1567258E+04  0.7818609E-02  0.8840919E-01
        4   -1    0    0  501    0  0.00000000000E+00  0.00000000000E+00  0.82475690405E+03  0.82475788186E+03  0.12699999809E+01 0.  1.
       -4   -1    0    0    0  501  0.00000000000E+00  0.00000000000E+00 -0.74455026358E+03  0.74455134672E+03  0.12699999809E+01 0. -1.
    10030    2    1    2    0    0  0.00000000000E+00  0.00000000000E+00  0.80206640470E+02  0.15693092286E+04  0.15672582269E+04 0.  0.
        5    1    3    3  502    0 -0.21422330763E+03 -0.59522988161E+03  0.50316095207E+03  0.80832126731E+03  0.46999998093E+01 0.  1.
       -5    1    3    3    0  502  0.21422330763E+03  0.59522988161E+03 -0.42295431160E+03  0.76098796127E+03  0.46999998093E+01 0. -1.
</event>
<event>
 5   0  0.4110803E-04  0.1601523E+04  0.7818609E-02  0.8819613E-01
        1   -1    0    0  501    0  0.00000000000E+00  0.00000000000E+00  0.20533485381E+04  0.20533485381E+04  0.50400001928E-02 0. -1.
       -1   -1    0    0    0  501  0.00000000000E+00  0.00000000000E+00 -0.31227977821E+03  0.31227977825E+03  0.50400001928E-02 0.  1.
    10030    2    1    2    0    0  0.00000000000E+00  0.00000000000E+00  0.17410687599E+04  0.23656283164E+04  0.16015233075E+04 0.  0.
        5    1    3    3  502    0  0.36856742451E+03 -0.61259112964E+03  0.14032932541E+04  0.15749171044E+04  0.46999998093E+01 0. -1.
       -5    1    3    3    0  502 -0.36856742451E+03  0.61259112964E+03  0.33777550578E+03  0.79071121202E+03  0.46999998093E+01 0.  1.
</event>
<event>
 5   0  0.3950195E-04  0.1269088E+04  0.7818609E-02  0.9054444E-01
        1   -1    0    0  501    0  0.00000000000E+00  0.00000000000E+00  0.15700112774E+04  0.15700112774E+04  0.50400001928E-02 0.  1.
       -1   -1    0    0    0  501  0.00000000000E+00  0.00000000000E+00 -0.25646074255E+03  0.25646074260E+03  0.50400001928E-02 0. -1.
    10030    2    1    2    0    0  0.00000000000E+00  0.00000000000E+00  0.13135505348E+04  0.18264720200E+04  0.12690882681E+04 0.  0.
        2    1    3    3  502    0 -0.18054542346E+03  0.51445516704E+03  0.18956583489E+03  0.57723130077E+03  0.25500000920E-02 0. -1.
       -2    1    3    3    0  502  0.18054542346E+03 -0.51445516704E+03  0.11239846999E+04  0.12492407192E+04  0.25500000920E-02 0.  1.
</event>
<event>
 5   0  0.3973227E-04  0.1606816E+04  0.7818609E-02  0.8816372E-01
        1   -1    0    0  501    0  0.00000000000E+00  0.00000000000E+00  0.91446228253E+03  0.91446228254E+03  0.50400001928E-02 0. -1.
       -1   -1    0    0    0  501  0.00000000000E+00  0.00000000000E+00 -0.70584028130E+03  0.70584028132E+03  0.50400001928E-02 0.  1.
    10030    2    1    2    0    0  0.00000000000E+00  0.00000000000E+00  0.20862200122E+03  0.16203025639E+04  0.16068158759E+04 0.  0.
        3    1    3    3  502    0 -0.28532881043E+03 -0.69326630750E+03  0.39558418258E+03  0.84765415052E+03  0.10100000352E+00 0. -1.
       -3    1    3    3    0  502  0.28532881043E+03  0.69326630750E+03 -0.18696218136E+03  0.77264841334E+03  0.10100000352E+00 0.  1.
</event>
<event>
 5   0  0.4110803E-04  0.1584207E+04  0.7818609E-02  0.8830310E-01
       -1   -1    0    0    0  501  0.00000000000E+00  0.00000000000E+00  0.90012563909E+03  0.90012563910E+03  0.50400001928E-02 0. -1.
        1   -1    0    0  501    0  0.00000000000E+00  0.00000000000E+00 -0.69704444708E+03  0.69704444710E+03  0.50400001928E-02 0.  1.
    10030    2    1    2    0    0  0.00000000000E+00  0.00000000000E+00  0.20308119201E+03  0.15971700862E+04  0.15842065249E+04 0.  0.
        5    1    3    3  502    0  0.31182936062E+03  0.70082102754E+03 -0.97605089424E+02  0.77326354257E+03  0.46999998093E+01 0.  1.
       -5    1    3    3    0  502 -0.31182936062E+03 -0.70082102754E+03  0.30068628143E+03  0.82390654363E+03  0.46999998093E+01 0. -1.
</event>
<event>
 5   0  0.4110803E-04  0.1589551E+04  0.7818609E-02  0.8826993E-01
        1   -1    0    0  501    0  0.00000000000E+00  0.00000000000E+00  0.23239786388E+03  0.23239786394E+03  0.50400001928E-02 0. -1.
       -1   -1    0    0    0  501  0.00000000000E+00  0.00000000000E+00 -0.27180462329E+04  0.27180462329E+04  0.50400001928E-02 0.  1.
    10030    2    1    2    0    0  0.00000000000E+00  0.00000000000E+00 -0.24856483690E+04  0.29504440968E+04  0.15895510543E+04 0.  0.
        5    1    3    3  502    0  0.41367774083E+02  0.20370085376E+03 -0.26666742752E+04  0.26747671133E+04  0.46999998093E+01 0.  1.
       -5    1    3    3    0  502 -0.41367774083E+02 -0.20370085376E+03  0.18102590616E+03  0.27567698354E+03  0.46999998093E+01 0. -1.
</event>
<event>
 5   0  0.4110803E-04  0.1612047E+04  0.7818609E-02  0.8813181E-01
       -1   -1    0    0    0  501  0.00000000000E+00  0.00000000000E+00  0.72525194639E+03  0.72525194641E+03  0.50400001928E-02 0.  1.
        1   -1    0    0  501    0  0.00000000000E+00  0.00000000000E+00 -0.89579095564E+03  0.89579095565E+03  0.50400001928E-02 0. -1.
    10030    2    1    2    0    0  0.00000000000E+00  0.00000000000E+00 -0.17053900925E+03  0.16210429021E+04  0.16120473122E+04 0.  0.
        5    1    3    3  502    0 -0.72439414471E+03  0.34273417900E+03 -0.17199722755E+03  0.81964549082E+03  0.46999998093E+01 0. -1.
       -5    1    3    3    0  502  0.72439414471E+03 -0.34273417900E+03  0.14582182985E+01  0.80139741124E+03  0.46999998093E+01 0.  1.
</event>
<event>
 5   0  0.7553070E-04  0.1639049E+04  0.7818609E-02  0.8796911E-01
        2   -1    0    0  501    0  0.00000000000E+00  0.00000000000E+00  0.86003145334E+03  0.86003145334E+03  0.25500000920E-02 0.  1.
       -2   -1    0    0    0  501  0.00000000000E+00  0.00000000000E+00 -0.78092543457E+03  0.78092543457E+03  0.25500000920E-02 0. -1.
    10030    2    1    2    0    0  0.00000000000E+00  0.00000000000E+00  0.79106018768E+02  0.16409568879E+04  0.16390490370E+04 0.  0.
        4    1    3    3  502    0 -0.37109822688E+03  0.93958976492E+02  0.76501819030E+03  0.85545112523E+03  0.12699999809E+01 0.  1.
       -4    1    3    3    0  502  0.37109822688E+03 -0.93958976492E+02 -0.68591217153E+03  0.78550576269E+03  0.12699999809E+01 0. -1.
</event>
<event>
 5   0  0.3837251E-04  0.1594968E+04  0.7818609E-02  0.8823645E-01
       -1   -1    0    0    0  501  0.00000000000E+00  0.00000000000E+00  0.79273350173E+03  0.79273350175E+03  0.50400001928E-02 0.  1.
        1   -1    0    0  501    0  0.00000000000E+00  0.00000000000E+00 -0.80226275722E+03  0.80226275724E+03  0.50400001928E-02 0. -1.
    10030    2    1    2    0    0  0.00000000000E+00  0.00000000000E+00 -0.95292554905E+01  0.15949962590E+04  0.15949677926E+04 0.  0.
        4    1    3    3  502    0 -0.10686994126E+03 -0.21357445379E+03  0.75613246518E+03  0.79295217350E+03  0.12699999809E+01 0.  1.
       -4    1    3    3    0  502  0.10686994126E+03  0.21357445379E+03 -0.76566172067E+03  0.80204408549E+03  0.12699999809E+01 0. -1.
</event>
<event>
 5   0  0.7488884E-04  0.1712028E+04  0.7818609E-02  0.8754534E-01
       -2   -1    0    0    0  501  0.00000000000E+00  0.00000000000E+00  0.43647134284E+03  0.43647134285E+03  0.25500000920E-02 0.  1.
        2   -1    0    0  501    0  0.00000000000E+00  0.00000000000E+00 -0.16788267986E+04  0.16788267986E+04  0.25500000920E-02 0. -1.
    10030    2    1    2    0    0  0.00000000000E+00  0.00000000000E+00 -0.12423554557E+04  0.21152981414E+04  0.17120277885E+04 0.  0.
        3    1    3    3  502    0 -0.58779619356E+03  0.58184845372E+03 -0.34849352132E+03  0.89749636927E+03  0.10100000352E+00 0.  1.
       -3    1    3    3    0  502  0.58779619356E+03 -0.58184845372E+03 -0.89386193441E+03  0.12178017721E+04  0.10100000352E+00 0. -1.
</event>
<event>
 5   0  0.7395088E-04  0.1598549E+04  0.7818609E-02  0.8821440E-01
        2   -1    0    0  501    0  0.00000000000E+00  0.00000000000E+00  0.15295052407E+04  0.15295052407E+04  0.25500000920E-02 0.  1.
       -2   -1    0    0    0  501  0.00000000000E+00  0.00000000000E+00 -0.41767721734E+03  0.41767721735E+03  0.25500000920E-02 0. -1.
    10030    2    1    2    0    0  0.00000000000E+00  0.00000000000E+00  0.11118280233E+04  0.19471824580E+04  0.15985487078E+04 0.  0.
        1    1    3    3  502    0 -0.11901788277E+03 -0.19725536121E+03  0.14881853240E+04  0.15059118475E+04  0.50400001928E-02 0.  1.
       -1    1    3    3    0  502  0.11901788277E+03  0.19725536121E+03 -0.37635730063E+03  0.44127061052E+03  0.50400001928E-02 0. -1.
</event>
<event>
 5   0  0.3837251E-04  0.1622712E+04  0.7818609E-02  0.8806716E-01
        1   -1    0    0  501    0  0.00000000000E+00  0.00000000000E+00  0.17797474362E+04  0.17797474362E+04  0.50400001928E-02 0. -1.
       -1   -1    0    0    0  501  0.00000000000E+00  0.00000000000E+00 -0.36988294550E+03  0.36988294554E+03  0.50400001928E-02 0.  1.
    10030    2    1    2    0    0  0.00000000000E+00  0.00000000000E+00  0.14098644907E+04  0.21496303817E+04  0.16227115874E+04 0.  0.
        4    1    3    3  502    0  0.18621750372E+03  0.56866753304E+02  0.17483383833E+04  0.17591473792E+04  0.12699999809E+01 0. -1.
       -4    1    3    3    0  502 -0.18621750372E+03 -0.56866753304E+02 -0.33847389266E+03  0.39048300249E+03  0.12699999809E+01 0.  1.
</event>
<event>
 5   0  0.7395088E-04  0.1603660E+04  0.7818609E-02  0.8818303E-01
       -2   -1    0    0    0  501  0.00000000000E+00  0.00000000000E+00  0.60258971093E+03  0.60258971094E+03  0.25500000920E-02 0.  1.
        2   -1    0    0  501    0  0.00000000000E+00  0.00000000000E+00 -0.10669468891E+04  0.10669468891E+04  0.25500000920E-02 0. -1.
    10030    2    1    2    0    0  0.00000000000E+00  0.00000000000E+00 -0.46435717815E+03  0.16695366000E+04  0.16036598361E+04 0.  0.
        1    1    3    3  502    0  0.70588732607E+03  0.38028864234E+03 -0.23832438269E+03  0.83647766258E+03  0.50400001928E-02 0.  1.
       -1    1    3    3    0  502 -0.70588732607E+03 -0.38028864234E+03 -0.22603279547E+03  0.83305893744E+03  0.50400001928E-02 0. -1.
</event>
<event>
 5   0  0.7488884E-04  0.1531926E+04  0.7818609E-02  0.8863496E-01
       -2   -1    0    0    0  501  0.00000000000E+00  0.00000000000E+00  0.57057753645E+03  0.57057753645E+03  0.25500000920E-02 0.  1.
        2   -1    0    0  501    0  0.00000000000E+00  0.00000000000E+00 -0.10282552434E+04  0.10282552434E+04  0.25500000920E-02 0. -1.
    10030    2    1    2    0    0  0.00000000000E+00  0.00000000000E+00 -0.45767770695E+03  0.15988327799E+04  0.15319260343E+04 0.  0.
        3    1    3    3  502    0  0.70634082219E+02  0.76189580522E+03 -0.19231109840E+03  0.78896004991E+03  0.10100000352E+00 0.  1.
       -3    1    3    3    0  502 -0.70634082219E+02 -0.76189580522E+03 -0.26536660855E+03  0.80987272995E+03  0.10100000352E+00 0. -1.
</event>
<event>
 5   0  0.3950195E-04  0.1673652E+04  0.7818609E-02  0.8776536E-01
       -1   -1    0    0    0  501  0.00000000000E+00  0.00000000000E+00  0.63103051485E+03  0.63103051487E+03  0.50400001928E-02 0. -1.
        1   -1    0    0  501    0  0.00000000000E+00  0.00000000000E+00 -0.11097366591E+04  0.11097366591E+04  0.50400001928E-02 0.  1.
    10030    2    1    2    0    0  0.00000000000E+00  0.00000000000E+00 -0.47870614427E+03  0.17407671740E+04  0.16736519296E+04 0.  0.
        2    1    3    3  502    0  0.80604804757E+02  0.72660634692E+03 -0.66289747605E+03  0.98685712324E+03  0.25500000920E-02 0.  1.
       -2    1    3    3    0  502 -0.80604804757E+02 -0.72660634692E+03  0.18419133178E+03  0.75391005076E+03  0.25500000920E-02 0. -1.
</event>
<event>
 5   0  0.7488884E-04  0.1583660E+04  0.7818609E-02  0.8830650E-01
       -2   -1    0    0    0  501  0.00000000000E+00  0.00000000000E+00  0.51012549125E+03  0.51012549126E+03  0.25500000920E-02 0. -1.
        2   -1    0    0  501    0  0.00000000000E+00  0.00000000000E+00 -0.12290993169E+04  0.12290993169E+04  0.25500000920E-02 0.  1.
    10030    2    1    2    0    0  0.00000000000E+00  0.00000000000E+00 -0.71897382566E+03  0.17392248082E+04  0.15836601818E+04 0.  0.
        3    1    3    3  502    0 -0.13437583079E+03 -0.19296451128E+02 -0.12162237634E+04  0.12237767238E+04  0.10100000352E+00 0.  1.
       -3    1    3    3    0  502  0.13437583079E+03  0.19296451128E+02  0.49724993771E+03  0.51544808437E+03  0.10100000352E+00 0. -1.
</event>
<event>
 5   0  0.3837251E-04  0.1563636E+04  0.7818609E-02  0.8843205E-01
        1   -1    0    0  501    0  0.00000000000E+00  0.00000000000E+00  0.16427391846E+04  0.16427391846E+04  0.50400001928E-02 0.  1.
       -1   -1    0    0    0  501  0.00000000000E+00  0.00000000000E+00 -0.37208540059E+03  0.37208540063E+03  0.50400001928E-02 0. -1.
    10030    2    1    2    0    0  0.00000000000E+00  0.00000000000E+00  0.12706537840E+04  0.20148245852E+04  0.15636358497E+04 0.  0.
        4    1    3    3  502    0  0.76707198335E+03 -0.14496578285E+03  0.58030789239E+03  0.97271443328E+03  0.12699999809E+01 0.  1.
       -4    1    3    3    0  502 -0.76707198335E+03  0.14496578285E+03  0.69034589161E+03  0.10421101520E+04  0.12699999809E+01 0. -1.
</event>
<event>
 5   0  0.3950195E-04  0.1625198E+04  0.7818609E-02  0.8805216E-01
        1   -1    0    0  501    0  0.00000000000E+00  0.00000000000E+00  0.20344047425E+04  0.20344047426E+04  0.50400001928E-02 0. -1.
       -1   -1    0    0    0  501  0.00000000000E+00  0.00000000000E+00 -0.32457505052E+03  0.32457505056E+03  0.50400001928E-02 0.  1.
    10030    2    1    2    0    0  0.00000000000E+00  0.00000000000E+00  0.17098296920E+04  0.23589797931E+04  0.16251978614E+04 0.  0.
        2    1    3    3  502    0  0.56923173257E+03 -0.87784976701E+02  0.22878031726E+02  0.57641510376E+03  0.25500000920E-02 0.  1.
       -2    1    3    3    0  502 -0.56923173257E+03  0.87784976701E+02  0.16869516603E+04  0.17825646893E+04  0.25500000920E-02 0. -1.
</event>
<event>
 5   0  0.3837251E-04  0.1622539E+04  0.7818609E-02  0.8806820E-01
       -1   -1    0    0    0  501  0.00000000000E+00  0.00000000000E+00  0.83804624143E+03  0.83804624145E+03  0.50400001928E-02 0.  1.
        1   -1    0    0  501    0  0.00000000000E+00  0.00000000000E+00 -0.78534818646E+03  0.78534818647E+03  0.50400001928E-02 0. -1.
    10030    2    1    2    0    0  0.00000000000E+00  0.00000000000E+00  0.52698054976E+02  0.16233944279E+04  0.16225388697E+04 0.  0.
        4    1    3    3  502    0  0.14511312989E+03  0.53794716992E+03 -0.56363257846E+03  0.79254544002E+03  0.12699999809E+01 0. -1.
       -4    1    3    3    0  502 -0.14511312989E+03 -0.53794716992E+03  0.61633063344E+03  0.83084898791E+03  0.12699999809E+01 0.  1.
</event>
<event>
 5   0  0.7395088E-04  0.1622179E+04  0.7818609E-02  0.8807037E-01
        2   -1    0    0  501    0  0.00000000000E+00  0.00000000000E+00  0.18453074290E+04  0.18453074290E+04  0.25500000920E-02 0. -1.
       -2   -1    0    0    0  501  0.00000000000E+00  0.00000000000E+00 -0.35650778535E+03  0.35650778536E+03  0.25500000920E-02 0.  1.
    10030    2    1    2    0    0  0.00000000000E+00  0.00000000000E+00  0.14887996436E+04  0.22018152143E+04  0.16221793548E+04 0.  0.
        1    1    3    3  502    0 -0.89799924963E+02  0.39676142294E+03 -0.20803099799E+03  0.45690321667E+03  0.50400001928E-02 0.  1.
       -1    1    3    3    0  502  0.89799924963E+02 -0.39676142294E+03  0.16968306416E+04  0.17449119977E+04  0.50400001928E-02 0. -1.
</event>
<event>
 5   0  0.3889847E-04  0.1617050E+04  0.7818609E-02  0.8810142E-01
       -1   -1    0    0    0  501  0.00000000000E+00  0.00000000000E+00  0.58200961734E+03  0.58200961736E+03  0.50400001928E-02 0.  1.
        1   -1    0    0  501    0  0.00000000000E+00  0.00000000000E+00 -0.11231986725E+04  0.11231986725E+04  0.50400001928E-02 0. -1.
    10030    2    1    2    0    0  0.00000000000E+00  0.00000000000E+00 -0.54118905511E+03  0.17052082898E+04  0.16170496957E+04 0.  0.
        1    1    3    3  502    0  0.70894175420E+03  0.33967558386E+03 -0.46993616580E+03  0.91587003066E+03  0.50400001928E-02 0.  1.
       -1    1    3    3    0  502 -0.70894175420E+03 -0.33967558386E+03 -0.71252889312E+02  0.78933825916E+03  0.50400001928E-02 0. -1.
</event>
<event>
 5   0  0.3837251E-04  0.1537763E+04  0.7818609E-02  0.8859722E-01
       -1   -1    0    0    0  501  0.00000000000E+00  0.00000000000E+00  0.40024516464E+03  0.40024516468E+03  0.50400001928E-02 0.  1.
        1   -1    0    0  501    0  0.00000000000E+00  0.00000000000E+00 -0.14770420596E+04  0.14770420596E+04  0.50400001928E-02 0. -1.
    10030    2    1    2    0    0  0.00000000000E+00  0.00000000000E+00 -0.10767968950E+04  0.18772872243E+04  0.15377632358E+04 0.  0.
        4    1    3    3  502    0 -0.90910566828E+02 -0.33444845516E+03  0.29947398777E+03  0.45804670349E+03  0.12699999809E+01 0.  1.
       -4    1    3    3    0  502  0.90910566828E+02  0.33444845516E+03 -0.13762708827E+04  0.14192405208E+04  0.12699999809E+01 0. -1.
</event>
<event>
 5   0  0.7770905E-04  0.1600668E+04  0.7818609E-02  0.8820138E-01
        2   -1    0    0  501    0  0.00000000000E+00  0.00000000000E+00  0.47845172577E+03  0.47845172578E+03  0.25500000920E-02 0. -1.
       -2   -1    0    0    0  501  0.00000000000E+00  0.00000000000E+00 -0.13387657371E+04  0.13387657371E+04  0.25500000920E-02 0.  1.
    10030    2    1    2    0    0  0.00000000000E+00  0.00000000000E+00 -0.86031401137E+03  0.18172174629E+04  0.16006683321E+04 0.  0.
        2    1    3    3  502    0  0.48724421739E+03  0.63359423951E+03 -0.38353845645E+03  0.88653840036E+03  0.25500000920E-02 0.  1.
       -2    1    3    3    0  502 -0.48724421739E+03 -0.63359423951E+03 -0.47677555492E+03  0.93067906257E+03  0.25500000920E-02 0. -1.
</event>
<event>
 5   0  0.7770905E-04  0.1570531E+04  0.7818609E-02  0.8838860E-01
        2   -1    0    0  501    0  0.00000000000E+00  0.00000000000E+00  0.10378774182E+04  0.10378774182E+04  0.25500000920E-02 0.  1.
       -2   -1    0    0    0  501  0.00000000000E+00  0.00000000000E+00 -0.59413721729E+03  0.59413721729E+03  0.25500000920E-02 0. -1.
    10030    2    1    2    0    0  0.00000000000E+00  0.00000000000E+00  0.44374020090E+03  0.16320146355E+04  0.15705306124E+04 0.  0.
        2    1    3    3  502    0  0.55788052687E+03  0.98489176355E+02 -0.34321159161E+03  0.66236319096E+03  0.25500000920E-02 0. -1.
       -2    1    3    3    0  502 -0.55788052687E+03 -0.98489176355E+02  0.78695179251E+03  0.96965144452E+03  0.25500000920E-02 0.  1.
</event>
<event>
 5   0  0.2781000E-04  0.1646150E+04  0.7818609E-02  0.8792687E-01
       -4   -1    0    0    0  501  0.00000000000E+00  0.00000000000E+00  0.12229520344E+04  0.12229526938E+04  0.12699999809E+01 0. -1.
        4   -1    0    0  501    0  0.00000000000E+00  0.00000000000E+00 -0.55394703512E+03  0.55394849094E+03  0.12699999809E+01 0.  1.
    10030    2    1    2    0    0  0.00000000000E+00  0.00000000000E+00  0.66900499927E+03  0.17769011848E+04  0.16461500938E+04 0.  0.
        2    1    3    3  502    0 -0.39420037490E+03  0.70708992620E+02  0.11106849656E+04  0.11806840348E+04  0.25500000920E-02 0. -1.
       -2    1    3    3    0  502  0.39420037490E+03 -0.70708992620E+02 -0.44167996634E+03  0.59621714995E+03  0.25500000920E-02 0.  1.
</event>
<event>
 5   0  0.7395088E-04  0.1592251E+04  0.7818609E-02  0.8825323E-01
       -2   -1    0    0    0  501  0.00000000000E+00  0.00000000000E+00  0.30746238776E+03  0.30746238777E+03  0.25500000920E-02 0. -1.
        2   -1    0    0  501    0  0.00000000000E+00  0.00000000000E+00 -0.20614416842E+04  0.20614416842E+04  0.25500000920E-02 0.  1.
    10030    2    1    2    0    0  0.00000000000E+00  0.00000000000E+00 -0.17539792964E+04  0.23689040720E+04  0.15922509632E+04 0.  0.
        1    1    3    3  502    0 -0.49849603032E+03 -0.53662041598E+03 -0.13412027122E+04  0.15281637603E+04  0.50400001928E-02 0.  1.
       -1    1    3    3    0  502  0.49849603032E+03  0.53662041598E+03 -0.41277658418E+03  0.84074031161E+03  0.50400001928E-02 0. -1.
</event>
<event>
 5   0  0.3973227E-04  0.1597797E+04  0.7818609E-02  0.8821903E-01
       -1   -1    0    0    0  501  0.00000000000E+00  0.00000000000E+00  0.47881649973E+03  0.47881649975E+03  0.50400001928E-02 0.  1.
        1   -1    0    0  501    0  0.00000000000E+00  0.00000000000E+00 -0.13329502995E+04  0.13329502995E+04  0.50400001928E-02 0. -1.
    10030    2    1    2    0    0  0.00000000000E+00  0.00000000000E+00 -0.85413379974E+03  0.18117667992E+04  0.15977967289E+04 0.  0.
        3    1    3    3  502    0 -0.43320641272E+03 -0.53777292038E+03 -0.88257239169E+03  0.11206255158E+04  0.10100000352E+00 0. -1.
       -3    1    3    3    0  502  0.43320641272E+03  0.53777292038E+03  0.28438591958E+02  0.69114128341E+03  0.10100000352E+00 0.  1.
</event>
<event>
 5   0  0.7553070E-04  0.1597857E+04  0.7818609E-02  0.8821866E-01
        2   -1    0    0  501    0  0.00000000000E+00  0.00000000000E+00  0.12923569854E+04  0.12923569854E+04  0.25500000920E-02 0. -1.
       -2   -1    0    0    0  501  0.00000000000E+00  0.00000000000E+00 -0.49389354802E+03  0.49389354803E+03  0.25500000920E-02 0.  1.
    10030    2    1    2    0    0  0.00000000000E+00  0.00000000000E+00  0.79846343741E+03  0.17862505335E+04  0.15978570360E+04 0.  0.
        4    1    3    3  502    0  0.49982222808E+03 -0.30927761357E+03  0.10041512385E+04  0.11635274920E+04  0.12699999809E+01 0. -1.
       -4    1    3    3    0  502 -0.49982222808E+03  0.30927761357E+03 -0.20568780110E+03  0.62272304146E+03  0.12699999809E+01 0.  1.
</event>
<event>
 5   0  0.7415102E-04  0.1560520E+04  0.7818609E-02  0.8845176E-01
        2   -1    0    0  501    0  0.00000000000E+00  0.00000000000E+00  0.78917903365E+03  0.78917903365E+03  0.25500000920E-02 0.  1.
       -2   -1    0    0    0  501  0.00000000000E+00  0.00000000000E+00 -0.77144151228E+03  0.77144151229E+03  0.25500000920E-02 0. -1.
    10030    2    1    2    0    0  0.00000000000E+00  0.00000000000E+00  0.17737521365E+02  0.15606205459E+04  0.15605197431E+04 0.  0.
        5    1    3    3  502    0 -0.27004266121E+03 -0.57325464610E+03  0.46413376421E+03  0.78548467154E+03  0.46999998093E+01 0.  1.
       -5    1    3    3    0  502  0.27004266121E+03  0.57325464610E+03 -0.44639624285E+03  0.77513587439E+03  0.46999998093E+01 0. -1.
</event>
<event>
 5   0  0.7488884E-04  0.1531436E+04  0.7818609E-02  0.8863814E-01
        2   -1    0    0  501    0  0.00000000000E+00  0.00000000000E+00  0.25100265443E+04  0.25100265443E+04  0.25500000920E-02 0. -1.
       -2   -1    0    0    0  501  0.00000000000E+00  0.00000000000E+00 -0.23359263477E+03  0.23359263478E+03  0.25500000920E-02 0.  1.
    10030    2    1    2    0    0  0.00000000000E+00  0.00000000000E+00  0.22764339096E+04  0.27436191791E+04  0.15314355538E+04 0.  0.
        3    1    3    3  502    0 -0.39167650053E+01 -0.30627957056E+03 -0.11905360299E+03  0.32862788527E+03  0.10100000352E+00 0.  1.
       -3    1    3    3    0  502  0.39167650053E+01  0.30627957056E+03  0.23954875125E+04  0.24149912938E+04  0.10100000352E+00 0. -1.
</event>
<event>
 5   0  0.3889847E-04  0.1519749E+04  0.7818609E-02  0.8871425E-01
       -1   -1    0    0    0  501  0.00000000000E+00  0.00000000000E+00  0.13281360303E+04  0.13281360304E+04  0.50400001928E-02 0. -1.
        1   -1    0    0  501    0  0.00000000000E+00  0.00000000000E+00 -0.43475175854E+03  0.43475175857E+03  0.50400001928E-02 0.  1.
    10030    2    1    2    0    0  0.00000000000E+00  0.00000000000E+00  0.89338427180E+03  0.17628877889E+04  0.15197492883E+04 0.  0.
        1    1    3    3  502    0  0.47642070991E+03  0.25008604348E+03  0.10690867478E+04  0.11968567986E+04  0.50400001928E-02 0. -1.
       -1    1    3    3    0  502 -0.47642070991E+03 -0.25008604348E+03 -0.17570247595E+03  0.56603099037E+03  0.50400001928E-02 0.  1.
</event>
<event>
 5   0  0.2781000E-04  0.1597158E+04  0.7818609E-02  0.8822296E-01
        4   -1    0    0  501    0  0.00000000000E+00  0.00000000000E+00  0.13434545309E+04  0.13434551312E+04  0.12699999809E+01 0. -1.
       -4   -1    0    0    0  501  0.00000000000E+00  0.00000000000E+00 -0.47469134104E+03  0.47469303993E+03  0.12699999809E+01 0.  1.
    10030    2    1    2    0    0  0.00000000000E+00  0.00000000000E+00  0.86876318990E+03  0.18181481712E+04  0.15971578795E+04 0.  0.
        5    1    3    3  502    0  0.54042564053E+03  0.20478164361E+03 -0.19297081473E+03  0.60930716379E+03  0.46999998093E+01 0.  1.
       -5    1    3    3    0  502 -0.54042564053E+03 -0.20478164361E+03  0.10617340046E+04  0.12088410074E+04  0.46999998093E+01 0. -1.
</event>
<event>
 5   0  0.3950195E-04  0.1603929E+04  0.7818609E-02  0.8818138E-01
       -1   -1    0    0    0  501  0.00000000000E+00  0.00000000000E+00  0.10233757239E+04  0.10233757239E+04  0.50400001928E-02 0.  1.
        1   -1    0    0  501    0  0.00000000000E+00  0.00000000000E+00 -0.62845609818E+03  0.62845609820E+03  0.50400001928E-02 0. -1.
    10030    2    1    2    0    0  0.00000000000E+00  0.00000000000E+00  0.39491962574E+03  0.16518318221E+04  0.16039285700E+04 0.  0.
        2    1    3    3  502    0  0.10849933871E+02  0.53049505404E+03  0.81675458327E+03  0.97397678244E+03  0.25500000920E-02 0.  1.
       -2    1    3    3    0  502 -0.10849933871E+02 -0.53049505404E+03 -0.42183495753E+03  0.67785503969E+03  0.25500000920E-02 0. -1.
</event>
<event>
 5   0  0.7770905E-04  0.1578101E+04  0.7818609E-02  0.8834115E-01
        2   -1    0    0  501    0  0.00000000000E+00  0.00000000000E+00  0.10386229076E+04  0.10386229076E+04  0.25500000920E-02 0.  1.
       -2   -1    0    0    0  501  0.00000000000E+00  0.00000000000E+00 -0.59944826183E+03  0.59944826183E+03  0.25500000920E-02 0. -1.
    10030    2    1    2    0    0  0.00000000000E+00  0.00000000000E+00  0.43917464575E+03  0.16380711694E+04  0.15781010065E+04 0.  0.
        2    1    3    3  502    0  0.10821486630E+03 -0.76265967819E+03  0.42090726235E+02  0.77144790573E+03  0.25500000920E-02 0. -1.
       -2    1    3    3    0  502 -0.10821486630E+03  0.76265967819E+03  0.39708391952E+03  0.86662326369E+03  0.25500000920E-02 0.  1.
</event>
<event>
 5   0  0.7553070E-04  0.1569340E+04  0.7818609E-02  0.8839608E-01
       -2   -1    0    0    0  501  0.00000000000E+00  0.00000000000E+00  0.27326870712E+03  0.27326870713E+03  0.25500000920E-02 0. -1.
        2   -1    0    0  501    0  0.00000000000E+00  0.00000000000E+00 -0.22531202525E+04  0.22531202525E+04  0.25500000920E-02 0.  1.
    10030    2    1    2    0    0  0.00000000000E+00  0.00000000000E+00 -0.19798515453E+04  0.25263889596E+04  0.15693403180E+04 0.  0.
        4    1    3    3  502    0  0.71061472730E+03  0.16459824969E+03 -0.14555006099E+04  0.16280508323E+04  0.12699999809E+01 0. -1.
       -4    1    3    3    0  502 -0.71061472730E+03 -0.16459824969E+03 -0.52435093550E+03  0.89833812727E+03  0.12699999809E+01 0.  1.
</event>
<event>
 5   0  0.7415102E-04  0.1597538E+04  0.7818609E-02  0.8822062E-01
       -2   -1    0    0    0  501  0.00000000000E+00  0.00000000000E+00  0.41300886103E+03  0.41300886104E+03  0.25500000920E-02 0. -1.
        2   -1    0    0  501    0  0.00000000000E+00  0.00000000000E+00 -0.15448378019E+04  0.15448378019E+04  0.25500000920E-02 0.  1.
    10030    2    1    2    0    0  0.00000000000E+00  0.00000000000E+00 -0.11318289408E+04  0.19578466629E+04  0.15975377317E+04 0.  0.
        5    1    3    3  502    0  0.30030788365E+03 -0.23952630552E+03  0.29235917476E+03  0.48275630817E+03  0.46999998093E+01 0. -1.
       -5    1    3    3    0  502 -0.30030788365E+03  0.23952630552E+03 -0.14241881156E+04  0.14750903547E+04  0.46999998093E+01 0.  1.
</event>
<event>
 5   0  0.3837251E-04  0.1595772E+04  0.7818609E-02  0.8823150E-01
       -1   -1    0    0    0  501  0.00000000000E+00  0.00000000000E+00  0.67607205972E+03  0.67607205974E+03  0.50400001928E-02 0. -1.
        1   -1    0    0  501    0  0.00000000000E+00  0.00000000000E+00 -0.94164787640E+03  0.94164787641E+03  0.50400001928E-02 0.  1.
    10030    2    1    2    0    0  0.00000000000E+00  0.00000000000E+00 -0.26557581668E+03  0.16177199362E+04  0.15957716871E+04 0.  0.
        4    1    3    3  502    0 -0.50760900988E+03  0.48042831177E+03  0.25739800961E+03  0.74480441588E+03  0.12699999809E+01 0. -1.
       -4    1    3    3    0  502  0.50760900988E+03 -0.48042831177E+03 -0.52297382629E+03  0.87291552028E+03  0.12699999809E+01 0.  1.
</event>
<event>
 5   0  0.3837251E-04  0.1514345E+04  0.7818609E-02  0.8874969E-01
       -1   -1    0    0    0  501  0.00000000000E+00  0.00000000000E+00  0.70573604438E+03  0.70573604440E+03  0.50400001928E-02 0.  1.
        1   -1    0    0  501    0  0.00000000000E+00  0.00000000000E+00 -0.81235756101E+03  0.81235756103E+03  0.50400001928E-02 0. -1.
    10030    2    1    2    0    0  0.00000000000E+00  0.00000000000E+00 -0.10662151663E+03  0.15180936054E+04  0.15143447583E+04 0.  0.
        4    1    3    3  502    0  0.99884383668E+02 -0.53334876807E+03 -0.58270005708E+03  0.79622783669E+03  0.12699999809E+01 0. -1.
       -4    1    3    3    0  502 -0.99884383668E+02  0.53334876807E+03  0.47607854045E+03  0.72186576874E+03  0.12699999809E+01 0.  1.
</event>
<event>
 5   0  0.7770905E-04  0.1512596E+04  0.7818609E-02  0.8876120E-01
        2   -1    0    0  501    0  0.00000000000E+00  0.00000000000E+00  0.10245846255E+04  0.10245846255E+04  0.25500000920E-02 0. -1.
       -2   -1    0    0    0  501  0.00000000000E+00  0.00000000000E+00 -0.55826187978E+03  0.55826187978E+03  0.25500000920E-02 0.  1.
    10030    2    1    2    0    0  0.00000000000E+00  0.00000000000E+00  0.46632274576E+03  0.15828465053E+04  0.15125958337E+04 0.  0.
        2    1    3    3  502    0  0.60234519373E+03  0.84149614997E+02  0.70357905588E+03  0.93001310635E+03  0.25500000920E-02 0. -1.
       -2    1    3    3    0  502 -0.60234519373E+03 -0.84149614997E+02 -0.23725631012E+03  0.65283339897E+03  0.25500000920E-02 0.  1.
</event>
<event>
 5   0  0.7395088E-04  0.1587980E+04  0.7818609E-02  0.8827967E-01
        2   -1    0    0  501    0  0.00000000000E+00  0.00000000000E+00  0.22760991901E+04  0.22760991901E+04  0.25500000920E-02 0. -1.
       -2   -1    0    0    0  501  0.00000000000E+00  0.00000000000E+00 -0.27697375048E+03  0.27697375049E+03  0.25500000920E-02 0.  1.
    10030    2    1    2    0    0  0.00000000000E+00  0.00000000000E+00  0.19991254396E+04  0.25530729406E+04  0.15879795076E+04 0.  0.
        1    1    3    3  502    0 -0.15808540016E+03  0.48749080750E+03  0.19745820775E+04  0.20400031034E+04  0.50400001928E-02 0. -1.
       -1    1    3    3    0  502  0.15808540016E+03 -0.48749080750E+03  0.24543362091E+02  0.51306983715E+03  0.50400001928E-02 0.  1.
</event>
<event>
 5   0  0.7395088E-04  0.1302538E+04  0.7818609E-02  0.9027555E-01
        2   -1    0    0  501    0  0.00000000000E+00  0.00000000000E+00  0.54099062044E+03  0.54099062044E+03  0.25500000920E-02 0.  1.
       -2   -1    0    0    0  501  0.00000000000E+00  0.00000000000E+00 -0.78402683732E+03  0.78402683733E+03  0.25500000920E-02 0. -1.
    10030    2    1    2    0    0  0.00000000000E+00  0.00000000000E+00 -0.24303621689E+03  0.13250174578E+04  0.13025377771E+04 0.  0.
        1    1    3    3  502    0 -0.34800244122E+03  0.54460024713E+03 -0.39781940285E+02  0.64751658748E+03  0.50400001928E-02 0.  1.
       -1    1    3    3    0  502  0.34800244122E+03 -0.54460024713E+03 -0.20325427660E+03  0.67750087029E+03  0.50400001928E-02 0. -1.
</event>
<event>
 5   0  0.3950195E-04  0.1622254E+04  0.7818609E-02  0.8806992E-01
       -1   -1    0    0    0  501  0.00000000000E+00  0.00000000000E+00  0.43249506411E+03  0.43249506414E+03  0.50400001928E-02 0. -1.
        1   -1    0    0  501    0  0.00000000000E+00  0.00000000000E+00 -0.15212365548E+04  0.15212365548E+04  0.50400001928E-02 0.  1.
    10030    2    1    2    0    0  0.00000000000E+00  0.00000000000E+00 -0.10887414906E+04  0.19537316189E+04  0.16222543590E+04 0.  0.
        2    1    3    3  502    0  0.26958319011E+02  0.25502137543E+03  0.38238906884E+03  0.46041725952E+03  0.25500000920E-02 0. -1.
       -2    1    3    3    0  502 -0.26958319011E+02 -0.25502137543E+03 -0.14711305595E+04  0.14933143594E+04  0.25500000920E-02 0.  1.
</event>
<event>
 5   0  0.7415102E-04  0.1599473E+04  0.7818609E-02  0.8820872E-01
        2   -1    0    0  501    0  0.00000000000E+00  0.00000000000E+00  0.11068768347E+04  0.11068768347E+04  0.25500000920E-02 0. -1.
       -2   -1    0    0    0  501  0.00000000000E+00  0.00000000000E+00 -0.57782251639E+03  0.57782251640E+03  0.25500000920E-02 0.  1.
    10030    2    1    2    0    0  0.00000000000E+00  0.00000000000E+00  0.52905431829E+03  0.16846993511E+04  0.15994728606E+04 0.  0.
        5    1    3    3  502    0 -0.67482067634E+03  0.42915269662E+03  0.26333284199E+03  0.84197461832E+03  0.46999998093E+01 0. -1.
       -5    1    3    3    0  502  0.67482067634E+03 -0.42915269662E+03  0.26572147630E+03  0.84272473276E+03  0.46999998093E+01 0.  1.
</event>
<event>
 5   0  0.3837251E-04  0.1611148E+04  0.7818609E-02  0.8813728E-01
        1   -1    0    0  501    0  0.00000000000E+00  0.00000000000E+00  0.11709383068E+04  0.11709383068E+04  0.50400001928E-02 0.  1.
       -1   -1    0    0    0  501  0.00000000000E+00  0.00000000000E+00 -0.55421333059E+03  0.55421333062E+03  0.50400001928E-02 0. -1.
    10030    2    1    2    0    0  0.00000000000E+00  0.00000000000E+00  0.61672497621E+03  0.17251516374E+04  0.16111481856E+04 0.  0.
        4    1    3    3  502    0 -0.44328341242E+03 -0.35877138732E+03  0.91759612689E+03  0.10803709349E+04  0.12699999809E+01 0.  1.
       -4    1    3    3    0  502  0.44328341242E+03  0.35877138732E+03 -0.30087115068E+03  0.64478070249E+03  0.12699999809E+01 0. -1.
</event>
<event>
 5   0  0.3889847E-04  0.1607799E+04  0.7818609E-02  0.8815771E-01
        1   -1    0    0  501    0  0.00000000000E+00  0.00000000000E+00  0.52508311648E+03  0.52508311651E+03  0.50400001928E-02 0. -1.
       -1   -1    0    0    0  501  0.00000000000E+00  0.00000000000E+00 -0.12307654955E+04  0.12307654955E+04  0.50400001928E-02 0.  1.
    10030    2    1    2    0    0  0.00000000000E+00  0.00000000000E+00 -0.70568237905E+03  0.17558486121E+04  0.16077987213E+04 0.  0.
        1    1    3    3  502    0 -0.37171597107E+03 -0.69966385876E+02 -0.11275165052E+04  0.11892693252E+04  0.50400001928E-02 0.  1.
       -1    1    3    3    0  502  0.37171597107E+03  0.69966385876E+02  0.42183412615E+03  0.56657928687E+03  0.50400001928E-02 0. -1.
</event>
<event>
 5   0  0.3889847E-04  0.1639651E+04  0.7818609E-02  0.8796552E-01
        1   -1    0    0  501    0  0.00000000000E+00  0.00000000000E+00  0.11178252988E+04  0.11178252988E+04  0.50400001928E-02 0. -1.
       -1   -1    0    0    0  501  0.00000000000E+00  0.00000000000E+00 -0.60126918080E+03  0.60126918082E+03  0.50400001928E-02 0.  1.
    10030    2    1    2    0    0  0.00000000000E+00  0.00000000000E+00  0.51655611804E+03  0.17190944797E+04  0.16396510626E+04 0.  0.
        1    1    3    3  502    0 -0.92644902726E+02 -0.30873049698E+03  0.10486020333E+04  0.10970249870E+04  0.50400001928E-02 0. -1.
       -1    1    3    3    0  502  0.92644902726E+02  0.30873049698E+03 -0.53204591526E+03  0.62206949269E+03  0.50400001928E-02 0.  1.
</event>
<event>
 5   0  0.3950195E-04  0.1600481E+04  0.7818609E-02  0.8820253E-01
        1   -1    0    0  501    0  0.00000000000E+00  0.00000000000E+00  0.10546647307E+04  0.10546647307E+04  0.50400001928E-02 0. -1.
       -1   -1    0    0    0  501  0.00000000000E+00  0.00000000000E+00 -0.60719244783E+03  0.60719244785E+03  0.50400001928E-02 0.  1.
    10030    2    1    2    0    0  0.00000000000E+00  0.00000000000E+00  0.44747228285E+03  0.16618571785E+04  0.16004805022E+04 0.  0.
        2    1    3    3  502    0  0.37978433835E+03  0.45016829946E+02  0.95363102182E+03  0.10274603566E+04  0.25500000920E-02 0. -1.
       -2    1    3    3    0  502 -0.37978433835E+03 -0.45016829946E+02 -0.50615873897E+03  0.63439682193E+03  0.25500000920E-02 0.  1.
</event>
<event>
 5   0  0.3889847E-04  0.1603572E+04  0.7818609E-02  0.8818356E-01
       -1   -1    0    0    0  501  0.00000000000E+00  0.00000000000E+00  0.81323081300E+03  0.81323081302E+03  0.50400001928E-02 0.  1.
        1   -1    0    0  501    0  0.00000000000E+00  0.00000000000E+00 -0.79050254160E+03  0.79050254162E+03  0.50400001928E-02 0. -1.
    10030    2    1    2    0    0  0.00000000000E+00  0.00000000000E+00  0.22728271400E+02  0.16037333546E+04  0.16035722929E+04 0.  0.
        1    1    3    3  502    0 -0.94787568315E+02 -0.38566080345E+03  0.70795551217E+03  0.81173884080E+03  0.50400001928E-02 0.  1.
       -1    1    3    3    0  502  0.94787568315E+02  0.38566080345E+03 -0.68522724077E+03  0.79199451384E+03  0.50400001928E-02 0. -1.
</event>
<event>
 5   0  0.7488884E-04  0.1304319E+04  0.7818609E-02  0.9026147E-01
       -2   -1    0    0    0  501  0.00000000000E+00  0.00000000000E+00  0.99202393570E+03  0.99202393570E+03  0.25500000920E-02 0. -1.
        2   -1    0    0  501    0  0.00000000000E+00  0.00000000000E+00 -0.42873156315E+03  0.42873156316E+03  0.25500000920E-02 0.  1.
    10030    2    1    2    0    0  0.00000000000E+00  0.00000000000E+00  0.56329237255E+03  0.14207554989E+04  0.13043189374E+04 0.  0.
        3    1    3    3  502    0  0.45744263306E+03  0.18546760448E+03 -0.18261797735E+03  0.52630915886E+03  0.10100000352E+00 0.  1.
       -3    1    3    3    0  502 -0.45744263306E+03 -0.18546760448E+03  0.74591034990E+03  0.89444634000E+03  0.10100000352E+00 0. -1.
</event>
<event>
 5   0  0.3973227E-04  0.1599674E+04  0.7818609E-02  0.8820748E-01
        1   -1    0    0  501    0  0.00000000000E+00  0.00000000000E+00  0.76672946248E+03  0.76672946250E+03  0.50400001928E-02 0.  1.
       -1   -1    0    0    0  501  0.00000000000E+00  0.00000000000E+00 -0.83437430390E+03  0.83437430392E+03  0.50400001928E-02 0. -1.
    10030    2    1    2    0    0  0.00000000000E+00  0.00000000000E+00 -0.67644841418E+02  0.16011037664E+04  0.15996741688E+04 0.  0.
        3    1    3    3  502    0 -0.15492295104E+03  0.75928408309E+03 -0.23205474392E+03  0.80892697691E+03  0.10100000352E+00 0. -1.
       -3    1    3    3    0  502  0.15492295104E+03 -0.75928408309E+03  0.16440990250E+03  0.79217678951E+03  0.10100000352E+00 0.  1.
</event>
<event>
 5   0  0.7553070E-04  0.1634160E+04  0.7818609E-02  0.8799833E-01
        2   -1    0    0  501    0  0.00000000000E+00  0.00000000000E+00  0.13108892892E+04  0.13108892892E+04  0.25500000920E-02 0.  1.
       -2   -1    0    0    0  501  0.00000000000E+00  0.00000000000E+00 -0.50928760506E+03  0.50928760507E+03  0.25500000920E-02 0. -1.
    10030    2    1    2    0    0  0.00000000000E+00  0.00000000000E+00  0.80160168418E+03  0.18201768943E+04  0.16341599268E+04 0.  0.
        4    1    3    3  502    0  0.36435877784E+03 -0.66324339001E+03  0.57551402612E+02  0.75892218983E+03  0.12699999809E+01 0. -1.
       -4    1    3    3    0  502 -0.36435877784E+03  0.66324339001E+03  0.74405028157E+03  0.10612547045E+04  0.12699999809E+01 0.  1.
</event>
<event>
 5   0  0.7488884E-04  0.1670435E+04  0.7818609E-02  0.8778408E-01
        2   -1    0    0  501    0  0.00000000000E+00  0.00000000000E+00  0.59899693033E+03  0.59899693034E+03  0.25500000920E-02 0. -1.
       -2   -1    0    0    0  501  0.00000000000E+00  0.00000000000E+00 -0.11645943723E+04  0.11645943723E+04  0.25500000920E-02 0.  1.
    10030    2    1    2    0    0  0.00000000000E+00  0.00000000000E+00 -0.56559744193E+03  0.17635913026E+04  0.16704352176E+04 0.  0.
        3    1    3    3  502    0 -0.26210209982E+03  0.68096951642E+03  0.14627883931E+03  0.74418714182E+03  0.10100000352E+00 0. -1.
       -3    1    3    3    0  502  0.26210209982E+03 -0.68096951642E+03 -0.71187628124E+03  0.10194041608E+04  0.10100000352E+00 0.  1.
</event>
<event>
 5   0  0.7770905E-04  0.1376824E+04  0.7818609E-02  0.8970767E-01
       -2   -1    0    0    0  501  0.00000000000E+00  0.00000000000E+00  0.23140847031E+03  0.23140847032E+03  0.25500000920E-02 0.  1.
        2   -1    0    0  501    0  0.00000000000E+00  0.00000000000E+00 -0.20479419609E+04  0.20479419609E+04  0.25500000920E-02 0. -1.
    10030    2    1    2    0    0  0.00000000000E+00  0.00000000000E+00 -0.18165334906E+04  0.22793504312E+04  0.13768240504E+04 0.  0.
        2    1    3    3  502    0 -0.23285351572E+03  0.10705097344E+03  0.14948889894E+03  0.29669445834E+03  0.25500000920E-02 0.  1.
       -2    1    3    3    0  502  0.23285351572E+03 -0.10705097344E+03 -0.19660223895E+04  0.19826559729E+04  0.25500000920E-02 0. -1.
</event>
<event>
 5   0  0.4110803E-04  0.1625609E+04  0.7818609E-02  0.8804968E-01
        1   -1    0    0  501    0  0.00000000000E+00  0.00000000000E+00  0.14487404672E+04  0.14487404672E+04  0.50400001928E-02 0. -1.
       -1   -1    0    0    0  501  0.00000000000E+00  0.00000000000E+00 -0.45601769348E+03  0.45601769351E+03  0.50400001928E-02 0.  1.
    10030    2    1    2    0    0  0.00000000000E+00  0.00000000000E+00  0.99272277373E+03  0.19047581607E+04  0.16256091613E+04 0.  0.
        5    1    3    3  502    0 -0.59335762556E+03  0.44807359923E+03  0.11167676041E+03  0.75188896185E+03  0.46999998093E+01 0.  1.
       -5    1    3    3    0  502  0.59335762556E+03 -0.44807359923E+03  0.88104601331E+03  0.11528691989E+04  0.46999998093E+01 0. -1.
</event>
<event>
 5   0  0.3889847E-04  0.1602409E+04  0.7818609E-02  0.8819069E-01
        1   -1    0    0  501    0  0.00000000000E+00  0.00000000000E+00  0.12283535561E+04  0.12283535561E+04  0.50400001928E-02 0. -1.
       -1   -1    0    0    0  501  0.00000000000E+00  0.00000000000E+00 -0.52259294315E+03  0.52259294318E+03  0.50400001928E-02 0.  1.
    10030    2    1    2    0    0  0.00000000000E+00  0.00000000000E+00  0.70576061297E+03  0.17509464993E+04  0.16024093112E+04 0.  0.
        1    1    3    3  502    0 -0.29588655148E+03 -0.32840986689E+03 -0.37728851179E+03  0.58116134866E+03  0.50400001928E-02 0.  1.
       -1    1    3    3    0  502  0.29588655148E+03  0.32840986689E+03  0.10830491248E+04  0.11697851507E+04  0.50400001928E-02 0. -1.
</event>
<event>
 5   0  0.7395088E-04  0.1524400E+04  0.7818609E-02  0.8868387E-01
       -2   -1    0    0    0  501  0.00000000000E+00  0.00000000000E+00  0.54915064704E+03  0.54915064705E+03  0.25500000920E-02 0.  1.
        2   -1    0    0  501    0  0.00000000000E+00  0.00000000000E+00 -0.10579048080E+04  0.10579048080E+04  0.25500000920E-02 0. -1.
    10030    2    1    2    0    0  0.00000000000E+00  0.00000000000E+00 -0.50875416095E+03  0.16070554550E+04  0.15244003540E+04 0.  0.
        1    1    3    3  502    0  0.54135622998E+03 -0.14072325809E+02 -0.81982168307E+03  0.98253355676E+03  0.50400001928E-02 0. -1.
       -1    1    3    3    0  502 -0.54135622998E+03  0.14072325809E+02  0.31106752213E+03  0.62452189828E+03  0.50400001928E-02 0.  1.
</event>
<event>
 5   0  0.7553070E-04  0.1704475E+04  0.7818609E-02  0.8758816E-01
       -2   -1    0    0    0  501  0.00000000000E+00  0.00000000000E+00  0.75248326583E+03  0.75248326583E+03  0.25500000920E-02 0.  1.
        2   -1    0    0  501    0  0.00000000000E+00  0.00000000000E+00 -0.96521616790E+03  0.96521616790E+03  0.25500000920E-02 0. -1.
    10030    2    1    2    0    0  0.00000000000E+00  0.00000000000E+00 -0.21273290207E+03  0.17176994337E+04  0.17044753026E+04 0.  0.
        4    1    3    3  502    0 -0.68138571512E+03  0.30487483770E+03  0.30800766134E+03  0.80753048969E+03  0.12699999809E+01 0. -1.
       -4    1    3    3    0  502  0.68138571512E+03 -0.30487483770E+03 -0.52074056341E+03  0.91016894405E+03  0.12699999809E+01 0.  1.
</event>
<event>
 5   0  0.7415102E-04  0.1593114E+04  0.7818609E-02  0.8824790E-01
       -2   -1    0    0    0  501  0.00000000000E+00  0.00000000000E+00  0.43423130477E+03  0.43423130477E+03  0.25500000920E-02 0. -1.
        2   -1    0    0  501    0  0.00000000000E+00  0.00000000000E+00 -0.14612094388E+04  0.14612094388E+04  0.25500000920E-02 0.  1.
    10030    2    1    2    0    0  0.00000000000E+00  0.00000000000E+00 -0.10269781340E+04  0.18954407435E+04  0.15931137827E+04 0.  0.
        5    1    3    3  502    0 -0.73936598675E+03  0.29634198407E+03 -0.51396087591E+03  0.94797600489E+03  0.46999998093E+01 0. -1.
       -5    1    3    3    0  502  0.73936598675E+03 -0.29634198407E+03 -0.51301725809E+03  0.94746473865E+03  0.46999998093E+01 0.  1.
</event>
<event>
 5   0  0.7488884E-04  0.1599076E+04  0.7818609E-02  0.8821116E-01
       -2   -1    0    0    0  501  0.00000000000E+00  0.00000000000E+00  0.12750675888E+04  0.12750675888E+04  0.25500000920E-02 0.  1.
        2   -1    0    0  501    0  0.00000000000E+00  0.00000000000E+00 -0.50135429677E+03  0.50135429678E+03  0.25500000920E-02 0. -1.
    10030    2    1    2    0    0  0.00000000000E+00  0.00000000000E+00  0.77371329198E+03  0.17764218855E+04  0.15990755008E+04 0.  0.
        3    1    3    3  502    0  0.45661993607E+03 -0.36587575717E+03 -0.21845312799E+03  0.62457074462E+03  0.10100000352E+00 0. -1.
       -3    1    3    3    0  502 -0.45661993607E+03  0.36587575717E+03  0.99216641997E+03  0.11518511409E+04  0.10100000352E+00 0.  1.
</event>
<event>
 5   0  0.7553070E-04  0.1569649E+04  0.7818609E-02  0.8839414E-01
       -2   -1    0    0    0  501  0.00000000000E+00  0.00000000000E+00  0.30104744798E+03  0.30104744799E+03  0.25500000920E-02 0. -1.
        2   -1    0    0  501    0  0.00000000000E+00  0.00000000000E+00 -0.20460201966E+04  0.20460201966E+04  0.25500000920E-02 0.  1.
    10030    2    1    2    0    0  0.00000000000E+00  0.00000000000E+00 -0.17449727487E+04  0.23470676446E+04  0.15696485705E+04 0.  0.
        4    1    3    3  502    0 -0.59055651698E+03  0.35127146949E+03 -0.14395097470E+04  0.15950982947E+04  0.12699999809E+01 0.  1.
       -4    1    3    3    0  502  0.59055651698E+03 -0.35127146949E+03 -0.30546300166E+03  0.75196934998E+03  0.12699999809E+01 0. -1.
</event>
<event>
 5   0  0.4110803E-04  0.1607959E+04  0.7818609E-02  0.8815673E-01
       -1   -1    0    0    0  501  0.00000000000E+00  0.00000000000E+00  0.30271576015E+03  0.30271576020E+03  0.50400001928E-02 0.  1.
        1   -1    0    0  501    0  0.00000000000E+00  0.00000000000E+00 -0.21352817339E+04  0.21352817339E+04  0.50400001928E-02 0. -1.
    10030    2    1    2    0    0  0.00000000000E+00  0.00000000000E+00 -0.18325659737E+04  0.24379974941E+04  0.16079594936E+04 0.  0.
        5    1    3    3  502    0 -0.10560120969E+03  0.29498922060E+02  0.29130571925E+03  0.31129232878E+03  0.46999998093E+01 0.  1.
       -5    1    3    3    0  502  0.10560120969E+03 -0.29498922060E+02 -0.21238716930E+04  0.21267051653E+04  0.46999998093E+01 0. -1.
</event>
<event>
 5   0  0.3950195E-04  0.1593380E+04  0.7818609E-02  0.8824625E-01
       -1   -1    0    0    0  501  0.00000000000E+00  0.00000000000E+00  0.14892539670E+04  0.14892539670E+04  0.50400001928E-02 0. -1.
        1   -1    0    0  501    0  0.00000000000E+00  0.00000000000E+00 -0.42619659127E+03  0.42619659130E+03  0.50400001928E-02 0.  1.
    10030    2    1    2    0    0  0.00000000000E+00  0.00000000000E+00  0.10630573757E+04  0.19154505583E+04  0.15933800103E+04 0.  0.
        2    1    3    3  502    0 -0.32574735230E+03 -0.73859226021E+01  0.14054940901E+04  0.14427680086E+04  0.25500000920E-02 0. -1.
       -2    1    3    3    0  502  0.32574735230E+03  0.73859226021E+01 -0.34243671440E+03  0.47268254966E+03  0.25500000920E-02 0.  1.
</event>
<event>
 5   0  0.7553070E-04  0.1591285E+04  0.7818609E-02  0.8825920E-01
       -2   -1    0    0    0  501  0.00000000000E+00  0.00000000000E+00  0.37424336217E+03  0.37424336218E+03  0.25500000920E-02 0. -1.
        2   -1    0    0  501    0  0.00000000000E+00  0.00000000000E+00 -0.16915387106E+04  0.16915387106E+04  0.25500000920E-02 0.  1.
    10030    2    1    2    0    0  0.00000000000E+00  0.00000000000E+00 -0.13172953484E+04  0.20657820728E+04  0.15912851841E+04 0.  0.
        4    1    3    3  502    0 -0.70981284219E+03  0.17512806885E+03 -0.25113054237E+03  0.77302799021E+03  0.12699999809E+01 0. -1.
       -4    1    3    3    0  502  0.70981284219E+03 -0.17512806885E+03 -0.10661648061E+04  0.12927540826E+04  0.12699999809E+01 0.  1.
</event>
<event>
 5   0  0.7488884E-04  0.1598075E+04  0.7818609E-02  0.8821731E-01
        2   -1    0    0  501    0  0.00000000000E+00  0.00000000000E+00  0.15866892630E+04  0.15866892630E+04  0.25500000920E-02 0.  1.
       -2   -1    0    0    0  501  0.00000000000E+00  0.00000000000E+00 -0.40238570574E+03  0.40238570575E+03  0.25500000920E-02 0. -1.
    10030    2    1    2    0    0  0.00000000000E+00  0.00000000000E+00  0.11843035573E+04  0.19890749687E+04  0.15980751908E+04 0.  0.
        3    1    3    3  502    0 -0.18548356441E+03  0.58539641371E+03 -0.44174871670E+02  0.61566593485E+03  0.10100000352E+00 0. -1.
       -3    1    3    3    0  502  0.18548356441E+03 -0.58539641371E+03  0.12284784289E+04  0.13734090339E+04  0.10100000352E+00 0.  1.
</event>
<event>
 5   0  0.2781000E-04  0.1623608E+04  0.7818609E-02  0.8806175E-01
       -3   -1    0    0    0  501  0.00000000000E+00  0.00000000000E+00  0.14049454500E+04  0.14049454536E+04  0.10100000352E+00 0.  1.
        3   -1    0    0  501    0  0.00000000000E+00  0.00000000000E+00 -0.46907541978E+03  0.46907543065E+03  0.10100000352E+00 0. -1.
    10030    2    1    2    0    0  0.00000000000E+00  0.00000000000E+00  0.93587003024E+03  0.18740208843E+04  0.16236075761E+04 0.  0.
        4    1    3    3  502    0  0.48480911440E+03  0.27128054459E+03 -0.21529932062E+03  0.59580904797E+03  0.12699999809E+01 0. -1.
       -4    1    3    3    0  502 -0.48480911440E+03 -0.27128054459E+03  0.11511693509E+04  0.12782118363E+04  0.12699999809E+01 0.  1.
</event>
<event>
 5   0  0.7770905E-04  0.1606353E+04  0.7818609E-02  0.8816655E-01
        2   -1    0    0  501    0  0.00000000000E+00  0.00000000000E+00  0.95085523081E+03  0.95085523081E+03  0.25500000920E-02 0.  1.
       -2   -1    0    0    0  501  0.00000000000E+00  0.00000000000E+00 -0.67843360777E+03  0.67843360777E+03  0.25500000920E-02 0. -1.
    10030    2    1    2    0    0  0.00000000000E+00  0.00000000000E+00  0.27242162304E+03  0.16292888386E+04  0.16063525699E+04 0.  0.
        2    1    3    3  502    0 -0.69977923901E+03 -0.25042944067E+03  0.44500198727E+03  0.86627516228E+03  0.25500000920E-02 0.  1.
       -2    1    3    3    0  502  0.69977923901E+03  0.25042944067E+03 -0.17258036424E+03  0.76301367630E+03  0.25500000920E-02 0. -1.
</event>
<event>
 5   0  0.7553070E-04  0.1599192E+04  0.7818609E-02  0.8821044E-01
        2   -1    0    0  501    0  0.00000000000E+00  0.00000000000E+00  0.24100214627E+04  0.24100214627E+04  0.25500000920E-02 0.  1.
       -2   -1    0    0    0  501  0.00000000000E+00  0.00000000000E+00 -0.26528968501E+03  0.26528968503E+03  0.25500000920E-02 0. -1.
    10030    2    1    2    0    0  0.00000000000E+00  0.00000000000E+00  0.21447317776E+04  0.26753111477E+04  0.15991920894E+04 0.  0.
        4    1    3    3  502    0  0.74710025230E+03 -0.28343575101E+03  0.11213571427E+04  0.13769306687E+04  0.12699999809E+01 0.  1.
       -4    1    3    3    0  502 -0.74710025230E+03  0.28343575101E+03  0.10233746349E+04  0.12983804790E+04  0.12699999809E+01 0. -1.
</event>
<event>
 5   0  0.3889847E-04  0.1607385E+04  0.7818609E-02  0.8816024E-01
       -1   -1    0    0    0  501  0.00000000000E+00  0.00000000000E+00  0.34986041341E+03  0.34986041344E+03  0.50400001928E-02 0.  1.
        1   -1    0    0  501    0  0.00000000000E+00  0.00000000000E+00 -0.18462273428E+04  0.18462273428E+04  0.50400001928E-02 0. -1.
    10030    2    1    2    0    0  0.00000000000E+00  0.00000000000E+00 -0.14963669293E+04  0.21960877562E+04  0.16073852823E+04 0.  0.
        1    1    3    3  502    0 -0.30016036914E+03  0.58901479309E+03 -0.13726161168E+04  0.15235188472E+04  0.50400001928E-02 0. -1.
       -1    1    3    3    0  502  0.30016036914E+03 -0.58901479309E+03 -0.12375081251E+03  0.67256890896E+03  0.50400001928E-02 0.  1.
</event>
<event>
 5   0  0.7770905E-04  0.1544829E+04  0.7818609E-02  0.8855178E-01
        2   -1    0    0  501    0  0.00000000000E+00  0.00000000000E+00  0.15505793344E+04  0.15505793344E+04  0.25500000920E-02 0.  1.
       -2   -1    0    0    0  501  0.00000000000E+00  0.00000000000E+00 -0.38477492386E+03  0.38477492387E+03  0.25500000920E-02 0. -1.
    10030    2    1    2    0    0  0.00000000000E+00  0.00000000000E+00  0.11658044105E+04  0.19353542583E+04  0.15448288518E+04 0.  0.
        2    1    3    3  502    0 -0.47930454995E+02  0.17374527442E+03  0.15238667871E+04  0.15344884273E+04  0.25500000920E-02 0.  1.
       -2    1    3    3    0  502  0.47930454995E+02 -0.17374527442E+03 -0.35806237654E+03  0.40086583093E+03  0.25500000920E-02 0. -1.
</event>
<event>
 5   0  0.4110803E-04  0.1599869E+04  0.7818609E-02  0.8820628E-01
       -1   -1    0    0    0  501  0.00000000000E+00  0.00000000000E+00  0.97724754802E+03  0.97724754803E+03  0.50400001928E-02 0.  1.
        1   -1    0    0  501    0  0.00000000000E+00  0.00000000000E+00 -0.65479340501E+03  0.65479340503E+03  0.50400001928E-02 0. -1.
    10030    2    1    2    0    0  0.00000000000E+00  0.00000000000E+00  0.32245414301E+03  0.16320409531E+04  0.15998690566E+04 0.  0.
        5    1    3    3  502    0 -0.75568807351E+03 -0.68047713601E+02  0.41965556302E+03  0.86708006398E+03  0.46999998093E+01 0.  1.
       -5    1    3    3    0  502  0.75568807351E+03  0.68047713601E+02 -0.97201420013E+02  0.76496088908E+03  0.46999998093E+01 0. -1.
</event>
<event>
 5   0  0.3973227E-04  0.1740818E+04  0.7818609E-02  0.8738421E-01
       -1   -1    0    0    0  501  0.00000000000E+00  0.00000000000E+00  0.37542225012E+03  0.37542225016E+03  0.50400001928E-02 0.  1.
        1   -1    0    0  501    0  0.00000000000E+00  0.00000000000E+00 -0.20180255359E+04  0.20180255359E+04  0.50400001928E-02 0. -1.
    10030    2    1    2    0    0  0.00000000000E+00  0.00000000000E+00 -0.16426032858E+04  0.23934477861E+04  0.17408178395E+04 0.  0.
        3    1    3    3  502    0  0.58203409512E+03 -0.21201788175E+03 -0.16620117626E+04  0.17736962477E+04  0.10100000352E+00 0. -1.
       -3    1    3    3    0  502 -0.58203409512E+03  0.21201788175E+03  0.19408476825E+02  0.61975153831E+03  0.10100000352E+00 0.  1.
</event>
<event>
 5   0  0.7415102E-04  0.1388764E+04  0.7818609E-02  0.8961992E-01
        2   -1    0    0  501    0  0.00000000000E+00  0.00000000000E+00  0.12693751362E+04  0.12693751362E+04  0.25500000920E-02 0.  1.
       -2   -1    0    0    0  501  0.00000000000E+00  0.00000000000E+00 -0.37984569415E+03  0.37984569416E+03  0.25500000920E-02 0. -1.
    10030    2    1    2    0    0  0.00000000000E+00  0.00000000000E+00  0.88952944202E+03  0.16492208303E+04  0.13887644577E+04 0.  0.
        5    1    3    3  502    0 -0.85152153720E+00 -0.23813046327E+03 -0.32981875561E+03  0.40682839647E+03  0.46999998093E+01 0. -1.
       -5    1    3    3    0  502  0.85152153720E+00  0.23813046327E+03  0.12193481976E+04  0.12423924339E+04  0.46999998093E+01 0.  1.
</event>
<event>
 5   0  0.4110803E-04  0.1608800E+04  0.7818609E-02  0.8815160E-01
       -1   -1    0    0    0  501  0.00000000000E+00  0.00000000000E+00  0.34077076968E+03  0.34077076972E+03  0.50400001928E-02 0.  1.
        1   -1    0    0  501    0  0.00000000000E+00  0.00000000000E+00 -0.18988121518E+04  0.18988121518E+04  0.50400001928E-02 0. -1.
    10030    2    1    2    0    0  0.00000000000E+00  0.00000000000E+00 -0.15580413822E+04  0.22395829216E+04  0.16088003960E+04 0.  0.
        5    1    3    3  502    0  0.57600645119E+02  0.75505551192E+03 -0.40133013186E+03  0.85703828686E+03  0.46999998093E+01 0.  1.
       -5    1    3    3    0  502 -0.57600645119E+02 -0.75505551192E+03 -0.11567112503E+04  0.13825446347E+04  0.46999998093E+01 0. -1.
</event>
<event>
 5   0  0.7488884E-04  0.1607449E+04  0.7818609E-02  0.8815985E-01
        2   -1    0    0  501    0  0.00000000000E+00  0.00000000000E+00  0.78701717971E+03  0.78701717972E+03  0.25500000920E-02 0.  1.
       -2   -1    0    0    0  501  0.00000000000E+00  0.00000000000E+00 -0.82078670461E+03  0.82078670462E+03  0.25500000920E-02 0. -1.
    10030    2    1    2    0    0  0.00000000000E+00  0.00000000000E+00 -0.33769524900E+02  0.16078038843E+04  0.16074492059E+04 0.  0.
        3    1    3    3  502    0 -0.38256783272E+03  0.32326899901E+03  0.61183346898E+03  0.79069665253E+03  0.10100000352E+00 0.  1.
       -3    1    3    3    0  502  0.38256783272E+03 -0.32326899901E+03 -0.64560299388E+03  0.81710723180E+03  0.10100000352E+00 0. -1.
</event>
<event>
 5   0  0.3889847E-04  0.1664777E+04  0.7818609E-02  0.8781712E-01
        1   -1    0    0  501    0  0.00000000000E+00  0.00000000000E+00  0.54305987694E+03  0.54305987696E+03  0.50400001928E-02 0.  1.
       -1   -1    0    0    0  501  0.00000000000E+00  0.00000000000E+00 -0.12758647904E+04  0.12758647904E+04  0.50400001928E-02 0. -1.
    10030    2    1    2    0    0  0.00000000000E+00  0.00000000000E+00 -0.73280491345E+03  0.18189246674E+04  0.16647774339E+04 0.  0.
        1    1    3    3  502    0 -0.37600652607E+03  0.33404748223E+03  0.35826151903E+03  0.61751108822E+03  0.50400001928E-02 0.  1.
       -1    1    3    3    0  502  0.37600652607E+03 -0.33404748223E+03 -0.10910664325E+04  0.12014135791E+04  0.50400001928E-02 0. -1.
</event>
<event>
 5   0  0.3973227E-04  0.1645151E+04  0.7818609E-02  0.8793280E-01
       -1   -1    0    0    0  501  0.00000000000E+00  0.00000000000E+00  0.43841105104E+03  0.43841105107E+03  0.50400001928E-02 0.  1.
        1   -1    0    0  501    0  0.00000000000E+00  0.00000000000E+00 -0.15433693385E+04  0.15433693386E+04  0.50400001928E-02 0. -1.
    10030    2    1    2    0    0  0.00000000000E+00  0.00000000000E+00 -0.11049582875E+04  0.19817803896E+04  0.16451506604E+04 0.  0.
        3    1    3    3  502    0  0.12893800760E+03 -0.80946986410E+03 -0.46933690146E+03  0.94453353988E+03  0.10100000352E+00 0.  1.
       -3    1    3    3    0  502 -0.12893800760E+03  0.80946986410E+03 -0.63562138605E+03  0.10372468497E+04  0.10100000352E+00 0. -1.
</event>
<event>
 5   0  0.7488884E-04  0.1556389E+04  0.7818609E-02  0.8847797E-01
        2   -1    0    0  501    0  0.00000000000E+00  0.00000000000E+00  0.10051316570E+04  0.10051316570E+04  0.25500000920E-02 0.  1.
       -2   -1    0    0    0  501  0.00000000000E+00  0.00000000000E+00 -0.60249459691E+03  0.60249459692E+03  0.25500000920E-02 0. -1.
    10030    2    1    2    0    0  0.00000000000E+00  0.00000000000E+00  0.40263706006E+03  0.16076262539E+04  0.15563886308E+04 0.  0.
        3    1    3    3  502    0 -0.25015693502E+03 -0.50693348602E+03  0.75373936231E+03  0.94216935202E+03  0.10100000352E+00 0.  1.
       -3    1    3    3    0  502  0.25015693502E+03  0.50693348602E+03 -0.35110230226E+03  0.66545690187E+03  0.10100000352E+00 0. -1.
</event>
<event>
 5   0  0.7415102E-04  0.1652916E+04  0.7818609E-02  0.8788683E-01
       -2   -1    0    0    0  501  0.00000000000E+00  0.00000000000E+00  0.10528495781E+04  0.10528495782E+04  0.25500000920E-02 0.  1.
        2   -1    0    0  501    0  0.00000000000E+00  0.00000000000E+00 -0.64874694385E+03  0.64874694386E+03  0.25500000920E-02 0. -1.
    10030    2    1    2    0    0  0.00000000000E+00  0.00000000000E+00  0.40410263430E+03  0.17015965220E+04  0.16529161457E+04 0.  0.
        5    1    3    3  502    0  0.36860102406E+03 -0.70714588265E+03 -0.21339219826E+02  0.79774649268E+03  0.46999998093E+01 0. -1.
       -5    1    3    3    0  502 -0.36860102406E+03  0.70714588265E+03  0.42544185412E+03  0.90385002933E+03  0.46999998093E+01 0.  1.
</event>
<event>
 5   0  0.7415102E-04  0.1583839E+04  0.7818609E-02  0.8830538E-01
       -2   -1    0    0    0  501  0.00000000000E+00  0.00000000000E+00  0.59023708709E+03  0.59023708710E+03  0.25500000920E-02 0. -1.
        2   -1    0    0  501    0  0.00000000000E+00  0.00000000000E+00 -0.10625165908E+04  0.10625165908E+04  0.25500000920E-02 0.  1.
    10030    2    1    2    0    0  0.00000000000E+00  0.00000000000E+00 -0.47227950368E+03  0.16527536779E+04  0.15838392564E+04 0.  0.
        5    1    3    3  502    0  0.16969304694E+02 -0.31153877343E+03 -0.99566254142E+03  0.10434128383E+04  0.46999998093E+01 0.  1.
       -5    1    3    3    0  502 -0.16969304694E+02  0.31153877343E+03  0.52338303773E+03  0.60934083963E+03  0.46999998093E+01 0. -1.
</event>
<event>
 5   0  0.3837251E-04  0.1558781E+04  0.7818609E-02  0.8846278E-01
       -1   -1    0    0    0  501  0.00000000000E+00  0.00000000000E+00  0.54127992469E+03  0.54127992471E+03  0.50400001928E-02 0.  1.
        1   -1    0    0  501    0  0.00000000000E+00  0.00000000000E+00 -0.11222472852E+04  0.11222472852E+04  0.50400001928E-02 0. -1.
    10030    2    1    2    0    0  0.00000000000E+00  0.00000000000E+00 -0.58096736046E+03  0.16635272099E+04  0.15587814805E+04 0.  0.
        4    1    3    3  502    0 -0.86165805351E+02 -0.22189572231E+03 -0.10825036643E+04  0.11083672919E+04  0.12699999809E+01 0. -1.
       -4    1    3    3    0  502  0.86165805351E+02  0.22189572231E+03  0.50153630383E+03  0.55515991800E+03  0.12699999809E+01 0.  1.
</event>
<event>
 5   0  0.4110803E-04  0.1574986E+04  0.7818609E-02  0.8836064E-01
        1   -1    0    0  501    0  0.00000000000E+00  0.00000000000E+00  0.63398369387E+03  0.63398369389E+03  0.50400001928E-02 0.  1.
       -1   -1    0    0    0  501  0.00000000000E+00  0.00000000000E+00 -0.97817279671E+03  0.97817279672E+03  0.50400001928E-02 0. -1.
    10030    2    1    2    0    0  0.00000000000E+00  0.00000000000E+00 -0.34418910283E+03  0.16121564906E+04  0.15749864799E+04 0.  0.
        5    1    3    3  502    0 -0.19424493312E+03  0.69955668611E+03  0.14008314350E+03  0.73942952891E+03  0.46999998093E+01 0. -1.
       -5    1    3    3    0  502  0.19424493312E+03 -0.69955668611E+03 -0.48427224633E+03  0.87272696171E+03  0.46999998093E+01 0.  1.
</event>
<event>
 5   0  0.3837251E-04  0.1607183E+04  0.7818609E-02  0.8816147E-01
        1   -1    0    0  501    0  0.00000000000E+00  0.00000000000E+00  0.76231858620E+03  0.76231858622E+03  0.50400001928E-02 0.  1.
       -1   -1    0    0    0  501  0.00000000000E+00  0.00000000000E+00 -0.84709895277E+03  0.84709895279E+03  0.50400001928E-02 0. -1.
    10030    2    1    2    0    0  0.00000000000E+00  0.00000000000E+00 -0.84780366570E+02  0.16094175390E+04  0.16071829716E+04 0.  0.
        4    1    3    3  502    0 -0.52082353693E+03  0.52767598370E+03 -0.35275426139E+03  0.82105802610E+03  0.12699999809E+01 0. -1.
       -4    1    3    3    0  502  0.52082353693E+03 -0.52767598370E+03  0.26797389482E+03  0.78835951291E+03  0.12699999809E+01 0.  1.
</event>
<event>
 5   0  0.3973227E-04  0.1905739E+04  0.7818609E-02  0.8652005E-01
       -1   -1    0    0    0  501  0.00000000000E+00  0.00000000000E+00  0.85540605705E+03  0.85540605706E+03  0.50400001928E-02 0.  1.
        1   -1    0    0  501    0  0.00000000000E+00  0.00000000000E+00 -0.10614378290E+04  0.10614378290E+04  0.50400001928E-02 0. -1.
    10030    2    1    2    0    0  0.00000000000E+00  0.00000000000E+00 -0.20603177195E+03  0.19168438861E+04  0.19057390673E+04 0.  0.
        3    1    3    3  502    0 -0.69554464111E+03 -0.36925849807E+03 -0.64263637672E+03  0.10164229971E+04  0.10100000352E+00 0. -1.
       -3    1    3    3    0  502  0.69554464111E+03  0.36925849807E+03  0.43660460477E+03  0.90042088896E+03  0.10100000352E+00 0.  1.
</event>
<event>
 5   0  0.3837251E-04  0.1583341E+04  0.7818609E-02  0.8830848E-01
        1   -1    0    0  501    0  0.00000000000E+00  0.00000000000E+00  0.71039001047E+03  0.71039001049E+03  0.50400001928E-02 0. -1.
       -1   -1    0    0    0  501  0.00000000000E+00  0.00000000000E+00 -0.88225083202E+03  0.88225083203E+03  0.50400001928E-02 0.  1.
    10030    2    1    2    0    0  0.00000000000E+00  0.00000000000E+00 -0.17186082155E+03  0.15926408425E+04  0.15833409965E+04 0.  0.
        4    1    3    3  502    0  0.10829641340E+03  0.72470396523E+03 -0.38738488392E+03  0.82885017438E+03  0.12699999809E+01 0.  1.
       -4    1    3    3    0  502 -0.10829641340E+03 -0.72470396523E+03  0.21552406237E+03  0.76379066814E+03  0.12699999809E+01 0. -1.
</event>
<event>
 5   0  0.7488884E-04  0.1526422E+04  0.7818609E-02  0.8867070E-01
       -2   -1    0    0    0  501  0.00000000000E+00  0.00000000000E+00  0.51629852738E+03  0.51629852739E+03  0.25500000920E-02 0.  1.
        2   -1    0    0  501    0  0.00000000000E+00  0.00000000000E+00 -0.11282057513E+04  0.11282057513E+04  0.25500000920E-02 0. -1.
    10030    2    1    2    0    0  0.00000000000E+00  0.00000000000E+00 -0.61190722393E+03  0.16445042787E+04  0.15264219181E+04 0.  0.
        3    1    3    3  502    0  0.39418622139E+03 -0.23261557348E+03  0.35202801693E+03  0.57742230391E+03  0.10100000352E+00 0.  1.
       -3    1    3    3    0  502 -0.39418622139E+03  0.23261557348E+03 -0.96393524086E+03  0.10670819748E+04  0.10100000352E+00 0. -1.
</event>
<event>
 5   0  0.7415102E-04  0.1590495E+04  0.7818609E-02  0.8826409E-01
        2   -1    0    0  501    0  0.00000000000E+00  0.00000000000E+00  0.13827076036E+04  0.13827076036E+04  0.25500000920E-02 0.  1.
       -2   -1    0    0    0  501  0.00000000000E+00  0.00000000000E+00 -0.45737667628E+03  0.45737667628E+03  0.25500000920E-02 0. -1.
    10030    2    1    2    0    0  0.00000000000E+00  0.00000000000E+00  0.92533092733E+03  0.18400842799E+04  0.15904945244E+04 0.  0.
        5    1    3    3  502    0 -0.70196791860E+03  0.53280790802E+02  0.89056903717E+03  0.11352238111E+04  0.46999998093E+01 0.  1.
       -5    1    3    3    0  502  0.70196791860E+03 -0.53280790802E+02  0.34761890165E+02  0.70486046876E+03  0.46999998093E+01 0. -1.
</event>
<event>
 5   0  0.7415102E-04  0.1578279E+04  0.7818609E-02  0.8834004E-01
        2   -1    0    0  501    0  0.00000000000E+00  0.00000000000E+00  0.10517615537E+04  0.10517615537E+04  0.25500000920E-02 0.  1.
       -2   -1    0    0    0  501  0.00000000000E+00  0.00000000000E+00 -0.59209364141E+03  0.59209364142E+03  0.25500000920E-02 0. -1.
    10030    2    1    2    0    0  0.00000000000E+00  0.00000000000E+00  0.45966791231E+03  0.16438551951E+04  0.15782792253E+04 0.  0.
        5    1    3    3  502    0 -0.16201501988E+03 -0.59459152577E+03  0.74319327006E+03  0.96547722699E+03  0.46999998093E+01 0.  1.
       -5    1    3    3    0  502  0.16201501988E+03  0.59459152577E+03 -0.28352535775E+03  0.67837796815E+03  0.46999998093E+01 0. -1.
</event>
<event>
 5   0  0.3889847E-04  0.1590775E+04  0.7818609E-02  0.8826235E-01
       -1   -1    0    0    0  501  0.00000000000E+00  0.00000000000E+00  0.70004333309E+03  0.70004333311E+03  0.50400001928E-02 0. -1.
        1   -1    0    0  501    0  0.00000000000E+00  0.00000000000E+00 -0.90371764215E+03  0.90371764216E+03  0.50400001928E-02 0.  1.
    10030    2    1    2    0    0  0.00000000000E+00  0.00000000000E+00 -0.20367430906E+03  0.16037609753E+04  0.15907752958E+04 0.  0.
        1    1    3    3  502    0  0.27946649400E+03 -0.43840981299E+03  0.50502078863E+03  0.72481079073E+03  0.50400001928E-02 0. -1.
       -1    1    3    3    0  502 -0.27946649400E+03  0.43840981299E+03 -0.70869509769E+03  0.87895018454E+03  0.50400001928E-02 0.  1.
</event>
<event>
 5   0  0.7395088E-04  0.1597811E+04  0.7818609E-02  0.8821894E-01
       -2   -1    0    0    0  501  0.00000000000E+00  0.00000000000E+00  0.51488714250E+03  0.51488714251E+03  0.25500000920E-02 0. -1.
        2   -1    0    0  501    0  0.00000000000E+00  0.00000000000E+00 -0.12395925792E+04  0.12395925793E+04  0.25500000920E-02 0.  1.
    10030    2    1    2    0    0  0.00000000000E+00  0.00000000000E+00 -0.72470543675E+03  0.17544797218E+04  0.15978113543E+04 0.  0.
        1    1    3    3  502    0  0.71897008113E+03  0.23441335460E+02  0.19262257523E+02  0.71960996961E+03  0.50400001928E-02 0. -1.
       -1    1    3    3    0  502 -0.71897008113E+03 -0.23441335460E+02 -0.74396769427E+03  0.10348697521E+04  0.50400001928E-02 0.  1.
</event>
<event>
 5   0  0.7395088E-04  0.1591367E+04  0.7818609E-02  0.8825869E-01
       -2   -1    0    0    0  501  0.00000000000E+00  0.00000000000E+00  0.73137014825E+03  0.73137014826E+03  0.25500000920E-02 0. -1.
        2   -1    0    0  501    0  0.00000000000E+00  0.00000000000E+00 -0.86565243447E+03  0.86565243448E+03  0.25500000920E-02 0.  1.
    10030    2    1    2    0    0  0.00000000000E+00  0.00000000000E+00 -0.13428228622E+03  0.15970225827E+04  0.15913671473E+04 0.  0.
        1    1    3    3  502    0 -0.37993941219E+02 -0.77789415343E+03 -0.23066036363E+03  0.81226046124E+03  0.50400001928E-02 0.  1.
       -1    1    3    3    0  502  0.37993941219E+02  0.77789415343E+03  0.96378077406E+02  0.78476212150E+03  0.50400001928E-02 0. -1.
</event>
<event>
 5   0  0.3973227E-04  0.1601207E+04  0.7818609E-02  0.8819807E-01
        1   -1    0    0  501    0  0.00000000000E+00  0.00000000000E+00  0.96808090951E+03  0.96808090952E+03  0.50400001928E-02 0.  1.
       -1   -1    0    0    0  501  0.00000000000E+00  0.00000000000E+00 -0.66209925300E+03  0.66209925302E+03  0.50400001928E-02 0. -1.
    10030    2    1    2    0    0  0.00000000000E+00  0.00000000000E+00  0.30598165651E+03  0.16301801625E+04  0.16012066039E+04 0.  0.
        3    1    3    3  502    0 -0.67731820580E+03 -0.14040568857E+03 -0.25740612374E+03  0.73805936891E+03  0.10100000352E+00 0. -1.
       -3    1    3    3    0  502  0.67731820580E+03  0.14040568857E+03  0.56338778025E+03  0.89212079363E+03  0.10100000352E+00 0.  1.
</event>
<event>
 5   0  0.7553070E-04  0.1605205E+04  0.7818609E-02  0.8817357E-01
        2   -1    0    0  501    0  0.00000000000E+00  0.00000000000E+00  0.15969119978E+04  0.15969119978E+04  0.25500000920E-02 0. -1.
       -2   -1    0    0    0  501  0.00000000000E+00  0.00000000000E+00 -0.40338506034E+03  0.40338506035E+03  0.25500000920E-02 0.  1.
    10030    2    1    2    0    0  0.00000000000E+00  0.00000000000E+00  0.11935269375E+04  0.20002970582E+04  0.16052045883E+04 0.  0.
        4    1    3    3  502    0  0.60573995714E+03  0.13589467996E+03 -0.37149937269E+02  0.62190834570E+03  0.12699999809E+01 0.  1.
       -4    1    3    3    0  502 -0.60573995714E+03 -0.13589467996E+03  0.12306768748E+04  0.13783887125E+04  0.12699999809E+01 0. -1.
</event>
<event>
 5   0  0.3950195E-04  0.1592965E+04  0.7818609E-02  0.8824882E-01
        1   -1    0    0  501    0  0.00000000000E+00  0.00000000000E+00  0.18919746411E+04  0.18919746412E+04  0.50400001928E-02 0. -1.
       -1   -1    0    0    0  501  0.00000000000E+00  0.00000000000E+00 -0.33530270533E+03  0.33530270536E+03  0.50400001928E-02 0.  1.
    10030    2    1    2    0    0  0.00000000000E+00  0.00000000000E+00  0.15566719358E+04  0.22272773465E+04  0.15929648027E+04 0.  0.
        2    1    3    3  502    0 -0.44344079257E+03 -0.64837404638E+03  0.59413681676E+03  0.98489958756E+03  0.25500000920E-02 0.  1.
       -2    1    3    3    0  502  0.44344079257E+03  0.64837404638E+03  0.96253511906E+03  0.12423777590E+04  0.25500000920E-02 0. -1.
</event>
<event>
 5   0  0.7770905E-04  0.1598184E+04  0.7818609E-02  0.8821664E-01
       -2   -1    0    0    0  501  0.00000000000E+00  0.00000000000E+00  0.62755325799E+03  0.62755325800E+03  0.25500000920E-02 0.  1.
        2   -1    0    0  501    0  0.00000000000E+00  0.00000000000E+00 -0.10175199883E+04  0.10175199883E+04  0.25500000920E-02 0. -1.
    10030    2    1    2    0    0  0.00000000000E+00  0.00000000000E+00 -0.38996673029E+03  0.16450732463E+04  0.15981839490E+04 0.  0.
        2    1    3    3  502    0 -0.40915643893E+03  0.36277389582E+03  0.40480794467E+03  0.68035532120E+03  0.25500000920E-02 0.  1.
       -2    1    3    3    0  502  0.40915643893E+03 -0.36277389582E+03 -0.79477467497E+03  0.96471792509E+03  0.25500000920E-02 0. -1.
</event>
<event>
 5   0  0.3889847E-04  0.1574659E+04  0.7818609E-02  0.8836269E-01
       -1   -1    0    0    0  501  0.00000000000E+00  0.00000000000E+00  0.94346185836E+03  0.94346185837E+03  0.50400001928E-02 0.  1.
        1   -1    0    0  501    0  0.00000000000E+00  0.00000000000E+00 -0.65703530140E+03  0.65703530142E+03  0.50400001928E-02 0. -1.
    10030    2    1    2    0    0  0.00000000000E+00  0.00000000000E+00  0.28642655696E+03  0.16004971598E+04  0.15746590062E+04 0.  0.
        1    1    3    3  502    0  0.17968327896E+03  0.11348493488E+03 -0.62733102285E+03  0.66235120853E+03  0.50400001928E-02 0. -1.
       -1    1    3    3    0  502 -0.17968327896E+03 -0.11348493488E+03  0.91375757981E+03  0.93814595126E+03  0.50400001928E-02 0.  1.
</event>
<event>
 5   0  0.7770905E-04  0.1601219E+04  0.7818609E-02  0.8819800E-01
        2   -1    0    0  501    0  0.00000000000E+00  0.00000000000E+00  0.16509613046E+04  0.16509613046E+04  0.25500000920E-02 0. -1.
       -2   -1    0    0    0  501  0.00000000000E+00  0.00000000000E+00 -0.38824370978E+03  0.38824370979E+03  0.25500000920E-02 0.  1.
    10030    2    1    2    0    0  0.00000000000E+00  0.00000000000E+00  0.12627175948E+04  0.20392050144E+04  0.16012187129E+04 0.  0.
        2    1    3    3  502    0  0.30183608583E+03 -0.53608422202E+03 -0.21112892261E+02  0.61557864650E+03  0.25500000920E-02 0.  1.
       -2    1    3    3    0  502 -0.30183608583E+03  0.53608422202E+03  0.12838304871E+04  0.14236263679E+04  0.25500000920E-02 0. -1.
</event>
<event>
 5   0  0.7415102E-04  0.1467365E+04  0.7818609E-02  0.8906449E-01
        2   -1    0    0  501    0  0.00000000000E+00  0.00000000000E+00  0.97457458477E+03  0.97457458477E+03  0.25500000920E-02 0.  1.
       -2   -1    0    0    0  501  0.00000000000E+00  0.00000000000E+00 -0.55233353512E+03  0.55233353512E+03  0.25500000920E-02 0. -1.
    10030    2    1    2    0    0  0.00000000000E+00  0.00000000000E+00  0.42224104965E+03  0.15269081199E+04  0.14673652928E+04 0.  0.
        5    1    3    3  502    0 -0.62889864986E+03  0.14487087278E+03 -0.15199060568E+03  0.66304171497E+03  0.46999998093E+01 0. -1.
       -5    1    3    3    0  502  0.62889864986E+03 -0.14487087278E+03  0.57423165533E+03  0.86386640492E+03  0.46999998093E+01 0.  1.
</event>
<event>
 5   0  0.7415102E-04  0.1586892E+04  0.7818609E-02  0.8828641E-01
        2   -1    0    0  501    0  0.00000000000E+00  0.00000000000E+00  0.89545199443E+03  0.89545199443E+03  0.25500000920E-02 0. -1.
       -2   -1    0    0    0  501  0.00000000000E+00  0.00000000000E+00 -0.70306005058E+03  0.70306005059E+03  0.25500000920E-02 0.  1.
    10030    2    1    2    0    0  0.00000000000E+00  0.00000000000E+00  0.19239194385E+03  0.15985120450E+04  0.15868919617E+04 0.  0.
        5    1    3    3  502    0  0.44767102750E+03 -0.11070027152E+03 -0.55418698615E+03  0.72097795014E+03  0.46999998093E+01 0.  1.
       -5    1    3    3    0  502 -0.44767102750E+03  0.11070027152E+03  0.74657892999E+03  0.87753409488E+03  0.46999998093E+01 0. -1.
</event>
<event>
 5   0  0.7415102E-04  0.1537668E+04  0.7818609E-02  0.8859783E-01
       -2   -1    0    0    0  501  0.00000000000E+00  0.00000000000E+00  0.31491867298E+03  0.31491867299E+03  0.25500000920E-02 0.  1.
        2   -1    0    0  501    0  0.00000000000E+00  0.00000000000E+00 -0.18770105318E+04  0.18770105318E+04  0.25500000920E-02 0. -1.
    10030    2    1    2    0    0  0.00000000000E+00  0.00000000000E+00 -0.15620918588E+04  0.21919292048E+04  0.15376679301E+04 0.  0.
        5    1    3    3  502    0 -0.53477869845E+03 -0.46704527666E+03 -0.36067391808E+03  0.79638389734E+03  0.46999998093E+01 0.  1.
       -5    1    3    3    0  502  0.53477869845E+03  0.46704527666E+03 -0.12014179407E+04  0.13955453074E+04  0.46999998093E+01 0. -1.
</event>
<event>
 5   0  0.3889847E-04  0.1592030E+04  0.7818609E-02  0.8825459E-01
        1   -1    0    0  501    0  0.00000000000E+00  0.00000000000E+00  0.10923221240E+04  0.10923221240E+04  0.50400001928E-02 0.  1.
       -1   -1    0    0    0  501  0.00000000000E+00  0.00000000000E+00 -0.58008506150E+03  0.58008506152E+03  0.50400001928E-02 0. -1.
    10030    2    1    2    0    0  0.00000000000E+00  0.00000000000E+00  0.51223706251E+03  0.16724071855E+04  0.15920298320E+04 0.  0.
        1    1    3    3  502    0  0.13106263045E+03  0.44278811340E+03 -0.42500001193E+03  0.62758564088E+03  0.50400001928E-02 0. -1.
       -1    1    3    3    0  502 -0.13106263045E+03 -0.44278811340E+03  0.93723707443E+03  0.10448215447E+04  0.50400001928E-02 0.  1.
</event>
<event>
 5   0  0.3973227E-04  0.1623772E+04  0.7818609E-02  0.8806076E-01
        1   -1    0    0  501    0  0.00000000000E+00  0.00000000000E+00  0.15736613258E+04  0.15736613258E+04  0.50400001928E-02 0. -1.
       -1   -1    0    0    0  501  0.00000000000E+00  0.00000000000E+00 -0.41886936142E+03  0.41886936145E+03  0.50400001928E-02 0.  1.
    10030    2    1    2    0    0  0.00000000000E+00  0.00000000000E+00  0.11547919644E+04  0.19925306872E+04  0.16237715537E+04 0.  0.
        3    1    3    3  502    0  0.52728338462E+03  0.35614541178E+03 -0.41397514116E+02  0.63763711184E+03  0.10100000352E+00 0.  1.
       -3    1    3    3    0  502 -0.52728338462E+03 -0.35614541178E+03  0.11961894785E+04  0.13548935754E+04  0.10100000352E+00 0. -1.
</event>
<event>
 5   0  0.3973227E-04  0.1582606E+04  0.7818609E-02  0.8831305E-01
       -1   -1    0    0    0  501  0.00000000000E+00  0.00000000000E+00  0.68769631670E+03  0.68769631672E+03  0.50400001928E-02 0. -1.
        1   -1    0    0  501    0  0.00000000000E+00  0.00000000000E+00 -0.91051910386E+03  0.91051910387E+03  0.50400001928E-02 0.  1.
    10030    2    1    2    0    0  0.00000000000E+00  0.00000000000E+00 -0.22282278716E+03  0.15982154206E+04  0.15826062480E+04 0.  0.
        3    1    3    3  502    0 -0.65957813815E+02 -0.74523128717E+03 -0.37171425950E+03  0.83539906961E+03  0.10100000352E+00 0.  1.
       -3    1    3    3    0  502  0.65957813815E+02  0.74523128717E+03  0.14889147234E+03  0.76281635098E+03  0.10100000352E+00 0. -1.
</event>
<event>
 5   0  0.7395088E-04  0.1605985E+04  0.7818609E-02  0.8816880E-01
        2   -1    0    0  501    0  0.00000000000E+00  0.00000000000E+00  0.10825061062E+04  0.10825061062E+04  0.25500000920E-02 0.  1.
       -2   -1    0    0    0  501  0.00000000000E+00  0.00000000000E+00 -0.59565215077E+03  0.59565215078E+03  0.25500000920E-02 0. -1.
    10030    2    1    2    0    0  0.00000000000E+00  0.00000000000E+00  0.48685395546E+03  0.16781582570E+04  0.16059851686E+04 0.  0.
        1    1    3    3  502    0 -0.47905299568E+03  0.44861408231E+03 -0.24002098377E+03  0.69882504262E+03  0.50400001928E-02 0. -1.
       -1    1    3    3    0  502  0.47905299568E+03 -0.44861408231E+03  0.72687493923E+03  0.97933321440E+03  0.50400001928E-02 0.  1.
</event>
<event>
 5   0  0.4110803E-04  0.1597131E+04  0.7818609E-02  0.8822313E-01
        1   -1    0    0  501    0  0.00000000000E+00  0.00000000000E+00  0.62715043166E+03  0.62715043168E+03  0.50400001928E-02 0. -1.
       -1   -1    0    0    0  501  0.00000000000E+00  0.00000000000E+00 -0.10168320300E+04  0.10168320300E+04  0.50400001928E-02 0.  1.
    10030    2    1    2    0    0  0.00000000000E+00  0.00000000000E+00 -0.38968159837E+03  0.16439824617E+04  0.15971307355E+04 0.  0.
        5    1    3    3  502    0  0.36942362870E+03 -0.21218874883E+03  0.50038840976E+03  0.65719748416E+03  0.46999998093E+01 0. -1.
       -5    1    3    3    0  502 -0.36942362870E+03  0.21218874883E+03 -0.89007000814E+03  0.98678497757E+03  0.46999998093E+01 0.  1.
</event>
<event>
 5   0  0.7395088E-04  0.1596986E+04  0.7818609E-02  0.8822401E-01
       -2   -1    0    0    0  501  0.00000000000E+00  0.00000000000E+00  0.37562418810E+03  0.37562418810E+03  0.25500000920E-02 0.  1.
        2   -1    0    0  501    0  0.00000000000E+00  0.00000000000E+00 -0.16974184709E+04  0.16974184709E+04  0.25500000920E-02 0. -1.
    10030    2    1    2    0    0  0.00000000000E+00  0.00000000000E+00 -0.13217942828E+04  0.20730426590E+04  0.15969864558E+04 0.  0.
        1    1    3    3  502    0 -0.84315728075E+02 -0.31520849088E+03 -0.16069289659E+04  0.16397213899E+04  0.50400001928E-02 0. -1.
       -1    1    3    3    0  502  0.84315728075E+02  0.31520849088E+03  0.28513468316E+03  0.43332126914E+03  0.50400001928E-02 0.  1.
</event>
<event>
 5   0  0.7488884E-04  0.1599140E+04  0.7818609E-02  0.8821076E-01
       -2   -1    0    0    0  501  0.00000000000E+00  0.00000000000E+00  0.81356646064E+03  0.81356646064E+03  0.25500000920E-02 0.  1.
        2   -1    0    0  501    0  0.00000000000E+00  0.00000000000E+00 -0.78581440698E+03  0.78581440699E+03  0.25500000920E-02 0. -1.
    10030    2    1    2    0    0  0.00000000000E+00  0.00000000000E+00  0.27752053657E+02  0.15993808676E+04  0.15991400762E+04 0.  0.
        3    1    3    3  502    0 -0.20308794286E+03 -0.47146724883E+02  0.78590203821E+03  0.81308643456E+03  0.10100000352E+00 0.  1.
       -3    1    3    3    0  502  0.20308794286E+03  0.47146724883E+02 -0.75814998455E+03  0.78629443307E+03  0.10100000352E+00 0. -1.
</event>
<event>
 5   0  0.7770905E-04  0.1602962E+04  0.7818609E-02  0.8818731E-01
       -2   -1    0    0    0  501  0.00000000000E+00  0.00000000000E+00  0.60442968441E+03  0.60442968442E+03  0.25500000920E-02 0.  1.
        2   -1    0    0  501    0  0.00000000000E+00  0.00000000000E+00 -0.10627727903E+04  0.10627727903E+04  0.25500000920E-02 0. -1.
    10030    2    1    2    0    0  0.00000000000E+00  0.00000000000E+00 -0.45834310584E+03  0.16672024747E+04  0.16029615369E+04 0.  0.
        2    1    3    3  502    0 -0.67325307374E+03 -0.74266494836E+02 -0.67481268746E+03  0.95611577579E+03  0.25500000920E-02 0. -1.
       -2    1    3    3    0  502  0.67325307374E+03  0.74266494836E+02  0.21646958162E+03  0.71108669888E+03  0.25500000920E-02 0.  1.
</event>
<event>
 5   0  0.3950195E-04  0.1189047E+04  0.7818609E-02  0.9122498E-01
       -1   -1    0    0    0  501  0.00000000000E+00  0.00000000000E+00  0.46340725206E+03  0.46340725208E+03  0.50400001928E-02 0.  1.
        1   -1    0    0  501    0  0.00000000000E+00  0.00000000000E+00 -0.76273802912E+03  0.76273802914E+03  0.50400001928E-02 0. -1.
    10030    2    1    2    0    0  0.00000000000E+00  0.00000000000E+00 -0.29933077707E+03  0.12261452812E+04  0.11890472390E+04 0.  0.
        2    1    3    3  502    0 -0.52074556712E+03 -0.13141578126E+03 -0.41259562007E+03  0.67726006744E+03  0.25500000920E-02 0. -1.
       -2    1    3    3    0  502  0.52074556712E+03  0.13141578126E+03  0.11326484300E+03  0.54888521378E+03  0.25500000920E-02 0.  1.
</event>
<event>
 5   0  0.7415102E-04  0.1597198E+04  0.7818609E-02  0.8822271E-01
       -2   -1    0    0    0  501  0.00000000000E+00  0.00000000000E+00  0.34350908173E+03  0.34350908174E+03  0.25500000920E-02 0. -1.
        2   -1    0    0  501    0  0.00000000000E+00  0.00000000000E+00 -0.18566033390E+04  0.18566033390E+04  0.25500000920E-02 0.  1.
    10030    2    1    2    0    0  0.00000000000E+00  0.00000000000E+00 -0.15130942573E+04  0.22001124208E+04  0.15971976811E+04 0.  0.
        5    1    3    3  502    0  0.78931679949E+03  0.10605461861E+03 -0.83768339509E+03  0.11558564584E+04  0.46999998093E+01 0. -1.
       -5    1    3    3    0  502 -0.78931679949E+03 -0.10605461861E+03 -0.67541086222E+03  0.10442559623E+04  0.46999998093E+01 0.  1.
</event>
<event>
 5   0  0.2781000E-04  0.1594803E+04  0.7818609E-02  0.8823747E-01
        3   -1    0    0  501    0  0.00000000000E+00  0.00000000000E+00  0.80594963192E+03  0.80594963824E+03  0.10100000352E+00 0.  1.
       -3   -1    0    0    0  501  0.00000000000E+00  0.00000000000E+00 -0.78894407864E+03  0.78894408511E+03  0.10100000352E+00 0. -1.
    10030    2    1    2    0    0  0.00000000000E+00  0.00000000000E+00  0.17005553274E+02  0.15948937234E+04  0.15948030599E+04 0.  0.
        1    1    3    3  502    0 -0.30175468594E+03  0.46033220315E+03 -0.56849412295E+03  0.79129463261E+03  0.50400001928E-02 0. -1.
       -1    1    3    3    0  502  0.30175468594E+03 -0.46033220315E+03  0.58549967623E+03  0.80359909074E+03  0.50400001928E-02 0.  1.
</event>
<event>
 5   0  0.7415102E-04  0.1662182E+04  0.7818609E-02  0.8783232E-01
        2   -1    0    0  501    0  0.00000000000E+00  0.00000000000E+00  0.12941468182E+04  0.12941468182E+04  0.25500000920E-02 0.  1.
       -2   -1    0    0    0  501  0.00000000000E+00  0.00000000000E+00 -0.53372001242E+03  0.53372001243E+03  0.25500000920E-02 0. -1.
    10030    2    1    2    0    0  0.00000000000E+00  0.00000000000E+00  0.76042680582E+03  0.18278668307E+04  0.16621817661E+04 0.  0.
        5    1    3    3  502    0  0.16981884234E+03  0.78067241662E+03  0.63194654876E+03  0.10186591146E+04  0.46999998093E+01 0.  1.
       -5    1    3    3    0  502 -0.16981884234E+03 -0.78067241662E+03  0.12848025705E+03  0.80920771606E+03  0.46999998093E+01 0. -1.
</event>
<event>
 5   0  0.7395088E-04  0.1558661E+04  0.7818609E-02  0.8846354E-01
       -2   -1    0    0    0  501  0.00000000000E+00  0.00000000000E+00  0.64452853809E+03  0.64452853810E+03  0.25500000920E-02 0. -1.
        2   -1    0    0  501    0  0.00000000000E+00  0.00000000000E+00 -0.94232642780E+03  0.94232642781E+03  0.25500000920E-02 0.  1.
    10030    2    1    2    0    0  0.00000000000E+00  0.00000000000E+00 -0.29779788971E+03  0.15868549659E+04  0.15586613165E+04 0.  0.
        1    1    3    3  502    0  0.79215549444E+02 -0.12886335476E+03  0.62943970987E+03  0.64736019020E+03  0.50400001928E-02 0. -1.
       -1    1    3    3    0  502 -0.79215549444E+02  0.12886335476E+03 -0.92723759958E+03  0.93949477570E+03  0.50400001928E-02 0.  1.
</event>
<event>
 5   0  0.7553070E-04  0.1595049E+04  0.7818609E-02  0.8823596E-01
        2   -1    0    0  501    0  0.00000000000E+00  0.00000000000E+00  0.15164798505E+04  0.15164798505E+04  0.25500000920E-02 0. -1.
       -2   -1    0    0    0  501  0.00000000000E+00  0.00000000000E+00 -0.41942205306E+03  0.41942205307E+03  0.25500000920E-02 0.  1.
    10030    2    1    2    0    0  0.00000000000E+00  0.00000000000E+00  0.10970577975E+04  0.19359019036E+04  0.15950487044E+04 0.  0.
        4    1    3    3  502    0  0.68819999287E+03  0.18046118307E+03  0.11116415538E+03  0.72010037573E+03  0.12699999809E+01 0.  1.
       -4    1    3    3    0  502 -0.68819999287E+03 -0.18046118307E+03  0.98589364208E+03  0.12158015279E+04  0.12699999809E+01 0. -1.
</event>
<event>
 5   0  0.3950195E-04  0.1591960E+04  0.7818609E-02  0.8825503E-01
        1   -1    0    0  501    0  0.00000000000E+00  0.00000000000E+00  0.91947739653E+03  0.91947739654E+03  0.50400001928E-02 0.  1.
       -1   -1    0    0    0  501  0.00000000000E+00  0.00000000000E+00 -0.68906946129E+03  0.68906946131E+03  0.50400001928E-02 0. -1.
    10030    2    1    2    0    0  0.00000000000E+00  0.00000000000E+00  0.23040793524E+03  0.16085468578E+04  0.15919595401E+04 0.  0.
        2    1    3    3  502    0  0.39726173404E+03 -0.50457610235E+03 -0.35998316066E+03  0.73620771822E+03  0.25500000920E-02 0. -1.
       -2    1    3    3    0  502 -0.39726173404E+03  0.50457610235E+03  0.59039109591E+03  0.87233913963E+03  0.25500000920E-02 0.  1.
</event>
<event>
 5   0  0.3950195E-04  0.1612754E+04  0.7818609E-02  0.8812751E-01
       -1   -1    0    0    0  501  0.00000000000E+00  0.00000000000E+00  0.67000857620E+03  0.67000857622E+03  0.50400001928E-02 0.  1.
        1   -1    0    0  501    0  0.00000000000E+00  0.00000000000E+00 -0.97050025095E+03  0.97050025096E+03  0.50400001928E-02 0. -1.
    10030    2    1    2    0    0  0.00000000000E+00  0.00000000000E+00 -0.30049167475E+03  0.16405088272E+04  0.16127535352E+04 0.  0.
        2    1    3    3  502    0  0.92995763728E+02 -0.42753419318E+03 -0.83925803213E+03  0.94646063991E+03  0.25500000920E-02 0. -1.
       -2    1    3    3    0  502 -0.92995763728E+02  0.42753419318E+03  0.53876635737E+03  0.69404818727E+03  0.25500000920E-02 0.  1.
</event>
<event>
 5   0  0.7415102E-04  0.1610060E+04  0.7818609E-02  0.8814392E-01
        2   -1    0    0  501    0  0.00000000000E+00  0.00000000000E+00  0.19551183106E+04  0.19551183106E+04  0.25500000920E-02 0. -1.
       -2   -1    0    0    0  501  0.00000000000E+00  0.00000000000E+00 -0.33147521227E+03  0.33147521228E+03  0.25500000920E-02 0.  1.
    10030    2    1    2    0    0  0.00000000000E+00  0.00000000000E+00  0.16236430983E+04  0.22865935229E+04  0.16100599455E+04 0.  0.
        5    1    3    3  502    0 -0.12611616641E+02  0.25375012385E+03  0.18966684821E+04  0.19136147991E+04  0.46999998093E+01 0. -1.
       -5    1    3    3    0  502  0.12611616641E+02 -0.25375012385E+03 -0.27302538377E+03  0.37297872381E+03  0.46999998093E+01 0.  1.
</event>
<event>
 5   0  0.7488884E-04  0.1588817E+04  0.7818609E-02  0.8827448E-01
        2   -1    0    0  501    0  0.00000000000E+00  0.00000000000E+00  0.75471881117E+03  0.75471881118E+03  0.25500000920E-02 0.  1.
       -2   -1    0    0    0  501  0.00000000000E+00  0.00000000000E+00 -0.83618544562E+03  0.83618544563E+03  0.25500000920E-02 0. -1.
    10030    2    1    2    0    0  0.00000000000E+00  0.00000000000E+00 -0.81466634449E+02  0.15909042568E+04  0.15888170259E+04 0.  0.
        3    1    3    3  502    0 -0.24065727629E+03  0.19425786719E+03  0.69196072073E+03  0.75793251206E+03  0.10100000352E+00 0.  1.
       -3    1    3    3    0  502  0.24065727629E+03 -0.19425786719E+03 -0.77342735518E+03  0.83297174474E+03  0.10100000352E+00 0. -1.
</event>
<event>
 5   0  0.3950195E-04  0.1585736E+04  0.7818609E-02  0.8829359E-01
       -1   -1    0    0    0  501  0.00000000000E+00  0.00000000000E+00  0.95313264631E+03  0.95313264633E+03  0.50400001928E-02 0.  1.
        1   -1    0    0  501    0  0.00000000000E+00  0.00000000000E+00 -0.65955073788E+03  0.65955073790E+03  0.50400001928E-02 0. -1.
    10030    2    1    2    0    0  0.00000000000E+00  0.00000000000E+00  0.29358190843E+03  0.16126833842E+04  0.15857355898E+04 0.  0.
        2    1    3    3  502    0  0.16750800718E+03  0.35310828071E+03 -0.55478369198E+03  0.67862311725E+03  0.25500000920E-02 0. -1.
       -2    1    3    3    0  502 -0.16750800718E+03 -0.35310828071E+03  0.84836560041E+03  0.93406026698E+03  0.25500000920E-02 0.  1.
</event>
<event>
 5   0  0.7553070E-04  0.1643810E+04  0.7818609E-02  0.8794077E-01
        2   -1    0    0  501    0  0.00000000000E+00  0.00000000000E+00  0.17264251398E+04  0.17264251398E+04  0.25500000920E-02 0. -1.
       -2   -1    0    0    0  501  0.00000000000E+00  0.00000000000E+00 -0.39128718892E+03  0.39128718893E+03  0.25500000920E-02 0.  1.
    10030    2    1    2    0    0  0.00000000000E+00  0.00000000000E+00  0.13351379509E+04  0.21177123287E+04  0.16438102565E+04 0.  0.
        4    1    3    3  502    0 -0.70590208955E+03 -0.23857133274E+03  0.11144279135E+04  0.13405839131E+04  0.12699999809E+01 0. -1.
       -4    1    3    3    0  502  0.70590208955E+03  0.23857133274E+03  0.22071003738E+03  0.77712841561E+03  0.12699999809E+01 0.  1.
</event>
<event>
 5   0  0.3837251E-04  0.1598251E+04  0.7818609E-02  0.8821623E-01
        1   -1    0    0  501    0  0.00000000000E+00  0.00000000000E+00  0.10341599162E+04  0.10341599163E+04  0.50400001928E-02 0. -1.
       -1   -1    0    0    0  501  0.00000000000E+00  0.00000000000E+00 -0.61750743560E+03  0.61750743562E+03  0.50400001928E-02 0.  1.
    10030    2    1    2    0    0  0.00000000000E+00  0.00000000000E+00  0.41665248065E+03  0.16516673519E+04  0.15982508413E+04 0.  0.
        4    1    3    3  502    0 -0.62255644763E+03  0.50084876490E+03  0.22195053528E+03  0.82927056429E+03  0.12699999809E+01 0. -1.
       -4    1    3    3    0  502  0.62255644763E+03 -0.50084876490E+03  0.19470194537E+03  0.82239678758E+03  0.12699999809E+01 0.  1.
</event>
<event>
 5   0  0.3973227E-04  0.1600108E+04  0.7818609E-02  0.8820481E-01
        1   -1    0    0  501    0  0.00000000000E+00  0.00000000000E+00  0.10054202653E+04  0.10054202653E+04  0.50400001928E-02 0. -1.
       -1   -1    0    0    0  501  0.00000000000E+00  0.00000000000E+00 -0.63663589996E+03  0.63663589998E+03  0.50400001928E-02 0.  1.
    10030    2    1    2    0    0  0.00000000000E+00  0.00000000000E+00  0.36878436537E+03  0.16420561653E+04  0.16001082907E+04 0.  0.
        3    1    3    3  502    0  0.39569391316E+03  0.86132584488E+02  0.89247661438E+03  0.98005459667E+03  0.10100000352E+00 0. -1.
       -3    1    3    3    0  502 -0.39569391316E+03 -0.86132584488E+02 -0.52369224902E+03  0.66200156866E+03  0.10100000352E+00 0.  1.
</event>
<event>
 5   0  0.7395088E-04  0.1613881E+04  0.7818609E-02  0.8812066E-01
       -2   -1    0    0    0  501  0.00000000000E+00  0.00000000000E+00  0.80054320496E+03  0.80054320496E+03  0.25500000920E-02 0.  1.
        2   -1    0    0  501    0  0.00000000000E+00  0.00000000000E+00 -0.81338856997E+03  0.81338856998E+03  0.25500000920E-02 0. -1.
    10030    2    1    2    0    0  0.00000000000E+00  0.00000000000E+00 -0.12845365011E+02  0.16139317749E+04  0.16138806557E+04 0.  0.
        1    1    3    3  502    0 -0.26672587233E+03 -0.59085016883E+03  0.47411941523E+03  0.80314122849E+03  0.50400001928E-02 0.  1.
       -1    1    3    3    0  502  0.26672587233E+03  0.59085016883E+03 -0.48696478025E+03  0.81079054645E+03  0.50400001928E-02 0. -1.
</event>
<event>
 5   0  0.3950195E-04  0.1604684E+04  0.7818609E-02  0.8817676E-01
       -1   -1    0    0    0  501  0.00000000000E+00  0.00000000000E+00  0.84101206265E+03  0.84101206267E+03  0.50400001928E-02 0. -1.
        1   -1    0    0  501    0  0.00000000000E+00  0.00000000000E+00 -0.76544986672E+03  0.76544986674E+03  0.50400001928E-02 0.  1.
    10030    2    1    2    0    0  0.00000000000E+00  0.00000000000E+00  0.75562195932E+02  0.16064619294E+04  0.16046838583E+04 0.  0.
        2    1    3    3  502    0 -0.16251894833E+03  0.19283170285E+03  0.80030486425E+03  0.83909734235E+03  0.25500000920E-02 0. -1.
       -2    1    3    3    0  502  0.16251894833E+03 -0.19283170285E+03 -0.72474266831E+03  0.76736458706E+03  0.25500000920E-02 0.  1.
</event>
<event>
 5   0  0.7395088E-04  0.1618351E+04  0.7818609E-02  0.8809353E-01
       -2   -1    0    0    0  501  0.00000000000E+00  0.00000000000E+00  0.36642301852E+03  0.36642301853E+03  0.25500000920E-02 0. -1.
        2   -1    0    0  501    0  0.00000000000E+00  0.00000000000E+00 -0.17869106815E+04  0.17869106815E+04  0.25500000920E-02 0.  1.
    10030    2    1    2    0    0  0.00000000000E+00  0.00000000000E+00 -0.14204876630E+04  0.21533337001E+04  0.16183512669E+04 0.  0.
        1    1    3    3  502    0 -0.20729224044E+03 -0.77432931428E+03 -0.85726604756E+03  0.11736528602E+04  0.50400001928E-02 0.  1.
       -1    1    3    3    0  502  0.20729224044E+03  0.77432931428E+03 -0.56322161546E+03  0.97968083989E+03  0.50400001928E-02 0. -1.
</event>
<event>
 5   0  0.7488884E-04  0.1357611E+04  0.7818609E-02  0.8985087E-01
        2   -1    0    0  501    0  0.00000000000E+00  0.00000000000E+00  0.13922070630E+04  0.13922070630E+04  0.25500000920E-02 0. -1.
       -2   -1    0    0    0  501  0.00000000000E+00  0.00000000000E+00 -0.33096870654E+03  0.33096870655E+03  0.25500000920E-02 0.  1.
    10030    2    1    2    0    0  0.00000000000E+00  0.00000000000E+00  0.10612383565E+04  0.17231757696E+04  0.13576110944E+04 0.  0.
        3    1    3    3  502    0 -0.19048534117E+03  0.52093366336E+03  0.33945953735E+02  0.55570575379E+03  0.10100000352E+00 0.  1.
       -3    1    3    3    0  502  0.19048534117E+03 -0.52093366336E+03  0.10272924027E+04  0.11674700158E+04  0.10100000352E+00 0. -1.
</event>
<event>
 5   0  0.3889847E-04  0.1621960E+04  0.7818609E-02  0.8807170E-01
        1   -1    0    0  501    0  0.00000000000E+00  0.00000000000E+00  0.10981454497E+04  0.10981454498E+04  0.50400001928E-02 0.  1.
       -1   -1    0    0    0  501  0.00000000000E+00  0.00000000000E+00 -0.59890847961E+03  0.59890847963E+03  0.50400001928E-02 0. -1.
    10030    2    1    2    0    0  0.00000000000E+00  0.00000000000E+00  0.49923697014E+03  0.16970539294E+04  0.16219600756E+04 0.  0.
        1    1    3    3  502    0  0.93134171825E+02 -0.10263262980E+02  0.10924630437E+04  0.10964738074E+04  0.50400001928E-02 0.  1.
       -1    1    3    3    0  502 -0.93134171825E+02  0.10263262980E+02 -0.59322607355E+03  0.60058012196E+03  0.50400001928E-02 0. -1.
</event>
<event>
 5   0  0.3889847E-04  0.1636352E+04  0.7818609E-02  0.8798521E-01
       -1   -1    0    0    0  501  0.00000000000E+00  0.00000000000E+00  0.93675544206E+03  0.93675544207E+03  0.50400001928E-02 0. -1.
        1   -1    0    0  501    0  0.00000000000E+00  0.00000000000E+00 -0.71460719570E+03  0.71460719572E+03  0.50400001928E-02 0.  1.
    10030    2    1    2    0    0  0.00000000000E+00  0.00000000000E+00  0.22214824636E+03  0.16513626378E+04  0.16363522598E+04 0.  0.
        1    1    3    3  502    0 -0.33766061527E+03 -0.64700263480E+03 -0.26216315750E+03  0.77547187036E+03  0.50400001928E-02 0.  1.
       -1    1    3    3    0  502  0.33766061527E+03  0.64700263480E+03  0.48431140386E+03  0.87589076743E+03  0.50400001928E-02 0. -1.
</event>
<event>
 5   0  0.7395088E-04  0.1555993E+04  0.7818609E-02  0.8848049E-01
       -2   -1    0    0    0  501  0.00000000000E+00  0.00000000000E+00  0.56346901958E+03  0.56346901959E+03  0.25500000920E-02 0.  1.
        2   -1    0    0  501    0  0.00000000000E+00  0.00000000000E+00 -0.10742002713E+04  0.10742002713E+04  0.25500000920E-02 0. -1.
    10030    2    1    2    0    0  0.00000000000E+00  0.00000000000E+00 -0.51073125167E+03  0.16376692908E+04  0.15559930253E+04 0.  0.
        1    1    3    3  502    0  0.26566295306E+02  0.15318601398E+03  0.54695241367E+03  0.56861996603E+03  0.50400001928E-02 0.  1.
       -1    1    3    3    0  502 -0.26566295306E+02 -0.15318601398E+03 -0.10576836653E+04  0.10690493248E+04  0.50400001928E-02 0. -1.
</event>
<event>
 5   0  0.3950195E-04  0.1598457E+04  0.7818609E-02  0.8821497E-01
       -1   -1    0    0    0  501  0.00000000000E+00  0.00000000000E+00  0.11175879498E+04  0.11175879498E+04  0.50400001928E-02 0.  1.
        1   -1    0    0  501    0  0.00000000000E+00  0.00000000000E+00 -0.57155772412E+03  0.57155772414E+03  0.50400001928E-02 0. -1.
    10030    2    1    2    0    0  0.00000000000E+00  0.00000000000E+00  0.54603022570E+03  0.16891456740E+04  0.15984567872E+04 0.  0.
        2    1    3    3  502    0 -0.10970731621E+03 -0.72350067774E+03  0.61261553453E+03  0.95435146518E+03  0.25500000920E-02 0.  1.
       -2    1    3    3    0  502  0.10970731621E+03  0.72350067774E+03 -0.66585308833E+02  0.73479420880E+03  0.25500000920E-02 0. -1.
</event>
<event>
 5   0  0.3889847E-04  0.1605246E+04  0.7818609E-02  0.8817332E-01
       -1   -1    0    0    0  501  0.00000000000E+00  0.00000000000E+00  0.12524977324E+04  0.12524977324E+04  0.50400001928E-02 0.  1.
        1   -1    0    0  501    0  0.00000000000E+00  0.00000000000E+00 -0.51433517469E+03  0.51433517472E+03  0.50400001928E-02 0. -1.
    10030    2    1    2    0    0  0.00000000000E+00  0.00000000000E+00  0.73816255771E+03  0.17668329071E+04  0.16052459500E+04 0.  0.
        1    1    3    3  502    0  0.14533695364E+03 -0.76597924810E+03  0.15921361133E+03  0.79573614514E+03  0.50400001928E-02 0. -1.
       -1    1    3    3    0  502 -0.14533695364E+03  0.76597924810E+03  0.57894894639E+03  0.97109676200E+03  0.50400001928E-02 0.  1.
</event>
<event>
 5   0  0.7488884E-04  0.1584563E+04  0.7818609E-02  0.8830088E-01
        2   -1    0    0  501    0  0.00000000000E+00  0.00000000000E+00  0.16219674490E+04  0.16219674490E+04  0.25500000920E-02 0.  1.
       -2   -1    0    0    0  501  0.00000000000E+00  0.00000000000E+00 -0.38700538944E+03  0.38700538945E+03  0.25500000920E-02 0. -1.
    10030    2    1    2    0    0  0.00000000000E+00  0.00000000000E+00  0.12349620595E+04  0.20089728384E+04  0.15845632133E+04 0.  0.
        3    1    3    3  502    0 -0.52098892596E+02 -0.17419717164E+03  0.15951585737E+04  0.16054874134E+04  0.10100000352E+00 0.  1.
       -3    1    3    3    0  502  0.52098892596E+02  0.17419717164E+03 -0.36019651413E+03  0.40348542503E+03  0.10100000352E+00 0. -1.
</event>
<event>
 5   0  0.3837251E-04  0.1597465E+04  0.7818609E-02  0.8822107E-01
       -1   -1    0    0    0  501  0.00000000000E+00  0.00000000000E+00  0.66363300303E+03  0.66363300305E+03  0.50400001928E-02 0. -1.
        1   -1    0    0  501    0  0.00000000000E+00  0.00000000000E+00 -0.96133484814E+03  0.96133484816E+03  0.50400001928E-02 0.  1.
    10030    2    1    2    0    0  0.00000000000E+00  0.00000000000E+00 -0.29770184511E+03  0.16249678512E+04  0.15974649069E+04 0.  0.
        4    1    3    3  502    0  0.73704274805E+02  0.47292106328E+03  0.50159946687E+03  0.69331831815E+03  0.12699999809E+01 0. -1.
       -4    1    3    3    0  502 -0.73704274805E+02 -0.47292106328E+03 -0.79930131198E+03  0.93164953306E+03  0.12699999809E+01 0.  1.
</event>
<event>
 5   0  0.3837251E-04  0.1572667E+04  0.7818609E-02  0.8837518E-01
        1   -1    0    0  501    0  0.00000000000E+00  0.00000000000E+00  0.12381298683E+04  0.12381298683E+04  0.50400001928E-02 0. -1.
       -1   -1    0    0    0  501  0.00000000000E+00  0.00000000000E+00 -0.49939839526E+03  0.49939839528E+03  0.50400001928E-02 0.  1.
    10030    2    1    2    0    0  0.00000000000E+00  0.00000000000E+00  0.73873147306E+03  0.17375282636E+04  0.15726666136E+04 0.  0.
        4    1    3    3  502    0 -0.27696877704E+03  0.46236673089E+03 -0.26321421506E+03  0.59981499915E+03  0.12699999809E+01 0.  1.
       -4    1    3    3    0  502  0.27696877704E+03 -0.46236673089E+03  0.10019456881E+04  0.11377132645E+04  0.12699999809E+01 0. -1.
</event>
<event>
 5   0  0.3837251E-04  0.1603089E+04  0.7818609E-02  0.8818652E-01
        1   -1    0    0  501    0  0.00000000000E+00  0.00000000000E+00  0.94439282244E+03  0.94439282245E+03  0.50400001928E-02 0.  1.
       -1   -1    0    0    0  501  0.00000000000E+00  0.00000000000E+00 -0.68030351436E+03  0.68030351437E+03  0.50400001928E-02 0. -1.
    10030    2    1    2    0    0  0.00000000000E+00  0.00000000000E+00  0.26408930808E+03  0.16246963368E+04  0.16030892128E+04 0.  0.
        4    1    3    3  502    0 -0.72453353987E+03 -0.33432677952E+03  0.55201216689E+02  0.79985750801E+03  0.12699999809E+01 0. -1.
       -4    1    3    3    0  502  0.72453353987E+03  0.33432677952E+03  0.20888809139E+03  0.82483882882E+03  0.12699999809E+01 0.  1.
</event>
<event>
 5   0  0.7770905E-04  0.1571794E+04  0.7818609E-02  0.8838066E-01
        2   -1    0    0  501    0  0.00000000000E+00  0.00000000000E+00  0.73698584481E+03  0.73698584481E+03  0.25500000920E-02 0.  1.
       -2   -1    0    0    0  501  0.00000000000E+00  0.00000000000E+00 -0.83805461116E+03  0.83805461117E+03  0.25500000920E-02 0. -1.
    10030    2    1    2    0    0  0.00000000000E+00  0.00000000000E+00 -0.10106876636E+03  0.15750404560E+04  0.15717943703E+04 0.  0.
        2    1    3    3  502    0  0.67792004140E+03 -0.41107910907E+02  0.34571740434E+03  0.76209314821E+03  0.25500000920E-02 0.  1.
       -2    1    3    3    0  502 -0.67792004140E+03  0.41107910907E+02 -0.44678617070E+03  0.81294730777E+03  0.25500000920E-02 0. -1.
</event>
<event>
 5   0  0.7553070E-04  0.1619350E+04  0.7818609E-02  0.8808748E-01
       -2   -1    0    0    0  501  0.00000000000E+00  0.00000000000E+00  0.71846711958E+03  0.71846711959E+03  0.25500000920E-02 0. -1.
        2   -1    0    0  501    0  0.00000000000E+00  0.00000000000E+00 -0.91246172081E+03  0.91246172082E+03  0.25500000920E-02 0.  1.
    10030    2    1    2    0    0  0.00000000000E+00  0.00000000000E+00 -0.19399460123E+03  0.16309288404E+04  0.16193501713E+04 0.  0.
        4    1    3    3  502    0 -0.61720663964E+03 -0.45454012655E+03  0.16567660066E+03  0.78422006578E+03  0.12699999809E+01 0. -1.
       -4    1    3    3    0  502  0.61720663964E+03  0.45454012655E+03 -0.35967120189E+03  0.84670877463E+03  0.12699999809E+01 0.  1.
</event>
<event>
 5   0  0.7488884E-04  0.1574801E+04  0.7818609E-02  0.8836180E-01
        2   -1    0    0  501    0  0.00000000000E+00  0.00000000000E+00  0.85991461668E+03  0.85991461668E+03  0.25500000920E-02 0. -1.
       -2   -1    0    0    0  501  0.00000000000E+00  0.00000000000E+00 -0.72100161036E+03  0.72100161037E+03  0.25500000920E-02 0.  1.
    10030    2    1    2    0    0  0.00000000000E+00  0.00000000000E+00  0.13891300632E+03  0.15809162271E+04  0.15748013505E+04 0.  0.
        3    1    3    3  502    0  0.43674102284E+03 -0.54290859147E+03  0.43763302662E+03  0.82280929498E+03  0.10100000352E+00 0. -1.
       -3    1    3    3    0  502 -0.43674102284E+03  0.54290859147E+03 -0.29872002030E+03  0.75810693207E+03  0.10100000352E+00 0.  1.
</event>
<event>
 5   0  0.3973227E-04  0.1684411E+04  0.7818609E-02  0.8770306E-01
        1   -1    0    0  501    0  0.00000000000E+00  0.00000000000E+00  0.74696138800E+03  0.74696138802E+03  0.50400001928E-02 0. -1.
       -1   -1    0    0    0  501  0.00000000000E+00  0.00000000000E+00 -0.94959364643E+03  0.94959364644E+03  0.50400001928E-02 0.  1.
    10030    2    1    2    0    0  0.00000000000E+00  0.00000000000E+00 -0.20263225842E+03  0.16965550345E+04  0.16844106248E+04 0.  0.
        3    1    3    3  502    0 -0.17481467444E+03  0.54707600960E+03 -0.72175860263E+03  0.92238160290E+03  0.10100000352E+00 0.  1.
       -3    1    3    3    0  502  0.17481467444E+03 -0.54707600960E+03  0.51912634421E+03  0.77417343156E+03  0.10100000352E+00 0. -1.
</event>
<event>
 5   0  0.7415102E-04  0.1584349E+04  0.7818609E-02  0.8830221E-01
        2   -1    0    0  501    0  0.00000000000E+00  0.00000000000E+00  0.86771129670E+03  0.86771129671E+03  0.25500000920E-02 0. -1.
       -2   -1    0    0    0  501  0.00000000000E+00  0.00000000000E+00 -0.72321295693E+03  0.72321295693E+03  0.25500000920E-02 0.  1.
    10030    2    1    2    0    0  0.00000000000E+00  0.00000000000E+00  0.14449833978E+03  0.15909242536E+04  0.15843485130E+04 0.  0.
        5    1    3    3  502    0  0.46366613956E+03  0.99554319956E+02 -0.56490830721E+03  0.73759123988E+03  0.46999998093E+01 0.  1.
       -5    1    3    3    0  502 -0.46366613956E+03 -0.99554319956E+02  0.70940664698E+03  0.85333301376E+03  0.46999998093E+01 0. -1.
</event>
<event>
 5   0  0.7770905E-04  0.1599298E+04  0.7818609E-02  0.8820979E-01
        2   -1    0    0  501    0  0.00000000000E+00  0.00000000000E+00  0.13962409771E+04  0.13962409771E+04  0.25500000920E-02 0. -1.
       -2   -1    0    0    0  501  0.00000000000E+00  0.00000000000E+00 -0.45797149393E+03  0.45797149394E+03  0.25500000920E-02 0.  1.
    10030    2    1    2    0    0  0.00000000000E+00  0.00000000000E+00  0.93826948314E+03  0.18542124710E+04  0.15992980537E+04 0.  0.
        2    1    3    3  502    0 -0.97106903607E+01  0.45516345350E+02 -0.45639992136E+03  0.45876674184E+03  0.25500000920E-02 0.  1.
       -2    1    3    3    0  502  0.97106903607E+01 -0.45516345350E+02  0.13946694045E+04  0.13954457292E+04  0.25500000920E-02 0. -1.
</event>
<event>
 5   0  0.3973227E-04  0.1586815E+04  0.7818609E-02  0.8828689E-01
        1   -1    0    0  501    0  0.00000000000E+00  0.00000000000E+00  0.74182083926E+03  0.74182083928E+03  0.50400001928E-02 0.  1.
       -1   -1    0    0    0  501  0.00000000000E+00  0.00000000000E+00 -0.84858110145E+03  0.84858110146E+03  0.50400001928E-02 0. -1.
    10030    2    1    2    0    0  0.00000000000E+00  0.00000000000E+00 -0.10676026219E+03  0.15904019407E+04  0.15868146015E+04 0.  0.
        3    1    3    3  502    0 -0.69090973828E+03  0.28318976839E+03 -0.32220735063E+03  0.81324676351E+03  0.10100000352E+00 0. -1.
       -3    1    3    3    0  502  0.69090973828E+03 -0.28318976839E+03  0.21544708844E+03  0.77715517722E+03  0.10100000352E+00 0.  1.
</event>
<event>
 5   0  0.7415102E-04  0.1613836E+04  0.7818609E-02  0.8812093E-01
       -2   -1    0    0    0  501  0.00000000000E+00  0.00000000000E+00  0.26589348928E+03  0.26589348930E+03  0.25500000920E-02 0.  1.
        2   -1    0    0  501    0  0.00000000000E+00  0.00000000000E+00 -0.24487881726E+04  0.24487881726E+04  0.25500000920E-02 0. -1.
    10030    2    1    2    0    0  0.00000000000E+00  0.00000000000E+00 -0.21828946834E+04  0.27146816619E+04  0.16138362144E+04 0.  0.
        5    1    3    3  502    0 -0.18189494373E+02 -0.80634146823E+03 -0.11318647079E+04  0.13898407204E+04  0.46999998093E+01 0. -1.
       -5    1    3    3    0  502  0.18189494373E+02  0.80634146823E+03 -0.10510299755E+04  0.13248409416E+04  0.46999998093E+01 0.  1.
</event>
<event>
 5   0  0.2781000E-04  0.1553609E+04  0.7818609E-02  0.8849566E-01
        3   -1    0    0  501    0  0.00000000000E+00  0.00000000000E+00  0.30302004267E+03  0.30302005950E+03  0.10100000352E+00 0.  1.
       -3   -1    0    0    0  501  0.00000000000E+00  0.00000000000E+00 -0.19913695714E+04  0.19913695739E+04  0.10100000352E+00 0. -1.
    10030    2    1    2    0    0  0.00000000000E+00  0.00000000000E+00 -0.16883495287E+04  0.22943896334E+04  0.15536085926E+04 0.  0.
        2    1    3    3  502    0  0.36690463084E+02 -0.71301004808E+02  0.29689149730E+03  0.30752981082E+03  0.25500000920E-02 0.  1.
       -2    1    3    3    0  502 -0.36690463084E+02  0.71301004808E+02 -0.19852410260E+04  0.19868598226E+04  0.25500000920E-02 0. -1.
</event>
<event>
 5   0  0.7415102E-04  0.1620029E+04  0.7818609E-02  0.8808337E-01
        2   -1    0    0  501    0  0.00000000000E+00  0.00000000000E+00  0.21729902383E+03  0.21729902384E+03  0.25500000920E-02 0.  1.
       -2   -1    0    0    0  501  0.00000000000E+00  0.00000000000E+00 -0.30194493290E+04  0.30194493290E+04  0.25500000920E-02 0. -1.
    10030    2    1    2    0    0  0.00000000000E+00  0.00000000000E+00 -0.28021503052E+04  0.32367483529E+04  0.16200288784E+04 0.  0.
        5    1    3    3  502    0  0.12665619458E+03  0.76996139689E+03 -0.18352297219E+04  0.19942348324E+04  0.46999998093E+01 0. -1.
       -5    1    3    3    0  502 -0.12665619458E+03 -0.76996139689E+03 -0.96692058328E+03  0.12425135205E+04  0.46999998093E+01 0.  1.
</event>
<event>
 5   0  0.7395088E-04  0.1574184E+04  0.7818609E-02  0.8836567E-01
        2   -1    0    0  501    0  0.00000000000E+00  0.00000000000E+00  0.25462914650E+04  0.25462914650E+04  0.25500000920E-02 0. -1.
       -2   -1    0    0    0  501  0.00000000000E+00  0.00000000000E+00 -0.24330035172E+03  0.24330035173E+03  0.25500000920E-02 0.  1.
    10030    2    1    2    0    0  0.00000000000E+00  0.00000000000E+00  0.23029911132E+04  0.27895918167E+04  0.15741837365E+04 0.  0.
        1    1    3    3  502    0  0.17816300255E+03 -0.41667541237E+03  0.11073191360E+02  0.45330240496E+03  0.50400001928E-02 0.  1.
       -1    1    3    3    0  502 -0.17816300255E+03  0.41667541237E+03  0.22919179219E+04  0.23362894117E+04  0.50400001928E-02 0. -1.
</event>
<event>
 5   0  0.7553070E-04  0.1643765E+04  0.7818609E-02  0.8794104E-01
       -2   -1    0    0    0  501  0.00000000000E+00  0.00000000000E+00  0.51546671552E+03  0.51546671552E+03  0.25500000920E-02 0. -1.
        2   -1    0    0  501    0  0.00000000000E+00  0.00000000000E+00 -0.13104450118E+04  0.13104450118E+04  0.25500000920E-02 0.  1.
    10030    2    1    2    0    0  0.00000000000E+00  0.00000000000E+00 -0.79497829626E+03  0.18259117273E+04  0.16437649298E+04 0.  0.
        4    1    3    3  502    0 -0.62957351513E+03 -0.48429236321E+03 -0.16293371100E+03  0.81083346693E+03  0.12699999809E+01 0.  1.
       -4    1    3    3    0  502  0.62957351513E+03  0.48429236321E+03 -0.63204458526E+03  0.10150782604E+04  0.12699999809E+01 0. -1.
</event>
<event>
 5   0  0.3973227E-04  0.1597847E+04  0.7818609E-02  0.8821872E-01
       -1   -1    0    0    0  501  0.00000000000E+00  0.00000000000E+00  0.32835338575E+03  0.32835338578E+03  0.50400001928E-02 0. -1.
        1   -1    0    0  501    0  0.00000000000E+00  0.00000000000E+00 -0.19438763837E+04  0.19438763837E+04  0.50400001928E-02 0.  1.
    10030    2    1    2    0    0  0.00000000000E+00  0.00000000000E+00 -0.16155229980E+04  0.22722297695E+04  0.15978465410E+04 0.  0.
        3    1    3    3  502    0  0.35141518855E+03  0.71743439511E+03 -0.81996436776E+03  0.11447909506E+04  0.10100000352E+00 0.  1.
       -3    1    3    3    0  502 -0.35141518855E+03 -0.71743439511E+03 -0.79555863022E+03  0.11274388189E+04  0.10100000352E+00 0. -1.
</event>
<event>
 5   0  0.3837251E-04  0.1570249E+04  0.7818609E-02  0.8839037E-01
       -1   -1    0    0    0  501  0.00000000000E+00  0.00000000000E+00  0.32016055522E+03  0.32016055526E+03  0.50400001928E-02 0. -1.
        1   -1    0    0  501    0  0.00000000000E+00  0.00000000000E+00 -0.19253480063E+04  0.19253480063E+04  0.50400001928E-02 0.  1.
    10030    2    1    2    0    0  0.00000000000E+00  0.00000000000E+00 -0.16051874511E+04  0.22455085616E+04  0.15702490080E+04 0.  0.
        4    1    3    3  502    0 -0.46714567609E+03 -0.37389120247E+03 -0.75665158505E+02  0.60311403820E+03  0.12699999809E+01 0. -1.
       -4    1    3    3    0  502  0.46714567609E+03  0.37389120247E+03 -0.15295222926E+04  0.16423945234E+04  0.12699999809E+01 0.  1.
</event>
<event>
 5   0  0.7395088E-04  0.1606980E+04  0.7818609E-02  0.8816271E-01
       -2   -1    0    0    0  501  0.00000000000E+00  0.00000000000E+00  0.51939215951E+03  0.51939215952E+03  0.25500000920E-02 0. -1.
        2   -1    0    0  501    0  0.00000000000E+00  0.00000000000E+00 -0.12429844921E+04  0.12429844921E+04  0.25500000920E-02 0.  1.
    10030    2    1    2    0    0  0.00000000000E+00  0.00000000000E+00 -0.72359233255E+03  0.17623766516E+04  0.16069802731E+04 0.  0.
        1    1    3    3  502    0  0.60966290984E+03  0.42515020255E+03 -0.69652328554E+03  0.10186197748E+04  0.50400001928E-02 0.  1.
       -1    1    3    3    0  502 -0.60966290984E+03 -0.42515020255E+03 -0.27069047008E+02  0.74375687674E+03  0.50400001928E-02 0. -1.
</event>
<event>
 5   0  0.3889847E-04  0.1603348E+04  0.7818609E-02  0.8818494E-01
        1   -1    0    0  501    0  0.00000000000E+00  0.00000000000E+00  0.10985432206E+04  0.10985432207E+04  0.50400001928E-02 0.  1.
       -1   -1    0    0    0  501  0.00000000000E+00  0.00000000000E+00 -0.58503014038E+03  0.58503014040E+03  0.50400001928E-02 0. -1.
    10030    2    1    2    0    0  0.00000000000E+00  0.00000000000E+00  0.51351308027E+03  0.16835733611E+04  0.16033476162E+04 0.  0.
        1    1    3    3  502    0 -0.66200786001E+03 -0.51187267241E+02  0.72846294194E+03  0.98566363473E+03  0.50400001928E-02 0.  1.
       -1    1    3    3    0  502  0.66200786001E+03  0.51187267241E+02 -0.21494986167E+03  0.69790972632E+03  0.50400001928E-02 0. -1.
</event>
<event>
 5   0  0.7553070E-04  0.1611363E+04  0.7818609E-02  0.8813598E-01
        2   -1    0    0  501    0  0.00000000000E+00  0.00000000000E+00  0.12708907271E+04  0.12708907271E+04  0.25500000920E-02 0.  1.
       -2   -1    0    0    0  501  0.00000000000E+00  0.00000000000E+00 -0.51076182328E+03  0.51076182328E+03  0.25500000920E-02 0. -1.
    10030    2    1    2    0    0  0.00000000000E+00  0.00000000000E+00  0.76012890379E+03  0.17816525503E+04  0.16113627338E+04 0.  0.
        4    1    3    3  502    0  0.18378489196E+03  0.24458112287E+02 -0.48685245274E+03  0.52096257966E+03  0.12699999809E+01 0. -1.
       -4    1    3    3    0  502 -0.18378489196E+03 -0.24458112287E+02  0.12469813565E+04  0.12606899707E+04  0.12699999809E+01 0.  1.
</event>
<event>
 5   0  0.7415102E-04  0.1631281E+04  0.7818609E-02  0.8801558E-01
        2   -1    0    0  501    0  0.00000000000E+00  0.00000000000E+00  0.22075889737E+04  0.22075889737E+04  0.25500000920E-02 0.  1.
       -2   -1    0    0    0  501  0.00000000000E+00  0.00000000000E+00 -0.30135557972E+03  0.30135557973E+03  0.25500000920E-02 0. -1.
    10030    2    1    2    0    0  0.00000000000E+00  0.00000000000E+00  0.19062333939E+04  0.25089445534E+04  0.16312807912E+04 0.  0.
        5    1    3    3  502    0 -0.70259805279E+03  0.28627984925E+03  0.14136172916E+04  0.16043491244E+04  0.46999998093E+01 0.  1.
       -5    1    3    3    0  502  0.70259805279E+03 -0.28627984925E+03  0.49261610234E+03  0.90459542899E+03  0.46999998093E+01 0. -1.
</event>
<event>
 5   0  0.7415102E-04  0.1516777E+04  0.7818609E-02  0.8873373E-01
        2   -1    0    0  501    0  0.00000000000E+00  0.00000000000E+00  0.11982866269E+04  0.11982866269E+04  0.25500000920E-02 0. -1.
       -2   -1    0    0    0  501  0.00000000000E+00  0.00000000000E+00 -0.47997947193E+03  0.47997947194E+03  0.25500000920E-02 0.  1.
    10030    2    1    2    0    0  0.00000000000E+00  0.00000000000E+00  0.71830715498E+03  0.16782660989E+04  0.15167768226E+04 0.  0.
        5    1    3    3  502    0 -0.71480256268E+03  0.10100977040E+03  0.61623846996E+03  0.94916680261E+03  0.46999998093E+01 0. -1.
       -5    1    3    3    0  502  0.71480256268E+03 -0.10100977040E+03  0.10206868503E+03  0.72909929625E+03  0.46999998093E+01 0.  1.
</event>
<event>
 5   0  0.3837251E-04  0.1583597E+04  0.7818609E-02  0.8830689E-01
       -1   -1    0    0    0  501  0.00000000000E+00  0.00000000000E+00  0.86203073183E+03  0.86203073185E+03  0.50400001928E-02 0. -1.
        1   -1    0    0  501    0  0.00000000000E+00  0.00000000000E+00 -0.72728808636E+03  0.72728808638E+03  0.50400001928E-02 0.  1.
    10030    2    1    2    0    0  0.00000000000E+00  0.00000000000E+00  0.13474264547E+03  0.15893188182E+04  0.15835967686E+04 0.  0.
        4    1    3    3  502    0  0.35160920480E+03 -0.59110625245E+03  0.46109924712E+03  0.82803971111E+03  0.12699999809E+01 0. -1.
       -4    1    3    3    0  502 -0.35160920480E+03  0.59110625245E+03 -0.32635660164E+03  0.76127910711E+03  0.12699999809E+01 0.  1.
</event>
<event>
 5   0  0.3837251E-04  0.1676854E+04  0.7818609E-02  0.8774677E-01
        1   -1    0    0  501    0  0.00000000000E+00  0.00000000000E+00  0.52589032880E+03  0.52589032882E+03  0.50400001928E-02 0.  1.
       -1   -1    0    0    0  501  0.00000000000E+00  0.00000000000E+00 -0.13367036327E+04  0.13367036327E+04  0.50400001928E-02 0. -1.
    10030    2    1    2    0    0  0.00000000000E+00  0.00000000000E+00 -0.81081330391E+03  0.18625939615E+04  0.16768536167E+04 0.  0.
        4    1    3    3  502    0 -0.42895312641E+03  0.34679436212E+03 -0.11067668854E+04  0.12366089381E+04  0.12699999809E+01 0. -1.
       -4    1    3    3    0  502  0.42895312641E+03 -0.34679436212E+03  0.29595358150E+03  0.62598502343E+03  0.12699999809E+01 0.  1.
</event>
<event>
 5   0  0.3889847E-04  0.1563305E+04  0.7818609E-02  0.8843414E-01
        1   -1    0    0  501    0  0.00000000000E+00  0.00000000000E+00  0.22378530796E+04  0.22378530796E+04  0.50400001928E-02 0.  1.
       -1   -1    0    0    0  501  0.00000000000E+00  0.00000000000E+00 -0.27302072440E+03  0.27302072445E+03  0.50400001928E-02 0. -1.
    10030    2    1    2    0    0  0.00000000000E+00  0.00000000000E+00  0.19648323552E+04  0.25108738041E+04  0.15633045371E+04 0.  0.
        1    1    3    3  502    0 -0.29247153783E+02 -0.76698376736E+03  0.74494327527E+03  0.10696073947E+04  0.50400001928E-02 0.  1.
       -1    1    3    3    0  502  0.29247153783E+02  0.76698376736E+03  0.12198890800E+04  0.14412664094E+04  0.50400001928E-02 0. -1.
</event>
<event>
 5   0  0.7415102E-04  0.1562303E+04  0.7818609E-02  0.8844047E-01
        2   -1    0    0  501    0  0.00000000000E+00  0.00000000000E+00  0.10643522487E+04  0.10643522487E+04  0.25500000920E-02 0.  1.
       -2   -1    0    0    0  501  0.00000000000E+00  0.00000000000E+00 -0.57330461201E+03  0.57330461201E+03  0.25500000920E-02 0. -1.
    10030    2    1    2    0    0  0.00000000000E+00  0.00000000000E+00  0.49104763670E+03  0.16376568607E+04  0.15623034955E+04 0.  0.
        5    1    3    3  502    0 -0.48934590255E+03  0.29695948614E+03  0.80269805908E+03  0.98589584277E+03  0.46999998093E+01 0.  1.
       -5    1    3    3    0  502  0.48934590255E+03 -0.29695948614E+03 -0.31165042238E+03  0.65176101795E+03  0.46999998093E+01 0. -1.
</event>
<event>
 5   0  0.7395088E-04  0.1624718E+04  0.7818609E-02  0.8805505E-01
        2   -1    0    0  501    0  0.00000000000E+00  0.00000000000E+00  0.12367270334E+04  0.12367270334E+04  0.25500000920E-02 0. -1.
       -2   -1    0    0    0  501  0.00000000000E+00  0.00000000000E+00 -0.53360792906E+03  0.53360792907E+03  0.25500000920E-02 0.  1.
    10030    2    1    2    0    0  0.00000000000E+00  0.00000000000E+00  0.70311910432E+03  0.17703349625E+04  0.16247182539E+04 0.  0.
        1    1    3    3  502    0  0.52954337478E+03  0.15977963159E+03  0.99984720730E+03  0.11426461195E+04  0.50400001928E-02 0. -1.
       -1    1    3    3    0  502 -0.52954337478E+03 -0.15977963159E+03 -0.29672810298E+03  0.62768884295E+03  0.50400001928E-02 0.  1.
</event>
<event>
 5   0  0.7395088E-04  0.1604557E+04  0.7818609E-02  0.8817753E-01
       -2   -1    0    0    0  501  0.00000000000E+00  0.00000000000E+00  0.40041539827E+03  0.40041539827E+03  0.25500000920E-02 0.  1.
        2   -1    0    0  501    0  0.00000000000E+00  0.00000000000E+00 -0.16074579023E+04  0.16074579023E+04  0.25500000920E-02 0. -1.
    10030    2    1    2    0    0  0.00000000000E+00  0.00000000000E+00 -0.12070425040E+04  0.20078733006E+04  0.16045571304E+04 0.  0.
        1    1    3    3  502    0 -0.74617519757E+03  0.29262191039E+03 -0.64769056683E+03  0.10304892422E+04  0.50400001928E-02 0. -1.
       -1    1    3    3    0  502  0.74617519757E+03 -0.29262191039E+03 -0.55935193722E+03  0.97738405839E+03  0.50400001928E-02 0.  1.
</event>
<event>
 5   0  0.7395088E-04  0.1592870E+04  0.7818609E-02  0.8824940E-01
       -2   -1    0    0    0  501  0.00000000000E+00  0.00000000000E+00  0.48312914213E+03  0.48312914214E+03  0.25500000920E-02 0.  1.
        2   -1    0    0  501    0  0.00000000000E+00  0.00000000000E+00 -0.13129182584E+04  0.13129182584E+04  0.25500000920E-02 0. -1.
    10030    2    1    2    0    0  0.00000000000E+00  0.00000000000E+00 -0.82978911625E+03  0.17960474005E+04  0.15928704553E+04 0.  0.
        1    1    3    3  502    0  0.42281916720E+03  0.59327958259E+03 -0.77773638002E+03  0.10656596962E+04  0.50400001928E-02 0. -1.
       -1    1    3    3    0  502 -0.42281916720E+03 -0.59327958259E+03 -0.52052736234E+02  0.73038770433E+03  0.50400001928E-02 0.  1.
</event>
<event>
 5   0  0.3950195E-04  0.1603416E+04  0.7818609E-02  0.8818452E-01
       -1   -1    0    0    0  501  0.00000000000E+00  0.00000000000E+00  0.44292372243E+03  0.44292372246E+03  0.50400001928E-02 0.  1.
        1   -1    0    0  501    0  0.00000000000E+00  0.00000000000E+00 -0.14511210725E+04  0.14511210726E+04  0.50400001928E-02 0. -1.
    10030    2    1    2    0    0  0.00000000000E+00  0.00000000000E+00 -0.10081973501E+04  0.18940447950E+04  0.16034162868E+04 0.  0.
        2    1    3    3  502    0  0.72494213431E+03 -0.23185099948E+03 -0.80162501265E+03  0.11053952438E+04  0.25500000920E-02 0.  1.
       -2    1    3    3    0  502 -0.72494213431E+03  0.23185099948E+03 -0.20657233748E+03  0.78864955124E+03  0.25500000920E-02 0. -1.
</event>
<event>
 5   0  0.4110803E-04  0.1581731E+04  0.7818609E-02  0.8831850E-01
       -1   -1    0    0    0  501  0.00000000000E+00  0.00000000000E+00  0.86447631571E+03  0.86447631572E+03  0.50400001928E-02 0. -1.
        1   -1    0    0  501    0  0.00000000000E+00  0.00000000000E+00 -0.72352299425E+03  0.72352299427E+03  0.50400001928E-02 0.  1.
    10030    2    1    2    0    0  0.00000000000E+00  0.00000000000E+00  0.14095332145E+03  0.15879993100E+04  0.15817313203E+04 0.  0.
        5    1    3    3  502    0  0.46168599360E+03 -0.57681808970E+03 -0.21272864213E+03  0.76886190598E+03  0.46999998093E+01 0.  1.
       -5    1    3    3    0  502 -0.46168599360E+03  0.57681808970E+03  0.35368196358E+03  0.81913740401E+03  0.46999998093E+01 0. -1.
</event>
<event>
 5   0  0.7415102E-04  0.1607708E+04  0.7818609E-02  0.8815826E-01
        2   -1    0    0  501    0  0.00000000000E+00  0.00000000000E+00  0.14390464090E+04  0.14390464090E+04  0.25500000920E-02 0. -1.
       -2   -1    0    0    0  501  0.00000000000E+00  0.00000000000E+00 -0.44903449357E+03  0.44903449358E+03  0.25500000920E-02 0.  1.
    10030    2    1    2    0    0  0.00000000000E+00  0.00000000000E+00  0.99001191544E+03  0.18880809026E+04  0.16077082764E+04 0.  0.
        5    1    3    3  502    0  0.39783654270E+03  0.58496962289E+03  0.46738530209E+02  0.70899221055E+03  0.46999998093E+01 0.  1.
       -5    1    3    3    0  502 -0.39783654270E+03 -0.58496962289E+03  0.94327338523E+03  0.11790886920E+04  0.46999998093E+01 0. -1.
</event>
<event>
 5   0  0.3837251E-04  0.1588902E+04  0.7818609E-02  0.8827395E-01
       -1   -1    0    0    0  501  0.00000000000E+00  0.00000000000E+00  0.87932712971E+03  0.87932712973E+03  0.50400001928E-02 0. -1.
        1   -1    0    0  501    0  0.00000000000E+00  0.00000000000E+00 -0.71776763117E+03  0.71776763119E+03  0.50400001928E-02 0.  1.
    10030    2    1    2    0    0  0.00000000000E+00  0.00000000000E+00  0.16155949854E+03  0.15970947609E+04  0.15889022008E+04 0.  0.
        4    1    3    3  502    0 -0.16439082234E+03 -0.74388336077E+03 -0.14569095984E+03  0.77563797327E+03  0.12699999809E+01 0.  1.
       -4    1    3    3    0  502  0.16439082234E+03  0.74388336077E+03  0.30725045838E+03  0.82145678765E+03  0.12699999809E+01 0. -1.
</event>
<event>
 5   0  0.7770905E-04  0.1592146E+04  0.7818609E-02  0.8825387E-01
        2   -1    0    0  501    0  0.00000000000E+00  0.00000000000E+00  0.10673125577E+04  0.10673125577E+04  0.25500000920E-02 0.  1.
       -2   -1    0    0    0  501  0.00000000000E+00  0.00000000000E+00 -0.59376468501E+03  0.59376468501E+03  0.25500000920E-02 0. -1.
    10030    2    1    2    0    0  0.00000000000E+00  0.00000000000E+00  0.47354787265E+03  0.16610772427E+04  0.15921463558E+04 0.  0.
        2    1    3    3  502    0  0.65761975741E+03  0.56330698877E+02 -0.22757480058E+03  0.69815985479E+03  0.25500000920E-02 0. -1.
       -2    1    3    3    0  502 -0.65761975741E+03 -0.56330698877E+02  0.70112267323E+03  0.96291738789E+03  0.25500000920E-02 0.  1.
</event>
<event>
 5   0  0.3889847E-04  0.1608418E+04  0.7818609E-02  0.8815393E-01
       -1   -1    0    0    0  501  0.00000000000E+00  0.00000000000E+00  0.32392341886E+03  0.32392341890E+03  0.50400001928E-02 0.  1.
        1   -1    0    0  501    0  0.00000000000E+00  0.00000000000E+00 -0.19966196668E+04  0.19966196668E+04  0.50400001928E-02 0. -1.
    10030    2    1    2    0    0  0.00000000000E+00  0.00000000000E+00 -0.16726962479E+04  0.23205430857E+04  0.16084176929E+04 0.  0.
        1    1    3    3  502    0  0.42930113171E+03  0.64235995155E+03 -0.51430113677E+03  0.92813330311E+03  0.50400001928E-02 0.  1.
       -1    1    3    3    0  502 -0.42930113171E+03 -0.64235995155E+03 -0.11583951111E+04  0.13924097826E+04  0.50400001928E-02 0. -1.
</event>
<event>
 5   0  0.7488884E-04  0.1680481E+04  0.7818609E-02  0.8772576E-01
       -2   -1    0    0    0  501  0.00000000000E+00  0.00000000000E+00  0.59480477114E+03  0.59480477115E+03  0.25500000920E-02 0.  1.
        2   -1    0    0  501    0  0.00000000000E+00  0.00000000000E+00 -0.11869508778E+04  0.11869508778E+04  0.25500000920E-02 0. -1.
    10030    2    1    2    0    0  0.00000000000E+00  0.00000000000E+00 -0.59214610666E+03  0.17817556490E+04  0.16804809374E+04 0.  0.
        3    1    3    3  502    0 -0.12659424166E+03  0.38120155203E+03 -0.10785627259E+04  0.11509293155E+04  0.10100000352E+00 0. -1.
       -3    1    3    3    0  502  0.12659424166E+03 -0.38120155203E+03  0.48641661927E+03  0.63082633347E+03  0.10100000352E+00 0.  1.
</event>
<event>
 5   0  0.7415102E-04  0.1632227E+04  0.7818609E-02  0.8800991E-01
        2   -1    0    0  501    0  0.00000000000E+00  0.00000000000E+00  0.13628680575E+04  0.13628680575E+04  0.25500000920E-02 0. -1.
       -2   -1    0    0    0  501  0.00000000000E+00  0.00000000000E+00 -0.48870554074E+03  0.48870554074E+03  0.25500000920E-02 0.  1.
    10030    2    1    2    0    0  0.00000000000E+00  0.00000000000E+00  0.87416251679E+03  0.18515735983E+04  0.16322269095E+04 0.  0.
        5    1    3    3  502    0  0.54078654938E+03 -0.29002439163E+03  0.10473917768E+04  0.12139258066E+04  0.46999998093E+01 0. -1.
       -5    1    3    3    0  502 -0.54078654938E+03  0.29002439163E+03 -0.17322926003E+03  0.63764779169E+03  0.46999998093E+01 0.  1.
</event>
<event>
 5   0  0.3889847E-04  0.1569342E+04  0.7818609E-02  0.8839607E-01
       -1   -1    0    0    0  501  0.00000000000E+00  0.00000000000E+00  0.37873451848E+03  0.37873451851E+03  0.50400001928E-02 0.  1.
        1   -1    0    0  501    0  0.00000000000E+00  0.00000000000E+00 -0.16256992390E+04  0.16256992390E+04  0.50400001928E-02 0. -1.
    10030    2    1    2    0    0  0.00000000000E+00  0.00000000000E+00 -0.12469647205E+04  0.20044337575E+04  0.15693417964E+04 0.  0.
        1    1    3    3  502    0  0.12374228751E+03  0.74595072871E+03 -0.89125873501E+03  0.11688014272E+04  0.50400001928E-02 0. -1.
       -1    1    3    3    0  502 -0.12374228751E+03 -0.74595072871E+03 -0.35570598552E+03  0.83563233036E+03  0.50400001928E-02 0.  1.
</event>
<event>
 5   0  0.3837251E-04  0.1588514E+04  0.7818609E-02  0.8827635E-01
       -1   -1    0    0    0  501  0.00000000000E+00  0.00000000000E+00  0.45751060451E+03  0.45751060454E+03  0.50400001928E-02 0. -1.
        1   -1    0    0  501    0  0.00000000000E+00  0.00000000000E+00 -0.13788631684E+04  0.13788631685E+04  0.50400001928E-02 0.  1.
    10030    2    1    2    0    0  0.00000000000E+00  0.00000000000E+00 -0.92135256394E+03  0.18363737730E+04  0.15885144277E+04 0.  0.
        4    1    3    3  502    0 -0.14156053954E+03 -0.48275632467E+03  0.24983678629E+03  0.56170551719E+03  0.12699999809E+01 0. -1.
       -4    1    3    3    0  502  0.14156053954E+03  0.48275632467E+03 -0.11711893502E+04  0.12746682558E+04  0.12699999809E+01 0.  1.
</event>
<event>
 5   0  0.4110803E-04  0.1614234E+04  0.7818609E-02  0.8811851E-01
       -1   -1    0    0    0  501  0.00000000000E+00  0.00000000000E+00  0.78782448230E+03  0.78782448232E+03  0.50400001928E-02 0. -1.
        1   -1    0    0  501    0  0.00000000000E+00  0.00000000000E+00 -0.82688155364E+03  0.82688155366E+03  0.50400001928E-02 0.  1.
    10030    2    1    2    0    0  0.00000000000E+00  0.00000000000E+00 -0.39057071337E+02  0.16147060360E+04  0.16142336039E+04 0.  0.
        5    1    3    3  502    0 -0.13433093124E+03 -0.51569443221E+03 -0.62586589702E+03  0.82201931702E+03  0.46999998093E+01 0.  1.
       -5    1    3    3    0  502  0.13433093124E+03  0.51569443221E+03  0.58680882569E+03  0.79268671895E+03  0.46999998093E+01 0. -1.
</event>
<event>
 5   0  0.4110803E-04  0.1636196E+04  0.7818609E-02  0.8798615E-01
        1   -1    0    0  501    0  0.00000000000E+00  0.00000000000E+00  0.20372437249E+04  0.20372437249E+04  0.50400001928E-02 0.  1.
       -1   -1    0    0    0  501  0.00000000000E+00  0.00000000000E+00 -0.32852425667E+03  0.32852425671E+03  0.50400001928E-02 0. -1.
    10030    2    1    2    0    0  0.00000000000E+00  0.00000000000E+00  0.17087194682E+04  0.23657679816E+04  0.16361955634E+04 0.  0.
        5    1    3    3  502    0  0.35997994186E+03 -0.71663883227E+03  0.62074525700E+03  0.10141516349E+04  0.46999998093E+01 0. -1.
       -5    1    3    3    0  502 -0.35997994186E+03  0.71663883227E+03  0.10879742112E+04  0.13516163467E+04  0.46999998093E+01 0.  1.
</event>
<event>
 5   0  0.7415102E-04  0.1594315E+04  0.7818609E-02  0.8824048E-01
        2   -1    0    0  501    0  0.00000000000E+00  0.00000000000E+00  0.12870211072E+04  0.12870211072E+04  0.25500000920E-02 0.  1.
       -2   -1    0    0    0  501  0.00000000000E+00  0.00000000000E+00 -0.49374477490E+03  0.49374477491E+03  0.25500000920E-02 0. -1.
    10030    2    1    2    0    0  0.00000000000E+00  0.00000000000E+00  0.79327633232E+03  0.17807658821E+04  0.15943148333E+04 0.  0.
        5    1    3    3  502    0  0.12157670790E+03  0.24652080529E+03 -0.43912253087E+03  0.51807730162E+03  0.46999998093E+01 0. -1.
       -5    1    3    3    0  502 -0.12157670790E+03 -0.24652080529E+03  0.12323988632E+04  0.12626885805E+04  0.46999998093E+01 0.  1.
</event>
<event>
 5   0  0.7415102E-04  0.1645367E+04  0.7818609E-02  0.8793152E-01
       -2   -1    0    0    0  501  0.00000000000E+00  0.00000000000E+00  0.58832305215E+03  0.58832305215E+03  0.25500000920E-02 0.  1.
        2   -1    0    0  501    0  0.00000000000E+00  0.00000000000E+00 -0.11504025007E+04  0.11504025007E+04  0.25500000920E-02 0. -1.
    10030    2    1    2    0    0  0.00000000000E+00  0.00000000000E+00 -0.56207944857E+03  0.17387255529E+04  0.16453672057E+04 0.  0.
        5    1    3    3  502    0  0.71022633848E+03  0.36803776011E+03 -0.78010886738E+02  0.80372945273E+03  0.46999998093E+01 0.  1.
       -5    1    3    3    0  502 -0.71022633848E+03 -0.36803776011E+03 -0.48406856183E+03  0.93499610015E+03  0.46999998093E+01 0. -1.
</event>
<event>
 5   0  0.7488884E-04  0.1679019E+04  0.7818609E-02  0.8773422E-01
       -2   -1    0    0    0  501  0.00000000000E+00  0.00000000000E+00  0.61019388793E+03  0.61019388794E+03  0.25500000920E-02 0.  1.
        2   -1    0    0  501    0  0.00000000000E+00  0.00000000000E+00 -0.11550034712E+04  0.11550034712E+04  0.25500000920E-02 0. -1.
    10030    2    1    2    0    0  0.00000000000E+00  0.00000000000E+00 -0.54480958329E+03  0.17651973592E+04  0.16790188310E+04 0.  0.
        3    1    3    3  502    0  0.67745867038E+03  0.17483155502E+03 -0.76017929277E+03  0.10331451447E+04  0.10100000352E+00 0. -1.
       -3    1    3    3    0  502 -0.67745867038E+03 -0.17483155502E+03  0.21536970948E+03  0.73205221444E+03  0.10100000352E+00 0.  1.
</event>
<event>
 5   0  0.7415102E-04  0.1611352E+04  0.7818609E-02  0.8813604E-01
        2   -1    0    0  501    0  0.00000000000E+00  0.00000000000E+00  0.15272914933E+04  0.15272914933E+04  0.25500000920E-02 0.  1.
       -2   -1    0    0    0  501  0.00000000000E+00  0.00000000000E+00 -0.42500956828E+03  0.42500956829E+03  0.25500000920E-02 0. -1.
    10030    2    1    2    0    0  0.00000000000E+00  0.00000000000E+00  0.11022819251E+04  0.19523010616E+04  0.16113516044E+04 0.  0.
        5    1    3    3  502    0  0.69206616278E+02 -0.11472897392E+02  0.15235674908E+04  0.15251888972E+04  0.46999998093E+01 0.  1.
       -5    1    3    3    0  502 -0.69206616278E+02  0.11472897392E+02 -0.42128556574E+03  0.42711216443E+03  0.46999998093E+01 0. -1.
</event>
<event>
 5   0  0.3950195E-04  0.1595056E+04  0.7818609E-02  0.8823591E-01
        1   -1    0    0  501    0  0.00000000000E+00  0.00000000000E+00  0.69669109160E+03  0.69669109161E+03  0.50400001928E-02 0. -1.
       -1   -1    0    0    0  501  0.00000000000E+00  0.00000000000E+00 -0.91295953836E+03  0.91295953838E+03  0.50400001928E-02 0.  1.
    10030    2    1    2    0    0  0.00000000000E+00  0.00000000000E+00 -0.21626844677E+03  0.16096506300E+04  0.15950558327E+04 0.  0.
        2    1    3    3  502    0  0.43874994675E+03 -0.28253956883E+03  0.50047666213E+03  0.72305394893E+03  0.25500000920E-02 0. -1.
       -2    1    3    3    0  502 -0.43874994675E+03  0.28253956883E+03 -0.71674510890E+03  0.88659668106E+03  0.25500000920E-02 0.  1.
</event>
<event>
 5   0  0.7488884E-04  0.1586431E+04  0.7818609E-02  0.8828927E-01
       -2   -1    0    0    0  501  0.00000000000E+00  0.00000000000E+00  0.91462852670E+03  0.91462852671E+03  0.25500000920E-02 0. -1.
        2   -1    0    0  501    0  0.00000000000E+00  0.00000000000E+00 -0.68791984708E+03  0.68791984708E+03  0.25500000920E-02 0.  1.
    10030    2    1    2    0    0  0.00000000000E+00  0.00000000000E+00  0.22670867963E+03  0.16025483738E+04  0.15864313616E+04 0.  0.
        3    1    3    3  502    0 -0.42802040514E+02 -0.16078862863E+03  0.89680180921E+03  0.91210662369E+03  0.10100000352E+00 0. -1.
       -3    1    3    3    0  502  0.42802040514E+02  0.16078862863E+03 -0.67009312958E+03  0.69044175010E+03  0.10100000352E+00 0.  1.
</event>
<event>
 5   0  0.7553070E-04  0.1465328E+04  0.7818609E-02  0.8907842E-01
       -2   -1    0    0    0  501  0.00000000000E+00  0.00000000000E+00  0.45636830411E+03  0.45636830412E+03  0.25500000920E-02 0. -1.
        2   -1    0    0  501    0  0.00000000000E+00  0.00000000000E+00 -0.11762360744E+04  0.11762360744E+04  0.25500000920E-02 0.  1.
    10030    2    1    2    0    0  0.00000000000E+00  0.00000000000E+00 -0.71986777026E+03  0.16326043785E+04  0.14653284444E+04 0.  0.
        4    1    3    3  502    0  0.11187921335E+03 -0.11901458471E+02  0.44668472865E+03  0.46063810394E+03  0.12699999809E+01 0. -1.
       -4    1    3    3    0  502 -0.11187921335E+03  0.11901458471E+02 -0.11665524989E+04  0.11719662746E+04  0.12699999809E+01 0.  1.
</event>
<event>
 5   0  0.7488884E-04  0.1570619E+04  0.7818609E-02  0.8838804E-01
       -2   -1    0    0    0  501  0.00000000000E+00  0.00000000000E+00  0.11014852392E+04  0.11014852392E+04  0.25500000920E-02 0.  1.
        2   -1    0    0  501    0  0.00000000000E+00  0.00000000000E+00 -0.55989057144E+03  0.55989057145E+03  0.25500000920E-02 0. -1.
    10030    2    1    2    0    0  0.00000000000E+00  0.00000000000E+00  0.54159466775E+03  0.16613758106E+04  0.15706192410E+04 0.  0.
        3    1    3    3  502    0  0.52481917154E+03  0.59924474938E+02 -0.34388808110E+03  0.63030558306E+03  0.10100000352E+00 0. -1.
       -3    1    3    3    0  502 -0.52481917154E+03 -0.59924474938E+02  0.88548274884E+03  0.10310702276E+04  0.10100000352E+00 0.  1.
</event>
<event>
 5   0  0.3950195E-04  0.1591517E+04  0.7818609E-02  0.8825777E-01
        1   -1    0    0  501    0  0.00000000000E+00  0.00000000000E+00  0.79412096498E+03  0.79412096500E+03  0.50400001928E-02 0.  1.
       -1   -1    0    0    0  501  0.00000000000E+00  0.00000000000E+00 -0.79739912332E+03  0.79739912334E+03  0.50400001928E-02 0. -1.
    10030    2    1    2    0    0  0.00000000000E+00  0.00000000000E+00 -0.32781583414E+01  0.15915200883E+04  0.15915167122E+04 0.  0.
        2    1    3    3  502    0 -0.41542243584E+03 -0.96651897350E+02  0.67016140208E+03  0.79437629264E+03  0.25500000920E-02 0.  1.
       -2    1    3    3    0  502  0.41542243584E+03  0.96651897350E+02 -0.67343956043E+03  0.79714379570E+03  0.25500000920E-02 0. -1.
</event>
<event>
 5   0  0.7770905E-04  0.1604132E+04  0.7818609E-02  0.8818014E-01
       -2   -1    0    0    0  501  0.00000000000E+00  0.00000000000E+00  0.52524632286E+03  0.52524632287E+03  0.25500000920E-02 0.  1.
        2   -1    0    0  501    0  0.00000000000E+00  0.00000000000E+00 -0.12247773333E+04  0.12247773333E+04  0.25500000920E-02 0. -1.
    10030    2    1    2    0    0  0.00000000000E+00  0.00000000000E+00 -0.69953101043E+03  0.17500236562E+04  0.16041319031E+04 0.  0.
        2    1    3    3  502    0  0.57958988925E+03 -0.21854215892E+03 -0.90564010105E+03  0.10972096917E+04  0.25500000920E-02 0. -1.
       -2    1    3    3    0  502 -0.57958988925E+03  0.21854215892E+03  0.20610909062E+03  0.65281396446E+03  0.25500000920E-02 0.  1.
</event>
<event>
 5   0  0.3837251E-04  0.1590918E+04  0.7818609E-02  0.8826147E-01
        1   -1    0    0  501    0  0.00000000000E+00  0.00000000000E+00  0.11869622895E+04  0.11869622895E+04  0.50400001928E-02 0. -1.
       -1   -1    0    0    0  501  0.00000000000E+00  0.00000000000E+00 -0.53308799212E+03  0.53308799214E+03  0.50400001928E-02 0.  1.
    10030    2    1    2    0    0  0.00000000000E+00  0.00000000000E+00  0.65387429734E+03  0.17200502816E+04  0.15909184060E+04 0.  0.
        4    1    3    3  502    0 -0.61229860693E+02 -0.50606329719E+03 -0.33328804332E+03  0.60904161543E+03  0.12699999809E+01 0.  1.
       -4    1    3    3    0  502  0.61229860693E+02  0.50606329719E+03  0.98716234066E+03  0.11110086662E+04  0.12699999809E+01 0. -1.
</event>
<event>
 5   0  0.3837251E-04  0.1595516E+04  0.7818609E-02  0.8823308E-01
       -1   -1    0    0    0  501  0.00000000000E+00  0.00000000000E+00  0.30704285355E+03  0.30704285359E+03  0.50400001928E-02 0. -1.
        1   -1    0    0  501    0  0.00000000000E+00  0.00000000000E+00 -0.20727317739E+04  0.20727317739E+04  0.50400001928E-02 0.  1.
    10030    2    1    2    0    0  0.00000000000E+00  0.00000000000E+00 -0.17656889204E+04  0.23797746275E+04  0.15955155638E+04 0.  0.
        4    1    3    3  502    0 -0.48864726499E+03 -0.62097028603E+03 -0.71921216667E+03  0.10684792929E+04  0.12699999809E+01 0. -1.
       -4    1    3    3    0  502  0.48864726499E+03  0.62097028603E+03 -0.10464767537E+04  0.13112953346E+04  0.12699999809E+01 0.  1.
</event>
<event>
 5   0  0.7553070E-04  0.1592048E+04  0.7818609E-02  0.8825448E-01
       -2   -1    0    0    0  501  0.00000000000E+00  0.00000000000E+00  0.81156629010E+03  0.81156629011E+03  0.25500000920E-02 0.  1.
        2   -1    0    0  501    0  0.00000000000E+00  0.00000000000E+00 -0.78077927351E+03  0.78077927351E+03  0.25500000920E-02 0. -1.
    10030    2    1    2    0    0  0.00000000000E+00  0.00000000000E+00  0.30787016591E+02  0.15923455636E+04  0.15920479118E+04 0.  0.
        4    1    3    3  502    0  0.65216042969E+02  0.23623168118E+03 -0.74210796772E+03  0.78152695929E+03  0.12699999809E+01 0. -1.
       -4    1    3    3    0  502 -0.65216042969E+02 -0.23623168118E+03  0.77289498431E+03  0.81081860433E+03  0.12699999809E+01 0.  1.
</event>
<event>
 5   0  0.3973227E-04  0.1567663E+04  0.7818609E-02  0.8840664E-01
       -1   -1    0    0    0  501  0.00000000000E+00  0.00000000000E+00  0.52676548004E+03  0.52676548007E+03  0.50400001928E-02 0. -1.
        1   -1    0    0  501    0  0.00000000000E+00  0.00000000000E+00 -0.11663481058E+04  0.11663481058E+04  0.50400001928E-02 0.  1.
    10030    2    1    2    0    0  0.00000000000E+00  0.00000000000E+00 -0.63958262572E+03  0.16931135858E+04  0.15676631269E+04 0.  0.
        3    1    3    3  502    0 -0.24289310060E+03 -0.50783086613E+03  0.26929479320E+03  0.62402639588E+03  0.10100000352E+00 0. -1.
       -3    1    3    3    0  502  0.24289310060E+03  0.50783086613E+03 -0.90887741892E+03  0.10690871900E+04  0.10100000352E+00 0.  1.
</event>
<event>
 5   0  0.3950195E-04  0.1612217E+04  0.7818609E-02  0.8813077E-01
       -1   -1    0    0    0  501  0.00000000000E+00  0.00000000000E+00  0.35201583018E+03  0.35201583022E+03  0.50400001928E-02 0.  1.
        1   -1    0    0  501    0  0.00000000000E+00  0.00000000000E+00 -0.18459711568E+04  0.18459711569E+04  0.50400001928E-02 0. -1.
    10030    2    1    2    0    0  0.00000000000E+00  0.00000000000E+00 -0.14939553267E+04  0.21979869871E+04  0.16122171929E+04 0.  0.
        2    1    3    3  502    0 -0.76856123466E+03 -0.22886505176E+03 -0.63500598436E+03  0.10228871802E+04  0.25500000920E-02 0.  1.
       -2    1    3    3    0  502  0.76856123466E+03  0.22886505176E+03 -0.85894934230E+03  0.11750998068E+04  0.25500000920E-02 0. -1.
</event>
<event>
 5   0  0.7488884E-04  0.1546962E+04  0.7818609E-02  0.8853811E-01
       -2   -1    0    0    0  501  0.00000000000E+00  0.00000000000E+00  0.51548850272E+03  0.51548850273E+03  0.25500000920E-02 0. -1.
        2   -1    0    0  501    0  0.00000000000E+00  0.00000000000E+00 -0.11605939506E+04  0.11605939507E+04  0.25500000920E-02 0.  1.
    10030    2    1    2    0    0  0.00000000000E+00  0.00000000000E+00 -0.64510544793E+03  0.16760824534E+04  0.15469619748E+04 0.  0.
        3    1    3    3  502    0  0.31401110846E+03 -0.22350058083E+02 -0.10880437806E+04  0.11326701991E+04  0.10100000352E+00 0.  1.
       -3    1    3    3    0  502 -0.31401110846E+03  0.22350058083E+02  0.44293833265E+03  0.54341225425E+03  0.10100000352E+00 0. -1.
</event>
<event>
 5   0  0.7488884E-04  0.1603274E+04  0.7818609E-02  0.8818539E-01
       -2   -1    0    0    0  501  0.00000000000E+00  0.00000000000E+00  0.69522175759E+03  0.69522175760E+03  0.25500000920E-02 0.  1.
        2   -1    0    0  501    0  0.00000000000E+00  0.00000000000E+00 -0.92434141656E+03  0.92434141657E+03  0.25500000920E-02 0. -1.
    10030    2    1    2    0    0  0.00000000000E+00  0.00000000000E+00 -0.22911965897E+03  0.16195631742E+04  0.16032744796E+04 0.  0.
        3    1    3    3  502    0  0.54154469458E+02 -0.17963817688E+03 -0.90184929495E+03  0.92115945533E+03  0.10100000352E+00 0. -1.
       -3    1    3    3    0  502 -0.54154469458E+02  0.17963817688E+03  0.67272963598E+03  0.69840371883E+03  0.10100000352E+00 0.  1.
</event>
<event>
 5   0  0.7553070E-04  0.1584493E+04  0.7818609E-02  0.8830131E-01
       -2   -1    0    0    0  501  0.00000000000E+00  0.00000000000E+00  0.76423183701E+03  0.76423183701E+03  0.25500000920E-02 0.  1.
        2   -1    0    0  501    0  0.00000000000E+00  0.00000000000E+00 -0.82128823524E+03  0.82128823524E+03  0.25500000920E-02 0. -1.
    10030    2    1    2    0    0  0.00000000000E+00  0.00000000000E+00 -0.57056398233E+02  0.15855200723E+04  0.15844931262E+04 0.  0.
        4    1    3    3  502    0  0.76371871112E+03 -0.12036400309E+03  0.14449783995E+03  0.78653353495E+03  0.12699999809E+01 0.  1.
       -4    1    3    3    0  502 -0.76371871112E+03  0.12036400309E+03 -0.20155423819E+03  0.79898653730E+03  0.12699999809E+01 0. -1.
</event>
<event>
 5   0  0.3889847E-04  0.1585845E+04  0.7818609E-02  0.8829292E-01
       -1   -1    0    0    0  501  0.00000000000E+00  0.00000000000E+00  0.49912322792E+03  0.49912322794E+03  0.50400001928E-02 0. -1.
        1   -1    0    0  501    0  0.00000000000E+00  0.00000000000E+00 -0.12596608539E+04  0.12596608539E+04  0.50400001928E-02 0.  1.
    10030    2    1    2    0    0  0.00000000000E+00  0.00000000000E+00 -0.76053762597E+03  0.17587840818E+04  0.15858448745E+04 0.  0.
        1    1    3    3  502    0  0.28742482287E+03  0.41260858432E+03 -0.10602063080E+04  0.11734122413E+04  0.50400001928E-02 0.  1.
       -1    1    3    3    0  502 -0.28742482287E+03 -0.41260858432E+03  0.29966868199E+03  0.58537184050E+03  0.50400001928E-02 0. -1.
</event>
<event>
 5   0  0.7553070E-04  0.1606613E+04  0.7818609E-02  0.8816496E-01
        2   -1    0    0  501    0  0.00000000000E+00  0.00000000000E+00  0.59446925100E+03  0.59446925100E+03  0.25500000920E-02 0.  1.
       -2   -1    0    0    0  501  0.00000000000E+00  0.00000000000E+00 -0.10855082665E+04  0.10855082665E+04  0.25500000920E-02 0. -1.
    10030    2    1    2    0    0  0.00000000000E+00  0.00000000000E+00 -0.49103901551E+03  0.16799775175E+04  0.16066129418E+04 0.  0.
        4    1    3    3  502    0 -0.37158890525E+03 -0.21062498759E+03  0.46588451729E+03  0.63205315936E+03  0.12699999809E+01 0.  1.
       -4    1    3    3    0  502  0.37158890525E+03  0.21062498759E+03 -0.95692353280E+03  0.10479243582E+04  0.12699999809E+01 0. -1.
</event>
<event>
 5   0  0.3973227E-04  0.1604496E+04  0.7818609E-02  0.8817790E-01
        1   -1    0    0  501    0  0.00000000000E+00  0.00000000000E+00  0.11483365283E+04  0.11483365284E+04  0.50400001928E-02 0.  1.
       -1   -1    0    0    0  501  0.00000000000E+00  0.00000000000E+00 -0.56046482720E+03  0.56046482722E+03  0.50400001928E-02 0. -1.
    10030    2    1    2    0    0  0.00000000000E+00  0.00000000000E+00  0.58787170115E+03  0.17088013556E+04  0.16044964742E+04 0.  0.
        3    1    3    3  502    0 -0.54278025791E+03 -0.11019237671E+03 -0.32418121987E+03  0.64175247703E+03  0.10100000352E+00 0. -1.
       -3    1    3    3    0  502  0.54278025791E+03  0.11019237671E+03  0.91205292102E+03  0.10670488785E+04  0.10100000352E+00 0.  1.
</event>
<event>
 5   0  0.7488884E-04  0.1569961E+04  0.7818609E-02  0.8839217E-01
        2   -1    0    0  501    0  0.00000000000E+00  0.00000000000E+00  0.13315743947E+04  0.13315743947E+04  0.25500000920E-02 0.  1.
       -2   -1    0    0    0  501  0.00000000000E+00  0.00000000000E+00 -0.46275646321E+03  0.46275646321E+03  0.25500000920E-02 0. -1.
    10030    2    1    2    0    0  0.00000000000E+00  0.00000000000E+00  0.86881793151E+03  0.17943308579E+04  0.15699613465E+04 0.  0.
        3    1    3    3  502    0 -0.39458575922E+03 -0.28127943151E+03  0.11402253414E+04  0.12389228707E+04  0.10100000352E+00 0.  1.
       -3    1    3    3    0  502  0.39458575922E+03  0.28127943151E+03 -0.27140740993E+03  0.55540798728E+03  0.10100000352E+00 0. -1.
</event>
<event>
 5   0  0.7488884E-04  0.1620707E+04  0.7818609E-02  0.8807927E-01
        2   -1    0    0  501    0  0.00000000000E+00  0.00000000000E+00  0.63139098994E+03  0.63139098994E+03  0.25500000920E-02 0.  1.
       -2   -1    0    0    0  501  0.00000000000E+00  0.00000000000E+00 -0.10400414310E+04  0.10400414310E+04  0.25500000920E-02 0. -1.
    10030    2    1    2    0    0  0.00000000000E+00  0.00000000000E+00 -0.40865044107E+03  0.16714324209E+04  0.16207069923E+04 0.  0.
        3    1    3    3  502    0  0.67709416168E+02  0.15921886604E+03  0.61212024158E+03  0.63610251744E+03  0.10100000352E+00 0.  1.
       -3    1    3    3    0  502 -0.67709416168E+02 -0.15921886604E+03 -0.10207706826E+04  0.10353299035E+04  0.10100000352E+00 0. -1.
</event>
<event>
 5   0  0.3837251E-04  0.1571877E+04  0.7818609E-02  0.8838014E-01
       -1   -1    0    0    0  501  0.00000000000E+00  0.00000000000E+00  0.81516519844E+03  0.81516519846E+03  0.50400001928E-02 0. -1.
        1   -1    0    0  501    0  0.00000000000E+00  0.00000000000E+00 -0.75775945412E+03  0.75775945414E+03  0.50400001928E-02 0.  1.
    10030    2    1    2    0    0  0.00000000000E+00  0.00000000000E+00  0.57405744317E+02  0.15729246526E+04  0.15718767583E+04 0.  0.
        4    1    3    3  502    0 -0.45076486207E+03 -0.34597525367E+03  0.57202863784E+03  0.80629164230E+03  0.12699999809E+01 0. -1.
       -4    1    3    3    0  502  0.45076486207E+03  0.34597525367E+03 -0.51462289353E+03  0.76663301029E+03  0.12699999809E+01 0.  1.
</event>
<event>
 5   0  0.3889847E-04  0.1604854E+04  0.7818609E-02  0.8817572E-01
       -1   -1    0    0    0  501  0.00000000000E+00  0.00000000000E+00  0.43158616845E+03  0.43158616848E+03  0.50400001928E-02 0. -1.
        1   -1    0    0  501    0  0.00000000000E+00  0.00000000000E+00 -0.14919127525E+04  0.14919127525E+04  0.50400001928E-02 0.  1.
    10030    2    1    2    0    0  0.00000000000E+00  0.00000000000E+00 -0.10603265841E+04  0.19234989210E+04  0.16048537735E+04 0.  0.
        1    1    3    3  502    0 -0.92931369709E+02 -0.79009403270E+03 -0.40443485477E+03  0.89244180301E+03  0.50400001928E-02 0. -1.
       -1    1    3    3    0  502  0.92931369709E+02  0.79009403270E+03 -0.65589172929E+03  0.10310571180E+04  0.50400001928E-02 0.  1.
</event>
<event>
 5   0  0.7395088E-04  0.1654118E+04  0.7818609E-02  0.8787974E-01
        2   -1    0    0  501    0  0.00000000000E+00  0.00000000000E+00  0.14891395656E+04  0.14891395656E+04  0.25500000920E-02 0.  1.
       -2   -1    0    0    0  501  0.00000000000E+00  0.00000000000E+00 -0.45934356447E+03  0.45934356448E+03  0.25500000920E-02 0. -1.
    10030    2    1    2    0    0  0.00000000000E+00  0.00000000000E+00  0.10297960011E+04  0.19484831301E+04  0.16541181047E+04 0.  0.
        1    1    3    3  502    0 -0.12798435381E+03 -0.41707131840E+03  0.13425750356E+04  0.14116785065E+04  0.50400001928E-02 0.  1.
       -1    1    3    3    0  502  0.12798435381E+03  0.41707131840E+03 -0.31277903448E+03  0.53680462357E+03  0.50400001928E-02 0. -1.
</event>
<event>
 5   0  0.3837251E-04  0.1624264E+04  0.7818609E-02  0.8805779E-01
       -1   -1    0    0    0  501  0.00000000000E+00  0.00000000000E+00  0.30813648227E+03  0.30813648231E+03  0.50400001928E-02 0. -1.
        1   -1    0    0  501    0  0.00000000000E+00  0.00000000000E+00 -0.21404750397E+04  0.21404750397E+04  0.50400001928E-02 0.  1.
    10030    2    1    2    0    0  0.00000000000E+00  0.00000000000E+00 -0.18323385574E+04  0.24486115220E+04  0.16242640785E+04 0.  0.
        4    1    3    3  502    0  0.58467560245E+03 -0.51786067427E+02 -0.70035862813E+02  0.59112942056E+03  0.12699999809E+01 0. -1.
       -4    1    3    3    0  502 -0.58467560245E+03  0.51786067427E+02 -0.17623026946E+04  0.18574821015E+04  0.12699999809E+01 0.  1.
</event>
<event>
 5   0  0.7415102E-04  0.1644199E+04  0.7818609E-02  0.8793846E-01
        2   -1    0    0  501    0  0.00000000000E+00  0.00000000000E+00  0.23304918983E+04  0.23304918983E+04  0.25500000920E-02 0.  1.
       -2   -1    0    0    0  501  0.00000000000E+00  0.00000000000E+00 -0.29000202308E+03  0.29000202309E+03  0.25500000920E-02 0. -1.
    10030    2    1    2    0    0  0.00000000000E+00  0.00000000000E+00  0.20404898752E+04  0.26204939213E+04  0.16441987292E+04 0.  0.
        5    1    3    3  502    0  0.73668621492E+03  0.18442556971E+03  0.15219848098E+04  0.17009348081E+04  0.46999998093E+01 0.  1.
       -5    1    3    3    0  502 -0.73668621492E+03 -0.18442556971E+03  0.51850506539E+03  0.91955911330E+03  0.46999998093E+01 0. -1.
</event>
<event>
 5   0  0.3950195E-04  0.1590931E+04  0.7818609E-02  0.8826139E-01
       -1   -1    0    0    0  501  0.00000000000E+00  0.00000000000E+00  0.60457915102E+03  0.60457915104E+03  0.50400001928E-02 0. -1.
        1   -1    0    0  501    0  0.00000000000E+00  0.00000000000E+00 -0.10466216484E+04  0.10466216484E+04  0.50400001928E-02 0.  1.
    10030    2    1    2    0    0  0.00000000000E+00  0.00000000000E+00 -0.44204249738E+03  0.16512007995E+04  0.15909313344E+04 0.  0.
        2    1    3    3  502    0  0.43709126806E+03 -0.43211173737E+03 -0.74512273566E+03  0.96590746005E+03  0.25500000920E-02 0.  1.
       -2    1    3    3    0  502 -0.43709126806E+03  0.43211173737E+03  0.30308023828E+03  0.68529333940E+03  0.25500000920E-02 0. -1.
</event>
<event>
 5   0  0.4110803E-04  0.1603793E+04  0.7818609E-02  0.8818221E-01
       -1   -1    0    0    0  501  0.00000000000E+00  0.00000000000E+00  0.11999044878E+04  0.11999044878E+04  0.50400001928E-02 0. -1.
        1   -1    0    0  501    0  0.00000000000E+00  0.00000000000E+00 -0.53590780977E+03  0.53590780979E+03  0.50400001928E-02 0.  1.
    10030    2    1    2    0    0  0.00000000000E+00  0.00000000000E+00  0.66399667804E+03  0.17358122976E+04  0.16037932361E+04 0.  0.
        5    1    3    3  502    0 -0.10043389521E+03  0.51271173165E+03  0.99039557093E+03  0.11197614764E+04  0.46999998093E+01 0. -1.
       -5    1    3    3    0  502  0.10043389521E+03 -0.51271173165E+03 -0.32639889288E+03  0.61605082124E+03  0.46999998093E+01 0.  1.
</event>
<event>
 5   0  0.3889847E-04  0.1595899E+04  0.7818609E-02  0.8823071E-01
        1   -1    0    0  501    0  0.00000000000E+00  0.00000000000E+00  0.12590598476E+04  0.12590598476E+04  0.50400001928E-02 0. -1.
       -1   -1    0    0    0  501  0.00000000000E+00  0.00000000000E+00 -0.50571343777E+03  0.50571343779E+03  0.50400001928E-02 0.  1.
    10030    2    1    2    0    0  0.00000000000E+00  0.00000000000E+00  0.75334640982E+03  0.17647732854E+04  0.15958990995E+04 0.  0.
        1    1    3    3  502    0 -0.25737914373E+03 -0.18973242204E+03  0.11851166696E+04  0.12274949842E+04  0.50400001928E-02 0. -1.
       -1    1    3    3    0  502  0.25737914373E+03  0.18973242204E+03 -0.43177025983E+03  0.53727830116E+03  0.50400001928E-02 0.  1.
</event>
<event>
 5   0  0.7415102E-04  0.1616775E+04  0.7818609E-02  0.8810309E-01
       -2   -1    0    0    0  501  0.00000000000E+00  0.00000000000E+00  0.58021550898E+03  0.58021550899E+03  0.25500000920E-02 0.  1.
        2   -1    0    0  501    0  0.00000000000E+00  0.00000000000E+00 -0.11262884435E+04  0.11262884435E+04  0.25500000920E-02 0. -1.
    10030    2    1    2    0    0  0.00000000000E+00  0.00000000000E+00 -0.54607293454E+03  0.17065039525E+04  0.16167745947E+04 0.  0.
        5    1    3    3  502    0 -0.84758007552E+01  0.53898124330E+03  0.36280449344E+03  0.64978597267E+03  0.46999998093E+01 0.  1.
       -5    1    3    3    0  502  0.84758007552E+01 -0.53898124330E+03 -0.90887742797E+03  0.10567179798E+04  0.46999998093E+01 0. -1.
</event>
<event>
 5   0  0.3950195E-04  0.1668844E+04  0.7818609E-02  0.8779336E-01
        1   -1    0    0  501    0  0.00000000000E+00  0.00000000000E+00  0.13231756805E+04  0.13231756805E+04  0.50400001928E-02 0.  1.
       -1   -1    0    0    0  501  0.00000000000E+00  0.00000000000E+00 -0.52620399509E+03  0.52620399511E+03  0.50400001928E-02 0. -1.
    10030    2    1    2    0    0  0.00000000000E+00  0.00000000000E+00  0.79697168542E+03  0.18493796756E+04  0.16688443059E+04 0.  0.
        2    1    3    3  502    0  0.12302245954E+03  0.48311849433E+03  0.11399917821E+04  0.12442344105E+04  0.25500000920E-02 0.  1.
       -2    1    3    3    0  502 -0.12302245954E+03 -0.48311849433E+03 -0.34302009668E+03  0.60514526508E+03  0.25500000920E-02 0. -1.
</event>
<event>
 5   0  0.3973227E-04  0.1668767E+04  0.7818609E-02  0.8779381E-01
        1   -1    0    0  501    0  0.00000000000E+00  0.00000000000E+00  0.13997783926E+04  0.13997783926E+04  0.50400001928E-02 0.  1.
       -1   -1    0    0    0  501  0.00000000000E+00  0.00000000000E+00 -0.49736168754E+03  0.49736168756E+03  0.50400001928E-02 0. -1.
    10030    2    1    2    0    0  0.00000000000E+00  0.00000000000E+00  0.90241670507E+03  0.18971400802E+04  0.16687673817E+04 0.  0.
        3    1    3    3  502    0 -0.73266486495E+03 -0.22934027731E+03  0.79679966283E+02  0.77184433298E+03  0.10100000352E+00 0. -1.
       -3    1    3    3    0  502  0.73266486495E+03  0.22934027731E+03  0.82273673879E+03  0.11252957472E+04  0.10100000352E+00 0.  1.
</event>
<event>
 5   0  0.7488884E-04  0.1600408E+04  0.7818609E-02  0.8820297E-01
        2   -1    0    0  501    0  0.00000000000E+00  0.00000000000E+00  0.17643013637E+04  0.17643013637E+04  0.25500000920E-02 0.  1.
       -2   -1    0    0    0  501  0.00000000000E+00  0.00000000000E+00 -0.36293497042E+03  0.36293497043E+03  0.25500000920E-02 0. -1.
    10030    2    1    2    0    0  0.00000000000E+00  0.00000000000E+00  0.14013663933E+04  0.21272363342E+04  0.16004082770E+04 0.  0.
        3    1    3    3  502    0  0.65939056869E+03  0.43818050059E+03  0.54608263795E+03  0.96177145458E+03  0.10100000352E+00 0. -1.
       -3    1    3    3    0  502 -0.65939056869E+03 -0.43818050059E+03  0.85528375538E+03  0.11654648796E+04  0.10100000352E+00 0.  1.
</event>
<event>
 5   0  0.7415102E-04  0.1779533E+04  0.7818609E-02  0.8717260E-01
       -2   -1    0    0    0  501  0.00000000000E+00  0.00000000000E+00  0.51696223215E+03  0.51696223216E+03  0.25500000920E-02 0.  1.
        2   -1    0    0  501    0  0.00000000000E+00  0.00000000000E+00 -0.15314162251E+04  0.15314162251E+04  0.25500000920E-02 0. -1.
    10030    2    1    2    0    0  0.00000000000E+00  0.00000000000E+00 -0.10144539930E+04  0.20483784573E+04  0.17795329163E+04 0.  0.
        5    1    3    3  502    0  0.71673211100E+03  0.35890365584E+03 -0.62688617531E+02  0.80403277661E+03  0.46999998093E+01 0. -1.
       -5    1    3    3    0  502 -0.71673211100E+03 -0.35890365584E+03 -0.95176537542E+03  0.12443456806E+04  0.46999998093E+01 0.  1.
</event>
<event>
 5   0  0.7395088E-04  0.1435434E+04  0.7818609E-02  0.8928561E-01
        2   -1    0    0  501    0  0.00000000000E+00  0.00000000000E+00  0.14199341353E+04  0.14199341353E+04  0.25500000920E-02 0. -1.
       -2   -1    0    0    0  501  0.00000000000E+00  0.00000000000E+00 -0.36277585575E+03  0.36277585576E+03  0.25500000920E-02 0.  1.
    10030    2    1    2    0    0  0.00000000000E+00  0.00000000000E+00  0.10571582796E+04  0.17827099911E+04  0.14354341797E+04 0.  0.
        1    1    3    3  502    0  0.52841478319E+03  0.46731962022E+03  0.69290874600E+03  0.98880348950E+03  0.50400001928E-02 0. -1.
       -1    1    3    3    0  502 -0.52841478319E+03 -0.46731962022E+03  0.36424953358E+03  0.79390650160E+03  0.50400001928E-02 0.  1.
</event>
<event>
 5   0  0.3837251E-04  0.1229229E+04  0.7818609E-02  0.9087650E-01
        1   -1    0    0  501    0  0.00000000000E+00  0.00000000000E+00  0.93338724623E+03  0.93338724624E+03  0.50400001928E-02 0. -1.
       -1   -1    0    0    0  501  0.00000000000E+00  0.00000000000E+00 -0.40471013597E+03  0.40471013600E+03  0.50400001928E-02 0.  1.
    10030    2    1    2    0    0  0.00000000000E+00  0.00000000000E+00  0.52867711026E+03  0.13380973822E+04  0.12292294812E+04 0.  0.
        4    1    3    3  502    0 -0.32600953836E+03  0.30751994815E+03  0.72218237370E+03  0.84994101642E+03  0.12699999809E+01 0. -1.
       -4    1    3    3    0  502  0.32600953836E+03 -0.30751994815E+03 -0.19350526344E+03  0.48815636582E+03  0.12699999809E+01 0.  1.
</event>
<event>
 5   0  0.3973227E-04  0.1596817E+04  0.7818609E-02  0.8822506E-01
        1   -1    0    0  501    0  0.00000000000E+00  0.00000000000E+00  0.83023613974E+03  0.83023613975E+03  0.50400001928E-02 0. -1.
       -1   -1    0    0    0  501  0.00000000000E+00  0.00000000000E+00 -0.76780063653E+03  0.76780063655E+03  0.50400001928E-02 0.  1.
    10030    2    1    2    0    0  0.00000000000E+00  0.00000000000E+00  0.62435503202E+02  0.15980367763E+04  0.15968166289E+04 0.  0.
        3    1    3    3  502    0 -0.23790115062E+03 -0.50767471919E+03 -0.53765766983E+03  0.77679235198E+03  0.10100000352E+00 0.  1.
       -3    1    3    3    0  502  0.23790115062E+03  0.50767471919E+03  0.60009317303E+03  0.82124442432E+03  0.10100000352E+00 0. -1.
</event>
<event>
 5   0  0.3889847E-04  0.1594895E+04  0.7818609E-02  0.8823690E-01
        1   -1    0    0  501    0  0.00000000000E+00  0.00000000000E+00  0.16049301776E+04  0.16049301776E+04  0.50400001928E-02 0.  1.
       -1   -1    0    0    0  501  0.00000000000E+00  0.00000000000E+00 -0.39623061487E+03  0.39623061490E+03  0.50400001928E-02 0. -1.
    10030    2    1    2    0    0  0.00000000000E+00  0.00000000000E+00  0.12086995627E+04  0.20011607925E+04  0.15948949447E+04 0.  0.
        1    1    3    3  502    0 -0.32595498779E+01 -0.39481988214E+03 -0.26497826282E+03  0.47550693349E+03  0.50400001928E-02 0. -1.
       -1    1    3    3    0  502  0.32595498779E+01  0.39481988214E+03  0.14736778256E+04  0.15256538590E+04  0.50400001928E-02 0.  1.
</event>
<event>
 5   0  0.7770905E-04  0.1610808E+04  0.7818609E-02  0.8813936E-01
        2   -1    0    0  501    0  0.00000000000E+00  0.00000000000E+00  0.14801393654E+04  0.14801393654E+04  0.25500000920E-02 0. -1.
       -2   -1    0    0    0  501  0.00000000000E+00  0.00000000000E+00 -0.43825283894E+03  0.43825283895E+03  0.25500000920E-02 0.  1.
    10030    2    1    2    0    0  0.00000000000E+00  0.00000000000E+00  0.10418865264E+04  0.19183922043E+04  0.16108075973E+04 0.  0.
        2    1    3    3  502    0 -0.59698024676E+03 -0.38079490679E+03  0.97800318695E+03  0.12074271861E+04  0.25500000920E-02 0. -1.
       -2    1    3    3    0  502  0.59698024676E+03  0.38079490679E+03  0.63883339471E+02  0.71096501821E+03  0.25500000920E-02 0.  1.
</event>
<event>
 5   0  0.3889847E-04  0.1455641E+04  0.7818609E-02  0.8914499E-01
        1   -1    0    0  501    0  0.00000000000E+00  0.00000000000E+00  0.43102004348E+03  0.43102004351E+03  0.50400001928E-02 0.  1.
       -1   -1    0    0    0  501  0.00000000000E+00  0.00000000000E+00 -0.12289976652E+04  0.12289976652E+04  0.50400001928E-02 0. -1.
    10030    2    1    2    0    0  0.00000000000E+00  0.00000000000E+00 -0.79797762171E+03  0.16600177087E+04  0.14556409270E+04 0.  0.
        1    1    3    3  502    0  0.30018255726E+03 -0.62746171247E+03 -0.64332499727E+03  0.94746230555E+03  0.50400001928E-02 0.  1.
       -1    1    3    3    0  502 -0.30018255726E+03  0.62746171247E+03 -0.15465262444E+03  0.71255540316E+03  0.50400001928E-02 0. -1.
</event>
<event>
 5   0  0.2781000E-04  0.1603040E+04  0.7818609E-02  0.8818682E-01
       -4   -1    0    0    0  501  0.00000000000E+00  0.00000000000E+00  0.14262427436E+04  0.14262433090E+04  0.12699999809E+01 0.  1.
        4   -1    0    0  501    0  0.00000000000E+00  0.00000000000E+00 -0.45043695376E+03  0.45043874413E+03  0.12699999809E+01 0. -1.
    10030    2    1    2    0    0  0.00000000000E+00  0.00000000000E+00  0.97580578980E+03  0.18766820531E+04  0.16030404203E+04 0.  0.
        5    1    3    3  502    0 -0.14715860673E+03 -0.78779666584E+03  0.47438572429E+03  0.93131259395E+03  0.46999998093E+01 0. -1.
       -5    1    3    3    0  502  0.14715860673E+03  0.78779666584E+03  0.50142006552E+03  0.94536945918E+03  0.46999998093E+01 0.  1.
</event>
<event>
 5   0  0.3837251E-04  0.1621406E+04  0.7818609E-02  0.8807504E-01
       -1   -1    0    0    0  501  0.00000000000E+00  0.00000000000E+00  0.76727180076E+03  0.76727180078E+03  0.50400001928E-02 0. -1.
        1   -1    0    0  501    0  0.00000000000E+00  0.00000000000E+00 -0.85659250009E+03  0.85659250011E+03  0.50400001928E-02 0.  1.
    10030    2    1    2    0    0  0.00000000000E+00  0.00000000000E+00 -0.89320699328E+02  0.16238643009E+04  0.16214058962E+04 0.  0.
        4    1    3    3  502    0 -0.26351313546E+03 -0.11372258917E+03 -0.80400890080E+03  0.85370013782E+03  0.12699999809E+01 0.  1.
       -4    1    3    3    0  502  0.26351313546E+03  0.11372258917E+03  0.71468820147E+03  0.77016416307E+03  0.12699999809E+01 0. -1.
</event>
<event>
 5   0  0.7488884E-04  0.1600477E+04  0.7818609E-02  0.8820255E-01
       -2   -1    0    0    0  501  0.00000000000E+00  0.00000000000E+00  0.70719220626E+03  0.70719220627E+03  0.25500000920E-02 0.  1.
        2   -1    0    0  501    0  0.00000000000E+00  0.00000000000E+00 -0.90552646240E+03  0.90552646240E+03  0.25500000920E-02 0. -1.
    10030    2    1    2    0    0  0.00000000000E+00  0.00000000000E+00 -0.19833425613E+03  0.16127186687E+04  0.16004765000E+04 0.  0.
        3    1    3    3  502    0  0.11492027442E+03 -0.73759615850E+03  0.19135486677E+03  0.77063055854E+03  0.10100000352E+00 0.  1.
       -3    1    3    3    0  502 -0.11492027442E+03  0.73759615850E+03 -0.38968912290E+03  0.84208811013E+03  0.10100000352E+00 0. -1.
</event>
<event>
 5   0  0.7488884E-04  0.1589837E+04  0.7818609E-02  0.8826816E-01
       -2   -1    0    0    0  501  0.00000000000E+00  0.00000000000E+00  0.75364058929E+03  0.75364058930E+03  0.25500000920E-02 0.  1.
        2   -1    0    0  501    0  0.00000000000E+00  0.00000000000E+00 -0.83845723885E+03  0.83845723886E+03  0.25500000920E-02 0. -1.
    10030    2    1    2    0    0  0.00000000000E+00  0.00000000000E+00 -0.84816649562E+02  0.15920978282E+04  0.15898369823E+04 0.  0.
        3    1    3    3  502    0  0.49821393053E+03 -0.85774698863E+01  0.57783074080E+03  0.76300659812E+03  0.10100000352E+00 0.  1.
       -3    1    3    3    0  502 -0.49821393053E+03  0.85774698863E+01 -0.66264739036E+03  0.82909123003E+03  0.10100000352E+00 0. -1.
</event>
<event>
 5   0  0.3950195E-04  0.1600509E+04  0.7818609E-02  0.8820235E-01
       -1   -1    0    0    0  501  0.00000000000E+00  0.00000000000E+00  0.52066923630E+03  0.52066923633E+03  0.50400001928E-02 0.  1.
        1   -1    0    0  501    0  0.00000000000E+00  0.00000000000E+00 -0.12299698583E+04  0.12299698583E+04  0.50400001928E-02 0. -1.
    10030    2    1    2    0    0  0.00000000000E+00  0.00000000000E+00 -0.70930062202E+03  0.17506390947E+04  0.16005092525E+04 0.  0.
        2    1    3    3  502    0  0.72115813479E+03  0.24055922440E+02 -0.73317466501E+03  0.10286850014E+04  0.25500000920E-02 0. -1.
       -2    1    3    3    0  502 -0.72115813479E+03 -0.24055922440E+02  0.23874042989E+02  0.72195409322E+03  0.25500000920E-02 0.  1.
</event>
<event>
 5   0  0.2781000E-04  0.1597968E+04  0.7818609E-02  0.8821798E-01
       -3   -1    0    0    0  501  0.00000000000E+00  0.00000000000E+00  0.82176884356E+03  0.82176884977E+03  0.10100000352E+00 0. -1.
        3   -1    0    0  501    0  0.00000000000E+00  0.00000000000E+00 -0.77683049105E+03  0.77683049761E+03  0.10100000352E+00 0.  1.
    10030    2    1    2    0    0  0.00000000000E+00  0.00000000000E+00  0.44938352513E+02  0.15985993474E+04  0.15979675898E+04 0.  0.
        5    1    3    3  502    0  0.15864498258E+03  0.15726801053E+03 -0.74494006157E+03  0.77772697199E+03  0.46999998093E+01 0.  1.
       -5    1    3    3    0  502 -0.15864498258E+03 -0.15726801053E+03  0.78987841408E+03  0.82087237538E+03  0.46999998093E+01 0. -1.
</event>
<event>
 5   0  0.4110803E-04  0.1585681E+04  0.7818609E-02  0.8829393E-01
       -1   -1    0    0    0  501  0.00000000000E+00  0.00000000000E+00  0.95547161401E+03  0.95547161402E+03  0.50400001928E-02 0.  1.
        1   -1    0    0  501    0  0.00000000000E+00  0.00000000000E+00 -0.65789085422E+03  0.65789085423E+03  0.50400001928E-02 0. -1.
    10030    2    1    2    0    0  0.00000000000E+00  0.00000000000E+00  0.29758075979E+03  0.16133624683E+04  0.15856809721E+04 0.  0.
        5    1    3    3  502    0  0.72307826519E+03 -0.32510730285E+03  0.15498019875E+03  0.80782293107E+03  0.46999998093E+01 0.  1.
       -5    1    3    3    0  502 -0.72307826519E+03  0.32510730285E+03  0.14260056104E+03  0.80553953718E+03  0.46999998093E+01 0. -1.
</event>
<event>
 5   0  0.7415102E-04  0.1602203E+04  0.7818609E-02  0.8819196E-01
        2   -1    0    0  501    0  0.00000000000E+00  0.00000000000E+00  0.10589440096E+04  0.10589440096E+04  0.25500000920E-02 0.  1.
       -2   -1    0    0    0  501  0.00000000000E+00  0.00000000000E+00 -0.60604132329E+03  0.60604132330E+03  0.25500000920E-02 0. -1.
    10030    2    1    2    0    0  0.00000000000E+00  0.00000000000E+00  0.45290268634E+03  0.16649853329E+04  0.16022032691E+04 0.  0.
        5    1    3    3  502    0  0.47511093846E+03  0.54206285001E+03 -0.13678679432E+03  0.73368607340E+03  0.46999998093E+01 0. -1.
       -5    1    3    3    0  502 -0.47511093846E+03 -0.54206285001E+03  0.58968948066E+03  0.93129925953E+03  0.46999998093E+01 0.  1.
</event>
<event>
 5   0  0.7395088E-04  0.1587113E+04  0.7818609E-02  0.8828504E-01
       -2   -1    0    0    0  501  0.00000000000E+00  0.00000000000E+00  0.13177620805E+04  0.13177620805E+04  0.25500000920E-02 0.  1.
        2   -1    0    0  501    0  0.00000000000E+00  0.00000000000E+00 -0.47787995949E+03  0.47787995949E+03  0.25500000920E-02 0. -1.
    10030    2    1    2    0    0  0.00000000000E+00  0.00000000000E+00  0.83988212103E+03  0.17956420400E+04  0.15871132154E+04 0.  0.
        1    1    3    3  502    0 -0.28490759221E+03 -0.44796073245E+03  0.10872599424E+04  0.12099484850E+04  0.50400001928E-02 0.  1.
       -1    1    3    3    0  502  0.28490759221E+03  0.44796073245E+03 -0.24737782135E+03  0.58569355506E+03  0.50400001928E-02 0. -1.
</event>
<event>
 5   0  0.2781000E-04  0.1621479E+04  0.7818609E-02  0.8807460E-01
        3   -1    0    0  501    0  0.00000000000E+00  0.00000000000E+00  0.12630012838E+04  0.12630012879E+04  0.10100000352E+00 0. -1.
       -3   -1    0    0    0  501  0.00000000000E+00  0.00000000000E+00 -0.52042602241E+03  0.52042603221E+03  0.10100000352E+00 0.  1.
    10030    2    1    2    0    0  0.00000000000E+00  0.00000000000E+00  0.74257526143E+03  0.17834273201E+04  0.16214792589E+04 0.  0.
        2    1    3    3  502    0 -0.34584668963E+03  0.79216045462E+02  0.11730771278E+04  0.12255590816E+04  0.25500000920E-02 0. -1.
       -2    1    3    3    0  502  0.34584668963E+03 -0.79216045462E+02 -0.43050186639E+03  0.55786823853E+03  0.25500000920E-02 0.  1.
</event>
<event>
 5   0  0.3837251E-04  0.1586919E+04  0.7818609E-02  0.8828625E-01
       -1   -1    0    0    0  501  0.00000000000E+00  0.00000000000E+00  0.10057028116E+04  0.10057028116E+04  0.50400001928E-02 0. -1.
        1   -1    0    0  501    0  0.00000000000E+00  0.00000000000E+00 -0.62600787434E+03  0.62600787436E+03  0.50400001928E-02 0.  1.
    10030    2    1    2    0    0  0.00000000000E+00  0.00000000000E+00  0.37969493729E+03  0.16317106860E+04  0.15869188755E+04 0.  0.
        4    1    3    3  502    0 -0.84722955361E+02 -0.22674750895E+03 -0.58711554612E+03  0.63505802048E+03  0.12699999809E+01 0.  1.
       -4    1    3    3    0  502  0.84722955361E+02  0.22674750895E+03  0.96681048341E+03  0.99665266553E+03  0.12699999809E+01 0. -1.
</event>
<event>
 5   0  0.7553070E-04  0.1593370E+04  0.7818609E-02  0.8824631E-01
        2   -1    0    0  501    0  0.00000000000E+00  0.00000000000E+00  0.12864788849E+04  0.12864788849E+04  0.25500000920E-02 0. -1.
       -2   -1    0    0    0  501  0.00000000000E+00  0.00000000000E+00 -0.49336765596E+03  0.49336765596E+03  0.25500000920E-02 0.  1.
    10030    2    1    2    0    0  0.00000000000E+00  0.00000000000E+00  0.79311122893E+03  0.17798465408E+04  0.15933701037E+04 0.  0.
        4    1    3    3  502    0  0.43727607060E+03  0.65401991087E+03  0.53675569564E+03  0.95239734115E+03  0.12699999809E+01 0. -1.
       -4    1    3    3    0  502 -0.43727607060E+03 -0.65401991087E+03  0.25635553328E+03  0.82744919970E+03  0.12699999809E+01 0.  1.
</event>
<event>
 5   0  0.7488884E-04  0.1610172E+04  0.7818609E-02  0.8814323E-01
        2   -1    0    0  501    0  0.00000000000E+00  0.00000000000E+00  0.14577332660E+04  0.14577332660E+04  0.25500000920E-02 0.  1.
       -2   -1    0    0    0  501  0.00000000000E+00  0.00000000000E+00 -0.44463809447E+03  0.44463809448E+03  0.25500000920E-02 0. -1.
    10030    2    1    2    0    0  0.00000000000E+00  0.00000000000E+00  0.10130951715E+04  0.19023713604E+04  0.16101723406E+04 0.  0.
        3    1    3    3  502    0  0.44043718162E+02 -0.32625014738E+03  0.13745745811E+04  0.14134476633E+04  0.10100000352E+00 0.  1.
       -3    1    3    3    0  502 -0.44043718162E+02  0.32625014738E+03 -0.36147940963E+03  0.48892369708E+03  0.10100000352E+00 0. -1.
</event>
<event>
 5   0  0.7415102E-04  0.1646129E+04  0.7818609E-02  0.8792700E-01
        2   -1    0    0  501    0  0.00000000000E+00  0.00000000000E+00  0.50155098654E+03  0.50155098655E+03  0.25500000920E-02 0.  1.
       -2   -1    0    0    0  501  0.00000000000E+00  0.00000000000E+00 -0.13506812327E+04  0.13506812327E+04  0.25500000920E-02 0. -1.
    10030    2    1    2    0    0  0.00000000000E+00  0.00000000000E+00 -0.84913024614E+03  0.18522322192E+04  0.16461294053E+04 0.  0.
        5    1    3    3  502    0  0.18819844047E+03 -0.67705910163E+03  0.57550191683E+02  0.70509701081E+03  0.46999998093E+01 0.  1.
       -5    1    3    3    0  502 -0.18819844047E+03  0.67705910163E+03 -0.90668043782E+03  0.11471352084E+04  0.46999998093E+01 0. -1.
</event>
<event>
 5   0  0.7415102E-04  0.1642007E+04  0.7818609E-02  0.8795149E-01
       -2   -1    0    0    0  501  0.00000000000E+00  0.00000000000E+00  0.28535818863E+03  0.28535818864E+03  0.25500000920E-02 0.  1.
        2   -1    0    0  501    0  0.00000000000E+00  0.00000000000E+00 -0.23621076928E+04  0.23621076928E+04  0.25500000920E-02 0. -1.
    10030    2    1    2    0    0  0.00000000000E+00  0.00000000000E+00 -0.20767495042E+04  0.26474658814E+04  0.16420070311E+04 0.  0.
        5    1    3    3  502    0 -0.46565346098E+03  0.59425498141E+03 -0.15584686180E+04  0.17317097481E+04  0.46999998093E+01 0. -1.
       -5    1    3    3    0  502  0.46565346098E+03 -0.59425498141E+03 -0.51828088620E+03  0.91575613329E+03  0.46999998093E+01 0.  1.
</event>
<event>
 5   0  0.7415102E-04  0.1619516E+04  0.7818609E-02  0.8808647E-01
        2   -1    0    0  501    0  0.00000000000E+00  0.00000000000E+00  0.10441641190E+04  0.10441641190E+04  0.25500000920E-02 0. -1.
       -2   -1    0    0    0  501  0.00000000000E+00  0.00000000000E+00 -0.62797423004E+03  0.62797423005E+03  0.25500000920E-02 0.  1.
    10030    2    1    2    0    0  0.00000000000E+00  0.00000000000E+00  0.41618988899E+03  0.16721383491E+04  0.16195161730E+04 0.  0.
        5    1    3    3  502    0 -0.73575209348E+03 -0.23817655198E+03  0.45595091205E+03  0.89775973243E+03  0.46999998093E+01 0. -1.
       -5    1    3    3    0  502  0.73575209348E+03  0.23817655198E+03 -0.39761023064E+02  0.77437861665E+03  0.46999998093E+01 0.  1.
</event>
<event>
 5   0  0.4110803E-04  0.1621134E+04  0.7818609E-02  0.8807669E-01
        1   -1    0    0  501    0  0.00000000000E+00  0.00000000000E+00  0.60839451276E+03  0.60839451278E+03  0.50400001928E-02 0. -1.
       -1   -1    0    0    0  501  0.00000000000E+00  0.00000000000E+00 -0.10799218557E+04  0.10799218557E+04  0.50400001928E-02 0.  1.
    10030    2    1    2    0    0  0.00000000000E+00  0.00000000000E+00 -0.47152734292E+03  0.16883163685E+04  0.16211335925E+04 0.  0.
        5    1    3    3  502    0  0.86899169761E+02  0.78098650800E+03 -0.28767967129E+02  0.78634666485E+03  0.46999998093E+01 0.  1.
       -5    1    3    3    0  502 -0.86899169761E+02 -0.78098650800E+03 -0.44275937579E+03  0.90196970361E+03  0.46999998093E+01 0. -1.
</event>
<event>
 5   0  0.7395088E-04  0.1570774E+04  0.7818609E-02  0.8838707E-01
       -2   -1    0    0    0  501  0.00000000000E+00  0.00000000000E+00  0.29258415652E+03  0.29258415653E+03  0.25500000920E-02 0. -1.
        2   -1    0    0  501    0  0.00000000000E+00  0.00000000000E+00 -0.21082235706E+04  0.21082235706E+04  0.25500000920E-02 0.  1.
    10030    2    1    2    0    0  0.00000000000E+00  0.00000000000E+00 -0.18156394141E+04  0.24008077271E+04  0.15707740960E+04 0.  0.
        1    1    3    3  502    0 -0.69459580956E+03  0.10195796655E+03 -0.14459767686E+04  0.16073915456E+04  0.50400001928E-02 0. -1.
       -1    1    3    3    0  502  0.69459580956E+03 -0.10195796655E+03 -0.36966264551E+03  0.79341618153E+03  0.50400001928E-02 0.  1.
</event>
<event>
 5   0  0.3950195E-04  0.1601050E+04  0.7818609E-02  0.8819903E-01
       -1   -1    0    0    0  501  0.00000000000E+00  0.00000000000E+00  0.96951156858E+03  0.96951156859E+03  0.50400001928E-02 0.  1.
        1   -1    0    0  501    0  0.00000000000E+00  0.00000000000E+00 -0.66099288663E+03  0.66099288665E+03  0.50400001928E-02 0. -1.
    10030    2    1    2    0    0  0.00000000000E+00  0.00000000000E+00  0.30851868195E+03  0.16305044552E+04  0.16010499684E+04 0.  0.
        2    1    3    3  502    0 -0.36449634517E+03  0.16279806430E+03 -0.55239329542E+03  0.68154174356E+03  0.25500000920E-02 0. -1.
       -2    1    3    3    0  502  0.36449634517E+03 -0.16279806430E+03  0.86091197737E+03  0.94896271168E+03  0.25500000920E-02 0.  1.
</event>
<event>
 5   0  0.3950195E-04  0.1447302E+04  0.7818609E-02  0.8920273E-01
       -1   -1    0    0    0  501  0.00000000000E+00  0.00000000000E+00  0.72339722426E+03  0.72339722428E+03  0.50400001928E-02 0.  1.
        1   -1    0    0  501    0  0.00000000000E+00  0.00000000000E+00 -0.72390506143E+03  0.72390506145E+03  0.50400001928E-02 0. -1.
    10030    2    1    2    0    0  0.00000000000E+00  0.00000000000E+00 -0.50783716884E+00  0.14473022857E+04  0.14473021966E+04 0.  0.
        2    1    3    3  502    0 -0.68443235409E+03  0.88711584958E+01 -0.23508273729E+03  0.72373354085E+03  0.25500000920E-02 0. -1.
       -2    1    3    3    0  502  0.68443235409E+03 -0.88711584958E+01  0.23457490012E+03  0.72356874487E+03  0.25500000920E-02 0.  1.
</event>
<event>
 5   0  0.3973227E-04  0.1514325E+04  0.7818609E-02  0.8874983E-01
        1   -1    0    0  501    0  0.00000000000E+00  0.00000000000E+00  0.13455937191E+04  0.13455937191E+04  0.50400001928E-02 0. -1.
       -1   -1    0    0    0  501  0.00000000000E+00  0.00000000000E+00 -0.42605350031E+03  0.42605350034E+03  0.50400001928E-02 0.  1.
    10030    2    1    2    0    0  0.00000000000E+00  0.00000000000E+00  0.91954021876E+03  0.17716472194E+04  0.15143248186E+04 0.  0.
        3    1    3    3  502    0 -0.66914394048E+02  0.13430361548E+03 -0.40848480639E+03  0.43517220099E+03  0.10100000352E+00 0.  1.
       -3    1    3    3    0  502  0.66914394048E+02 -0.13430361548E+03  0.13280250251E+04  0.13364750184E+04  0.10100000352E+00 0. -1.
</event>
<event>
 5   0  0.7395088E-04  0.1624659E+04  0.7818609E-02  0.8805541E-01
        2   -1    0    0  501    0  0.00000000000E+00  0.00000000000E+00  0.13565483617E+04  0.13565483617E+04  0.25500000920E-02 0.  1.
       -2   -1    0    0    0  501  0.00000000000E+00  0.00000000000E+00 -0.48643979351E+03  0.48643979352E+03  0.25500000920E-02 0. -1.
    10030    2    1    2    0    0  0.00000000000E+00  0.00000000000E+00  0.87010856823E+03  0.18429881553E+04  0.16246588626E+04 0.  0.
        1    1    3    3  502    0 -0.18052696197E+03  0.20784717078E+03 -0.43190709804E+03  0.51218568094E+03  0.50400001928E-02 0. -1.
       -1    1    3    3    0  502  0.18052696197E+03 -0.20784717078E+03  0.13020156663E+04  0.13308024743E+04  0.50400001928E-02 0.  1.
</event>
<event>
 5   0  0.3837251E-04  0.1598267E+04  0.7818609E-02  0.8821613E-01
       -1   -1    0    0    0  501  0.00000000000E+00  0.00000000000E+00  0.87271009649E+03  0.87271009650E+03  0.50400001928E-02 0.  1.
        1   -1    0    0  501    0  0.00000000000E+00  0.00000000000E+00 -0.73176014786E+03  0.73176014788E+03  0.50400001928E-02 0. -1.
    10030    2    1    2    0    0  0.00000000000E+00  0.00000000000E+00  0.14094994863E+03  0.16044702444E+04  0.15982671482E+04 0.  0.
        4    1    3    3  502    0 -0.72865493845E+03  0.73800119252E+02  0.39144762787E+03  0.83043201720E+03  0.12699999809E+01 0.  1.
       -4    1    3    3    0  502  0.72865493845E+03 -0.73800119252E+02 -0.25049767924E+03  0.77403822718E+03  0.12699999809E+01 0. -1.
</event>
<event>
 5   0  0.3837251E-04  0.1618570E+04  0.7818609E-02  0.8809221E-01
        1   -1    0    0  501    0  0.00000000000E+00  0.00000000000E+00  0.72382126589E+03  0.72382126591E+03  0.50400001928E-02 0. -1.
       -1   -1    0    0    0  501  0.00000000000E+00  0.00000000000E+00 -0.90483917743E+03  0.90483917744E+03  0.50400001928E-02 0.  1.
    10030    2    1    2    0    0  0.00000000000E+00  0.00000000000E+00 -0.18101791154E+03  0.16286604433E+04  0.16185695399E+04 0.  0.
        4    1    3    3  502    0 -0.39432341702E+03 -0.36295712508E+03 -0.70068159429E+03  0.88214802689E+03  0.12699999809E+01 0.  1.
       -4    1    3    3    0  502  0.39432341702E+03  0.36295712508E+03  0.51966368276E+03  0.74651241646E+03  0.12699999809E+01 0. -1.
</event>
<event>
 5   0  0.4110803E-04  0.1586911E+04  0.7818609E-02  0.8828630E-01
        1   -1    0    0  501    0  0.00000000000E+00  0.00000000000E+00  0.11755844874E+04  0.11755844874E+04  0.50400001928E-02 0.  1.
       -1   -1    0    0    0  501  0.00000000000E+00  0.00000000000E+00 -0.53553913336E+03  0.53553913339E+03  0.50400001928E-02 0. -1.
    10030    2    1    2    0    0  0.00000000000E+00  0.00000000000E+00  0.64004535402E+03  0.17111236208E+04  0.15869108325E+04 0.  0.
        5    1    3    3  502    0  0.34321202178E+03  0.70412351522E+03  0.45626536423E+03  0.90652335280E+03  0.46999998093E+01 0.  1.
       -5    1    3    3    0  502 -0.34321202178E+03 -0.70412351522E+03  0.18377998978E+03  0.80460026797E+03  0.46999998093E+01 0. -1.
</event>
<event>
 5   0  0.7770905E-04  0.1590813E+04  0.7818609E-02  0.8826212E-01
        2   -1    0    0  501    0  0.00000000000E+00  0.00000000000E+00  0.41289077570E+03  0.41289077571E+03  0.25500000920E-02 0.  1.
       -2   -1    0    0    0  501  0.00000000000E+00  0.00000000000E+00 -0.15322971297E+04  0.15322971297E+04  0.25500000920E-02 0. -1.
    10030    2    1    2    0    0  0.00000000000E+00  0.00000000000E+00 -0.11194063540E+04  0.19451879054E+04  0.15908128117E+04 0.  0.
        2    1    3    3  502    0 -0.14647727549E+03 -0.16370308744E+03 -0.14944713611E+04  0.15105293583E+04  0.25500000920E-02 0. -1.
       -2    1    3    3    0  502  0.14647727549E+03  0.16370308744E+03  0.37506500708E+03  0.43465854715E+03  0.25500000920E-02 0.  1.
</event>
<event>
 5   0  0.7553070E-04  0.1753419E+04  0.7818609E-02  0.8731471E-01
       -2   -1    0    0    0  501  0.00000000000E+00  0.00000000000E+00  0.53481015429E+03  0.53481015430E+03  0.25500000920E-02 0. -1.
        2   -1    0    0  501    0  0.00000000000E+00  0.00000000000E+00 -0.14371819821E+04  0.14371819821E+04  0.25500000920E-02 0.  1.
    10030    2    1    2    0    0  0.00000000000E+00  0.00000000000E+00 -0.90237182777E+03  0.19719921364E+04  0.17534189660E+04 0.  0.
        4    1    3    3  502    0  0.17498067916E+03  0.75079672575E+03  0.18354615207E+02  0.77113712547E+03  0.12699999809E+01 0. -1.
       -4    1    3    3    0  502 -0.17498067916E+03 -0.75079672575E+03 -0.92072644298E+03  0.12008550109E+04  0.12699999809E+01 0.  1.
</event>
<event>
 5   0  0.7415102E-04  0.1757976E+04  0.7818609E-02  0.8728972E-01
        2   -1    0    0  501    0  0.00000000000E+00  0.00000000000E+00  0.10641979747E+04  0.10641979747E+04  0.25500000920E-02 0. -1.
       -2   -1    0    0    0  501  0.00000000000E+00  0.00000000000E+00 -0.72601115913E+03  0.72601115913E+03  0.25500000920E-02 0.  1.
    10030    2    1    2    0    0  0.00000000000E+00  0.00000000000E+00  0.33818681555E+03  0.17902091338E+04  0.17579756598E+04 0.  0.
        5    1    3    3  502    0 -0.57825388591E+03 -0.55314869340E+03  0.53941835881E+03  0.96506232410E+03  0.46999998093E+01 0. -1.
       -5    1    3    3    0  502  0.57825388591E+03  0.55314869340E+03 -0.20123154326E+03  0.82514680972E+03  0.46999998093E+01 0.  1.
</event>
<event>
 5   0  0.7488884E-04  0.1599975E+04  0.7818609E-02  0.8820563E-01
        2   -1    0    0  501    0  0.00000000000E+00  0.00000000000E+00  0.17715183273E+04  0.17715183273E+04  0.25500000920E-02 0. -1.
       -2   -1    0    0    0  501  0.00000000000E+00  0.00000000000E+00 -0.36126063901E+03  0.36126063902E+03  0.25500000920E-02 0.  1.
    10030    2    1    2    0    0  0.00000000000E+00  0.00000000000E+00  0.14102576882E+04  0.21327789663E+04  0.15999748035E+04 0.  0.
        3    1    3    3  502    0  0.43015332260E+03  0.67232794014E+03  0.77719875732E+03  0.11140442804E+04  0.10100000352E+00 0. -1.
       -3    1    3    3    0  502 -0.43015332260E+03 -0.67232794014E+03  0.63305893093E+03  0.10187346859E+04  0.10100000352E+00 0.  1.
</event>
<event>
 5   0  0.7415102E-04  0.1635008E+04  0.7818609E-02  0.8799325E-01
       -2   -1    0    0    0  501  0.00000000000E+00  0.00000000000E+00  0.86522992238E+03  0.86522992238E+03  0.25500000920E-02 0. -1.
        2   -1    0    0  501    0  0.00000000000E+00  0.00000000000E+00 -0.77241075792E+03  0.77241075793E+03  0.25500000920E-02 0.  1.
    10030    2    1    2    0    0  0.00000000000E+00  0.00000000000E+00  0.92819164454E+02  0.16376406803E+04  0.16350081347E+04 0.  0.
        5    1    3    3  502    0  0.97920752872E+02  0.60147202431E+03 -0.49938406283E+03  0.78788552600E+03  0.46999998093E+01 0.  1.
       -5    1    3    3    0  502 -0.97920752872E+02 -0.60147202431E+03  0.59220322729E+03  0.84975515431E+03  0.46999998093E+01 0. -1.
</event>
<event>
 5   0  0.7770905E-04  0.1613665E+04  0.7818609E-02  0.8812197E-01
        2   -1    0    0  501    0  0.00000000000E+00  0.00000000000E+00  0.66368595462E+03  0.66368595463E+03  0.25500000920E-02 0. -1.
       -2   -1    0    0    0  501  0.00000000000E+00  0.00000000000E+00 -0.98085320729E+03  0.98085320730E+03  0.25500000920E-02 0.  1.
    10030    2    1    2    0    0  0.00000000000E+00  0.00000000000E+00 -0.31716725267E+03  0.16445391619E+04  0.16136647697E+04 0.  0.
        2    1    3    3  502    0 -0.32755142794E+03  0.69503199480E+03  0.92336554977E+02  0.77387689662E+03  0.25500000920E-02 0. -1.
       -2    1    3    3    0  502  0.32755142794E+03 -0.69503199480E+03 -0.40950380764E+03  0.87066226530E+03  0.25500000920E-02 0.  1.
</event>
<event>
 5   0  0.3889847E-04  0.1594445E+04  0.7818609E-02  0.8823968E-01
       -1   -1    0    0    0  501  0.00000000000E+00  0.00000000000E+00  0.10665303661E+04  0.10665303661E+04  0.50400001928E-02 0. -1.
        1   -1    0    0  501    0  0.00000000000E+00  0.00000000000E+00 -0.59591676863E+03  0.59591676865E+03  0.50400001928E-02 0.  1.
    10030    2    1    2    0    0  0.00000000000E+00  0.00000000000E+00  0.47061359751E+03  0.16624471348E+04  0.15944445170E+04 0.  0.
        1    1    3    3  502    0  0.49834625578E+03  0.14736606254E+03  0.86565524506E+03  0.10096656627E+04  0.50400001928E-02 0. -1.
       -1    1    3    3    0  502 -0.49834625578E+03 -0.14736606254E+03 -0.39504164755E+03  0.65278147213E+03  0.50400001928E-02 0.  1.
</event>
<event>
 5   0  0.3837251E-04  0.1586604E+04  0.7818609E-02  0.8828820E-01
        1   -1    0    0  501    0  0.00000000000E+00  0.00000000000E+00  0.17936721102E+04  0.17936721102E+04  0.50400001928E-02 0. -1.
       -1   -1    0    0    0  501  0.00000000000E+00  0.00000000000E+00 -0.35085993454E+03  0.35085993457E+03  0.50400001928E-02 0.  1.
    10030    2    1    2    0    0  0.00000000000E+00  0.00000000000E+00  0.14428121757E+04  0.21445320448E+04  0.15866035160E+04 0.  0.
        4    1    3    3  502    0  0.61102984403E+03  0.36801073756E+03  0.25213503662E+03  0.75654680149E+03  0.12699999809E+01 0.  1.
       -4    1    3    3    0  502 -0.61102984403E+03 -0.36801073756E+03  0.11906771391E+04  0.13879852433E+04  0.12699999809E+01 0. -1.
</event>
<event>
 5   0  0.7553070E-04  0.1625859E+04  0.7818609E-02  0.8804817E-01
       -2   -1    0    0    0  501  0.00000000000E+00  0.00000000000E+00  0.57024066814E+03  0.57024066815E+03  0.25500000920E-02 0.  1.
        2   -1    0    0  501    0  0.00000000000E+00  0.00000000000E+00 -0.11589046345E+04  0.11589046345E+04  0.25500000920E-02 0. -1.
    10030    2    1    2    0    0  0.00000000000E+00  0.00000000000E+00 -0.58866396633E+03  0.17291453026E+04  0.16258592228E+04 0.  0.
        4    1    3    3  502    0 -0.58239757924E+02 -0.56783291491E+03  0.32125348387E+03  0.65500496369E+03  0.12699999809E+01 0.  1.
       -4    1    3    3    0  502  0.58239757924E+02  0.56783291491E+03 -0.90991745020E+03  0.10741403389E+04  0.12699999809E+01 0. -1.
</event>
<event>
 5   0  0.7553070E-04  0.1573375E+04  0.7818609E-02  0.8837074E-01
        2   -1    0    0  501    0  0.00000000000E+00  0.00000000000E+00  0.63870391833E+03  0.63870391833E+03  0.25500000920E-02 0. -1.
       -2   -1    0    0    0  501  0.00000000000E+00  0.00000000000E+00 -0.96895778972E+03  0.96895778973E+03  0.25500000920E-02 0.  1.
    10030    2    1    2    0    0  0.00000000000E+00  0.00000000000E+00 -0.33025387139E+03  0.16076617081E+04  0.15733748911E+04 0.  0.
        4    1    3    3  502    0 -0.59254007771E+03  0.34884760548E+03 -0.55565618284E+03  0.88405531613E+03  0.12699999809E+01 0.  1.
       -4    1    3    3    0  502  0.59254007771E+03 -0.34884760548E+03  0.22540231145E+03  0.72360639193E+03  0.12699999809E+01 0. -1.
</event>
<event>
 5   0  0.3950195E-04  0.1582714E+04  0.7818609E-02  0.8831238E-01
       -1   -1    0    0    0  501  0.00000000000E+00  0.00000000000E+00  0.38461276888E+03  0.38461276891E+03  0.50400001928E-02 0. -1.
        1   -1    0    0  501    0  0.00000000000E+00  0.00000000000E+00 -0.16282510307E+04  0.16282510307E+04  0.50400001928E-02 0.  1.
    10030    2    1    2    0    0  0.00000000000E+00  0.00000000000E+00 -0.12436382618E+04  0.20128637996E+04  0.15827142981E+04 0.  0.
        2    1    3    3  502    0  0.68391566858E+03  0.30425202698E+03 -0.94838727632E+03  0.12082004650E+04  0.25500000920E-02 0.  1.
       -2    1    3    3    0  502 -0.68391566858E+03 -0.30425202698E+03 -0.29525098547E+03  0.80466333462E+03  0.25500000920E-02 0. -1.
</event>
<event>
 5   0  0.3950195E-04  0.1648275E+04  0.7818609E-02  0.8791428E-01
       -1   -1    0    0    0  501  0.00000000000E+00  0.00000000000E+00  0.44824551241E+03  0.44824551244E+03  0.50400001928E-02 0.  1.
        1   -1    0    0  501    0  0.00000000000E+00  0.00000000000E+00 -0.15152468727E+04  0.15152468727E+04  0.50400001928E-02 0. -1.
    10030    2    1    2    0    0  0.00000000000E+00  0.00000000000E+00 -0.10670013603E+04  0.19634923851E+04  0.16482749903E+04 0.  0.
        2    1    3    3  502    0  0.28892930218E+03  0.59019799124E+03  0.59000977379E+02  0.65976884275E+03  0.25500000920E-02 0.  1.
       -2    1    3    3    0  502 -0.28892930218E+03 -0.59019799124E+03 -0.11260023376E+04  0.13037235424E+04  0.25500000920E-02 0. -1.
</event>
<event>
 5   0  0.7770905E-04  0.1608422E+04  0.7818609E-02  0.8815391E-01
        2   -1    0    0  501    0  0.00000000000E+00  0.00000000000E+00  0.13660564827E+04  0.13660564827E+04  0.25500000920E-02 0.  1.
       -2   -1    0    0    0  501  0.00000000000E+00  0.00000000000E+00 -0.47344701539E+03  0.47344701539E+03  0.25500000920E-02 0. -1.
    10030    2    1    2    0    0  0.00000000000E+00  0.00000000000E+00  0.89260946729E+03  0.18395034981E+04  0.16084220399E+04 0.  0.
        2    1    3    3  502    0  0.14001145810E+02 -0.57157968577E+03  0.10931164085E+04  0.12336137369E+04  0.25500000920E-02 0.  1.
       -2    1    3    3    0  502 -0.14001145810E+02  0.57157968577E+03 -0.20050694119E+03  0.60588976121E+03  0.25500000920E-02 0. -1.
</event>
<event>
 5   0  0.7488884E-04  0.1612670E+04  0.7818609E-02  0.8812802E-01
        2   -1    0    0  501    0  0.00000000000E+00  0.00000000000E+00  0.90253158461E+03  0.90253158461E+03  0.25500000920E-02 0. -1.
       -2   -1    0    0    0  501  0.00000000000E+00  0.00000000000E+00 -0.72039176330E+03  0.72039176330E+03  0.25500000920E-02 0.  1.
    10030    2    1    2    0    0  0.00000000000E+00  0.00000000000E+00  0.18213982131E+03  0.16229233479E+04  0.16126702325E+04 0.  0.
        3    1    3    3  502    0 -0.43561135734E+03  0.64213189350E+03 -0.12960875410E+03  0.78669502517E+03  0.10100000352E+00 0. -1.
       -3    1    3    3    0  502  0.43561135734E+03 -0.64213189350E+03  0.31174857542E+03  0.83622832275E+03  0.10100000352E+00 0.  1.
</event>
<event>
 5   0  0.7770905E-04  0.1608292E+04  0.7818609E-02  0.8815470E-01
        2   -1    0    0  501    0  0.00000000000E+00  0.00000000000E+00  0.12356027332E+04  0.12356027332E+04  0.25500000920E-02 0. -1.
       -2   -1    0    0    0  501  0.00000000000E+00  0.00000000000E+00 -0.52334838860E+03  0.52334838861E+03  0.25500000920E-02 0.  1.
    10030    2    1    2    0    0  0.00000000000E+00  0.00000000000E+00  0.71225434459E+03  0.17589511218E+04  0.16082918882E+04 0.  0.
        2    1    3    3  502    0 -0.46876830799E+03 -0.11049358461E+03  0.10604227215E+04  0.11646668653E+04  0.25500000920E-02 0. -1.
       -2    1    3    3    0  502  0.46876830799E+03  0.11049358461E+03 -0.34816837693E+03  0.59428425649E+03  0.25500000920E-02 0.  1.
</event>
<event>
 5   0  0.7395088E-04  0.1634671E+04  0.7818609E-02  0.8799527E-01
        2   -1    0    0  501    0  0.00000000000E+00  0.00000000000E+00  0.12645061535E+04  0.12645061535E+04  0.25500000920E-02 0.  1.
       -2   -1    0    0    0  501  0.00000000000E+00  0.00000000000E+00 -0.52829870459E+03  0.52829870460E+03  0.25500000920E-02 0. -1.
    10030    2    1    2    0    0  0.00000000000E+00  0.00000000000E+00  0.73620744892E+03  0.17928048581E+04  0.16346705636E+04 0.  0.
        1    1    3    3  502    0 -0.20223948988E+03 -0.58915077040E+03 -0.21227420760E+03  0.65807277771E+03  0.50400001928E-02 0. -1.
       -1    1    3    3    0  502  0.20223948988E+03  0.58915077040E+03  0.94848165652E+03  0.11347320804E+04  0.50400001928E-02 0.  1.
</event>
<event>
 5   0  0.3973227E-04  0.1337287E+04  0.7818609E-02  0.9000508E-01
       -1   -1    0    0    0  501  0.00000000000E+00  0.00000000000E+00  0.22619813513E+03  0.22619813518E+03  0.50400001928E-02 0. -1.
        1   -1    0    0  501    0  0.00000000000E+00  0.00000000000E+00 -0.19765163746E+04  0.19765163746E+04  0.50400001928E-02 0.  1.
    10030    2    1    2    0    0  0.00000000000E+00  0.00000000000E+00 -0.17503182394E+04  0.22027145097E+04  0.13372872811E+04 0.  0.
        3    1    3    3  502    0 -0.15220600063E+03 -0.51452195575E+03 -0.15323390534E+04  0.16235647490E+04  0.10100000352E+00 0.  1.
       -3    1    3    3    0  502  0.15220600063E+03  0.51452195575E+03 -0.21797918603E+03  0.57914976070E+03  0.10100000352E+00 0. -1.
</event>
<event>
 5   0  0.7415102E-04  0.1603855E+04  0.7818609E-02  0.8818183E-01
        2   -1    0    0  501    0  0.00000000000E+00  0.00000000000E+00  0.46183198916E+03  0.46183198916E+03  0.25500000920E-02 0.  1.
       -2   -1    0    0    0  501  0.00000000000E+00  0.00000000000E+00 -0.13924711523E+04  0.13924711523E+04  0.25500000920E-02 0. -1.
    10030    2    1    2    0    0  0.00000000000E+00  0.00000000000E+00 -0.93063916319E+03  0.18543031415E+04  0.16038550086E+04 0.  0.
        5    1    3    3  502    0 -0.70306852916E+03  0.37384721777E+03 -0.57499302804E+03  0.98219456892E+03  0.46999998093E+01 0.  1.
       -5    1    3    3    0  502  0.70306852916E+03 -0.37384721777E+03 -0.35564613515E+03  0.87210857259E+03  0.46999998093E+01 0. -1.
</event>
<event>
 5   0  0.7553070E-04  0.1608852E+04  0.7818609E-02  0.8815129E-01
       -2   -1    0    0    0  501  0.00000000000E+00  0.00000000000E+00  0.86720882894E+03  0.86720882894E+03  0.25500000920E-02 0. -1.
        2   -1    0    0  501    0  0.00000000000E+00  0.00000000000E+00 -0.74618796158E+03  0.74618796158E+03  0.25500000920E-02 0.  1.
    10030    2    1    2    0    0  0.00000000000E+00  0.00000000000E+00  0.12102086736E+03  0.16133967905E+04  0.16088515013E+04 0.  0.
        4    1    3    3  502    0  0.59947532903E+03  0.53160061565E+03 -0.11310969787E+02  0.80131107294E+03  0.12699999809E+01 0. -1.
       -4    1    3    3    0  502 -0.59947532903E+03 -0.53160061565E+03  0.13233183715E+03  0.81208571758E+03  0.12699999809E+01 0.  1.
</event>
<event>
 5   0  0.7770905E-04  0.1601206E+04  0.7818609E-02  0.8819808E-01
        2   -1    0    0  501    0  0.00000000000E+00  0.00000000000E+00  0.95548186332E+03  0.95548186333E+03  0.25500000920E-02 0. -1.
       -2   -1    0    0    0  501  0.00000000000E+00  0.00000000000E+00 -0.67082885017E+03  0.67082885018E+03  0.25500000920E-02 0.  1.
    10030    2    1    2    0    0  0.00000000000E+00  0.00000000000E+00  0.28465301315E+03  0.16263107135E+04  0.16012055455E+04 0.  0.
        2    1    3    3  502    0 -0.21003968393E+03 -0.64812184688E+03  0.56937836967E+03  0.88790220469E+03  0.25500000920E-02 0. -1.
       -2    1    3    3    0  502  0.21003968393E+03  0.64812184688E+03 -0.28472535652E+03  0.73840850881E+03  0.25500000920E-02 0.  1.
</event>
<event>
 5   0  0.3973227E-04  0.1557519E+04  0.7818609E-02  0.8847079E-01
        1   -1    0    0  501    0  0.00000000000E+00  0.00000000000E+00  0.60894702512E+03  0.60894702514E+03  0.50400001928E-02 0.  1.
       -1   -1    0    0    0  501  0.00000000000E+00  0.00000000000E+00 -0.99592628457E+03  0.99592628458E+03  0.50400001928E-02 0. -1.
    10030    2    1    2    0    0  0.00000000000E+00  0.00000000000E+00 -0.38697925945E+03  0.16048733097E+04  0.15575189864E+04 0.  0.
        3    1    3    3  502    0  0.76023457496E+03 -0.87954700148E+02 -0.44976677701E+02  0.76662608225E+03  0.10100000352E+00 0.  1.
       -3    1    3    3    0  502 -0.76023457496E+03  0.87954700148E+02 -0.34200258175E+03  0.83824722747E+03  0.10100000352E+00 0. -1.
</event>
<event>
 5   0  0.4110803E-04  0.1598461E+04  0.7818609E-02  0.8821494E-01
       -1   -1    0    0    0  501  0.00000000000E+00  0.00000000000E+00  0.69944292101E+03  0.69944292103E+03  0.50400001928E-02 0.  1.
        1   -1    0    0  501    0  0.00000000000E+00  0.00000000000E+00 -0.91325459325E+03  0.91325459326E+03  0.50400001928E-02 0. -1.
    10030    2    1    2    0    0  0.00000000000E+00  0.00000000000E+00 -0.21381167223E+03  0.16126975143E+04  0.15984610854E+04 0.  0.
        5    1    3    3  502    0 -0.61761437667E+03 -0.50696128011E+03 -0.12409022602E+03  0.80862706607E+03  0.46999998093E+01 0.  1.
       -5    1    3    3    0  502  0.61761437667E+03  0.50696128011E+03 -0.89721446212E+02  0.80407044822E+03  0.46999998093E+01 0. -1.
</event>
<event>
 5   0  0.7395088E-04  0.1449968E+04  0.7818609E-02  0.8918423E-01
       -2   -1    0    0    0  501  0.00000000000E+00  0.00000000000E+00  0.22641714374E+03  0.22641714375E+03  0.25500000920E-02 0. -1.
        2   -1    0    0  501    0  0.00000000000E+00  0.00000000000E+00 -0.23213861769E+04  0.23213861769E+04  0.25500000920E-02 0.  1.
    10030    2    1    2    0    0  0.00000000000E+00  0.00000000000E+00 -0.20949690331E+04  0.25478033206E+04  0.14499677620E+04 0.  0.
        1    1    3    3  502    0 -0.49019313992E+03 -0.35622082975E+03 -0.17468613347E+04  0.18489746122E+04  0.50400001928E-02 0.  1.
       -1    1    3    3    0  502  0.49019313992E+03  0.35622082975E+03 -0.34810769848E+03  0.69882870844E+03  0.50400001928E-02 0. -1.
</event>
<event>
 5   0  0.7415102E-04  0.1600449E+04  0.7818609E-02  0.8820272E-01
        2   -1    0    0  501    0  0.00000000000E+00  0.00000000000E+00  0.98721992293E+03  0.98721992293E+03  0.25500000920E-02 0. -1.
       -2   -1    0    0    0  501  0.00000000000E+00  0.00000000000E+00 -0.64864943049E+03  0.64864943050E+03  0.25500000920E-02 0.  1.
    10030    2    1    2    0    0  0.00000000000E+00  0.00000000000E+00  0.33857049244E+03  0.16358693534E+04  0.16004494878E+04 0.  0.
        5    1    3    3  502    0  0.64705225757E+03 -0.37835251897E+03  0.45568323105E+03  0.87720952440E+03  0.46999998093E+01 0. -1.
       -5    1    3    3    0  502 -0.64705225757E+03  0.37835251897E+03 -0.11711273861E+03  0.75865982903E+03  0.46999998093E+01 0.  1.
</event>
<event>
 5   0  0.7415102E-04  0.1604212E+04  0.7818609E-02  0.8817965E-01
       -2   -1    0    0    0  501  0.00000000000E+00  0.00000000000E+00  0.51582535663E+03  0.51582535664E+03  0.25500000920E-02 0. -1.
        2   -1    0    0  501    0  0.00000000000E+00  0.00000000000E+00 -0.12472708351E+04  0.12472708351E+04  0.25500000920E-02 0.  1.
    10030    2    1    2    0    0  0.00000000000E+00  0.00000000000E+00 -0.73144547842E+03  0.17630961917E+04  0.16042118605E+04 0.  0.
        5    1    3    3  502    0 -0.14978369034E+03 -0.69413803895E+03  0.44161079869E+02  0.71150197609E+03  0.46999998093E+01 0. -1.
       -5    1    3    3    0  502  0.14978369034E+03  0.69413803895E+03 -0.77560655829E+03  0.10515942156E+04  0.46999998093E+01 0.  1.
</event>
<event>
 5   0  0.3837251E-04  0.1587876E+04  0.7818609E-02  0.8828031E-01
        1   -1    0    0  501    0  0.00000000000E+00  0.00000000000E+00  0.72885100475E+03  0.72885100477E+03  0.50400001928E-02 0.  1.
       -1   -1    0    0    0  501  0.00000000000E+00  0.00000000000E+00 -0.86483755158E+03  0.86483755159E+03  0.50400001928E-02 0. -1.
    10030    2    1    2    0    0  0.00000000000E+00  0.00000000000E+00 -0.13598654683E+03  0.15936885564E+04  0.15878762149E+04 0.  0.
        4    1    3    3  502    0 -0.31110211906E+03 -0.22964221470E+01  0.66512301447E+03  0.73428879831E+03  0.12699999809E+01 0.  1.
       -4    1    3    3    0  502  0.31110211906E+03  0.22964221470E+01 -0.80110956130E+03  0.85939975805E+03  0.12699999809E+01 0. -1.
</event>
<event>
 5   0  0.3837251E-04  0.1618163E+04  0.7818609E-02  0.8809467E-01
       -1   -1    0    0    0  501  0.00000000000E+00  0.00000000000E+00  0.38821547305E+03  0.38821547308E+03  0.50400001928E-02 0.  1.
        1   -1    0    0  501    0  0.00000000000E+00  0.00000000000E+00 -0.16862107798E+04  0.16862107798E+04  0.50400001928E-02 0. -1.
    10030    2    1    2    0    0  0.00000000000E+00  0.00000000000E+00 -0.12979953068E+04  0.20744262529E+04  0.16181632990E+04 0.  0.
        4    1    3    3  502    0  0.30892434299E+03 -0.41342498156E+03 -0.14477926233E+04  0.15370294591E+04  0.12699999809E+01 0. -1.
       -4    1    3    3    0  502 -0.30892434299E+03  0.41342498156E+03  0.14979731654E+03  0.53739679382E+03  0.12699999809E+01 0.  1.
</event>
<event>
 5   0  0.3950195E-04  0.1601883E+04  0.7818609E-02  0.8819392E-01
        1   -1    0    0  501    0  0.00000000000E+00  0.00000000000E+00  0.80848143893E+03  0.80848143894E+03  0.50400001928E-02 0. -1.
       -1   -1    0    0    0  501  0.00000000000E+00  0.00000000000E+00 -0.79347146614E+03  0.79347146615E+03  0.50400001928E-02 0.  1.
    10030    2    1    2    0    0  0.00000000000E+00  0.00000000000E+00  0.15009972790E+02  0.16019529051E+04  0.16018825834E+04 0.  0.
        2    1    3    3  502    0 -0.39942294825E+03  0.58930075783E+03  0.37452638098E+03  0.80441536834E+03  0.25500000920E-02 0. -1.
       -2    1    3    3    0  502  0.39942294825E+03 -0.58930075783E+03 -0.35951640819E+03  0.79753753675E+03  0.25500000920E-02 0.  1.
</event>
<event>
 5   0  0.7395088E-04  0.1572496E+04  0.7818609E-02  0.8837625E-01
       -2   -1    0    0    0  501  0.00000000000E+00  0.00000000000E+00  0.53933208022E+03  0.53933208023E+03  0.25500000920E-02 0.  1.
        2   -1    0    0  501    0  0.00000000000E+00  0.00000000000E+00 -0.11462063856E+04  0.11462063856E+04  0.25500000920E-02 0. -1.
    10030    2    1    2    0    0  0.00000000000E+00  0.00000000000E+00 -0.60687430537E+03  0.16855384658E+04  0.15724959451E+04 0.  0.
        1    1    3    3  502    0 -0.38923158351E+03 -0.56528025612E+03 -0.71460463533E+03  0.99080915338E+03  0.50400001928E-02 0. -1.
       -1    1    3    3    0  502  0.38923158351E+03  0.56528025612E+03  0.10773032996E+03  0.69472931245E+03  0.50400001928E-02 0.  1.
</event>
<event>
 5   0  0.7415102E-04  0.1584700E+04  0.7818609E-02  0.8830003E-01
       -2   -1    0    0    0  501  0.00000000000E+00  0.00000000000E+00  0.29842902334E+03  0.29842902336E+03  0.25500000920E-02 0.  1.
        2   -1    0    0  501    0  0.00000000000E+00  0.00000000000E+00 -0.21037451020E+04  0.21037451020E+04  0.25500000920E-02 0. -1.
    10030    2    1    2    0    0  0.00000000000E+00  0.00000000000E+00 -0.18053160787E+04  0.24021741254E+04  0.15847000930E+04 0.  0.
        5    1    3    3  502    0  0.66808883431E+03  0.42378251560E+03 -0.96807193201E+03  0.12502478421E+04  0.46999998093E+01 0.  1.
       -5    1    3    3    0  502 -0.66808883431E+03 -0.42378251560E+03 -0.83724414669E+03  0.11519262833E+04  0.46999998093E+01 0. -1.
</event>
<event>
 5   0  0.7488884E-04  0.1602244E+04  0.7818609E-02  0.8819171E-01
        2   -1    0    0  501    0  0.00000000000E+00  0.00000000000E+00  0.99633749558E+03  0.99633749558E+03  0.25500000920E-02 0. -1.
       -2   -1    0    0    0  501  0.00000000000E+00  0.00000000000E+00 -0.64415564518E+03  0.64415564519E+03  0.25500000920E-02 0.  1.
    10030    2    1    2    0    0  0.00000000000E+00  0.00000000000E+00  0.35218185040E+03  0.16404931408E+04  0.16022439543E+04 0.  0.
        3    1    3    3  502    0 -0.73543851933E+03  0.30016808578E+03  0.69560390865E+02  0.79737654443E+03  0.10100000352E+00 0. -1.
       -3    1    3    3    0  502  0.73543851933E+03 -0.30016808578E+03  0.28262145953E+03  0.84311659634E+03  0.10100000352E+00 0.  1.
</event>
<event>
 5   0  0.3837251E-04  0.1626834E+04  0.7818609E-02  0.8804230E-01
       -1   -1    0    0    0  501  0.00000000000E+00  0.00000000000E+00  0.41596607041E+03  0.41596607044E+03  0.50400001928E-02 0. -1.
        1   -1    0    0  501    0  0.00000000000E+00  0.00000000000E+00 -0.15906285783E+04  0.15906285783E+04  0.50400001928E-02 0.  1.
    10030    2    1    2    0    0  0.00000000000E+00  0.00000000000E+00 -0.11746625079E+04  0.20065946488E+04  0.16268343729E+04 0.  0.
        4    1    3    3  502    0 -0.18697136708E+03  0.16849707968E+03  0.36672610535E+03  0.44479119507E+03  0.12699999809E+01 0. -1.
       -4    1    3    3    0  502  0.18697136708E+03 -0.16849707968E+03 -0.15413886133E+04  0.15618034537E+04  0.12699999809E+01 0.  1.
</event>
<event>
 5   0  0.7395088E-04  0.1585896E+04  0.7818609E-02  0.8829260E-01
       -2   -1    0    0    0  501  0.00000000000E+00  0.00000000000E+00  0.91939313913E+03  0.91939313913E+03  0.25500000920E-02 0.  1.
        2   -1    0    0  501    0  0.00000000000E+00  0.00000000000E+00 -0.68389313195E+03  0.68389313196E+03  0.25500000920E-02 0. -1.
    10030    2    1    2    0    0  0.00000000000E+00  0.00000000000E+00  0.23550000718E+03  0.16032862711E+04  0.15858961548E+04 0.  0.
        1    1    3    3  502    0  0.60908312260E+03  0.30304141879E+03  0.52958699322E+03  0.86213614653E+03  0.50400001928E-02 0.  1.
       -1    1    3    3    0  502 -0.60908312260E+03 -0.30304141879E+03 -0.29408698604E+03  0.74115012456E+03  0.50400001928E-02 0. -1.
</event>
<event>
 5   0  0.3837251E-04  0.1596415E+04  0.7818609E-02  0.8822753E-01
       -1   -1    0    0    0  501  0.00000000000E+00  0.00000000000E+00  0.99630352709E+03  0.99630352710E+03  0.50400001928E-02 0. -1.
        1   -1    0    0  501    0  0.00000000000E+00  0.00000000000E+00 -0.63949907145E+03  0.63949907147E+03  0.50400001928E-02 0.  1.
    10030    2    1    2    0    0  0.00000000000E+00  0.00000000000E+00  0.35680445563E+03  0.16358025986E+04  0.15964149592E+04 0.  0.
        4    1    3    3  502    0  0.79334717753E+03 -0.79983444005E+02  0.21586199422E+03  0.82607209665E+03  0.12699999809E+01 0.  1.
       -4    1    3    3    0  502 -0.79334717753E+03  0.79983444005E+02  0.14094246142E+03  0.80973050192E+03  0.12699999809E+01 0. -1.
</event>
<event>
 5   0  0.7488884E-04  0.1595191E+04  0.7818609E-02  0.8823508E-01
        2   -1    0    0  501    0  0.00000000000E+00  0.00000000000E+00  0.58732244507E+03  0.58732244508E+03  0.25500000920E-02 0. -1.
       -2   -1    0    0    0  501  0.00000000000E+00  0.00000000000E+00 -0.10831500478E+04  0.10831500478E+04  0.25500000920E-02 0.  1.
    10030    2    1    2    0    0  0.00000000000E+00  0.00000000000E+00 -0.49582760273E+03  0.16704724929E+04  0.15951906901E+04 0.  0.
        3    1    3    3  502    0  0.26479174999E+03 -0.70134623005E+03 -0.53308334912E+03  0.91987992291E+03  0.10100000352E+00 0.  1.
       -3    1    3    3    0  502 -0.26479174999E+03  0.70134623005E+03  0.37255746390E+02  0.75059256998E+03  0.10100000352E+00 0. -1.
</event>
<event>
 5   0  0.7553070E-04  0.1300891E+04  0.7818609E-02  0.9028859E-01
        2   -1    0    0  501    0  0.00000000000E+00  0.00000000000E+00  0.15265334386E+04  0.15265334386E+04  0.25500000920E-02 0. -1.
       -2   -1    0    0    0  501  0.00000000000E+00  0.00000000000E+00 -0.27715060358E+03  0.27715060359E+03  0.25500000920E-02 0.  1.
    10030    2    1    2    0    0  0.00000000000E+00  0.00000000000E+00  0.12493828350E+04  0.18036840421E+04  0.13008914849E+04 0.  0.
        4    1    3    3  502    0 -0.44097625669E+03  0.43532477060E+03  0.35049285971E+03  0.71190910408E+03  0.12699999809E+01 0.  1.
       -4    1    3    3    0  502  0.44097625669E+03 -0.43532477060E+03  0.89888997527E+03  0.10917749381E+04  0.12699999809E+01 0. -1.
</event>
<event>
 5   0  0.3889847E-04  0.1530480E+04  0.7818609E-02  0.8864433E-01
       -1   -1    0    0    0  501  0.00000000000E+00  0.00000000000E+00  0.41404240850E+03  0.41404240853E+03  0.50400001928E-02 0.  1.
        1   -1    0    0  501    0  0.00000000000E+00  0.00000000000E+00 -0.14143294014E+04  0.14143294014E+04  0.50400001928E-02 0. -1.
    10030    2    1    2    0    0  0.00000000000E+00  0.00000000000E+00 -0.10002869929E+04  0.18283718099E+04  0.15304801231E+04 0.  0.
        1    1    3    3  502    0  0.42379412887E+03 -0.34815245149E+03 -0.11376610457E+04  0.12629664477E+04  0.50400001928E-02 0. -1.
       -1    1    3    3    0  502 -0.42379412887E+03  0.34815245149E+03  0.13737405286E+03  0.56540536216E+03  0.50400001928E-02 0.  1.
</event>
<event>
 5   0  0.7395088E-04  0.1577232E+04  0.7818609E-02  0.8834658E-01
       -2   -1    0    0    0  501  0.00000000000E+00  0.00000000000E+00  0.58810992408E+03  0.58810992409E+03  0.25500000920E-02 0.  1.
        2   -1    0    0  501    0  0.00000000000E+00  0.00000000000E+00 -0.10574817220E+04  0.10574817220E+04  0.25500000920E-02 0. -1.
    10030    2    1    2    0    0  0.00000000000E+00  0.00000000000E+00 -0.46937179794E+03  0.16455916461E+04  0.15772323802E+04 0.  0.
        1    1    3    3  502    0  0.38867654369E+02 -0.39269356707E+03 -0.94706459505E+03  0.10259874655E+04  0.50400001928E-02 0. -1.
       -1    1    3    3    0  502 -0.38867654369E+02  0.39269356707E+03  0.47769279711E+03  0.61960418060E+03  0.50400001928E-02 0.  1.
</event>
<event>
 5   0  0.4110803E-04  0.1550506E+04  0.7818609E-02  0.8851545E-01
       -1   -1    0    0    0  501  0.00000000000E+00  0.00000000000E+00  0.28654178408E+03  0.28654178412E+03  0.50400001928E-02 0.  1.
        1   -1    0    0  501    0  0.00000000000E+00  0.00000000000E+00 -0.20974851352E+04  0.20974851352E+04  0.50400001928E-02 0. -1.
    10030    2    1    2    0    0  0.00000000000E+00  0.00000000000E+00 -0.18109433511E+04  0.23840269193E+04  0.15505058952E+04 0.  0.
        5    1    3    3  502    0  0.25945017396E+03  0.82526814431E+02  0.21059324545E+03  0.34423345696E+03  0.46999998093E+01 0.  1.
       -5    1    3    3    0  502 -0.25945017396E+03 -0.82526814431E+02 -0.20215365965E+04  0.20397934623E+04  0.46999998093E+01 0. -1.
</event>
<event>
 5   0  0.4110803E-04  0.1572293E+04  0.7818609E-02  0.8837752E-01
       -1   -1    0    0    0  501  0.00000000000E+00  0.00000000000E+00  0.43491655864E+03  0.43491655867E+03  0.50400001928E-02 0. -1.
        1   -1    0    0  501    0  0.00000000000E+00  0.00000000000E+00 -0.14210235975E+04  0.14210235976E+04  0.50400001928E-02 0.  1.
    10030    2    1    2    0    0  0.00000000000E+00  0.00000000000E+00 -0.98610703890E+03  0.18559401562E+04  0.15722934749E+04 0.  0.
        5    1    3    3  502    0  0.32753185070E+03 -0.54748754329E+03  0.49142122575E+02  0.63988808513E+03  0.46999998093E+01 0. -1.
       -5    1    3    3    0  502 -0.32753185070E+03  0.54748754329E+03 -0.10352491615E+04  0.12160520711E+04  0.46999998093E+01 0.  1.
</event>
<event>
 5   0  0.3837251E-04  0.1604975E+04  0.7818609E-02  0.8817498E-01
        1   -1    0    0  501    0  0.00000000000E+00  0.00000000000E+00  0.13835089280E+04  0.13835089280E+04  0.50400001928E-02 0. -1.
       -1   -1    0    0    0  501  0.00000000000E+00  0.00000000000E+00 -0.46547306438E+03  0.46547306440E+03  0.50400001928E-02 0.  1.
    10030    2    1    2    0    0  0.00000000000E+00  0.00000000000E+00  0.91803586363E+03  0.18489819924E+04  0.16049749410E+04 0.  0.
        4    1    3    3  502    0 -0.44987409568E+03 -0.48845668683E+03 -0.60046039004E+02  0.66677115757E+03  0.12699999809E+01 0.  1.
       -4    1    3    3    0  502  0.44987409568E+03  0.48845668683E+03  0.97808190263E+03  0.11822108348E+04  0.12699999809E+01 0. -1.
</event>
<event>
 5   0  0.3973227E-04  0.1584410E+04  0.7818609E-02  0.8830183E-01
        1   -1    0    0  501    0  0.00000000000E+00  0.00000000000E+00  0.82408215570E+03  0.82408215572E+03  0.50400001928E-02 0.  1.
       -1   -1    0    0    0  501  0.00000000000E+00  0.00000000000E+00 -0.76156069495E+03  0.76156069496E+03  0.50400001928E-02 0. -1.
    10030    2    1    2    0    0  0.00000000000E+00  0.00000000000E+00  0.62521460758E+02  0.15856428507E+04  0.15844097692E+04 0.  0.
        3    1    3    3  502    0  0.49904720155E+03  0.36399338669E+03 -0.46515885356E+03  0.77324773791E+03  0.10100000352E+00 0. -1.
       -3    1    3    3    0  502 -0.49904720155E+03 -0.36399338669E+03  0.52768031432E+03  0.81239511277E+03  0.10100000352E+00 0.  1.
</event>
<event>
 5   0  0.3973227E-04  0.1581086E+04  0.7818609E-02  0.8832252E-01
       -1   -1    0    0    0  501  0.00000000000E+00  0.00000000000E+00  0.69471053480E+03  0.69471053481E+03  0.50400001928E-02 0. -1.
        1   -1    0    0  501    0  0.00000000000E+00  0.00000000000E+00 -0.89959553011E+03  0.89959553012E+03  0.50400001928E-02 0.  1.
    10030    2    1    2    0    0  0.00000000000E+00  0.00000000000E+00 -0.20488499531E+03  0.15943060649E+04  0.15810863251E+04 0.  0.
        3    1    3    3  502    0  0.70673468936E+03 -0.27184214291E+03  0.12658296432E+03  0.76772086650E+03  0.10100000352E+00 0. -1.
       -3    1    3    3    0  502 -0.70673468936E+03  0.27184214291E+03 -0.33146795963E+03  0.82658519843E+03  0.10100000352E+00 0.  1.
</event>
<event>
 5   0  0.3837251E-04  0.1578295E+04  0.7818609E-02  0.8833995E-01
        1   -1    0    0  501    0  0.00000000000E+00  0.00000000000E+00  0.11323674799E+04  0.11323674799E+04  0.50400001928E-02 0. -1.
       -1   -1    0    0    0  501  0.00000000000E+00  0.00000000000E+00 -0.54995701098E+03  0.54995701100E+03  0.50400001928E-02 0.  1.
    10030    2    1    2    0    0  0.00000000000E+00  0.00000000000E+00  0.58241046892E+03  0.16823244909E+04  0.15782945664E+04 0.  0.
        4    1    3    3  502    0  0.21336056602E+03 -0.75797388313E+03  0.23577076481E+03  0.82197117047E+03  0.12699999809E+01 0. -1.
       -4    1    3    3    0  502 -0.21336056602E+03  0.75797388313E+03  0.34663970411E+03  0.86035332045E+03  0.12699999809E+01 0.  1.
</event>
<event>
 5   0  0.3973227E-04  0.1598025E+04  0.7818609E-02  0.8821762E-01
        1   -1    0    0  501    0  0.00000000000E+00  0.00000000000E+00  0.11037692420E+04  0.11037692421E+04  0.50400001928E-02 0.  1.
       -1   -1    0    0    0  501  0.00000000000E+00  0.00000000000E+00 -0.57840051195E+03  0.57840051198E+03  0.50400001928E-02 0. -1.
    10030    2    1    2    0    0  0.00000000000E+00  0.00000000000E+00  0.52536873009E+03  0.16821697540E+04  0.15980246490E+04 0.  0.
        3    1    3    3  502    0 -0.18122433658E+03 -0.61696201328E+02 -0.55390239750E+03  0.58605166802E+03  0.10100000352E+00 0. -1.
       -3    1    3    3    0  502  0.18122433658E+03  0.61696201328E+02  0.10792711276E+04  0.10961180860E+04  0.10100000352E+00 0.  1.
</event>
<event>
 5   0  0.3889847E-04  0.1589741E+04  0.7818609E-02  0.8826875E-01
       -1   -1    0    0    0  501  0.00000000000E+00  0.00000000000E+00  0.55082899990E+03  0.55082899993E+03  0.50400001928E-02 0.  1.
        1   -1    0    0  501    0  0.00000000000E+00  0.00000000000E+00 -0.11470333628E+04  0.11470333628E+04  0.50400001928E-02 0. -1.
    10030    2    1    2    0    0  0.00000000000E+00  0.00000000000E+00 -0.59620436293E+03  0.16978623628E+04  0.15897411615E+04 0.  0.
        1    1    3    3  502    0 -0.23336875482E+03  0.57479859154E+03 -0.82885661321E+03  0.10353055983E+04  0.50400001928E-02 0. -1.
       -1    1    3    3    0  502  0.23336875482E+03 -0.57479859154E+03  0.23265225028E+03  0.66255676448E+03  0.50400001928E-02 0.  1.
</event>
<event>
 5   0  0.4110803E-04  0.1603400E+04  0.7818609E-02  0.8818462E-01
       -1   -1    0    0    0  501  0.00000000000E+00  0.00000000000E+00  0.10152759577E+04  0.10152759578E+04  0.50400001928E-02 0. -1.
        1   -1    0    0  501    0  0.00000000000E+00  0.00000000000E+00 -0.63305229571E+03  0.63305229573E+03  0.50400001928E-02 0.  1.
    10030    2    1    2    0    0  0.00000000000E+00  0.00000000000E+00  0.38222366203E+03  0.16483282535E+04  0.16033998576E+04 0.  0.
        5    1    3    3  502    0 -0.77228920985E+03 -0.26864828793E+02  0.41051260441E+03  0.87504001683E+03  0.46999998093E+01 0. -1.
       -5    1    3    3    0  502  0.77228920985E+03  0.26864828793E+02 -0.28288942375E+02  0.77328823665E+03  0.46999998093E+01 0.  1.
</event>
<event>
 5   0  0.7488884E-04  0.1602962E+04  0.7818609E-02  0.8818730E-01
       -2   -1    0    0    0  501  0.00000000000E+00  0.00000000000E+00  0.55461393217E+03  0.55461393218E+03  0.25500000920E-02 0. -1.
        2   -1    0    0  501    0  0.00000000000E+00  0.00000000000E+00 -0.11582326808E+04  0.11582326808E+04  0.25500000920E-02 0.  1.
    10030    2    1    2    0    0  0.00000000000E+00  0.00000000000E+00 -0.60361874859E+03  0.17128466129E+04  0.16029622347E+04 0.  0.
        3    1    3    3  502    0 -0.58594467725E+03 -0.52813511355E+03 -0.45335575698E+03  0.90982927825E+03  0.10100000352E+00 0.  1.
       -3    1    3    3    0  502  0.58594467725E+03  0.52813511355E+03 -0.15026299160E+03  0.80301733469E+03  0.10100000352E+00 0. -1.
</event>
<event>
 5   0  0.7770905E-04  0.1591646E+04  0.7818609E-02  0.8825697E-01
       -2   -1    0    0    0  501  0.00000000000E+00  0.00000000000E+00  0.10935352083E+04  0.10935352083E+04  0.25500000920E-02 0. -1.
        2   -1    0    0  501    0  0.00000000000E+00  0.00000000000E+00 -0.57916185590E+03  0.57916185591E+03  0.25500000920E-02 0.  1.
    10030    2    1    2    0    0  0.00000000000E+00  0.00000000000E+00  0.51437335241E+03  0.16726970642E+04  0.15916455394E+04 0.  0.
        2    1    3    3  502    0 -0.34875902364E+03  0.71300344804E+03  0.19656829433E+03  0.81770769094E+03  0.25500000920E-02 0.  1.
       -2    1    3    3    0  502  0.34875902364E+03 -0.71300344804E+03  0.31780505808E+03  0.85498937328E+03  0.25500000920E-02 0. -1.
</event>
<event>
 5   0  0.4110803E-04  0.1568597E+04  0.7818609E-02  0.8840076E-01
       -1   -1    0    0    0  501  0.00000000000E+00  0.00000000000E+00  0.18983001188E+03  0.18983001195E+03  0.50400001928E-02 0.  1.
        1   -1    0    0  501    0  0.00000000000E+00  0.00000000000E+00 -0.32403936627E+04  0.32403936627E+04  0.50400001928E-02 0. -1.
    10030    2    1    2    0    0  0.00000000000E+00  0.00000000000E+00 -0.30505636508E+04  0.34302236746E+04  0.15685967839E+04 0.  0.
        5    1    3    3  502    0  0.49545167519E+03 -0.68160040174E+02 -0.28464188655E+04  0.28900243254E+04  0.46999998093E+01 0. -1.
       -5    1    3    3    0  502 -0.49545167519E+03  0.68160040174E+02 -0.20414478527E+03  0.54019934920E+03  0.46999998093E+01 0.  1.
</event>
<event>
 5   0  0.7488884E-04  0.1613014E+04  0.7818609E-02  0.8812593E-01
       -2   -1    0    0    0  501  0.00000000000E+00  0.00000000000E+00  0.44979792992E+03  0.44979792993E+03  0.25500000920E-02 0.  1.
        2   -1    0    0  501    0  0.00000000000E+00  0.00000000000E+00 -0.14461007853E+04  0.14461007853E+04  0.25500000920E-02 0. -1.
    10030    2    1    2    0    0  0.00000000000E+00  0.00000000000E+00 -0.99630285537E+03  0.18958987152E+04  0.16130135024E+04 0.  0.
        3    1    3    3  502    0  0.34678115116E+03 -0.17781218974E+02 -0.13537416397E+04  0.13975656606E+04  0.10100000352E+00 0. -1.
       -3    1    3    3    0  502 -0.34678115116E+03  0.17781218974E+02  0.35743878433E+03  0.49833305458E+03  0.10100000352E+00 0.  1.
</event>
<event>
 5   0  0.7395088E-04  0.1598798E+04  0.7818609E-02  0.8821287E-01
        2   -1    0    0  501    0  0.00000000000E+00  0.00000000000E+00  0.65106669772E+03  0.65106669773E+03  0.25500000920E-02 0. -1.
       -2   -1    0    0    0  501  0.00000000000E+00  0.00000000000E+00 -0.98152612696E+03  0.98152612697E+03  0.25500000920E-02 0.  1.
    10030    2    1    2    0    0  0.00000000000E+00  0.00000000000E+00 -0.33045942924E+03  0.16325928247E+04  0.15987982665E+04 0.  0.
        1    1    3    3  502    0  0.34177419958E+03  0.13799749687E+03  0.55912037130E+03  0.66967790935E+03  0.50400001928E-02 0. -1.
       -1    1    3    3    0  502 -0.34177419958E+03 -0.13799749687E+03 -0.88957980054E+03  0.96291491535E+03  0.50400001928E-02 0.  1.
</event>
<event>
 5   0  0.7553070E-04  0.1594047E+04  0.7818609E-02  0.8824214E-01
        2   -1    0    0  501    0  0.00000000000E+00  0.00000000000E+00  0.77064057866E+03  0.77064057866E+03  0.25500000920E-02 0. -1.
       -2   -1    0    0    0  501  0.00000000000E+00  0.00000000000E+00 -0.82430934535E+03  0.82430934535E+03  0.25500000920E-02 0.  1.
    10030    2    1    2    0    0  0.00000000000E+00  0.00000000000E+00 -0.53668766693E+02  0.15949499240E+04  0.15940467131E+04 0.  0.
        4    1    3    3  502    0 -0.71830137366E+03 -0.20581070147E+03  0.25068482953E+03  0.78813666639E+03  0.12699999809E+01 0. -1.
       -4    1    3    3    0  502  0.71830137366E+03  0.20581070147E+03 -0.30435359622E+03  0.80681325763E+03  0.12699999809E+01 0.  1.
</event>
<event>
 5   0  0.7770905E-04  0.1617835E+04  0.7818609E-02  0.8809666E-01
        2   -1    0    0  501    0  0.00000000000E+00  0.00000000000E+00  0.12839146655E+04  0.12839146655E+04  0.25500000920E-02 0. -1.
       -2   -1    0    0    0  501  0.00000000000E+00  0.00000000000E+00 -0.50965001085E+03  0.50965001086E+03  0.25500000920E-02 0.  1.
    10030    2    1    2    0    0  0.00000000000E+00  0.00000000000E+00  0.77426465462E+03  0.17935646763E+04  0.16178345072E+04 0.  0.
        2    1    3    3  502    0  0.68333777373E+03 -0.24975956803E+03 -0.48505368039E+01  0.72756709831E+03  0.25500000920E-02 0.  1.
       -2    1    3    3    0  502 -0.68333777373E+03  0.24975956803E+03  0.77911519142E+03  0.10659975780E+04  0.25500000920E-02 0. -1.
</event>
<event>
 5   0  0.4110803E-04  0.1611454E+04  0.7818609E-02  0.8813542E-01
        1   -1    0    0  501    0  0.00000000000E+00  0.00000000000E+00  0.12315269487E+04  0.12315269487E+04  0.50400001928E-02 0.  1.
       -1   -1    0    0    0  501  0.00000000000E+00  0.00000000000E+00 -0.52714720033E+03  0.52714720035E+03  0.50400001928E-02 0. -1.
    10030    2    1    2    0    0  0.00000000000E+00  0.00000000000E+00  0.70437974837E+03  0.17586741491E+04  0.16114539809E+04 0.  0.
        5    1    3    3  502    0  0.34414700006E+03 -0.63223446379E+03  0.74721995517E+03  0.10375535293E+04  0.46999998093E+01 0.  1.
       -5    1    3    3    0  502 -0.34414700006E+03  0.63223446379E+03 -0.42840206803E+02  0.72112061971E+03  0.46999998093E+01 0. -1.
</event>
<event>
 5   0  0.7770905E-04  0.1599802E+04  0.7818609E-02  0.8820670E-01
       -2   -1    0    0    0  501  0.00000000000E+00  0.00000000000E+00  0.10287640067E+04  0.10287640067E+04  0.25500000920E-02 0.  1.
        2   -1    0    0  501    0  0.00000000000E+00  0.00000000000E+00 -0.62195148262E+03  0.62195148262E+03  0.25500000920E-02 0. -1.
    10030    2    1    2    0    0  0.00000000000E+00  0.00000000000E+00  0.40681252413E+03  0.16507154894E+04  0.15998016118E+04 0.  0.
        2    1    3    3  502    0 -0.35557431405E+03  0.18452755536E+03 -0.51098476355E+03  0.64929880648E+03  0.25500000920E-02 0. -1.
       -2    1    3    3    0  502  0.35557431405E+03 -0.18452755536E+03  0.91779728768E+03  0.10014166829E+04  0.25500000920E-02 0.  1.
</event>
<event>
 5   0  0.4110803E-04  0.1600532E+04  0.7818609E-02  0.8820221E-01
       -1   -1    0    0    0  501  0.00000000000E+00  0.00000000000E+00  0.66986144313E+03  0.66986144315E+03  0.50400001928E-02 0.  1.
        1   -1    0    0  501    0  0.00000000000E+00  0.00000000000E+00 -0.95605668938E+03  0.95605668940E+03  0.50400001928E-02 0. -1.
    10030    2    1    2    0    0  0.00000000000E+00  0.00000000000E+00 -0.28619524626E+03  0.16259181325E+04  0.16005318037E+04 0.  0.
        5    1    3    3  502    0 -0.18593251660E+03 -0.56366367666E+03 -0.68837551611E+03  0.90893926216E+03  0.46999998093E+01 0. -1.
       -5    1    3    3    0  502  0.18593251660E+03  0.56366367666E+03  0.40218026985E+03  0.71697887038E+03  0.46999998093E+01 0.  1.
</event>
<event>
 5   0  0.3950195E-04  0.1623231E+04  0.7818609E-02  0.8806402E-01
       -1   -1    0    0    0  501  0.00000000000E+00  0.00000000000E+00  0.80067745131E+03  0.80067745133E+03  0.50400001928E-02 0. -1.
        1   -1    0    0  501    0  0.00000000000E+00  0.00000000000E+00 -0.82270262870E+03  0.82270262872E+03  0.50400001928E-02 0.  1.
    10030    2    1    2    0    0  0.00000000000E+00  0.00000000000E+00 -0.22025177390E+02  0.16233800800E+04  0.16232306601E+04 0.  0.
        2    1    3    3  502    0 -0.25862996794E+03 -0.13164755568E+03 -0.76903941932E+03  0.82197455418E+03  0.25500000920E-02 0.  1.
       -2    1    3    3    0  502  0.25862996794E+03  0.13164755568E+03  0.74701424193E+03  0.80140552587E+03  0.25500000920E-02 0. -1.
</event>
<event>
 5   0  0.3950195E-04  0.1595704E+04  0.7818609E-02  0.8823191E-01
        1   -1    0    0  501    0  0.00000000000E+00  0.00000000000E+00  0.82933645807E+03  0.82933645809E+03  0.50400001928E-02 0. -1.
       -1   -1    0    0    0  501  0.00000000000E+00  0.00000000000E+00 -0.76756327827E+03  0.76756327829E+03  0.50400001928E-02 0.  1.
    10030    2    1    2    0    0  0.00000000000E+00  0.00000000000E+00  0.61773179802E+02  0.15968997364E+04  0.15957044972E+04 0.  0.
        2    1    3    3  502    0 -0.31862408932E+02 -0.70259318350E+03 -0.34611274104E+03  0.78386633052E+03  0.25500000920E-02 0. -1.
       -2    1    3    3    0  502  0.31862408932E+02  0.70259318350E+03  0.40788592085E+03  0.81303340586E+03  0.25500000920E-02 0.  1.
</event>
<event>
 5   0  0.3837251E-04  0.1604788E+04  0.7818609E-02  0.8817612E-01
       -1   -1    0    0    0  501  0.00000000000E+00  0.00000000000E+00  0.58853946088E+03  0.58853946091E+03  0.50400001928E-02 0.  1.
        1   -1    0    0  501    0  0.00000000000E+00  0.00000000000E+00 -0.10939564142E+04  0.10939564142E+04  0.50400001928E-02 0. -1.
    10030    2    1    2    0    0  0.00000000000E+00  0.00000000000E+00 -0.50541695327E+03  0.16824958751E+04  0.16047884823E+04 0.  0.
        4    1    3    3  502    0  0.64221874499E+03 -0.38517614848E+03  0.49392381774E+02  0.75049770290E+03  0.12699999809E+01 0.  1.
       -4    1    3    3    0  502 -0.64221874499E+03  0.38517614848E+03 -0.55480933504E+03  0.93199817217E+03  0.12699999809E+01 0. -1.
</event>
<event>
 5   0  0.7395088E-04  0.1578839E+04  0.7818609E-02  0.8833655E-01
       -2   -1    0    0    0  501  0.00000000000E+00  0.00000000000E+00  0.36096979494E+03  0.36096979495E+03  0.25500000920E-02 0.  1.
        2   -1    0    0  501    0  0.00000000000E+00  0.00000000000E+00 -0.17264127662E+04  0.17264127662E+04  0.25500000920E-02 0. -1.
    10030    2    1    2    0    0  0.00000000000E+00  0.00000000000E+00 -0.13654429712E+04  0.20873825611E+04  0.15788386393E+04 0.  0.
        1    1    3    3  502    0 -0.46534874614E+03 -0.61098832252E+03 -0.92407871214E+03  0.12015729907E+04  0.50400001928E-02 0. -1.
       -1    1    3    3    0  502  0.46534874614E+03  0.61098832252E+03 -0.44136425910E+03  0.88580957041E+03  0.50400001928E-02 0.  1.
</event>
<event>
 5   0  0.7553070E-04  0.1681196E+04  0.7818609E-02  0.8772162E-01
       -2   -1    0    0    0  501  0.00000000000E+00  0.00000000000E+00  0.70746884386E+03  0.70746884386E+03  0.25500000920E-02 0. -1.
        2   -1    0    0  501    0  0.00000000000E+00  0.00000000000E+00 -0.99877925232E+03  0.99877925232E+03  0.25500000920E-02 0.  1.
    10030    2    1    2    0    0  0.00000000000E+00  0.00000000000E+00 -0.29131040846E+03  0.17062480962E+04  0.16811962442E+04 0.  0.
        4    1    3    3  502    0  0.24855728220E+03 -0.75943789470E+03  0.11914835536E+03  0.80791372184E+03  0.12699999809E+01 0. -1.
       -4    1    3    3    0  502 -0.24855728220E+03  0.75943789470E+03 -0.41045876382E+03  0.89833437435E+03  0.12699999809E+01 0.  1.
</event>
<event>
 5   0  0.3973227E-04  0.1522745E+04  0.7818609E-02  0.8869467E-01
       -1   -1    0    0    0  501  0.00000000000E+00  0.00000000000E+00  0.79893554244E+03  0.79893554246E+03  0.50400001928E-02 0.  1.
        1   -1    0    0  501    0  0.00000000000E+00  0.00000000000E+00 -0.72557526302E+03  0.72557526304E+03  0.50400001928E-02 0. -1.
    10030    2    1    2    0    0  0.00000000000E+00  0.00000000000E+00  0.73360279421E+02  0.15245108055E+04  0.15227447145E+04 0.  0.
        3    1    3    3  502    0 -0.52889736857E+03  0.14996692049E+02 -0.51143133767E+03  0.73587998383E+03  0.10100000352E+00 0. -1.
       -3    1    3    3    0  502  0.52889736857E+03 -0.14996692049E+02  0.58479161709E+03  0.78863082166E+03  0.10100000352E+00 0.  1.
</event>
<event>
 5   0  0.7488884E-04  0.1947325E+04  0.7818609E-02  0.8631652E-01
        2   -1    0    0  501    0  0.00000000000E+00  0.00000000000E+00  0.79572733838E+03  0.79572733838E+03  0.25500000920E-02 0. -1.
       -2   -1    0    0    0  501  0.00000000000E+00  0.00000000000E+00 -0.11913857696E+04  0.11913857696E+04  0.25500000920E-02 0.  1.
    10030    2    1    2    0    0  0.00000000000E+00  0.00000000000E+00 -0.39565843122E+03  0.19871131080E+04  0.19473245517E+04 0.  0.
        3    1    3    3  502    0 -0.54618922247E+03  0.63280658592E+03 -0.70728093276E+03  0.10949945982E+04  0.10100000352E+00 0.  1.
       -3    1    3    3    0  502  0.54618922247E+03 -0.63280658592E+03  0.31162250154E+03  0.89211850984E+03  0.10100000352E+00 0. -1.
</event>
<event>
 5   0  0.3973227E-04  0.1528587E+04  0.7818609E-02  0.8865663E-01
       -1   -1    0    0    0  501  0.00000000000E+00  0.00000000000E+00  0.53955524276E+03  0.53955524278E+03  0.50400001928E-02 0.  1.
        1   -1    0    0  501    0  0.00000000000E+00  0.00000000000E+00 -0.10826403232E+04  0.10826403232E+04  0.50400001928E-02 0. -1.
    10030    2    1    2    0    0  0.00000000000E+00  0.00000000000E+00 -0.54308508048E+03  0.16221955660E+04  0.15285866183E+04 0.  0.
        3    1    3    3  502    0  0.27527983546E+03  0.26672618676E+03 -0.97326335900E+03  0.10460226683E+04  0.10100000352E+00 0. -1.
       -3    1    3    3    0  502 -0.27527983546E+03 -0.26672618676E+03  0.43017827852E+03  0.57617289768E+03  0.10100000352E+00 0.  1.
</event>
<event>
 5   0  0.3950195E-04  0.1583924E+04  0.7818609E-02  0.8830486E-01
       -1   -1    0    0    0  501  0.00000000000E+00  0.00000000000E+00  0.37213938046E+03  0.37213938049E+03  0.50400001928E-02 0.  1.
        1   -1    0    0  501    0  0.00000000000E+00  0.00000000000E+00 -0.16853992559E+04  0.16853992559E+04  0.50400001928E-02 0. -1.
    10030    2    1    2    0    0  0.00000000000E+00  0.00000000000E+00 -0.13132598755E+04  0.20575386364E+04  0.15839235271E+04 0.  0.
        2    1    3    3  502    0 -0.40070370746E+03 -0.65607529164E+03 -0.90380188424E+03  0.11865311186E+04  0.25500000920E-02 0. -1.
       -2    1    3    3    0  502  0.40070370746E+03  0.65607529164E+03 -0.40945799122E+03  0.87100751780E+03  0.25500000920E-02 0.  1.
</event>
<event>
 5   0  0.7770905E-04  0.1632458E+04  0.7818609E-02  0.8800852E-01
        2   -1    0    0  501    0  0.00000000000E+00  0.00000000000E+00  0.84857237602E+03  0.84857237603E+03  0.25500000920E-02 0. -1.
       -2   -1    0    0    0  501  0.00000000000E+00  0.00000000000E+00 -0.78511882957E+03  0.78511882958E+03  0.25500000920E-02 0.  1.
    10030    2    1    2    0    0  0.00000000000E+00  0.00000000000E+00  0.63453546450E+02  0.16336912056E+04  0.16324584536E+04 0.  0.
        2    1    3    3  502    0 -0.26661545463E+03 -0.76591122803E+03  0.12413468964E+03  0.82043478171E+03  0.25500000920E-02 0.  1.
       -2    1    3    3    0  502  0.26661545463E+03  0.76591122803E+03 -0.60681143190E+02  0.81325642390E+03  0.25500000920E-02 0. -1.
</event>
<event>
 5   0  0.4110803E-04  0.1618789E+04  0.7818609E-02  0.8809088E-01
       -1   -1    0    0    0  501  0.00000000000E+00  0.00000000000E+00  0.54270058760E+03  0.54270058763E+03  0.50400001928E-02 0.  1.
        1   -1    0    0  501    0  0.00000000000E+00  0.00000000000E+00 -0.12071466755E+04  0.12071466755E+04  0.50400001928E-02 0. -1.
    10030    2    1    2    0    0  0.00000000000E+00  0.00000000000E+00 -0.66444608786E+03  0.17498472631E+04  0.16187886954E+04 0.  0.
        5    1    3    3  502    0  0.41533977393E+03 -0.49760847112E+03  0.19176520772E+03  0.67595658383E+03  0.46999998093E+01 0.  1.
       -5    1    3    3    0  502 -0.41533977393E+03  0.49760847112E+03 -0.85621129558E+03  0.10738906793E+04  0.46999998093E+01 0. -1.
</event>
<event>
 5   0  0.3889847E-04  0.1586650E+04  0.7818609E-02  0.8828792E-01
       -1   -1    0    0    0  501  0.00000000000E+00  0.00000000000E+00  0.69718702500E+03  0.69718702502E+03  0.50400001928E-02 0.  1.
        1   -1    0    0  501    0  0.00000000000E+00  0.00000000000E+00 -0.90271947269E+03  0.90271947270E+03  0.50400001928E-02 0. -1.
    10030    2    1    2    0    0  0.00000000000E+00  0.00000000000E+00 -0.20553244769E+03  0.15999064977E+04  0.15866496823E+04 0.  0.
        1    1    3    3  502    0  0.45821666763E+03  0.39381647824E+03 -0.62117298242E+03  0.86655052198E+03  0.50400001928E-02 0. -1.
       -1    1    3    3    0  502 -0.45821666763E+03 -0.39381647824E+03  0.41564053474E+03  0.73335597575E+03  0.50400001928E-02 0.  1.
</event>
<event>
 5   0  0.7553070E-04  0.1575914E+04  0.7818609E-02  0.8835483E-01
        2   -1    0    0  501    0  0.00000000000E+00  0.00000000000E+00  0.73906837536E+03  0.73906837536E+03  0.25500000920E-02 0. -1.
       -2   -1    0    0    0  501  0.00000000000E+00  0.00000000000E+00 -0.84007980890E+03  0.84007980891E+03  0.25500000920E-02 0.  1.
    10030    2    1    2    0    0  0.00000000000E+00  0.00000000000E+00 -0.10101143354E+03  0.15791481843E+04  0.15759142357E+04 0.  0.
        4    1    3    3  502    0 -0.41917053659E+03 -0.44556377300E+03 -0.54815731266E+03  0.82140676092E+03  0.12699999809E+01 0.  1.
       -4    1    3    3    0  502  0.41917053659E+03  0.44556377300E+03  0.44714587911E+03  0.75774142335E+03  0.12699999809E+01 0. -1.
</event>
<event>
 5   0  0.3889847E-04  0.1586207E+04  0.7818609E-02  0.8829066E-01
        1   -1    0    0  501    0  0.00000000000E+00  0.00000000000E+00  0.81091249217E+03  0.81091249218E+03  0.50400001928E-02 0.  1.
       -1   -1    0    0    0  501  0.00000000000E+00  0.00000000000E+00 -0.77568607292E+03  0.77568607293E+03  0.50400001928E-02 0. -1.
    10030    2    1    2    0    0  0.00000000000E+00  0.00000000000E+00  0.35226419250E+02  0.15865985651E+04  0.15862074600E+04 0.  0.
        1    1    3    3  502    0 -0.27066052016E+03 -0.72743886316E+03  0.18071508970E+03  0.79692054841E+03  0.50400001928E-02 0.  1.
       -1    1    3    3    0  502  0.27066052016E+03  0.72743886316E+03 -0.14548867045E+03  0.78967801670E+03  0.50400001928E-02 0. -1.
</event>
<event>
 5   0  0.7553070E-04  0.1466424E+04  0.7818609E-02  0.8907093E-01
       -2   -1    0    0    0  501  0.00000000000E+00  0.00000000000E+00  0.89735449589E+03  0.89735449590E+03  0.25500000920E-02 0.  1.
        2   -1    0    0  501    0  0.00000000000E+00  0.00000000000E+00 -0.59909429709E+03  0.59909429710E+03  0.25500000920E-02 0. -1.
    10030    2    1    2    0    0  0.00000000000E+00  0.00000000000E+00  0.29826019880E+03  0.14964487930E+04  0.14664241691E+04 0.  0.
        4    1    3    3  502    0  0.40441156259E+03  0.60950935015E+03  0.20064121507E+03  0.75849117988E+03  0.12699999809E+01 0. -1.
       -4    1    3    3    0  502 -0.40441156259E+03 -0.60950935015E+03  0.97618983729E+02  0.73795761311E+03  0.12699999809E+01 0.  1.
</event>
<event>
 5   0  0.7415102E-04  0.1570770E+04  0.7818609E-02  0.8838709E-01
        2   -1    0    0  501    0  0.00000000000E+00  0.00000000000E+00  0.87190579249E+03  0.87190579249E+03  0.25500000920E-02 0. -1.
       -2   -1    0    0    0  501  0.00000000000E+00  0.00000000000E+00 -0.70745003642E+03  0.70745003642E+03  0.25500000920E-02 0.  1.
    10030    2    1    2    0    0  0.00000000000E+00  0.00000000000E+00  0.16445575607E+03  0.15793558289E+04  0.15707702374E+04 0.  0.
        5    1    3    3  502    0  0.60701338625E+03 -0.10281150041E+03 -0.40805632159E+03  0.73862541745E+03  0.46999998093E+01 0.  1.
       -5    1    3    3    0  502 -0.60701338625E+03  0.10281150041E+03  0.57251207766E+03  0.84073041147E+03  0.46999998093E+01 0. -1.
</event>
<event>
 5   0  0.3837251E-04  0.1610447E+04  0.7818609E-02  0.8814156E-01
        1   -1    0    0  501    0  0.00000000000E+00  0.00000000000E+00  0.57790519369E+03  0.57790519371E+03  0.50400001928E-02 0.  1.
       -1   -1    0    0    0  501  0.00000000000E+00  0.00000000000E+00 -0.11219570080E+04  0.11219570080E+04  0.50400001928E-02 0. -1.
    10030    2    1    2    0    0  0.00000000000E+00  0.00000000000E+00 -0.54405181432E+03  0.16998622017E+04  0.16104468722E+04 0.  0.
        4    1    3    3  502    0 -0.78272942700E+03 -0.87954526940E+02 -0.44859116421E+03  0.90644194530E+03  0.12699999809E+01 0. -1.
       -4    1    3    3    0  502  0.78272942700E+03  0.87954526940E+02 -0.95460650114E+02  0.79342025643E+03  0.12699999809E+01 0.  1.
</event>
<event>
 5   0  0.7415102E-04  0.1673606E+04  0.7818609E-02  0.8776563E-01
        2   -1    0    0  501    0  0.00000000000E+00  0.00000000000E+00  0.10083484624E+04  0.10083484624E+04  0.25500000920E-02 0.  1.
       -2   -1    0    0    0  501  0.00000000000E+00  0.00000000000E+00 -0.69444175582E+03  0.69444175582E+03  0.25500000920E-02 0. -1.
    10030    2    1    2    0    0  0.00000000000E+00  0.00000000000E+00  0.31390670660E+03  0.17027902182E+04  0.16736060190E+04 0.  0.
        5    1    3    3  502    0  0.63412957104E+03  0.18584219134E+03 -0.36537944799E+03  0.75510387627E+03  0.46999998093E+01 0. -1.
       -5    1    3    3    0  502 -0.63412957104E+03 -0.18584219134E+03  0.67928615459E+03  0.94768634198E+03  0.46999998093E+01 0.  1.
</event>
<event>
 5   0  0.3950195E-04  0.1588124E+04  0.7818609E-02  0.8827877E-01
        1   -1    0    0  501    0  0.00000000000E+00  0.00000000000E+00  0.14725345894E+04  0.14725345895E+04  0.50400001928E-02 0.  1.
       -1   -1    0    0    0  501  0.00000000000E+00  0.00000000000E+00 -0.42819669273E+03  0.42819669276E+03  0.50400001928E-02 0. -1.
    10030    2    1    2    0    0  0.00000000000E+00  0.00000000000E+00  0.10443378967E+04  0.19007312822E+04  0.15881239765E+04 0.  0.
        2    1    3    3  502    0  0.31743450828E+03 -0.54408400310E+03 -0.56466509564E+02  0.63244014435E+03  0.25500000920E-02 0.  1.
       -2    1    3    3    0  502 -0.31743450828E+03  0.54408400310E+03  0.11008044063E+04  0.12682911379E+04  0.25500000920E-02 0. -1.
</event>
<event>
 5   0  0.7770905E-04  0.1597234E+04  0.7818609E-02  0.8822249E-01
        2   -1    0    0  501    0  0.00000000000E+00  0.00000000000E+00  0.57067630467E+03  0.57067630468E+03  0.25500000920E-02 0.  1.
       -2   -1    0    0    0  501  0.00000000000E+00  0.00000000000E+00 -0.11176028589E+04  0.11176028589E+04  0.25500000920E-02 0. -1.
    10030    2    1    2    0    0  0.00000000000E+00  0.00000000000E+00 -0.54692655427E+03  0.16882791636E+04  0.15972344470E+04 0.  0.
        2    1    3    3  502    0  0.36018166915E+03  0.40315818811E+02  0.47874257323E+03  0.60045870089E+03  0.25500000920E-02 0.  1.
       -2    1    3    3    0  502 -0.36018166915E+03 -0.40315818811E+02 -0.10256691275E+04  0.10878204627E+04  0.25500000920E-02 0. -1.
</event>
<event>
 5   0  0.4110803E-04  0.1657961E+04  0.7818609E-02  0.8785711E-01
        1   -1    0    0  501    0  0.00000000000E+00  0.00000000000E+00  0.18179039020E+04  0.18179039020E+04  0.50400001928E-02 0.  1.
       -1   -1    0    0    0  501  0.00000000000E+00  0.00000000000E+00 -0.37802249598E+03  0.37802249602E+03  0.50400001928E-02 0. -1.
    10030    2    1    2    0    0  0.00000000000E+00  0.00000000000E+00  0.14398814060E+04  0.21959263980E+04  0.16579608808E+04 0.  0.
        5    1    3    3  502    0 -0.56577972722E+03  0.40187337237E+03  0.13204660848E+04  0.14917311012E+04  0.46999998093E+01 0.  1.
       -5    1    3    3    0  502  0.56577972722E+03 -0.40187337237E+03  0.11941532124E+03  0.70419529685E+03  0.46999998093E+01 0. -1.
</event>
</LesHouchesEvents>
