<LesHouchesEvents version="3.0">
<header>
<!--
#*********************************************************************
#                                                                    *
#                        MadGraph5_aMC@NLO                           *
#                                                                    *
#                           Going Beyond                             *
#                                                                    *
#                   http://madgraph.hep.uiuc.edu                     *
#                   http://madgraph.phys.ucl.ac.be                   *
#                   http://amcatnlo.cern.ch                          *
#                                                                    *
#                     The MadGraph5_aMC@NLO team                     *
#                                                                    *
#....................................................................*
#                                                                    *
# This file contains all the information necessary to reproduce      *
# the events generated:                                              *
#                                                                    *
# 1. software version                                                *
# 2. proc_card          : code generation info including model       *
# 3. param_card         : model primary parameters in the LH format  *
# 4. run_card           : running parameters (collider and cuts)     *
# 5. pythia_card        : present only if pythia has been run        *
# 6. pgs_card           : present only if pgs has been run           *
# 7. delphes_cards      : present only if delphes has been run       *
#                                                                    *
#                                                                    *
#*********************************************************************
-->
<MGVersion>
#5.2.2.3
</MGVersion>
<MG5ProcCard>
#************************************************************
#*                     MadGraph5_aMC@NLO                    *
#*                                                          *
#*                *                       *                 *
#*                  *        * *        *                   *
#*                    * * * * 5 * * * *                     *
#*                  *        * *        *                   *
#*                *                       *                 *
#*                                                          *
#*                                                          *
#*         VERSION 2.2.3                 2015-02-10         *
#*                                                          *
#*    The MadGraph5_aMC@NLO Development Team - Find us at   *
#*    https://server06.fynu.ucl.ac.be/projects/madgraph     *
#*                                                          *
#************************************************************
#*                                                          *
#*               Command File for MadGraph5_aMC@NLO         *
#*                                                          *
#*     run as ./bin/mg5_aMC  filename                       *
#*                                                          *
#************************************************************
set group_subprocesses Auto
set ignore_six_quark_processes False
set loop_optimized_output True
set gauge unitary
set complex_mass_scheme False
import model sm
define p = g u c d s u~ c~ d~ s~
define j = g u c d s u~ c~ d~ s~
define l+ = e+ mu+
define l- = e- mu-
define vl = ve vm vt
define vl~ = ve~ vm~ vt~
import model Zprime_UFO
generate p p > zph, zph > j j
add process p p > zph, zph > b b~
output Dijet_signal
</MG5ProcCard>
<MGProcCard>
#*********************************************************************
#                        MadGraph/MadEvent                           *
#                   http://madgraph.hep.uiuc.edu                     *
#                                                                    *
#                          proc_card.dat                             *
#*********************************************************************
#                                                                    *
#            This Files is generated by MADGRAPH 5                   *
#                                                                    *
# WARNING: This Files is generated for MADEVENT (compatibility issue)*
#          This files is NOT a valid MG4 proc_card.dat               *
#          Running this in MG4 will NEVER reproduce the result of MG5*
#                                                                    *
#*********************************************************************
#*********************************************************************
# Process(es) requested : mg2 input                                  *
#*********************************************************************
# Begin PROCESS # This is TAG. Do not modify this line
p p > zph , zph > j j           #Process
# Be carefull the coupling are here in MG5 convention
          
end_coup           # End the couplings input

done               # this tells MG there are no more procs
# End PROCESS  # This is TAG. Do not modify this line
#*********************************************************************
# Model information                                                  *
#*********************************************************************
# Begin MODEL  # This is TAG. Do not modify this line
Zprime_UFO
# End   MODEL  # This is TAG. Do not modify this line
#*********************************************************************
# Start multiparticle definitions                                    *
#*********************************************************************
# Begin MULTIPARTICLES # This is TAG. Do not modify this line

# End  MULTIPARTICLES # This is TAG. Do not modify this line
</MGProcCard>
<MGRunCard>
#*********************************************************************
#                       MadGraph5_aMC@NLO                            *
#                                                                    *
#                     run_card.dat MadEvent                          *
#                                                                    *
#  This file is used to set the parameters of the run.               *
#                                                                    *
#  Some notation/conventions:                                        *
#                                                                    *
#   Lines starting with a '# ' are info or comments                  *
#                                                                    *
#   mind the format:   value    = variable     ! comment             *
#*********************************************************************
#
#*******************                                                 
# Running parameters
#*******************                                                 
#                                                                    
#*********************************************************************
# Tag name for the run (one word)                                    *
#*********************************************************************
  tag_1     = run_tag ! name of the run 
#*********************************************************************
# Run to generate the grid pack                                      *
#*********************************************************************
  .false.     = gridpack  !True = setting up the grid pack
#*********************************************************************
# Number of events and rnd seed                                      *
# Warning: Do not generate more than 1M events in a single run       *
# If you want to run Pythia, avoid more than 50k events in a run.    *
#*********************************************************************
  2000 = nevents ! Number of unweighted events requested 
 1875 = iseed   ! rnd seed (0=assigned automatically=default))
#*********************************************************************
# Collider type and energy                                           *
# lpp: 0=No PDF, 1=proton, -1=antiproton, 2=photon from proton,      *
#                                         3=photon from electron     *
#*********************************************************************
        1     = lpp1    ! beam 1 type 
        1     = lpp2    ! beam 2 type
     4000     = ebeam1  ! beam 1 total energy in GeV
     4000     = ebeam2  ! beam 2 total energy in GeV
#*********************************************************************
# Beam polarization from -100 (left-handed) to 100 (right-handed)    *
#*********************************************************************
        0     = polbeam1 ! beam polarization for beam 1
        0     = polbeam2 ! beam polarization for beam 2
#*********************************************************************
# PDF CHOICE: this automatically fixes also alpha_s and its evol.    *
#*********************************************************************
 'nn23lo1'    = pdlabel     ! PDF set                                     
 230000    = lhaid     ! if pdlabel=lhapdf, this is the lhapdf number
#*********************************************************************
# Renormalization and factorization scales                           *
#*********************************************************************
 F        = fixed_ren_scale  ! if .true. use fixed ren scale
 F        = fixed_fac_scale  ! if .true. use fixed fac scale
 91.1880  = scale            ! fixed ren scale
 91.1880  = dsqrt_q2fact1    ! fixed fact scale for pdf1
 91.1880  = dsqrt_q2fact2    ! fixed fact scale for pdf2
 1        = scalefact        ! scale factor for event-by-event scales
#*********************************************************************
# Matching - Warning! ickkw > 1 is still beta
#*********************************************************************
 0        = ickkw            ! 0 no matching, 1 MLM, 2 CKKW matching
 1        = highestmult      ! for ickkw=2, highest mult group
 1        = ktscheme         ! for ickkw=1, 1 Durham kT, 2 Pythia pTE
 1        = alpsfact         ! scale factor for QCD emission vx
 F        = chcluster        ! cluster only according to channel diag
 T        = pdfwgt           ! for ickkw=1, perform pdf reweighting
 5        = asrwgtflavor     ! highest quark flavor for a_s reweight
 T        = clusinfo         ! include clustering tag in output
 3.0      = lhe_version       ! Change the way clustering information pass to shower.        
#*********************************************************************
#**********************************************************
#
#**********************************************************
# Automatic ptj and mjj cuts if xqcut > 0
# (turn off for VBF and single top processes)
#**********************************************************
   T  = auto_ptj_mjj  ! Automatic setting of ptj and mjj
#**********************************************************
#                                                                    
#**********************************
# BW cutoff (M+/-bwcutoff*Gamma)
#**********************************
  15  = bwcutoff      ! (M+/-bwcutoff*Gamma)
#**********************************************************
# Apply pt/E/eta/dr/mij cuts on decay products or not
# (note that etmiss/ptll/ptheavy/ht/sorted cuts always apply)
#**********************************************************
   T  = cut_decays    ! Cut decay products 
#*************************************************************
# Number of helicities to sum per event (0 = all helicities)
# 0 gives more stable result, but longer run time (needed for
# long decay chains e.g.).
# Use >=2 if most helicities contribute, e.g. pure QCD.
#*************************************************************
   0  = nhel          ! Number of helicities used per event
#*******************                                                 
# Standard Cuts
#*******************                                                 
#                                                                    
#*********************************************************************
# Minimum and maximum pt's (for max, -1 means no cut)                *
#*********************************************************************
 20  = ptj       ! minimum pt for the jets 
  0  = ptb       ! minimum pt for the b 
 10  = pta       ! minimum pt for the photons 
 10  = ptl       ! minimum pt for the charged leptons 
  0  = misset    ! minimum missing Et (sum of neutrino's momenta)
  0  = ptheavy   ! minimum pt for one heavy final state
 1.0 = ptonium   ! minimum pt for the quarkonium states
 -1  = ptjmax    ! maximum pt for the jets
 -1  = ptbmax    ! maximum pt for the b
 -1  = ptamax    ! maximum pt for the photons
 -1  = ptlmax    ! maximum pt for the charged leptons
 -1  = missetmax ! maximum missing Et (sum of neutrino's momenta)
#*********************************************************************
# Minimum and maximum E's (in the center of mass frame)              *
#*********************************************************************
  0  = ej     ! minimum E for the jets 
  0  = eb     ! minimum E for the b 
  0  = ea     ! minimum E for the photons 
  0  = el     ! minimum E for the charged leptons 
 -1   = ejmax ! maximum E for the jets
 -1   = ebmax ! maximum E for the b
 -1   = eamax ! maximum E for the photons
 -1   = elmax ! maximum E for the charged leptons
#*********************************************************************
# Maximum and minimum absolute rapidity (for max, -1 means no cut)   *
#*********************************************************************
   5  = etaj    ! max rap for the jets 
  -1  = etab    ! max rap for the b
 2.5  = etaa    ! max rap for the photons 
 2.5  = etal    ! max rap for the charged leptons 
 0.6  = etaonium ! max rap for the quarkonium states
   0  = etajmin ! min rap for the jets
   0  = etabmin ! min rap for the b
   0  = etaamin ! min rap for the photons
   0  = etalmin ! main rap for the charged leptons
#*********************************************************************
# Minimum and maximum DeltaR distance                                *
#*********************************************************************
 0.4 = drjj    ! min distance between jets 
 0   = drbb    ! min distance between b's 
 0.4 = drll    ! min distance between leptons 
 0.4 = draa    ! min distance between gammas 
 0   = drbj    ! min distance between b and jet 
 0.4 = draj    ! min distance between gamma and jet 
 0.4 = drjl    ! min distance between jet and lepton 
 0   = drab    ! min distance between gamma and b 
 0   = drbl    ! min distance between b and lepton 
 0.4 = dral    ! min distance between gamma and lepton 
 -1  = drjjmax ! max distance between jets
 -1  = drbbmax ! max distance between b's
 -1  = drllmax ! max distance between leptons
 -1  = draamax ! max distance between gammas
 -1  = drbjmax ! max distance between b and jet
 -1  = drajmax ! max distance between gamma and jet
 -1  = drjlmax ! max distance between jet and lepton
 -1  = drabmax ! max distance between gamma and b
 -1  = drblmax ! max distance between b and lepton
 -1  = dralmax ! maxdistance between gamma and lepton
#*********************************************************************
# Minimum and maximum invariant mass for pairs                       *
# WARNING: for four lepton final state mmll cut require to have      *
#          different lepton masses for each flavor!                  *           
#*********************************************************************
 0   = mmjj    ! min invariant mass of a jet pair 
 0   = mmbb    ! min invariant mass of a b pair 
 0   = mmaa    ! min invariant mass of gamma gamma pair
 0   = mmll    ! min invariant mass of l+l- (same flavour) lepton pair
 -1  = mmjjmax ! max invariant mass of a jet pair
 -1  = mmbbmax ! max invariant mass of a b pair
 -1  = mmaamax ! max invariant mass of gamma gamma pair
 -1  = mmllmax ! max invariant mass of l+l- (same flavour) lepton pair
#*********************************************************************
# Minimum and maximum invariant mass for all letpons                 *
#*********************************************************************
 0   = mmnl    ! min invariant mass for all letpons (l+- and vl) 
 -1  = mmnlmax ! max invariant mass for all letpons (l+- and vl) 
#*********************************************************************
# Minimum and maximum pt for 4-momenta sum of leptons                *
#*********************************************************************
 0   = ptllmin  ! Minimum pt for 4-momenta sum of leptons(l and vl)
 -1  = ptllmax  ! Maximum pt for 4-momenta sum of leptons(l and vl)
#*********************************************************************
# Inclusive cuts                                                     *
#*********************************************************************
 0  = xptj ! minimum pt for at least one jet  
 0  = xptb ! minimum pt for at least one b 
 0  = xpta ! minimum pt for at least one photon 
 0  = xptl ! minimum pt for at least one charged lepton 
#*********************************************************************
# Control the pt's of the jets sorted by pt                          *
#*********************************************************************
 0   = ptj1min ! minimum pt for the leading jet in pt
 0   = ptj2min ! minimum pt for the second jet in pt
 0   = ptj3min ! minimum pt for the third jet in pt
 0   = ptj4min ! minimum pt for the fourth jet in pt
 -1  = ptj1max ! maximum pt for the leading jet in pt 
 -1  = ptj2max ! maximum pt for the second jet in pt
 -1  = ptj3max ! maximum pt for the third jet in pt
 -1  = ptj4max ! maximum pt for the fourth jet in pt
 0   = cutuse  ! reject event if fails any (0) / all (1) jet pt cuts
#*********************************************************************
# Control the pt's of leptons sorted by pt                           *
#*********************************************************************
 0   = ptl1min ! minimum pt for the leading lepton in pt
 0   = ptl2min ! minimum pt for the second lepton in pt
 0   = ptl3min ! minimum pt for the third lepton in pt
 0   = ptl4min ! minimum pt for the fourth lepton in pt
 -1  = ptl1max ! maximum pt for the leading lepton in pt 
 -1  = ptl2max ! maximum pt for the second lepton in pt
 -1  = ptl3max ! maximum pt for the third lepton in pt
 -1  = ptl4max ! maximum pt for the fourth lepton in pt
#*********************************************************************
# Control the Ht(k)=Sum of k leading jets                            *
#*********************************************************************
 0   = htjmin ! minimum jet HT=Sum(jet pt)
 -1  = htjmax ! maximum jet HT=Sum(jet pt)
 0   = ihtmin  !inclusive Ht for all partons (including b)
 -1  = ihtmax  !inclusive Ht for all partons (including b)
 0   = ht2min ! minimum Ht for the two leading jets
 0   = ht3min ! minimum Ht for the three leading jets
 0   = ht4min ! minimum Ht for the four leading jets
 -1  = ht2max ! maximum Ht for the two leading jets
 -1  = ht3max ! maximum Ht for the three leading jets
 -1  = ht4max ! maximum Ht for the four leading jets
#***********************************************************************
# Photon-isolation cuts, according to hep-ph/9801442                   *
# When ptgmin=0, all the other parameters are ignored                  *
# When ptgmin>0, pta and draj are not going to be used                 *
#***********************************************************************
   0 = ptgmin ! Min photon transverse momentum
 0.4 = R0gamma ! Radius of isolation code
 1.0 = xn ! n parameter of eq.(3.4) in hep-ph/9801442
 1.0 = epsgamma ! epsilon_gamma parameter of eq.(3.4) in hep-ph/9801442
 .true. = isoEM ! isolate photons from EM energy (photons and leptons)
#*********************************************************************
# WBF cuts                                                           *
#*********************************************************************
 0   = xetamin ! minimum rapidity for two jets in the WBF case  
 0   = deltaeta ! minimum rapidity for two jets in the WBF case 
#*********************************************************************
# KT DURHAM CUT                                                      *
#*********************************************************************
 -1    =  ktdurham        
 0.4  =  dparameter 
#*********************************************************************
# maximal pdg code for quark to be considered as a light jet         *
# (otherwise b cuts are applied)                                     *
#*********************************************************************
 4 = maxjetflavor    ! Maximum jet pdg code
#*********************************************************************
# Jet measure cuts                                                   *
#*********************************************************************
 0   = xqcut   ! minimum kt jet measure between partons
#*********************************************************************
#
#*********************************************************************
# Store info for systematics studies                                 *
# WARNING: If use_syst is T, matched Pythia output is                *
#          meaningful ONLY if plotted taking matchscale              *
#          reweighting into account!                                 *
#*********************************************************************
   F  = use_syst      ! Enable systematics studies
#
#**************************************
# Parameter of the systematics study
#  will be used by SysCalc (if installed)
#**************************************                                  
#
0.5 1 2 = sys_scalefact  # factorization/renormalization scale factor
0.5 1 2 = sys_alpsfact  # \alpha_s emission scale factors
30 50 = sys_matchscale # variation of merging scale
# PDF sets and number of members (0 or none for all members).
CT10nlo.LHgrid = sys_pdf # matching scales
# MSTW2008nlo68cl.LHgrid 1  = sys_pdf
</MGRunCard>
<slha>
######################################################################
## PARAM_CARD AUTOMATICALY GENERATED BY MG5 FOLLOWING UFO MODEL   ####
######################################################################
##                                                                  ##
##  Width set on Auto will be computed following the information    ##
##        present in the decay.py files of the model.               ##
##        See  arXiv:1402.1178 for more details.                    ##
##                                                                  ##
######################################################################

###################################
## INFORMATION FOR CKMBLOCK
###################################
Block ckmblock 
    1 2.277360e-01 # cabi 

###################################
## INFORMATION FOR FRBLOCK
###################################
Block frblock 
    1 1.000000e+00 # gz 

###################################
## INFORMATION FOR MASS
###################################
Block mass 
    1 5.040000e-03 # MD 
    2 2.550000e-03 # MU 
    3 1.010000e-01 # MS 
    4 1.270000e+00 # MC 
    5 4.700000e+00 # MB 
    6 1.720000e+02 # MT 
   11 5.110000e-04 # Me 
   13 1.056600e-01 # MM 
   15 1.777000e+00 # MTA 
   23 9.118760e+01 # MZ 
   25 1.200000e+02 # MH 
  10030 1.400000e+03 # MZph 
  10031 3.000000e+02 # MZpl 
## Dependent parameters, given by model restrictions.
## Those values should be edited following the 
## analytical expression. MG5 ignores those values 
## but they are important for interfacing the output of MG5
## to external program such as Pythia.
  12 0.000000 # ve : 0.0 
  14 0.000000 # vm : 0.0 
  16 0.000000 # vt : 0.0 
  21 0.000000 # g : 0.0 
  22 0.000000 # a : 0.0 
  24 79.824360 # w+ : cmath.sqrt(MZ__exp__2/2. + cmath.sqrt(MZ__exp__4/4. - (aEW*cmath.pi*MZ__exp__2)/(Gf*sqrt__2))) 

###################################
## INFORMATION FOR SMINPUTS
###################################
Block sminputs 
    1 1.279000e+02 # aEWM1 
    2 1.166370e-05 # Gf 
    3 1.184000e-01 # aS 

###################################
## INFORMATION FOR YUKAWA
###################################
Block yukawa 
    1 5.040000e-03 # ymdo 
    2 2.550000e-03 # ymup 
    3 1.010000e-01 # yms 
    4 1.270000e+00 # ymc 
    5 4.700000e+00 # ymb 
    6 1.720000e+02 # ymt 
   11 5.110000e-04 # yme 
   13 1.056600e-01 # ymm 
   15 1.777000e+00 # ymtau 

###################################
## INFORMATION FOR DECAY
###################################
DECAY   6 1.508336e+00 # WT 
DECAY  23 2.495200e+00 # WZ 
DECAY  24 2.085000e+00 # WW 
DECAY  25 5.753088e-03 # WH 
## Dependent parameters, given by model restrictions.
## Those values should be edited following the 
## analytical expression. MG5 ignores those values 
## but they are important for interfacing the output of MG5
## to external program such as Pythia.
DECAY  1 0.000000 # d : 0.0 
DECAY  2 0.000000 # u : 0.0 
DECAY  3 0.000000 # s : 0.0 
DECAY  4 0.000000 # c : 0.0 
DECAY  5 0.000000 # b : 0.0 
DECAY  11 0.000000 # e- : 0.0 
DECAY  12 0.000000 # ve : 0.0 
DECAY  13 0.000000 # mu- : 0.0 
DECAY  14 0.000000 # vm : 0.0 
DECAY  15 0.000000 # ta- : 0.0 
DECAY  16 0.000000 # vt : 0.0 
DECAY  21 0.000000 # g : 0.0 
DECAY  22 0.000000 # a : 0.0 
DECAY  10030 0.308725 # zph : (gz__exp__2*MZph*(5 + cmath.sqrt(1 - (4*MT__exp__2)/MZph__exp__2)))/(144.*cmath.pi) 
DECAY  10031 0.132629 # zpl : (5*gz__exp__2*MZpl)/(144.*cmath.pi) 
#===========================================================
# QUANTUM NUMBERS OF NEW STATE(S) (NON SM PDG CODE)
#===========================================================

Block QNUMBERS 10030  # zph 
        1 0  # 3 times electric charge
        2 3  # number of spin states (2S+1)
        3 1  # colour rep (1: singlet, 3: triplet, 8: octet)
        4 0  # Particle/Antiparticle distinction (0=own anti)
Block QNUMBERS 10031  # zpl 
        1 0  # 3 times electric charge
        2 3  # number of spin states (2S+1)
        3 1  # colour rep (1: singlet, 3: triplet, 8: octet)
        4 0  # Particle/Antiparticle distinction (0=own anti)
</slha>
## END BANNER##
<MGGenerationInfo>
#  Number of Events        :         3971
#  Integrated weight (pb)  :  0.33409E+00
#  Max wgt                 :  0.11751E-03
#  Average wgt             :  0.84132E-04
</MGGenerationInfo>
</header>
<init>
     2212     2212  0.40000000000E+04  0.40000000000E+04 0 0  247000  247000 2   1
  0.33411458523E+00  0.64983781716E-03  0.11751460000E-03   0
</init>
<event>
 5   0  0.1175146E-03  0.1413923E+04  0.7818609E-02  0.8943801E-01
       -2   -1    0    0    0  501  0.00000000000E+00  0.00000000000E+00  0.14201909430E+04  0.14201909430E+04  0.25500000920E-02 0.  1.
        2   -1    0    0  501    0  0.00000000000E+00  0.00000000000E+00 -0.35192089230E+03  0.35192089231E+03  0.25500000920E-02 0. -1.
    10030    2    1    2    0    0  0.00000000000E+00  0.00000000000E+00  0.10682700507E+04  0.17721118353E+04  0.14139234264E+04 0.  0.
        1    1    3    3  502    0 -0.70690301650E+03  0.72239490536E+01  0.54109114089E+03  0.89024922519E+03  0.50400001928E-02 0. -1.
       -1    1    3    3    0  502  0.70690301650E+03 -0.72239490536E+01  0.52717890983E+03  0.88186261014E+03  0.50400001928E-02 0.  1.
</event>
<event>
 5   0  0.1175146E-03  0.1391819E+04  0.7818609E-02  0.8959762E-01
        2   -1    0    0  501    0  0.00000000000E+00  0.00000000000E+00  0.21630578704E+04  0.21630578704E+04  0.25500000920E-02 0.  1.
       -2   -1    0    0    0  501  0.00000000000E+00  0.00000000000E+00 -0.22389132912E+03  0.22389132914E+03  0.25500000920E-02 0. -1.
    10030    2    1    2    0    0  0.00000000000E+00  0.00000000000E+00  0.19391665413E+04  0.23869491995E+04  0.13918188123E+04 0.  0.
        1    1    3    3  502    0 -0.61721981868E+03 -0.25507791232E+03  0.63410799874E+03  0.92093322234E+03  0.50400001928E-02 0.  1.
       -1    1    3    3    0  502  0.61721981868E+03  0.25507791232E+03  0.13050585425E+04  0.14660159772E+04  0.50400001928E-02 0. -1.
</event>
<event>
 5   0  0.1108819E-03  0.1396155E+04  0.7818609E-02  0.8956606E-01
        2   -1    0    0  501    0  0.00000000000E+00  0.00000000000E+00  0.10896662816E+04  0.10896662816E+04  0.25500000920E-02 0. -1.
       -2   -1    0    0    0  501  0.00000000000E+00  0.00000000000E+00 -0.44721263842E+03  0.44721263842E+03  0.25500000920E-02 0.  1.
    10030    2    1    2    0    0  0.00000000000E+00  0.00000000000E+00  0.64245364321E+03  0.15368789201E+04  0.13961554825E+04 0.  0.
        3    1    3    3  502    0 -0.41304514824E+03 -0.33313410126E+03  0.82051635596E+03  0.97715491326E+03  0.10100000352E+00 0. -1.
       -3    1    3    3    0  502  0.41304514824E+03  0.33313410126E+03 -0.17806271275E+03  0.55972400679E+03  0.10100000352E+00 0.  1.
</event>
<event>
 5   0  0.1175146E-03  0.1424864E+04  0.7818609E-02  0.8936015E-01
        2   -1    0    0  501    0  0.00000000000E+00  0.00000000000E+00  0.12352544534E+04  0.12352544534E+04  0.25500000920E-02 0.  1.
       -2   -1    0    0    0  501  0.00000000000E+00  0.00000000000E+00 -0.41089457089E+03  0.41089457090E+03  0.25500000920E-02 0. -1.
    10030    2    1    2    0    0  0.00000000000E+00  0.00000000000E+00  0.82435988246E+03  0.16461490243E+04  0.14248639915E+04 0.  0.
        1    1    3    3  502    0 -0.61573770639E+03  0.10409628480E+03  0.16009881424E+02  0.62468013888E+03  0.50400001928E-02 0.  1.
       -1    1    3    3    0  502  0.61573770639E+03 -0.10409628480E+03  0.80835000104E+03  0.10214688854E+04  0.50400001928E-02 0. -1.
</event>
<event>
 5   0  0.1108819E-03  0.1396729E+04  0.7818609E-02  0.8956190E-01
       -2   -1    0    0    0  501  0.00000000000E+00  0.00000000000E+00  0.25513694191E+03  0.25513694193E+03  0.25500000920E-02 0.  1.
        2   -1    0    0  501    0  0.00000000000E+00  0.00000000000E+00 -0.19115726794E+04  0.19115726794E+04  0.25500000920E-02 0. -1.
    10030    2    1    2    0    0  0.00000000000E+00  0.00000000000E+00 -0.16564357375E+04  0.21667096213E+04  0.13967287606E+04 0.  0.
        3    1    3    3  502    0 -0.13205827379E+03  0.38674993104E+03 -0.17067076101E+04  0.17549546357E+04  0.10100000352E+00 0. -1.
       -3    1    3    3    0  502  0.13205827379E+03 -0.38674993104E+03  0.50271872577E+02  0.41175498565E+03  0.10100000352E+00 0.  1.
</event>
<event>
 5   0  0.5875298E-04  0.1400870E+04  0.7818609E-02  0.8953189E-01
        1   -1    0    0  501    0  0.00000000000E+00  0.00000000000E+00  0.12309047593E+04  0.12309047593E+04  0.50400001928E-02 0.  1.
       -1   -1    0    0    0  501  0.00000000000E+00  0.00000000000E+00 -0.39857610147E+03  0.39857610150E+03  0.50400001928E-02 0. -1.
    10030    2    1    2    0    0  0.00000000000E+00  0.00000000000E+00  0.83232865783E+03  0.16294808608E+04  0.14008700443E+04 0.  0.
        1    1    3    3  502    0 -0.50305612754E+03  0.47252063424E+03  0.55510615787E+03  0.88571104982E+03  0.50400001928E-02 0. -1.
       -1    1    3    3    0  502  0.50305612754E+03 -0.47252063424E+03  0.27722249996E+03  0.74376981100E+03  0.50400001928E-02 0.  1.
</event>
<event>
 5   0  0.6114266E-04  0.1381712E+04  0.7818609E-02  0.8967164E-01
       -1   -1    0    0    0  501  0.00000000000E+00  0.00000000000E+00  0.27665360509E+03  0.27665360514E+03  0.50400001928E-02 0. -1.
        1   -1    0    0  501    0  0.00000000000E+00  0.00000000000E+00 -0.17251960006E+04  0.17251960006E+04  0.50400001928E-02 0.  1.
    10030    2    1    2    0    0  0.00000000000E+00  0.00000000000E+00 -0.14485423955E+04  0.20018496057E+04  0.13817115373E+04 0.  0.
        3    1    3    3  502    0 -0.55570496073E+03  0.40564790097E+03 -0.63352077107E+03  0.93525761185E+03  0.10100000352E+00 0. -1.
       -3    1    3    3    0  502  0.55570496073E+03 -0.40564790097E+03 -0.81502162442E+03  0.10665919939E+04  0.10100000352E+00 0.  1.
</event>
<event>
 5   0  0.1175146E-03  0.1394817E+04  0.7818609E-02  0.8957579E-01
        2   -1    0    0  501    0  0.00000000000E+00  0.00000000000E+00  0.80319899794E+03  0.80319899794E+03  0.25500000920E-02 0.  1.
       -2   -1    0    0    0  501  0.00000000000E+00  0.00000000000E+00 -0.60555181087E+03  0.60555181088E+03  0.25500000920E-02 0. -1.
    10030    2    1    2    0    0  0.00000000000E+00  0.00000000000E+00  0.19764718707E+03  0.14087508088E+04  0.13948169883E+04 0.  0.
        1    1    3    3  502    0  0.47847145043E+03 -0.45690654715E+03 -0.12401613381E+03  0.67311107789E+03  0.50400001928E-02 0. -1.
       -1    1    3    3    0  502 -0.47847145043E+03  0.45690654715E+03  0.32166332087E+03  0.73563973093E+03  0.50400001928E-02 0.  1.
</event>
<event>
 5   0  0.6097538E-04  0.1393684E+04  0.7818609E-02  0.8958403E-01
        1   -1    0    0  501    0  0.00000000000E+00  0.00000000000E+00  0.18416850956E+04  0.18416850956E+04  0.50400001928E-02 0. -1.
       -1   -1    0    0    0  501  0.00000000000E+00  0.00000000000E+00 -0.26366563993E+03  0.26366563998E+03  0.50400001928E-02 0.  1.
    10030    2    1    2    0    0  0.00000000000E+00  0.00000000000E+00  0.15780194557E+04  0.21053507356E+04  0.13936844397E+04 0.  0.
        2    1    3    3  502    0 -0.27747793502E+03 -0.24174127805E+03  0.16829138370E+04  0.17226815819E+04  0.25500000920E-02 0. -1.
       -2    1    3    3    0  502  0.27747793502E+03  0.24174127805E+03 -0.10489438131E+03  0.38266915368E+03  0.25500000920E-02 0.  1.
</event>
<event>
 5   0  0.1175146E-03  0.1382285E+04  0.7818609E-02  0.8966743E-01
       -2   -1    0    0    0  501  0.00000000000E+00  0.00000000000E+00  0.51398301683E+03  0.51398301684E+03  0.25500000920E-02 0.  1.
        2   -1    0    0  501    0  0.00000000000E+00  0.00000000000E+00 -0.92936460671E+03  0.92936460671E+03  0.25500000920E-02 0. -1.
    10030    2    1    2    0    0  0.00000000000E+00  0.00000000000E+00 -0.41538158988E+03  0.14433476236E+04  0.13822845211E+04 0.  0.
        1    1    3    3  502    0 -0.16149949175E+03 -0.78573891247E+02  0.48919108695E+03  0.52111789626E+03  0.50400001928E-02 0.  1.
       -1    1    3    3    0  502  0.16149949175E+03  0.78573891247E+02 -0.90457267683E+03  0.92222972730E+03  0.50400001928E-02 0. -1.
</event>
<event>
 5   0  0.4176125E-04  0.1394992E+04  0.7818609E-02  0.8957451E-01
        4   -1    0    0  501    0  0.00000000000E+00  0.00000000000E+00  0.59823929878E+03  0.59824064682E+03  0.12699999809E+01 0.  1.
       -4   -1    0    0    0  501  0.00000000000E+00  0.00000000000E+00 -0.81321838335E+03  0.81321937503E+03  0.12699999809E+01 0. -1.
    10030    2    1    2    0    0  0.00000000000E+00  0.00000000000E+00 -0.21497908457E+03  0.14114600218E+04  0.13949922532E+04 0.  0.
        3    1    3    3  502    0  0.85563511472E+02 -0.30288245014E+03 -0.73728583964E+03  0.80165411035E+03  0.10100000352E+00 0. -1.
       -3    1    3    3    0  502 -0.85563511472E+02  0.30288245014E+03  0.52230675508E+03  0.60980591150E+03  0.10100000352E+00 0.  1.
</event>
<event>
 5   0  0.1095119E-03  0.1404436E+04  0.7818609E-02  0.8950614E-01
        2   -1    0    0  501    0  0.00000000000E+00  0.00000000000E+00  0.13217672233E+04  0.13217672233E+04  0.25500000920E-02 0. -1.
       -2   -1    0    0    0  501  0.00000000000E+00  0.00000000000E+00 -0.37306870717E+03  0.37306870718E+03  0.25500000920E-02 0.  1.
    10030    2    1    2    0    0  0.00000000000E+00  0.00000000000E+00  0.94869851612E+03  0.16948359305E+04  0.14044358144E+04 0.  0.
        5    1    3    3  502    0 -0.22510599526E+03 -0.65404745373E+03  0.62034949441E+03  0.92914281251E+03  0.46999998093E+01 0. -1.
       -5    1    3    3    0  502  0.22510599526E+03  0.65404745373E+03  0.32834902171E+03  0.76569311796E+03  0.46999998093E+01 0.  1.
</event>
<event>
 5   0  0.6153318E-04  0.1413150E+04  0.7818609E-02  0.8944355E-01
       -1   -1    0    0    0  501  0.00000000000E+00  0.00000000000E+00  0.23271313825E+03  0.23271313831E+03  0.50400001928E-02 0. -1.
        1   -1    0    0  501    0  0.00000000000E+00  0.00000000000E+00 -0.21453372233E+04  0.21453372233E+04  0.50400001928E-02 0.  1.
    10030    2    1    2    0    0  0.00000000000E+00  0.00000000000E+00 -0.19126240851E+04  0.23780503616E+04  0.14131498971E+04 0.  0.
        5    1    3    3  502    0  0.68242267239E+03  0.18009535346E+03 -0.10118961612E+04  0.12337305099E+04  0.46999998093E+01 0. -1.
       -5    1    3    3    0  502 -0.68242267239E+03 -0.18009535346E+03 -0.90072792387E+03  0.11443198517E+04  0.46999998093E+01 0.  1.
</event>
<event>
 5   0  0.4176125E-04  0.1413900E+04  0.7818609E-02  0.8943818E-01
        3   -1    0    0  501    0  0.00000000000E+00  0.00000000000E+00  0.43987621284E+03  0.43987622444E+03  0.10100000352E+00 0. -1.
       -3   -1    0    0    0  501  0.00000000000E+00  0.00000000000E+00 -0.11361792506E+04  0.11361792551E+04  0.10100000352E+00 0.  1.
    10030    2    1    2    0    0  0.00000000000E+00  0.00000000000E+00 -0.69630303781E+03  0.15760554796E+04  0.14138999096E+04 0.  0.
        5    1    3    3  502    0 -0.18268221291E+03 -0.20156750596E+03 -0.10754826073E+04  0.11093634116E+04  0.46999998093E+01 0.  1.
       -5    1    3    3    0  502  0.18268221291E+03  0.20156750596E+03  0.37917956951E+03  0.46669206797E+03  0.46999998093E+01 0. -1.
</event>
<event>
 5   0  0.5875298E-04  0.1399231E+04  0.7818609E-02  0.8954376E-01
        1   -1    0    0  501    0  0.00000000000E+00  0.00000000000E+00  0.83039193540E+03  0.83039193541E+03  0.50400001928E-02 0.  1.
       -1   -1    0    0    0  501  0.00000000000E+00  0.00000000000E+00 -0.58943448029E+03  0.58943448031E+03  0.50400001928E-02 0. -1.
    10030    2    1    2    0    0  0.00000000000E+00  0.00000000000E+00  0.24095745511E+03  0.14198264157E+04  0.13992307014E+04 0.  0.
        1    1    3    3  502    0 -0.30862560659E+03 -0.62301242619E+03  0.19951872271E+03  0.72332701385E+03  0.50400001928E-02 0.  1.
       -1    1    3    3    0  502  0.30862560659E+03  0.62301242619E+03  0.41438732404E+02  0.69649940187E+03  0.50400001928E-02 0. -1.
</event>
<event>
 5   0  0.6114266E-04  0.1380434E+04  0.7818609E-02  0.8968105E-01
       -1   -1    0    0    0  501  0.00000000000E+00  0.00000000000E+00  0.72918501846E+03  0.72918501847E+03  0.50400001928E-02 0.  1.
        1   -1    0    0  501    0  0.00000000000E+00  0.00000000000E+00 -0.65333109244E+03  0.65333109246E+03  0.50400001928E-02 0. -1.
    10030    2    1    2    0    0  0.00000000000E+00  0.00000000000E+00  0.75853926015E+02  0.13825161109E+04  0.13804336199E+04 0.  0.
        3    1    3    3  502    0  0.40974316931E+03 -0.49645725999E+03 -0.21152700888E+03  0.67757137003E+03  0.10100000352E+00 0. -1.
       -3    1    3    3    0  502 -0.40974316931E+03  0.49645725999E+03  0.28738093489E+03  0.70494474091E+03  0.10100000352E+00 0.  1.
</event>
<event>
 5   0  0.6114266E-04  0.1418839E+04  0.7818609E-02  0.8940294E-01
        1   -1    0    0  501    0  0.00000000000E+00  0.00000000000E+00  0.10918134825E+04  0.10918134825E+04  0.50400001928E-02 0. -1.
       -1   -1    0    0    0  501  0.00000000000E+00  0.00000000000E+00 -0.46095433687E+03  0.46095433690E+03  0.50400001928E-02 0.  1.
    10030    2    1    2    0    0  0.00000000000E+00  0.00000000000E+00  0.63085914558E+03  0.15527678194E+04  0.14188391873E+04 0.  0.
        3    1    3    3  502    0 -0.15915987158E+02  0.70881799526E+03  0.28862519399E+03  0.76549381569E+03  0.10100000352E+00 0.  1.
       -3    1    3    3    0  502  0.15915987158E+02 -0.70881799526E+03  0.34223395159E+03  0.78727400368E+03  0.10100000352E+00 0. -1.
</event>
<event>
 5   0  0.1175146E-03  0.1397087E+04  0.7818609E-02  0.8955930E-01
        2   -1    0    0  501    0  0.00000000000E+00  0.00000000000E+00  0.90955435416E+03  0.90955435416E+03  0.25500000920E-02 0.  1.
       -2   -1    0    0    0  501  0.00000000000E+00  0.00000000000E+00 -0.53648602905E+03  0.53648602906E+03  0.25500000920E-02 0. -1.
    10030    2    1    2    0    0  0.00000000000E+00  0.00000000000E+00  0.37306832510E+03  0.14460403832E+04  0.13970872609E+04 0.  0.
        1    1    3    3  502    0 -0.45208878674E+03 -0.48017949264E+03 -0.51764613326E+02  0.66154077082E+03  0.50400001928E-02 0. -1.
       -1    1    3    3    0  502  0.45208878674E+03  0.48017949264E+03  0.42483293843E+03  0.78449961239E+03  0.50400001928E-02 0.  1.
</event>
<event>
 5   0  0.6194742E-04  0.1461236E+04  0.7818609E-02  0.8910648E-01
       -1   -1    0    0    0  501  0.00000000000E+00  0.00000000000E+00  0.27539202529E+03  0.27539202534E+03  0.50400001928E-02 0.  1.
        1   -1    0    0  501    0  0.00000000000E+00  0.00000000000E+00 -0.19383376199E+04  0.19383376199E+04  0.50400001928E-02 0. -1.
    10030    2    1    2    0    0  0.00000000000E+00  0.00000000000E+00 -0.16629455946E+04  0.22137296452E+04  0.14612360834E+04 0.  0.
        4    1    3    3  502    0 -0.40083711216E+03 -0.60781320891E+02 -0.17522912328E+04  0.17985802559E+04  0.12699999809E+01 0. -1.
       -4    1    3    3    0  502  0.40083711216E+03  0.60781320891E+02  0.89345638241E+02  0.41514938929E+03  0.12699999809E+01 0.  1.
</event>
<event>
 5   0  0.5875298E-04  0.1417913E+04  0.7818609E-02  0.8940954E-01
        1   -1    0    0  501    0  0.00000000000E+00  0.00000000000E+00  0.17972832366E+04  0.17972832367E+04  0.50400001928E-02 0.  1.
       -1   -1    0    0    0  501  0.00000000000E+00  0.00000000000E+00 -0.27965492223E+03  0.27965492227E+03  0.50400001928E-02 0. -1.
    10030    2    1    2    0    0  0.00000000000E+00  0.00000000000E+00  0.15176283144E+04  0.20769381589E+04  0.14179126966E+04 0.  0.
        1    1    3    3  502    0  0.67825727947E+03  0.47276205745E+01  0.10610140834E+04  0.12592879626E+04  0.50400001928E-02 0.  1.
       -1    1    3    3    0  502 -0.67825727947E+03 -0.47276205745E+01  0.45661423100E+03  0.81765019631E+03  0.50400001928E-02 0. -1.
</event>
<event>
 5   0  0.1120053E-03  0.1395006E+04  0.7818609E-02  0.8957441E-01
       -2   -1    0    0    0  501  0.00000000000E+00  0.00000000000E+00  0.21637167231E+03  0.21637167232E+03  0.25500000920E-02 0. -1.
        2   -1    0    0  501    0  0.00000000000E+00  0.00000000000E+00 -0.22484939792E+04  0.22484939792E+04  0.25500000920E-02 0.  1.
    10030    2    1    2    0    0  0.00000000000E+00  0.00000000000E+00 -0.20321223069E+04  0.24648656515E+04  0.13950059534E+04 0.  0.
        2    1    3    3  502    0  0.31459679644E+03 -0.23498713685E+03 -0.20346422918E+04  0.20721870945E+04  0.25500000920E-02 0.  1.
       -2    1    3    3    0  502 -0.31459679644E+03  0.23498713685E+03  0.25199849653E+01  0.39267855702E+03  0.25500000920E-02 0. -1.
</event>
<event>
 5   0  0.6114266E-04  0.1399909E+04  0.7818609E-02  0.8953885E-01
        1   -1    0    0  501    0  0.00000000000E+00  0.00000000000E+00  0.60836357783E+03  0.60836357785E+03  0.50400001928E-02 0. -1.
       -1   -1    0    0    0  501  0.00000000000E+00  0.00000000000E+00 -0.80533422101E+03  0.80533422103E+03  0.50400001928E-02 0.  1.
    10030    2    1    2    0    0  0.00000000000E+00  0.00000000000E+00 -0.19697064319E+03  0.14136977989E+04  0.13999085800E+04 0.  0.
        3    1    3    3  502    0 -0.37644685437E+03 -0.35000584282E+03  0.38129409651E+03  0.64000118938E+03  0.10100000352E+00 0. -1.
       -3    1    3    3    0  502  0.37644685437E+03  0.35000584282E+03 -0.57826473970E+03  0.77369660950E+03  0.10100000352E+00 0.  1.
</event>
<event>
 5   0  0.1108819E-03  0.1503905E+04  0.7818609E-02  0.8881861E-01
        2   -1    0    0  501    0  0.00000000000E+00  0.00000000000E+00  0.11499031677E+04  0.11499031677E+04  0.25500000920E-02 0. -1.
       -2   -1    0    0    0  501  0.00000000000E+00  0.00000000000E+00 -0.49172160615E+03  0.49172160616E+03  0.25500000920E-02 0.  1.
    10030    2    1    2    0    0  0.00000000000E+00  0.00000000000E+00  0.65818156154E+03  0.16416247739E+04  0.15039045615E+04 0.  0.
        3    1    3    3  502    0  0.70719494606E+03  0.25553537054E+03  0.33240259452E+03  0.82214020238E+03  0.10100000352E+00 0.  1.
       -3    1    3    3    0  502 -0.70719494606E+03 -0.25553537054E+03  0.32577896703E+03  0.81948457148E+03  0.10100000352E+00 0. -1.
</event>
<event>
 5   0  0.5875298E-04  0.1384900E+04  0.7818609E-02  0.8964822E-01
       -1   -1    0    0    0  501  0.00000000000E+00  0.00000000000E+00  0.12389621715E+04  0.12389621716E+04  0.50400001928E-02 0. -1.
        1   -1    0    0  501    0  0.00000000000E+00  0.00000000000E+00 -0.38700704779E+03  0.38700704783E+03  0.50400001928E-02 0.  1.
    10030    2    1    2    0    0  0.00000000000E+00  0.00000000000E+00  0.85195512375E+03  0.16259692194E+04  0.13849001298E+04 0.  0.
        1    1    3    3  502    0 -0.34800896959E+03  0.47736861638E+03  0.85010127298E+03  0.10352116755E+04  0.50400001928E-02 0. -1.
       -1    1    3    3    0  502  0.34800896959E+03 -0.47736861638E+03  0.18538507746E+01  0.59075754385E+03  0.50400001928E-02 0.  1.
</event>
<event>
 5   0  0.1120053E-03  0.1401431E+04  0.7818609E-02  0.8952784E-01
        2   -1    0    0  501    0  0.00000000000E+00  0.00000000000E+00  0.44236111830E+03  0.44236111831E+03  0.25500000920E-02 0.  1.
       -2   -1    0    0    0  501  0.00000000000E+00  0.00000000000E+00 -0.11099573103E+04  0.11099573104E+04  0.25500000920E-02 0. -1.
    10030    2    1    2    0    0  0.00000000000E+00  0.00000000000E+00 -0.66759619205E+03  0.15523184287E+04  0.14014306363E+04 0.  0.
        2    1    3    3  502    0  0.63559808654E+03  0.29370123486E+03 -0.30332992248E+03  0.76305595133E+03  0.25500000920E-02 0. -1.
       -2    1    3    3    0  502 -0.63559808654E+03 -0.29370123486E+03 -0.36426626956E+03  0.78926247733E+03  0.25500000920E-02 0.  1.
</event>
<event>
 5   0  0.6097538E-04  0.1386077E+04  0.7818609E-02  0.8963959E-01
       -1   -1    0    0    0  501  0.00000000000E+00  0.00000000000E+00  0.43074066954E+03  0.43074066957E+03  0.50400001928E-02 0. -1.
        1   -1    0    0  501    0  0.00000000000E+00  0.00000000000E+00 -0.11150620629E+04  0.11150620630E+04  0.50400001928E-02 0.  1.
    10030    2    1    2    0    0  0.00000000000E+00  0.00000000000E+00 -0.68432139341E+03  0.15458027325E+04  0.13860773133E+04 0.  0.
        2    1    3    3  502    0 -0.66493765741E+02 -0.38727763467E+01 -0.11114842462E+04  0.11134781761E+04  0.25500000920E-02 0.  1.
       -2    1    3    3    0  502  0.66493765741E+02  0.38727763467E+01  0.42716285275E+03  0.43232455639E+03  0.25500000920E-02 0. -1.
</event>
<event>
 5   0  0.1108819E-03  0.1389549E+04  0.7818609E-02  0.8961418E-01
       -2   -1    0    0    0  501  0.00000000000E+00  0.00000000000E+00  0.43230405783E+03  0.43230405784E+03  0.25500000920E-02 0.  1.
        2   -1    0    0  501    0  0.00000000000E+00  0.00000000000E+00 -0.11166028692E+04  0.11166028692E+04  0.25500000920E-02 0. -1.
    10030    2    1    2    0    0  0.00000000000E+00  0.00000000000E+00 -0.68429881141E+03  0.15489069271E+04  0.13895494973E+04 0.  0.
        3    1    3    3  502    0 -0.25655128271E+03 -0.55094606748E+03 -0.71743814432E+03  0.94025402475E+03  0.10100000352E+00 0. -1.
       -3    1    3    3    0  502  0.25655128271E+03  0.55094606748E+03  0.33139332911E+02  0.60865290233E+03  0.10100000352E+00 0.  1.
</event>
<event>
 5   0  0.1095119E-03  0.1409447E+04  0.7818609E-02  0.8947008E-01
        2   -1    0    0  501    0  0.00000000000E+00  0.00000000000E+00  0.85802614546E+03  0.85802614546E+03  0.25500000920E-02 0.  1.
       -2   -1    0    0    0  501  0.00000000000E+00  0.00000000000E+00 -0.57881147329E+03  0.57881147329E+03  0.25500000920E-02 0. -1.
    10030    2    1    2    0    0  0.00000000000E+00  0.00000000000E+00  0.27921467217E+03  0.14368376188E+04  0.14094472354E+04 0.  0.
        5    1    3    3  502    0  0.45908298456E+03 -0.39786172733E+03  0.50370658021E+03  0.78917269956E+03  0.46999998093E+01 0.  1.
       -5    1    3    3    0  502 -0.45908298456E+03  0.39786172733E+03 -0.22449190803E+03  0.64766491920E+03  0.46999998093E+01 0. -1.
</event>
<event>
 5   0  0.6097538E-04  0.1401858E+04  0.7818609E-02  0.8952475E-01
        1   -1    0    0  501    0  0.00000000000E+00  0.00000000000E+00  0.12715632255E+04  0.12715632255E+04  0.50400001928E-02 0.  1.
       -1   -1    0    0    0  501  0.00000000000E+00  0.00000000000E+00 -0.38637596228E+03  0.38637596231E+03  0.50400001928E-02 0. -1.
    10030    2    1    2    0    0  0.00000000000E+00  0.00000000000E+00  0.88518726318E+03  0.16579391878E+04  0.14018580026E+04 0.  0.
        2    1    3    3  502    0 -0.45030066744E+03  0.36093731044E+03  0.91307598118E+03  0.10801639600E+04  0.25500000920E-02 0.  1.
       -2    1    3    3    0  502  0.45030066744E+03 -0.36093731044E+03 -0.27888718008E+02  0.57777522772E+03  0.25500000920E-02 0. -1.
</event>
<event>
 5   0  0.1108819E-03  0.1419097E+04  0.7818609E-02  0.8940110E-01
        2   -1    0    0  501    0  0.00000000000E+00  0.00000000000E+00  0.10386730598E+04  0.10386730598E+04  0.25500000920E-02 0. -1.
       -2   -1    0    0    0  501  0.00000000000E+00  0.00000000000E+00 -0.48471381624E+03  0.48471381624E+03  0.25500000920E-02 0.  1.
    10030    2    1    2    0    0  0.00000000000E+00  0.00000000000E+00  0.55395924352E+03  0.15233868760E+04  0.14190971533E+04 0.  0.
        3    1    3    3  502    0  0.23048084172E+03 -0.57972402462E+03 -0.85881991800E+02  0.62974366995E+03  0.10100000352E+00 0.  1.
       -3    1    3    3    0  502 -0.23048084172E+03  0.57972402462E+03  0.63984123532E+03  0.89364320606E+03  0.10100000352E+00 0. -1.
</event>
<event>
 5   0  0.1175146E-03  0.1429290E+04  0.7818609E-02  0.8932886E-01
        2   -1    0    0  501    0  0.00000000000E+00  0.00000000000E+00  0.16644900837E+04  0.16644900837E+04  0.25500000920E-02 0.  1.
       -2   -1    0    0    0  501  0.00000000000E+00  0.00000000000E+00 -0.30683099169E+03  0.30683099170E+03  0.25500000920E-02 0. -1.
    10030    2    1    2    0    0  0.00000000000E+00  0.00000000000E+00  0.13576590920E+04  0.19713210754E+04  0.14292895341E+04 0.  0.
        1    1    3    3  502    0 -0.10802036119E+03  0.24722715185E+03  0.15915509820E+04  0.16142565444E+04  0.50400001928E-02 0.  1.
       -1    1    3    3    0  502  0.10802036119E+03 -0.24722715185E+03 -0.23389188997E+03  0.35706453095E+03  0.50400001928E-02 0. -1.
</event>
<event>
 5   0  0.6153318E-04  0.1384345E+04  0.7818609E-02  0.8965229E-01
        1   -1    0    0  501    0  0.00000000000E+00  0.00000000000E+00  0.61193184662E+03  0.61193184665E+03  0.50400001928E-02 0. -1.
       -1   -1    0    0    0  501  0.00000000000E+00  0.00000000000E+00 -0.78293462465E+03  0.78293462466E+03  0.50400001928E-02 0.  1.
    10030    2    1    2    0    0  0.00000000000E+00  0.00000000000E+00 -0.17100277802E+03  0.13948664713E+04  0.13843447991E+04 0.  0.
        5    1    3    3  502    0 -0.42656707271E+02 -0.27547475013E+03  0.55285514640E+03  0.61917431756E+03  0.46999998093E+01 0. -1.
       -5    1    3    3    0  502  0.42656707271E+02  0.27547475013E+03 -0.72385792442E+03  0.77569215374E+03  0.46999998093E+01 0.  1.
</event>
<event>
 5   0  0.1108819E-03  0.1403400E+04  0.7818609E-02  0.8951361E-01
        2   -1    0    0  501    0  0.00000000000E+00  0.00000000000E+00  0.57622632798E+03  0.57622632799E+03  0.25500000920E-02 0.  1.
       -2   -1    0    0    0  501  0.00000000000E+00  0.00000000000E+00 -0.85449600678E+03  0.85449600678E+03  0.25500000920E-02 0. -1.
    10030    2    1    2    0    0  0.00000000000E+00  0.00000000000E+00 -0.27826967879E+03  0.14307223348E+04  0.14034002940E+04 0.  0.
        3    1    3    3  502    0  0.56853053964E+03 -0.36138190572E+02  0.27853647711E+03  0.63412579399E+03  0.10100000352E+00 0.  1.
       -3    1    3    3    0  502 -0.56853053964E+03  0.36138190572E+02 -0.55680615590E+03  0.79659654077E+03  0.10100000352E+00 0. -1.
</event>
<event>
 5   0  0.6194742E-04  0.1411060E+04  0.7818609E-02  0.8945852E-01
       -1   -1    0    0    0  501  0.00000000000E+00  0.00000000000E+00  0.10081570760E+04  0.10081570760E+04  0.50400001928E-02 0. -1.
        1   -1    0    0  501    0  0.00000000000E+00  0.00000000000E+00 -0.49374481642E+03  0.49374481644E+03  0.50400001928E-02 0.  1.
    10030    2    1    2    0    0  0.00000000000E+00  0.00000000000E+00  0.51441225962E+03  0.15019018925E+04  0.14110596450E+04 0.  0.
        4    1    3    3  502    0  0.31222331189E+03 -0.69850741591E+02 -0.41209109755E+03  0.52171180566E+03  0.12699999809E+01 0.  1.
       -4    1    3    3    0  502 -0.31222331189E+03  0.69850741591E+02  0.92650335717E+03  0.98019008683E+03  0.12699999809E+01 0. -1.
</event>
<event>
 5   0  0.5875298E-04  0.1415240E+04  0.7818609E-02  0.8942860E-01
        1   -1    0    0  501    0  0.00000000000E+00  0.00000000000E+00  0.30185159163E+03  0.30185159167E+03  0.50400001928E-02 0.  1.
       -1   -1    0    0    0  501  0.00000000000E+00  0.00000000000E+00 -0.16588493677E+04  0.16588493677E+04  0.50400001928E-02 0. -1.
    10030    2    1    2    0    0  0.00000000000E+00  0.00000000000E+00 -0.13569977761E+04  0.19607009594E+04  0.14152403640E+04 0.  0.
        1    1    3    3  502    0 -0.18654739665E+03 -0.54908894068E+03 -0.11671577540E+03  0.59154134955E+03  0.50400001928E-02 0.  1.
       -1    1    3    3    0  502  0.18654739665E+03  0.54908894068E+03 -0.12402820007E+04  0.13691596098E+04  0.50400001928E-02 0. -1.
</event>
<event>
 5   0  0.6114266E-04  0.1555027E+04  0.7818609E-02  0.8848663E-01
        1   -1    0    0  501    0  0.00000000000E+00  0.00000000000E+00  0.15360564011E+04  0.15360564011E+04  0.50400001928E-02 0. -1.
       -1   -1    0    0    0  501  0.00000000000E+00  0.00000000000E+00 -0.39355806219E+03  0.39355806222E+03  0.50400001928E-02 0.  1.
    10030    2    1    2    0    0  0.00000000000E+00  0.00000000000E+00  0.11424983389E+04  0.19296144633E+04  0.15550271775E+04 0.  0.
        3    1    3    3  502    0 -0.74679925102E+03 -0.20533126988E+03  0.48656532940E+03  0.91466708790E+03  0.10100000352E+00 0.  1.
       -3    1    3    3    0  502  0.74679925102E+03  0.20533126988E+03  0.65593300950E+03  0.10149473754E+04  0.10100000352E+00 0. -1.
</event>
<event>
 5   0  0.1098949E-03  0.1397781E+04  0.7818609E-02  0.8955426E-01
        2   -1    0    0  501    0  0.00000000000E+00  0.00000000000E+00  0.87076078817E+03  0.87076078817E+03  0.25500000920E-02 0. -1.
       -2   -1    0    0    0  501  0.00000000000E+00  0.00000000000E+00 -0.56094383643E+03  0.56094383644E+03  0.25500000920E-02 0.  1.
    10030    2    1    2    0    0  0.00000000000E+00  0.00000000000E+00  0.30981695174E+03  0.14317046246E+04  0.13977809516E+04 0.  0.
        4    1    3    3  502    0 -0.13865656338E+03  0.22865390734E+03  0.81628696588E+03  0.85897280252E+03  0.12699999809E+01 0. -1.
       -4    1    3    3    0  502  0.13865656338E+03 -0.22865390734E+03 -0.50647001414E+03  0.57273182209E+03  0.12699999809E+01 0.  1.
</event>
<event>
 5   0  0.1098949E-03  0.1414068E+04  0.7818609E-02  0.8943698E-01
        2   -1    0    0  501    0  0.00000000000E+00  0.00000000000E+00  0.15128817426E+04  0.15128817426E+04  0.25500000920E-02 0.  1.
       -2   -1    0    0    0  501  0.00000000000E+00  0.00000000000E+00 -0.33042713729E+03  0.33042713730E+03  0.25500000920E-02 0. -1.
    10030    2    1    2    0    0  0.00000000000E+00  0.00000000000E+00  0.11824546053E+04  0.18433088799E+04  0.14140681501E+04 0.  0.
        4    1    3    3  502    0 -0.18775367231E+03 -0.56426325471E+03  0.10897413008E+04  0.12414435862E+04  0.12699999809E+01 0.  1.
       -4    1    3    3    0  502  0.18775367231E+03  0.56426325471E+03  0.92713304531E+02  0.60186529375E+03  0.12699999809E+01 0. -1.
</event>
<event>
 5   0  0.6097538E-04  0.1402419E+04  0.7818609E-02  0.8952070E-01
       -1   -1    0    0    0  501  0.00000000000E+00  0.00000000000E+00  0.63420420062E+03  0.63420420064E+03  0.50400001928E-02 0.  1.
        1   -1    0    0  501    0  0.00000000000E+00  0.00000000000E+00 -0.77529362205E+03  0.77529362207E+03  0.50400001928E-02 0. -1.
    10030    2    1    2    0    0  0.00000000000E+00  0.00000000000E+00 -0.14108942144E+03  0.14094978227E+04  0.14024185849E+04 0.  0.
        2    1    3    3  502    0 -0.78471536532E+02 -0.59530773626E+03 -0.43451276218E+03  0.74118177487E+03  0.25500000920E-02 0. -1.
       -2    1    3    3    0  502  0.78471536532E+02  0.59530773626E+03  0.29342334074E+03  0.66831604784E+03  0.25500000920E-02 0.  1.
</event>
<event>
 5   0  0.6114266E-04  0.1400957E+04  0.7818609E-02  0.8953126E-01
       -1   -1    0    0    0  501  0.00000000000E+00  0.00000000000E+00  0.10529285018E+04  0.10529285018E+04  0.50400001928E-02 0. -1.
        1   -1    0    0  501    0  0.00000000000E+00  0.00000000000E+00 -0.46600525691E+03  0.46600525694E+03  0.50400001928E-02 0.  1.
    10030    2    1    2    0    0  0.00000000000E+00  0.00000000000E+00  0.58692324487E+03  0.15189337587E+04  0.14009571257E+04 0.  0.
        3    1    3    3  502    0  0.34511620693E+03  0.47420836347E+03 -0.12179481504E+03  0.59900981247E+03  0.10100000352E+00 0. -1.
       -3    1    3    3    0  502 -0.34511620693E+03 -0.47420836347E+03  0.70871805991E+03  0.91992394626E+03  0.10100000352E+00 0.  1.
</event>
<event>
 5   0  0.6153318E-04  0.1387641E+04  0.7818609E-02  0.8962814E-01
        1   -1    0    0  501    0  0.00000000000E+00  0.00000000000E+00  0.76913631547E+03  0.76913631549E+03  0.50400001928E-02 0. -1.
       -1   -1    0    0    0  501  0.00000000000E+00  0.00000000000E+00 -0.62587959361E+03  0.62587959363E+03  0.50400001928E-02 0.  1.
    10030    2    1    2    0    0  0.00000000000E+00  0.00000000000E+00  0.14325672186E+03  0.13950159091E+04  0.13876407670E+04 0.  0.
        5    1    3    3  502    0  0.16384748171E+03  0.33883196150E+03 -0.51431718812E+03  0.63733614003E+03  0.46999998093E+01 0.  1.
       -5    1    3    3    0  502 -0.16384748171E+03 -0.33883196150E+03  0.65757390998E+03  0.75767976909E+03  0.46999998093E+01 0. -1.
</event>
<event>
 5   0  0.1120053E-03  0.1396354E+04  0.7818609E-02  0.8956462E-01
       -2   -1    0    0    0  501  0.00000000000E+00  0.00000000000E+00  0.61888433253E+03  0.61888433253E+03  0.25500000920E-02 0.  1.
        2   -1    0    0  501    0  0.00000000000E+00  0.00000000000E+00 -0.78762840987E+03  0.78762840987E+03  0.25500000920E-02 0. -1.
    10030    2    1    2    0    0  0.00000000000E+00  0.00000000000E+00 -0.16874407734E+03  0.14065127424E+04  0.13963536554E+04 0.  0.
        2    1    3    3  502    0 -0.56814353971E+03 -0.12751803552E+03  0.30366172325E+03  0.65670265210E+03  0.25500000920E-02 0.  1.
       -2    1    3    3    0  502  0.56814353971E+03  0.12751803552E+03 -0.47240580059E+03  0.74981009031E+03  0.25500000920E-02 0. -1.
</event>
<event>
 5   0  0.1108819E-03  0.1401743E+04  0.7818609E-02  0.8952558E-01
       -2   -1    0    0    0  501  0.00000000000E+00  0.00000000000E+00  0.25815233265E+03  0.25815233266E+03  0.25500000920E-02 0. -1.
        2   -1    0    0  501    0  0.00000000000E+00  0.00000000000E+00 -0.19028333677E+04  0.19028333677E+04  0.25500000920E-02 0.  1.
    10030    2    1    2    0    0  0.00000000000E+00  0.00000000000E+00 -0.16446810351E+04  0.21609857004E+04  0.14017430186E+04 0.  0.
        3    1    3    3  502    0 -0.26478608492E+03  0.28940432454E+03  0.73079161335E+02  0.39900765388E+03  0.10100000352E+00 0. -1.
       -3    1    3    3    0  502  0.26478608492E+03 -0.28940432454E+03 -0.17177601964E+04  0.17619780465E+04  0.10100000352E+00 0.  1.
</event>
<event>
 5   0  0.1175146E-03  0.1369357E+04  0.7818609E-02  0.8976303E-01
       -2   -1    0    0    0  501  0.00000000000E+00  0.00000000000E+00  0.10674863099E+04  0.10674863099E+04  0.25500000920E-02 0.  1.
        2   -1    0    0  501    0  0.00000000000E+00  0.00000000000E+00 -0.43914836374E+03  0.43914836374E+03  0.25500000920E-02 0. -1.
    10030    2    1    2    0    0  0.00000000000E+00  0.00000000000E+00  0.62833794615E+03  0.15066346736E+04  0.13693573183E+04 0.  0.
        1    1    3    3  502    0 -0.17169538432E+03  0.58692816055E+03 -0.24630867628E+02  0.61202177274E+03  0.50400001928E-02 0. -1.
       -1    1    3    3    0  502  0.17169538432E+03 -0.58692816055E+03  0.65296881378E+03  0.89461290089E+03  0.50400001928E-02 0.  1.
</event>
<event>
 5   0  0.1120053E-03  0.1402135E+04  0.7818609E-02  0.8952275E-01
        2   -1    0    0  501    0  0.00000000000E+00  0.00000000000E+00  0.55358615745E+03  0.55358615746E+03  0.25500000920E-02 0.  1.
       -2   -1    0    0    0  501  0.00000000000E+00  0.00000000000E+00 -0.88783931317E+03  0.88783931317E+03  0.25500000920E-02 0. -1.
    10030    2    1    2    0    0  0.00000000000E+00  0.00000000000E+00 -0.33425315571E+03  0.14414254706E+04  0.14021348777E+04 0.  0.
        2    1    3    3  502    0 -0.19270697452E+03 -0.55850340456E+03 -0.55510583539E+03  0.81068151540E+03  0.25500000920E-02 0. -1.
       -2    1    3    3    0  502  0.19270697452E+03  0.55850340456E+03  0.22085267968E+03  0.63074395523E+03  0.25500000920E-02 0.  1.
</event>
<event>
 5   0  0.1108819E-03  0.1398059E+04  0.7818609E-02  0.8955225E-01
        2   -1    0    0  501    0  0.00000000000E+00  0.00000000000E+00  0.12313890839E+04  0.12313890839E+04  0.25500000920E-02 0. -1.
       -2   -1    0    0    0  501  0.00000000000E+00  0.00000000000E+00 -0.39682186097E+03  0.39682186098E+03  0.25500000920E-02 0.  1.
    10030    2    1    2    0    0  0.00000000000E+00  0.00000000000E+00  0.83456722295E+03  0.16282109449E+04  0.13980588083E+04 0.  0.
        3    1    3    3  502    0  0.40134918783E+03  0.46497998362E+03  0.28651038791E+02  0.61490523495E+03  0.10100000352E+00 0.  1.
       -3    1    3    3    0  502 -0.40134918783E+03 -0.46497998362E+03  0.80591618416E+03  0.10133057100E+04  0.10100000352E+00 0. -1.
</event>
<event>
 5   0  0.6114266E-04  0.1479764E+04  0.7818609E-02  0.8898022E-01
       -1   -1    0    0    0  501  0.00000000000E+00  0.00000000000E+00  0.32808232339E+03  0.32808232343E+03  0.50400001928E-02 0. -1.
        1   -1    0    0  501    0  0.00000000000E+00  0.00000000000E+00 -0.16685609068E+04  0.16685609068E+04  0.50400001928E-02 0.  1.
    10030    2    1    2    0    0  0.00000000000E+00  0.00000000000E+00 -0.13404785834E+04  0.19966432303E+04  0.14797639529E+04 0.  0.
        3    1    3    3  502    0  0.66113297806E+03  0.65090225217E+02 -0.23074940303E+03  0.70326300151E+03  0.10100000352E+00 0. -1.
       -3    1    3    3    0  502 -0.66113297806E+03 -0.65090225217E+02 -0.11097291804E+04  0.12933802287E+04  0.10100000352E+00 0.  1.
</event>
<event>
 5   0  0.1095119E-03  0.1404811E+04  0.7818609E-02  0.8950344E-01
        2   -1    0    0  501    0  0.00000000000E+00  0.00000000000E+00  0.49152494343E+03  0.49152494344E+03  0.25500000920E-02 0. -1.
       -2   -1    0    0    0  501  0.00000000000E+00  0.00000000000E+00 -0.10037603285E+04  0.10037603285E+04  0.25500000920E-02 0.  1.
    10030    2    1    2    0    0  0.00000000000E+00  0.00000000000E+00 -0.51223538506E+03  0.14952852719E+04  0.14048106473E+04 0.  0.
        5    1    3    3  502    0  0.42484256543E+03  0.20003684534E+03 -0.81210442419E+03  0.93810534093E+03  0.46999998093E+01 0.  1.
       -5    1    3    3    0  502 -0.42484256543E+03 -0.20003684534E+03  0.29986903912E+03  0.55717993101E+03  0.46999998093E+01 0. -1.
</event>
<event>
 5   0  0.6153318E-04  0.1419087E+04  0.7818609E-02  0.8940117E-01
        1   -1    0    0  501    0  0.00000000000E+00  0.00000000000E+00  0.13115418855E+04  0.13115418855E+04  0.50400001928E-02 0. -1.
       -1   -1    0    0    0  501  0.00000000000E+00  0.00000000000E+00 -0.38386246433E+03  0.38386246436E+03  0.50400001928E-02 0.  1.
    10030    2    1    2    0    0  0.00000000000E+00  0.00000000000E+00  0.92767942120E+03  0.16954043499E+04  0.14190866081E+04 0.  0.
        5    1    3    3  502    0  0.79407105100E+01  0.64878685523E+03  0.80687523993E+03  0.10354019419E+04  0.46999998093E+01 0. -1.
       -5    1    3    3    0  502 -0.79407105100E+01 -0.64878685523E+03  0.12080418127E+03  0.66000240804E+03  0.46999998093E+01 0.  1.
</event>
<event>
 5   0  0.6114266E-04  0.1393793E+04  0.7818609E-02  0.8958324E-01
        1   -1    0    0  501    0  0.00000000000E+00  0.00000000000E+00  0.94477179181E+03  0.94477179182E+03  0.50400001928E-02 0.  1.
       -1   -1    0    0    0  501  0.00000000000E+00  0.00000000000E+00 -0.51405473299E+03  0.51405473301E+03  0.50400001928E-02 0. -1.
    10030    2    1    2    0    0  0.00000000000E+00  0.00000000000E+00  0.43071705882E+03  0.14588265248E+04  0.13937925401E+04 0.  0.
        3    1    3    3  502    0 -0.62331048488E+03  0.11851076290E+03 -0.86369417396E+02  0.64032839071E+03  0.10100000352E+00 0. -1.
       -3    1    3    3    0  502  0.62331048488E+03 -0.11851076290E+03  0.51708647621E+03  0.81849813413E+03  0.10100000352E+00 0.  1.
</event>
<event>
 5   0  0.1108819E-03  0.1400426E+04  0.7818609E-02  0.8953510E-01
       -2   -1    0    0    0  501  0.00000000000E+00  0.00000000000E+00  0.61024049152E+03  0.61024049152E+03  0.25500000920E-02 0.  1.
        2   -1    0    0  501    0  0.00000000000E+00  0.00000000000E+00 -0.80345046873E+03  0.80345046873E+03  0.25500000920E-02 0. -1.
    10030    2    1    2    0    0  0.00000000000E+00  0.00000000000E+00 -0.19320997721E+03  0.14136909603E+04  0.14004256624E+04 0.  0.
        3    1    3    3  502    0 -0.28303086152E+03 -0.60256912805E+03  0.12248068758E+03  0.67690291156E+03  0.10100000352E+00 0.  1.
       -3    1    3    3    0  502  0.28303086152E+03  0.60256912805E+03 -0.31569066480E+03  0.73678804869E+03  0.10100000352E+00 0. -1.
</event>
<event>
 5   0  0.5875298E-04  0.1405329E+04  0.7818609E-02  0.8949970E-01
       -1   -1    0    0    0  501  0.00000000000E+00  0.00000000000E+00  0.31998687412E+03  0.31998687416E+03  0.50400001928E-02 0. -1.
        1   -1    0    0  501    0  0.00000000000E+00  0.00000000000E+00 -0.15429923663E+04  0.15429923663E+04  0.50400001928E-02 0.  1.
    10030    2    1    2    0    0  0.00000000000E+00  0.00000000000E+00 -0.12230054921E+04  0.18629792404E+04  0.14053288642E+04 0.  0.
        1    1    3    3  502    0  0.22864132460E+03  0.30300141155E+03  0.17237292201E+03  0.41689223426E+03  0.50400001928E-02 0. -1.
       -1    1    3    3    0  502 -0.22864132460E+03 -0.30300141155E+03 -0.13953784141E+04  0.14460870062E+04  0.50400001928E-02 0.  1.
</event>
<event>
 5   0  0.6114266E-04  0.1387458E+04  0.7818609E-02  0.8962947E-01
       -1   -1    0    0    0  501  0.00000000000E+00  0.00000000000E+00  0.47205232770E+03  0.47205232773E+03  0.50400001928E-02 0. -1.
        1   -1    0    0  501    0  0.00000000000E+00  0.00000000000E+00 -0.10195056108E+04  0.10195056108E+04  0.50400001928E-02 0.  1.
    10030    2    1    2    0    0  0.00000000000E+00  0.00000000000E+00 -0.54745328306E+03  0.14915579385E+04  0.13874581027E+04 0.  0.
        3    1    3    3  502    0 -0.32349925005E+03  0.55013394469E+03  0.18635571145E+02  0.63847193877E+03  0.10100000352E+00 0. -1.
       -3    1    3    3    0  502  0.32349925005E+03 -0.55013394469E+03 -0.56608885420E+03  0.85308599973E+03  0.10100000352E+00 0.  1.
</event>
<event>
 5   0  0.6097538E-04  0.1402577E+04  0.7818609E-02  0.8951955E-01
       -1   -1    0    0    0  501  0.00000000000E+00  0.00000000000E+00  0.48671345200E+03  0.48671345203E+03  0.50400001928E-02 0.  1.
        1   -1    0    0  501    0  0.00000000000E+00  0.00000000000E+00 -0.10104628007E+04  0.10104628007E+04  0.50400001928E-02 0. -1.
    10030    2    1    2    0    0  0.00000000000E+00  0.00000000000E+00 -0.52374934869E+03  0.14971762527E+04  0.14025773959E+04 0.  0.
        2    1    3    3  502    0 -0.65267434923E+03 -0.33004290188E+02  0.97117881475E+01  0.65358045270E+03  0.25500000920E-02 0.  1.
       -2    1    3    3    0  502  0.65267434923E+03  0.33004290188E+02 -0.53346113684E+03  0.84359580004E+03  0.25500000920E-02 0. -1.
</event>
<event>
 5   0  0.6153318E-04  0.1414167E+04  0.7818609E-02  0.8943627E-01
       -1   -1    0    0    0  501  0.00000000000E+00  0.00000000000E+00  0.65022493342E+03  0.65022493344E+03  0.50400001928E-02 0. -1.
        1   -1    0    0  501    0  0.00000000000E+00  0.00000000000E+00 -0.76891360736E+03  0.76891360738E+03  0.50400001928E-02 0.  1.
    10030    2    1    2    0    0  0.00000000000E+00  0.00000000000E+00 -0.11868867394E+03  0.14191385408E+04  0.14141666085E+04 0.  0.
        5    1    3    3  502    0  0.17365904714E+02 -0.18318822452E+03  0.62576025242E+03  0.65227102017E+03  0.46999998093E+01 0. -1.
       -5    1    3    3    0  502 -0.17365904714E+02  0.18318822452E+03 -0.74444892636E+03  0.76686752064E+03  0.46999998093E+01 0.  1.
</event>
<event>
 5   0  0.1098949E-03  0.1399532E+04  0.7818609E-02  0.8954158E-01
       -2   -1    0    0    0  501  0.00000000000E+00  0.00000000000E+00  0.90635981635E+03  0.90635981635E+03  0.25500000920E-02 0. -1.
        2   -1    0    0  501    0  0.00000000000E+00  0.00000000000E+00 -0.54026241637E+03  0.54026241638E+03  0.25500000920E-02 0.  1.
    10030    2    1    2    0    0  0.00000000000E+00  0.00000000000E+00  0.36609739997E+03  0.14466222327E+04  0.13995315566E+04 0.  0.
        4    1    3    3  502    0  0.11233237028E+03  0.56992073008E+03 -0.22026237993E+03  0.62124498300E+03  0.12699999809E+01 0.  1.
       -4    1    3    3    0  502 -0.11233237028E+03 -0.56992073008E+03  0.58635977990E+03  0.82537724973E+03  0.12699999809E+01 0. -1.
</event>
<event>
 5   0  0.1175146E-03  0.1399472E+04  0.7818609E-02  0.8954201E-01
        2   -1    0    0  501    0  0.00000000000E+00  0.00000000000E+00  0.11589606068E+04  0.11589606068E+04  0.25500000920E-02 0. -1.
       -2   -1    0    0    0  501  0.00000000000E+00  0.00000000000E+00 -0.42247364350E+03  0.42247364351E+03  0.25500000920E-02 0.  1.
    10030    2    1    2    0    0  0.00000000000E+00  0.00000000000E+00  0.73648696332E+03  0.15814342503E+04  0.13994717721E+04 0.  0.
        1    1    3    3  502    0  0.54071121266E+03  0.36938259360E+03  0.64692217027E+03  0.92050008711E+03  0.50400001928E-02 0. -1.
       -1    1    3    3    0  502 -0.54071121266E+03 -0.36938259360E+03  0.89564793054E+02  0.66093416324E+03  0.50400001928E-02 0.  1.
</event>
<event>
 5   0  0.6194742E-04  0.1417844E+04  0.7818609E-02  0.8941003E-01
        1   -1    0    0  501    0  0.00000000000E+00  0.00000000000E+00  0.47216731119E+03  0.47216731122E+03  0.50400001928E-02 0. -1.
       -1   -1    0    0    0  501  0.00000000000E+00  0.00000000000E+00 -0.10643898428E+04  0.10643898428E+04  0.50400001928E-02 0.  1.
    10030    2    1    2    0    0  0.00000000000E+00  0.00000000000E+00 -0.59222253164E+03  0.15365571541E+04  0.14178435600E+04 0.  0.
        4    1    3    3  502    0 -0.41669753924E+03 -0.37187646209E+03  0.17706928892E+03  0.58590450437E+03  0.12699999809E+01 0. -1.
       -4    1    3    3    0  502  0.41669753924E+03  0.37187646209E+03 -0.76929182056E+03  0.95065264968E+03  0.12699999809E+01 0.  1.
</event>
<event>
 5   0  0.1120053E-03  0.1398956E+04  0.7818609E-02  0.8954574E-01
       -2   -1    0    0    0  501  0.00000000000E+00  0.00000000000E+00  0.54638957086E+03  0.54638957087E+03  0.25500000920E-02 0. -1.
        2   -1    0    0  501    0  0.00000000000E+00  0.00000000000E+00 -0.89545952155E+03  0.89545952155E+03  0.25500000920E-02 0.  1.
    10030    2    1    2    0    0  0.00000000000E+00  0.00000000000E+00 -0.34906995069E+03  0.14418490924E+04  0.13989563878E+04 0.  0.
        2    1    3    3  502    0 -0.61816708166E+02 -0.10491908255E+03 -0.88445017644E+03  0.89279417219E+03  0.25500000920E-02 0.  1.
       -2    1    3    3    0  502  0.61816708166E+02  0.10491908255E+03  0.53538022575E+03  0.54905492023E+03  0.25500000920E-02 0. -1.
</event>
<event>
 5   0  0.6153318E-04  0.1405536E+04  0.7818609E-02  0.8949821E-01
       -1   -1    0    0    0  501  0.00000000000E+00  0.00000000000E+00  0.11897030295E+04  0.11897030295E+04  0.50400001928E-02 0.  1.
        1   -1    0    0  501    0  0.00000000000E+00  0.00000000000E+00 -0.41513116035E+03  0.41513116038E+03  0.50400001928E-02 0. -1.
    10030    2    1    2    0    0  0.00000000000E+00  0.00000000000E+00  0.77457186914E+03  0.16048341899E+04  0.14055359108E+04 0.  0.
        5    1    3    3  502    0 -0.69682975825E+03 -0.32927137663E+02  0.29036910252E+03  0.75564026763E+03  0.46999998093E+01 0.  1.
       -5    1    3    3    0  502  0.69682975825E+03  0.32927137663E+02  0.48420276662E+03  0.84919392224E+03  0.46999998093E+01 0. -1.
</event>
<event>
 5   0  0.1120053E-03  0.1363769E+04  0.7818609E-02  0.8980470E-01
        2   -1    0    0  501    0  0.00000000000E+00  0.00000000000E+00  0.66567832957E+03  0.66567832958E+03  0.25500000920E-02 0.  1.
       -2   -1    0    0    0  501  0.00000000000E+00  0.00000000000E+00 -0.69848532821E+03  0.69848532821E+03  0.25500000920E-02 0. -1.
    10030    2    1    2    0    0  0.00000000000E+00  0.00000000000E+00 -0.32806998634E+02  0.13641636578E+04  0.13637691102E+04 0.  0.
        2    1    3    3  502    0 -0.38637701458E+03  0.44962169558E+03  0.32062079281E+03  0.67397667565E+03  0.25500000920E-02 0.  1.
       -2    1    3    3    0  502  0.38637701458E+03 -0.44962169558E+03 -0.35342779144E+03  0.69018698213E+03  0.25500000920E-02 0. -1.
</event>
<event>
 5   0  0.6194742E-04  0.1380299E+04  0.7818609E-02  0.8968204E-01
       -1   -1    0    0    0  501  0.00000000000E+00  0.00000000000E+00  0.19549294629E+03  0.19549294636E+03  0.50400001928E-02 0. -1.
        1   -1    0    0  501    0  0.00000000000E+00  0.00000000000E+00 -0.24364371577E+04  0.24364371577E+04  0.50400001928E-02 0.  1.
    10030    2    1    2    0    0  0.00000000000E+00  0.00000000000E+00 -0.22409442114E+04  0.26319301040E+04  0.13802989220E+04 0.  0.
        4    1    3    3  502    0 -0.33528285713E+03  0.22391390078E+02  0.28969492341E+02  0.33727853923E+03  0.12699999809E+01 0. -1.
       -4    1    3    3    0  502  0.33528285713E+03 -0.22391390078E+02 -0.22699137037E+04  0.22946515648E+04  0.12699999809E+01 0.  1.
</event>
<event>
 5   0  0.6194742E-04  0.1400150E+04  0.7818609E-02  0.8953710E-01
       -1   -1    0    0    0  501  0.00000000000E+00  0.00000000000E+00  0.72771388959E+03  0.72771388960E+03  0.50400001928E-02 0. -1.
        1   -1    0    0  501    0  0.00000000000E+00  0.00000000000E+00 -0.67348593678E+03  0.67348593680E+03  0.50400001928E-02 0.  1.
    10030    2    1    2    0    0  0.00000000000E+00  0.00000000000E+00  0.54227952807E+02  0.14011998264E+04  0.14001500929E+04 0.  0.
        4    1    3    3  502    0 -0.18218672446E+03  0.55805845746E+03 -0.35459329308E+03  0.68582742793E+03  0.12699999809E+01 0.  1.
       -4    1    3    3    0  502  0.18218672446E+03 -0.55805845746E+03  0.40882124588E+03  0.71537239847E+03  0.12699999809E+01 0. -1.
</event>
<event>
 5   0  0.6097538E-04  0.1399048E+04  0.7818609E-02  0.8954508E-01
        1   -1    0    0  501    0  0.00000000000E+00  0.00000000000E+00  0.70040217979E+03  0.70040217981E+03  0.50400001928E-02 0. -1.
       -1   -1    0    0    0  501  0.00000000000E+00  0.00000000000E+00 -0.69864678764E+03  0.69864678766E+03  0.50400001928E-02 0.  1.
    10030    2    1    2    0    0  0.00000000000E+00  0.00000000000E+00  0.17553921499E+01  0.13990489675E+04  0.13990478662E+04 0.  0.
        2    1    3    3  502    0 -0.31975221050E+03  0.15089606858E+03  0.60446961691E+03  0.70028181285E+03  0.25500000920E-02 0. -1.
       -2    1    3    3    0  502  0.31975221050E+03 -0.15089606858E+03 -0.60271422476E+03  0.69876715461E+03  0.25500000920E-02 0.  1.
</event>
<event>
 5   0  0.1120053E-03  0.1385962E+04  0.7818609E-02  0.8964043E-01
        2   -1    0    0  501    0  0.00000000000E+00  0.00000000000E+00  0.15190130957E+04  0.15190130957E+04  0.25500000920E-02 0. -1.
       -2   -1    0    0    0  501  0.00000000000E+00  0.00000000000E+00 -0.31614139426E+03  0.31614139427E+03  0.25500000920E-02 0.  1.
    10030    2    1    2    0    0  0.00000000000E+00  0.00000000000E+00  0.12028717014E+04  0.18351544900E+04  0.13859623631E+04 0.  0.
        2    1    3    3  502    0 -0.20151996533E+03 -0.23725094258E+03 -0.21835779180E+03  0.38023470571E+03  0.25500000920E-02 0.  1.
       -2    1    3    3    0  502  0.20151996533E+03  0.23725094258E+03  0.14212294932E+04  0.14549197843E+04  0.25500000920E-02 0. -1.
</event>
<event>
 5   0  0.4176125E-04  0.1456703E+04  0.7818609E-02  0.8913767E-01
        3   -1    0    0  501    0  0.00000000000E+00  0.00000000000E+00  0.14341896704E+04  0.14341896739E+04  0.10100000352E+00 0.  1.
       -3   -1    0    0    0  501  0.00000000000E+00  0.00000000000E+00 -0.36989250062E+03  0.36989251441E+03  0.10100000352E+00 0. -1.
    10030    2    1    2    0    0  0.00000000000E+00  0.00000000000E+00  0.10642971697E+04  0.18040821883E+04  0.14567031533E+04 0.  0.
        2    1    3    3  502    0  0.21410784378E+03 -0.35180793553E+03  0.12761430253E+04  0.13409519056E+04  0.25500000920E-02 0.  1.
       -2    1    3    3    0  502 -0.21410784378E+03  0.35180793553E+03 -0.21184585551E+03  0.46313028272E+03  0.25500000920E-02 0. -1.
</event>
<event>
 5   0  0.1095119E-03  0.1427919E+04  0.7818609E-02  0.8933854E-01
        2   -1    0    0  501    0  0.00000000000E+00  0.00000000000E+00  0.77440835154E+03  0.77440835155E+03  0.25500000920E-02 0.  1.
       -2   -1    0    0    0  501  0.00000000000E+00  0.00000000000E+00 -0.65822927974E+03  0.65822927974E+03  0.25500000920E-02 0. -1.
    10030    2    1    2    0    0  0.00000000000E+00  0.00000000000E+00  0.11617907181E+03  0.14326376313E+04  0.14279191174E+04 0.  0.
        5    1    3    3  502    0  0.68804604002E+03  0.18958527296E+03  0.77289977671E+02  0.71787586640E+03  0.46999998093E+01 0.  1.
       -5    1    3    3    0  502 -0.68804604002E+03 -0.18958527296E+03  0.38889094135E+02  0.71476176489E+03  0.46999998093E+01 0. -1.
</event>
<event>
 5   0  0.1095119E-03  0.1395572E+04  0.7818609E-02  0.8957030E-01
       -2   -1    0    0    0  501  0.00000000000E+00  0.00000000000E+00  0.71588029204E+03  0.71588029205E+03  0.25500000920E-02 0.  1.
        2   -1    0    0  501    0  0.00000000000E+00  0.00000000000E+00 -0.68014903005E+03  0.68014903005E+03  0.25500000920E-02 0. -1.
    10030    2    1    2    0    0  0.00000000000E+00  0.00000000000E+00  0.35731261993E+02  0.13960293221E+04  0.13955719777E+04 0.  0.
        5    1    3    3  502    0  0.40751377405E+03  0.27421590645E+03 -0.47789879786E+03  0.68532560903E+03  0.46999998093E+01 0. -1.
       -5    1    3    3    0  502 -0.40751377405E+03 -0.27421590645E+03  0.51363005986E+03  0.71070371307E+03  0.46999998093E+01 0.  1.
</event>
<event>
 5   0  0.1098949E-03  0.1402233E+04  0.7818609E-02  0.8952204E-01
        2   -1    0    0  501    0  0.00000000000E+00  0.00000000000E+00  0.11758539389E+04  0.11758539389E+04  0.25500000920E-02 0. -1.
       -2   -1    0    0    0  501  0.00000000000E+00  0.00000000000E+00 -0.41804865911E+03  0.41804865912E+03  0.25500000920E-02 0.  1.
    10030    2    1    2    0    0  0.00000000000E+00  0.00000000000E+00  0.75780527983E+03  0.15939025981E+04  0.14022327375E+04 0.  0.
        4    1    3    3  502    0 -0.23015384150E+03 -0.20234617304E+02 -0.37353255457E+03  0.43921340225E+03  0.12699999809E+01 0.  1.
       -4    1    3    3    0  502  0.23015384150E+03  0.20234617304E+02  0.11313378344E+04  0.11546891958E+04  0.12699999809E+01 0. -1.
</event>
<event>
 5   0  0.6194742E-04  0.1404117E+04  0.7818609E-02  0.8950843E-01
       -1   -1    0    0    0  501  0.00000000000E+00  0.00000000000E+00  0.12829205386E+04  0.12829205387E+04  0.50400001928E-02 0.  1.
        1   -1    0    0  501    0  0.00000000000E+00  0.00000000000E+00 -0.38419096370E+03  0.38419096373E+03  0.50400001928E-02 0. -1.
    10030    2    1    2    0    0  0.00000000000E+00  0.00000000000E+00  0.89872957495E+03  0.16671115024E+04  0.14041174853E+04 0.  0.
        4    1    3    3  502    0 -0.68918631236E+03 -0.12963311979E+03  0.40994445973E+03  0.81230449454E+03  0.12699999809E+01 0. -1.
       -4    1    3    3    0  502  0.68918631236E+03  0.12963311979E+03  0.48878511522E+03  0.85480700784E+03  0.12699999809E+01 0.  1.
</event>
<event>
 5   0  0.6097538E-04  0.1393363E+04  0.7818609E-02  0.8958637E-01
        1   -1    0    0  501    0  0.00000000000E+00  0.00000000000E+00  0.12968591004E+04  0.12968591004E+04  0.50400001928E-02 0.  1.
       -1   -1    0    0    0  501  0.00000000000E+00  0.00000000000E+00 -0.37426184321E+03  0.37426184325E+03  0.50400001928E-02 0. -1.
    10030    2    1    2    0    0  0.00000000000E+00  0.00000000000E+00  0.92259725714E+03  0.16711209436E+04  0.13933626625E+04 0.  0.
        2    1    3    3  502    0  0.12421402787E+03 -0.46952776038E+03  0.10603458928E+04  0.11662842085E+04  0.25500000920E-02 0.  1.
       -2    1    3    3    0  502 -0.12421402787E+03  0.46952776038E+03 -0.13774863570E+03  0.50483673513E+03  0.25500000920E-02 0. -1.
</event>
<event>
 5   0  0.1120053E-03  0.1398190E+04  0.7818609E-02  0.8955130E-01
       -2   -1    0    0    0  501  0.00000000000E+00  0.00000000000E+00  0.45050806080E+03  0.45050806081E+03  0.25500000920E-02 0. -1.
        2   -1    0    0  501    0  0.00000000000E+00  0.00000000000E+00 -0.10848500877E+04  0.10848500877E+04  0.25500000920E-02 0.  1.
    10030    2    1    2    0    0  0.00000000000E+00  0.00000000000E+00 -0.63434202694E+03  0.15353581486E+04  0.13981898430E+04 0.  0.
        2    1    3    3  502    0 -0.75238717374E+02  0.64006215377E+03 -0.19681462795E+02  0.64476955981E+03  0.25500000920E-02 0. -1.
       -2    1    3    3    0  502  0.75238717374E+02 -0.64006215377E+03 -0.61466056414E+03  0.89058858874E+03  0.25500000920E-02 0.  1.
</event>
<event>
 5   0  0.6097538E-04  0.1400966E+04  0.7818609E-02  0.8953119E-01
       -1   -1    0    0    0  501  0.00000000000E+00  0.00000000000E+00  0.56837855661E+03  0.56837855663E+03  0.50400001928E-02 0. -1.
        1   -1    0    0  501    0  0.00000000000E+00  0.00000000000E+00 -0.86329194058E+03  0.86329194060E+03  0.50400001928E-02 0.  1.
    10030    2    1    2    0    0  0.00000000000E+00  0.00000000000E+00 -0.29491338398E+03  0.14316704972E+04  0.14009662767E+04 0.  0.
        2    1    3    3  502    0 -0.25934778313E+03  0.58948695476E+03 -0.42903220246E+03  0.77383769177E+03  0.25500000920E-02 0.  1.
       -2    1    3    3    0  502  0.25934778313E+03 -0.58948695476E+03  0.13411881849E+03  0.65783280545E+03  0.25500000920E-02 0. -1.
</event>
<event>
 5   0  0.1108819E-03  0.1396675E+04  0.7818609E-02  0.8956229E-01
        2   -1    0    0  501    0  0.00000000000E+00  0.00000000000E+00  0.37770553276E+03  0.37770553276E+03  0.25500000920E-02 0. -1.
       -2   -1    0    0    0  501  0.00000000000E+00  0.00000000000E+00 -0.12911522051E+04  0.12911522051E+04  0.25500000920E-02 0.  1.
    10030    2    1    2    0    0  0.00000000000E+00  0.00000000000E+00 -0.91344667237E+03  0.16688577379E+04  0.13966750968E+04 0.  0.
        3    1    3    3  502    0 -0.59206616413E+03 -0.36943578795E+03 -0.42625562783E+03  0.81775241644E+03  0.10100000352E+00 0. -1.
       -3    1    3    3    0  502  0.59206616413E+03  0.36943578795E+03 -0.48719104454E+03  0.85110532145E+03  0.10100000352E+00 0.  1.
</event>
<event>
 5   0  0.1095119E-03  0.1402228E+04  0.7818609E-02  0.8952207E-01
        2   -1    0    0  501    0  0.00000000000E+00  0.00000000000E+00  0.12519681467E+04  0.12519681467E+04  0.25500000920E-02 0. -1.
       -2   -1    0    0    0  501  0.00000000000E+00  0.00000000000E+00 -0.39263040758E+03  0.39263040759E+03  0.25500000920E-02 0.  1.
    10030    2    1    2    0    0  0.00000000000E+00  0.00000000000E+00  0.85933773914E+03  0.16445985543E+04  0.14022278898E+04 0.  0.
        5    1    3    3  502    0 -0.42127203767E+03 -0.52893641821E+03  0.21247103017E+03  0.70880878444E+03  0.46999998093E+01 0.  1.
       -5    1    3    3    0  502  0.42127203767E+03  0.52893641821E+03  0.64686670897E+03  0.93578976987E+03  0.46999998093E+01 0. -1.
</event>
<event>
 5   0  0.6153318E-04  0.1354691E+04  0.7818609E-02  0.8987285E-01
        1   -1    0    0  501    0  0.00000000000E+00  0.00000000000E+00  0.81234633714E+03  0.81234633716E+03  0.50400001928E-02 0.  1.
       -1   -1    0    0    0  501  0.00000000000E+00  0.00000000000E+00 -0.56477963550E+03  0.56477963553E+03  0.50400001928E-02 0. -1.
    10030    2    1    2    0    0  0.00000000000E+00  0.00000000000E+00  0.24756670163E+03  0.13771259727E+04  0.13546906189E+04 0.  0.
        5    1    3    3  502    0  0.16771920464E+03 -0.58935302149E+03 -0.16962775088E+03  0.63581630949E+03  0.46999998093E+01 0. -1.
       -5    1    3    3    0  502 -0.16771920464E+03  0.58935302149E+03  0.41719445251E+03  0.74130966320E+03  0.46999998093E+01 0.  1.
</event>
<event>
 5   0  0.6114266E-04  0.1406022E+04  0.7818609E-02  0.8949471E-01
        1   -1    0    0  501    0  0.00000000000E+00  0.00000000000E+00  0.12345121164E+04  0.12345121164E+04  0.50400001928E-02 0.  1.
       -1   -1    0    0    0  501  0.00000000000E+00  0.00000000000E+00 -0.40033992777E+03  0.40033992780E+03  0.50400001928E-02 0. -1.
    10030    2    1    2    0    0  0.00000000000E+00  0.00000000000E+00  0.83417218864E+03  0.16348520442E+04  0.14060220362E+04 0.  0.
        3    1    3    3  502    0 -0.42451978649E+03 -0.37513229213E+03 -0.66935292435E+02  0.57045738604E+03  0.10100000352E+00 0. -1.
       -3    1    3    3    0  502  0.42451978649E+03  0.37513229213E+03  0.90110748107E+03  0.10643946582E+04  0.10100000352E+00 0.  1.
</event>
<event>
 5   0  0.1108819E-03  0.1394515E+04  0.7818609E-02  0.8957799E-01
       -2   -1    0    0    0  501  0.00000000000E+00  0.00000000000E+00  0.75025291564E+03  0.75025291565E+03  0.25500000920E-02 0.  1.
        2   -1    0    0  501    0  0.00000000000E+00  0.00000000000E+00 -0.64800541958E+03  0.64800541959E+03  0.25500000920E-02 0. -1.
    10030    2    1    2    0    0  0.00000000000E+00  0.00000000000E+00  0.10224749606E+03  0.13982583352E+04  0.13945149055E+04 0.  0.
        3    1    3    3  502    0  0.37597611580E+03  0.36440913250E+03 -0.41056411899E+03  0.66536829012E+03  0.10100000352E+00 0. -1.
       -3    1    3    3    0  502 -0.37597611580E+03 -0.36440913250E+03  0.51281161505E+03  0.73289004511E+03  0.10100000352E+00 0.  1.
</event>
<event>
 5   0  0.1175146E-03  0.1396895E+04  0.7818609E-02  0.8956070E-01
       -2   -1    0    0    0  501  0.00000000000E+00  0.00000000000E+00  0.33121176648E+03  0.33121176649E+03  0.25500000920E-02 0.  1.
        2   -1    0    0  501    0  0.00000000000E+00  0.00000000000E+00 -0.14728600431E+04  0.14728600431E+04  0.25500000920E-02 0. -1.
    10030    2    1    2    0    0  0.00000000000E+00  0.00000000000E+00 -0.11416482766E+04  0.18040718096E+04  0.13968945224E+04 0.  0.
        1    1    3    3  502    0  0.15990709701E+03 -0.59273900690E+03 -0.14070108320E+03  0.62984649305E+03  0.50400001928E-02 0.  1.
       -1    1    3    3    0  502 -0.15990709701E+03  0.59273900690E+03 -0.10009471934E+04  0.11742253165E+04  0.50400001928E-02 0. -1.
</event>
<event>
 5   0  0.1175146E-03  0.1387546E+04  0.7818609E-02  0.8962883E-01
       -2   -1    0    0    0  501  0.00000000000E+00  0.00000000000E+00  0.19445219239E+03  0.19445219241E+03  0.25500000920E-02 0. -1.
        2   -1    0    0  501    0  0.00000000000E+00  0.00000000000E+00 -0.24752652389E+04  0.24752652389E+04  0.25500000920E-02 0.  1.
    10030    2    1    2    0    0  0.00000000000E+00  0.00000000000E+00 -0.22808130465E+04  0.26697174313E+04  0.13875456785E+04 0.  0.
        1    1    3    3  502    0 -0.18415153983E+03  0.66886787150E+03 -0.11308376899E+04  0.13266837981E+04  0.50400001928E-02 0. -1.
       -1    1    3    3    0  502  0.18415153983E+03 -0.66886787150E+03 -0.11499753566E+04  0.13430336332E+04  0.50400001928E-02 0.  1.
</event>
<event>
 5   0  0.1120053E-03  0.1408281E+04  0.7818609E-02  0.8947846E-01
       -2   -1    0    0    0  501  0.00000000000E+00  0.00000000000E+00  0.36134116019E+03  0.36134116020E+03  0.25500000920E-02 0. -1.
        2   -1    0    0  501    0  0.00000000000E+00  0.00000000000E+00 -0.13721492950E+04  0.13721492950E+04  0.25500000920E-02 0.  1.
    10030    2    1    2    0    0  0.00000000000E+00  0.00000000000E+00 -0.10108081348E+04  0.17334904552E+04  0.14082812478E+04 0.  0.
        2    1    3    3  502    0  0.15519091550E+03 -0.38083316390E+03 -0.12089685381E+04  0.12769976684E+04  0.25500000920E-02 0.  1.
       -2    1    3    3    0  502 -0.15519091550E+03  0.38083316390E+03  0.19816040328E+03  0.45649278682E+03  0.25500000920E-02 0. -1.
</event>
<event>
 5   0  0.5875298E-04  0.1400638E+04  0.7818609E-02  0.8953357E-01
       -1   -1    0    0    0  501  0.00000000000E+00  0.00000000000E+00  0.77576000466E+03  0.77576000468E+03  0.50400001928E-02 0.  1.
        1   -1    0    0  501    0  0.00000000000E+00  0.00000000000E+00 -0.63221416450E+03  0.63221416452E+03  0.50400001928E-02 0. -1.
    10030    2    1    2    0    0  0.00000000000E+00  0.00000000000E+00  0.14354584016E+03  0.14079741692E+04  0.14006376594E+04 0.  0.
        1    1    3    3  502    0 -0.21052852986E+02 -0.44806383784E+02  0.77399883710E+03  0.77558045005E+03  0.50400001928E-02 0.  1.
       -1    1    3    3    0  502  0.21052852986E+02  0.44806383784E+02 -0.63045299694E+03  0.63239371915E+03  0.50400001928E-02 0. -1.
</event>
<event>
 5   0  0.1175146E-03  0.1402147E+04  0.7818609E-02  0.8952266E-01
       -2   -1    0    0    0  501  0.00000000000E+00  0.00000000000E+00  0.38698308910E+03  0.38698308911E+03  0.25500000920E-02 0.  1.
        2   -1    0    0  501    0  0.00000000000E+00  0.00000000000E+00 -0.12700913943E+04  0.12700913943E+04  0.25500000920E-02 0. -1.
    10030    2    1    2    0    0  0.00000000000E+00  0.00000000000E+00 -0.88310830516E+03  0.16570744834E+04  0.14021467701E+04 0.  0.
        1    1    3    3  502    0  0.35616374333E+03 -0.90796161513E+02  0.26398622205E+03  0.45253207673E+03  0.50400001928E-02 0.  1.
       -1    1    3    3    0  502 -0.35616374333E+03  0.90796161513E+02 -0.11470945272E+04  0.12045424066E+04  0.50400001928E-02 0. -1.
</event>
<event>
 5   0  0.1098949E-03  0.1399501E+04  0.7818609E-02  0.8954180E-01
        2   -1    0    0  501    0  0.00000000000E+00  0.00000000000E+00  0.55089503580E+03  0.55089503581E+03  0.25500000920E-02 0.  1.
       -2   -1    0    0    0  501  0.00000000000E+00  0.00000000000E+00 -0.88882793339E+03  0.88882793339E+03  0.25500000920E-02 0. -1.
    10030    2    1    2    0    0  0.00000000000E+00  0.00000000000E+00 -0.33793289758E+03  0.14397229692E+04  0.13995011914E+04 0.  0.
        4    1    3    3  502    0  0.14462442760E+02  0.63600533393E+02  0.54775986892E+03  0.55163092462E+03  0.12699999809E+01 0.  1.
       -4    1    3    3    0  502 -0.14462442760E+02 -0.63600533393E+02 -0.88569276651E+03  0.88809204458E+03  0.12699999809E+01 0. -1.
</event>
<event>
 5   0  0.1108819E-03  0.1425746E+04  0.7818609E-02  0.8935390E-01
        2   -1    0    0  501    0  0.00000000000E+00  0.00000000000E+00  0.40775854747E+03  0.40775854748E+03  0.25500000920E-02 0. -1.
       -2   -1    0    0    0  501  0.00000000000E+00  0.00000000000E+00 -0.12462959353E+04  0.12462959353E+04  0.25500000920E-02 0.  1.
    10030    2    1    2    0    0  0.00000000000E+00  0.00000000000E+00 -0.83853738788E+03  0.16540544828E+04  0.14257458684E+04 0.  0.
        3    1    3    3  502    0  0.51861322155E+02 -0.63382023865E+03 -0.79298654694E+03  0.10164867759E+04  0.10100000352E+00 0.  1.
       -3    1    3    3    0  502 -0.51861322155E+02  0.63382023865E+03 -0.45550840936E+02  0.63756770697E+03  0.10100000352E+00 0. -1.
</event>
<event>
 5   0  0.6153318E-04  0.1386642E+04  0.7818609E-02  0.8963545E-01
       -1   -1    0    0    0  501  0.00000000000E+00  0.00000000000E+00  0.40950126907E+03  0.40950126910E+03  0.50400001928E-02 0.  1.
        1   -1    0    0  501    0  0.00000000000E+00  0.00000000000E+00 -0.11738522077E+04  0.11738522077E+04  0.50400001928E-02 0. -1.
    10030    2    1    2    0    0  0.00000000000E+00  0.00000000000E+00 -0.76435093864E+03  0.15833534768E+04  0.13866419420E+04 0.  0.
        5    1    3    3  502    0  0.13864826281E+03  0.44046759344E+03  0.20833032236E+03  0.50661489799E+03  0.46999998093E+01 0.  1.
       -5    1    3    3    0  502 -0.13864826281E+03 -0.44046759344E+03 -0.97268126100E+03  0.10767385788E+04  0.46999998093E+01 0. -1.
</event>
<event>
 5   0  0.6097538E-04  0.1419881E+04  0.7818609E-02  0.8939552E-01
       -1   -1    0    0    0  501  0.00000000000E+00  0.00000000000E+00  0.27404391512E+03  0.27404391517E+03  0.50400001928E-02 0.  1.
        1   -1    0    0  501    0  0.00000000000E+00  0.00000000000E+00 -0.18391777416E+04  0.18391777416E+04  0.50400001928E-02 0. -1.
    10030    2    1    2    0    0  0.00000000000E+00  0.00000000000E+00 -0.15651338264E+04  0.21132216567E+04  0.14198809372E+04 0.  0.
        2    1    3    3  502    0 -0.49398985880E+03  0.75518759195E+02 -0.15330738238E+04  0.16124653214E+04  0.25500000920E-02 0. -1.
       -2    1    3    3    0  502  0.49398985880E+03 -0.75518759195E+02 -0.32060002656E+02  0.50075633533E+03  0.25500000920E-02 0.  1.
</event>
<event>
 5   0  0.1175146E-03  0.1382183E+04  0.7818609E-02  0.8966818E-01
        2   -1    0    0  501    0  0.00000000000E+00  0.00000000000E+00  0.80410213758E+03  0.80410213759E+03  0.25500000920E-02 0. -1.
       -2   -1    0    0    0  501  0.00000000000E+00  0.00000000000E+00 -0.59396335312E+03  0.59396335313E+03  0.25500000920E-02 0.  1.
    10030    2    1    2    0    0  0.00000000000E+00  0.00000000000E+00  0.21013878446E+03  0.13980654907E+04  0.13821826245E+04 0.  0.
        1    1    3    3  502    0  0.57185972777E+02 -0.25437436600E+03 -0.54230916167E+03  0.60172733062E+03  0.50400001928E-02 0.  1.
       -1    1    3    3    0  502 -0.57185972777E+02  0.25437436600E+03  0.75244794613E+03  0.79633816009E+03  0.50400001928E-02 0. -1.
</event>
<event>
 5   0  0.1098949E-03  0.1395191E+04  0.7818609E-02  0.8957307E-01
        2   -1    0    0  501    0  0.00000000000E+00  0.00000000000E+00  0.13050009092E+04  0.13050009092E+04  0.25500000920E-02 0.  1.
       -2   -1    0    0    0  501  0.00000000000E+00  0.00000000000E+00 -0.37290361589E+03  0.37290361589E+03  0.25500000920E-02 0. -1.
    10030    2    1    2    0    0  0.00000000000E+00  0.00000000000E+00  0.93209729335E+03  0.16779045251E+04  0.13951911092E+04 0.  0.
        4    1    3    3  502    0  0.26853888862E+03 -0.60061546856E+03  0.18713636364E+03  0.68401294379E+03  0.12699999809E+01 0.  1.
       -4    1    3    3    0  502 -0.26853888862E+03  0.60061546856E+03  0.74496092971E+03  0.99389158134E+03  0.12699999809E+01 0. -1.
</event>
<event>
 5   0  0.1108819E-03  0.1398182E+04  0.7818609E-02  0.8955135E-01
       -2   -1    0    0    0  501  0.00000000000E+00  0.00000000000E+00  0.23004163785E+03  0.23004163786E+03  0.25500000920E-02 0.  1.
        2   -1    0    0  501    0  0.00000000000E+00  0.00000000000E+00 -0.21245221370E+04  0.21245221370E+04  0.25500000920E-02 0. -1.
    10030    2    1    2    0    0  0.00000000000E+00  0.00000000000E+00 -0.18944804992E+04  0.23545637749E+04  0.13981824660E+04 0.  0.
        3    1    3    3  502    0  0.69744327721E+03 -0.32617733381E+02 -0.10064808269E+04  0.12249468178E+04  0.10100000352E+00 0. -1.
       -3    1    3    3    0  502 -0.69744327721E+03  0.32617733381E+02 -0.88799967229E+03  0.11296169570E+04  0.10100000352E+00 0.  1.
</event>
<event>
 5   0  0.5875298E-04  0.1321345E+04  0.7818609E-02  0.9012807E-01
        1   -1    0    0  501    0  0.00000000000E+00  0.00000000000E+00  0.65676924196E+03  0.65676924198E+03  0.50400001928E-02 0. -1.
       -1   -1    0    0    0  501  0.00000000000E+00  0.00000000000E+00 -0.66459922238E+03  0.66459922240E+03  0.50400001928E-02 0.  1.
    10030    2    1    2    0    0  0.00000000000E+00  0.00000000000E+00 -0.78299804216E+01  0.13213684644E+04  0.13213452653E+04 0.  0.
        1    1    3    3  502    0  0.23690056377E+03 -0.54536919867E+03  0.28408119013E+03  0.65897766471E+03  0.50400001928E-02 0. -1.
       -1    1    3    3    0  502 -0.23690056377E+03  0.54536919867E+03 -0.29191117056E+03  0.66239079967E+03  0.50400001928E-02 0.  1.
</event>
<event>
 5   0  0.1120053E-03  0.1390326E+04  0.7818609E-02  0.8960851E-01
       -2   -1    0    0    0  501  0.00000000000E+00  0.00000000000E+00  0.32468539997E+03  0.32468539998E+03  0.25500000920E-02 0. -1.
        2   -1    0    0  501    0  0.00000000000E+00  0.00000000000E+00 -0.14883697031E+04  0.14883697031E+04  0.25500000920E-02 0.  1.
    10030    2    1    2    0    0  0.00000000000E+00  0.00000000000E+00 -0.11636843032E+04  0.18130551031E+04  0.13903264543E+04 0.  0.
        2    1    3    3  502    0  0.17074510696E+03 -0.66973578512E+03 -0.48467512689E+03  0.84416224273E+03  0.25500000920E-02 0.  1.
       -2    1    3    3    0  502 -0.17074510696E+03  0.66973578512E+03 -0.67900917629E+03  0.96889286039E+03  0.25500000920E-02 0. -1.
</event>
<event>
 5   0  0.5875298E-04  0.1395873E+04  0.7818609E-02  0.8956811E-01
       -1   -1    0    0    0  501  0.00000000000E+00  0.00000000000E+00  0.45758842323E+03  0.45758842326E+03  0.50400001928E-02 0.  1.
        1   -1    0    0  501    0  0.00000000000E+00  0.00000000000E+00 -0.10645277144E+04  0.10645277144E+04  0.50400001928E-02 0. -1.
    10030    2    1    2    0    0  0.00000000000E+00  0.00000000000E+00 -0.60693929119E+03  0.15221161377E+04  0.13958732870E+04 0.  0.
        1    1    3    3  502    0 -0.56702273358E+03 -0.10732139232E+03 -0.73150437864E+03  0.93173564794E+03  0.50400001928E-02 0. -1.
       -1    1    3    3    0  502  0.56702273358E+03  0.10732139232E+03  0.12456508745E+03  0.59038048976E+03  0.50400001928E-02 0.  1.
</event>
<event>
 5   0  0.6097538E-04  0.1320269E+04  0.7818609E-02  0.9013644E-01
        1   -1    0    0  501    0  0.00000000000E+00  0.00000000000E+00  0.56432628469E+03  0.56432628471E+03  0.50400001928E-02 0. -1.
       -1   -1    0    0    0  501  0.00000000000E+00  0.00000000000E+00 -0.77220903780E+03  0.77220903781E+03  0.50400001928E-02 0.  1.
    10030    2    1    2    0    0  0.00000000000E+00  0.00000000000E+00 -0.20788275310E+03  0.13365353225E+04  0.13202694533E+04 0.  0.
        2    1    3    3  502    0 -0.49888680931E+03  0.13302497718E+03 -0.52034121802E+03  0.73303388478E+03  0.25500000920E-02 0.  1.
       -2    1    3    3    0  502  0.49888680931E+03 -0.13302497718E+03  0.31245846491E+03  0.60350143775E+03  0.25500000920E-02 0. -1.
</event>
<event>
 5   0  0.1095119E-03  0.1437235E+04  0.7818609E-02  0.8927298E-01
        2   -1    0    0  501    0  0.00000000000E+00  0.00000000000E+00  0.12813988265E+04  0.12813988265E+04  0.25500000920E-02 0. -1.
       -2   -1    0    0    0  501  0.00000000000E+00  0.00000000000E+00 -0.40300600884E+03  0.40300600885E+03  0.25500000920E-02 0.  1.
    10030    2    1    2    0    0  0.00000000000E+00  0.00000000000E+00  0.87839281768E+03  0.16844048354E+04  0.14372354391E+04 0.  0.
        5    1    3    3  502    0  0.67166419018E+03  0.25319434314E+03  0.39946700627E+03  0.82148410750E+03  0.46999998093E+01 0. -1.
       -5    1    3    3    0  502 -0.67166419018E+03 -0.25319434314E+03  0.47892581141E+03  0.86292072788E+03  0.46999998093E+01 0.  1.
</event>
<event>
 5   0  0.5875298E-04  0.1391062E+04  0.7818609E-02  0.8960314E-01
        1   -1    0    0  501    0  0.00000000000E+00  0.00000000000E+00  0.14027782829E+04  0.14027782830E+04  0.50400001928E-02 0.  1.
       -1   -1    0    0    0  501  0.00000000000E+00  0.00000000000E+00 -0.34486108752E+03  0.34486108756E+03  0.50400001928E-02 0. -1.
    10030    2    1    2    0    0  0.00000000000E+00  0.00000000000E+00  0.10579171954E+04  0.17476393705E+04  0.13910623915E+04 0.  0.
        1    1    3    3  502    0  0.25737419377E+03 -0.34511675129E+02 -0.28167508333E+03  0.38311014596E+03  0.50400001928E-02 0. -1.
       -1    1    3    3    0  502 -0.25737419377E+03  0.34511675129E+02  0.13395922788E+04  0.13645292246E+04  0.50400001928E-02 0.  1.
</event>
<event>
 5   0  0.1098949E-03  0.1412242E+04  0.7818609E-02  0.8945005E-01
       -2   -1    0    0    0  501  0.00000000000E+00  0.00000000000E+00  0.59898221465E+03  0.59898221466E+03  0.25500000920E-02 0.  1.
        2   -1    0    0  501    0  0.00000000000E+00  0.00000000000E+00 -0.83242343633E+03  0.83242343633E+03  0.25500000920E-02 0. -1.
    10030    2    1    2    0    0  0.00000000000E+00  0.00000000000E+00 -0.23344122167E+03  0.14314056510E+04  0.14122419530E+04 0.  0.
        4    1    3    3  502    0 -0.70036883268E+03  0.85514501642E+02 -0.14495519066E+03  0.72030747045E+03  0.12699999809E+01 0. -1.
       -4    1    3    3    0  502  0.70036883268E+03 -0.85514501642E+02 -0.88486031020E+02  0.71109818054E+03  0.12699999809E+01 0.  1.
</event>
<event>
 5   0  0.4176125E-04  0.1395216E+04  0.7818609E-02  0.8957289E-01
       -3   -1    0    0    0  501  0.00000000000E+00  0.00000000000E+00  0.22887261623E+03  0.22887263852E+03  0.10100000352E+00 0. -1.
        3   -1    0    0  501    0  0.00000000000E+00  0.00000000000E+00 -0.21263228397E+04  0.21263228421E+04  0.10100000352E+00 0.  1.
    10030    2    1    2    0    0  0.00000000000E+00  0.00000000000E+00 -0.18974502235E+04  0.23551954806E+04  0.13952162561E+04 0.  0.
        2    1    3    3  502    0  0.20197482702E+03 -0.41931807576E+03 -0.71530490834E+02  0.47089074161E+03  0.25500000920E-02 0. -1.
       -2    1    3    3    0  502 -0.20197482702E+03  0.41931807576E+03 -0.18259197327E+04  0.18843047390E+04  0.25500000920E-02 0.  1.
</event>
<event>
 5   0  0.1108819E-03  0.1391832E+04  0.7818609E-02  0.8959753E-01
       -2   -1    0    0    0  501  0.00000000000E+00  0.00000000000E+00  0.54764863296E+03  0.54764863296E+03  0.25500000920E-02 0. -1.
        2   -1    0    0  501    0  0.00000000000E+00  0.00000000000E+00 -0.88432382326E+03  0.88432382327E+03  0.25500000920E-02 0.  1.
    10030    2    1    2    0    0  0.00000000000E+00  0.00000000000E+00 -0.33667519031E+03  0.14319724562E+04  0.13918315026E+04 0.  0.
        3    1    3    3  502    0 -0.81529108986E+01 -0.54894432802E+02  0.54536835860E+03  0.54818475487E+03  0.10100000352E+00 0. -1.
       -3    1    3    3    0  502  0.81529108986E+01  0.54894432802E+02 -0.88204354891E+03  0.88378770136E+03  0.10100000352E+00 0.  1.
</event>
<event>
 5   0  0.1095119E-03  0.1189209E+04  0.7818609E-02  0.9122355E-01
        2   -1    0    0  501    0  0.00000000000E+00  0.00000000000E+00  0.79866799588E+03  0.79866799589E+03  0.25500000920E-02 0. -1.
       -2   -1    0    0    0  501  0.00000000000E+00  0.00000000000E+00 -0.44268002036E+03  0.44268002037E+03  0.25500000920E-02 0.  1.
    10030    2    1    2    0    0  0.00000000000E+00  0.00000000000E+00  0.35598797552E+03  0.12413480163E+04  0.11892087532E+04 0.  0.
        5    1    3    3  502    0  0.48793372890E+03  0.37485292937E+02  0.53051005831E+03  0.72176691733E+03  0.46999998093E+01 0. -1.
       -5    1    3    3    0  502 -0.48793372890E+03 -0.37485292937E+02 -0.17452208279E+03  0.51958109893E+03  0.46999998093E+01 0.  1.
</event>
<event>
 5   0  0.6114266E-04  0.1200867E+04  0.7818609E-02  0.9112098E-01
        1   -1    0    0  501    0  0.00000000000E+00  0.00000000000E+00  0.11717712781E+04  0.11717712781E+04  0.50400001928E-02 0. -1.
       -1   -1    0    0    0  501  0.00000000000E+00  0.00000000000E+00 -0.30767153940E+03  0.30767153944E+03  0.50400001928E-02 0.  1.
    10030    2    1    2    0    0  0.00000000000E+00  0.00000000000E+00  0.86409973865E+03  0.14794428175E+04  0.12008674748E+04 0.  0.
        3    1    3    3  502    0  0.19774618886E+03  0.56253421607E+03  0.51892281121E+03  0.79046138024E+03  0.10100000352E+00 0.  1.
       -3    1    3    3    0  502 -0.19774618886E+03 -0.56253421607E+03  0.34517692744E+03  0.68898143727E+03  0.10100000352E+00 0. -1.
</event>
<event>
 5   0  0.1120053E-03  0.1406119E+04  0.7818609E-02  0.8949401E-01
        2   -1    0    0  501    0  0.00000000000E+00  0.00000000000E+00  0.20606795351E+04  0.20606795351E+04  0.25500000920E-02 0.  1.
       -2   -1    0    0    0  501  0.00000000000E+00  0.00000000000E+00 -0.23986871479E+03  0.23986871480E+03  0.25500000920E-02 0. -1.
    10030    2    1    2    0    0  0.00000000000E+00  0.00000000000E+00  0.18208108203E+04  0.23005482499E+04  0.14061188452E+04 0.  0.
        2    1    3    3  502    0  0.21587410365E+03 -0.65686232062E+03  0.11187932740E+04  0.13152064959E+04  0.25500000920E-02 0. -1.
       -2    1    3    3    0  502 -0.21587410365E+03  0.65686232062E+03  0.70201754632E+03  0.98534175402E+03  0.25500000920E-02 0.  1.
</event>
<event>
 5   0  0.1098949E-03  0.1410387E+04  0.7818609E-02  0.8946334E-01
       -2   -1    0    0    0  501  0.00000000000E+00  0.00000000000E+00  0.31680814335E+03  0.31680814336E+03  0.25500000920E-02 0. -1.
        2   -1    0    0  501    0  0.00000000000E+00  0.00000000000E+00 -0.15697135230E+04  0.15697135230E+04  0.25500000920E-02 0.  1.
    10030    2    1    2    0    0  0.00000000000E+00  0.00000000000E+00 -0.12529053796E+04  0.18865216663E+04  0.14103872189E+04 0.  0.
        4    1    3    3  502    0  0.61923562100E+03 -0.12690978666E+03 -0.20828141903E+03  0.66553858692E+03  0.12699999809E+01 0. -1.
       -4    1    3    3    0  502 -0.61923562100E+03  0.12690978666E+03 -0.10446239606E+04  0.12209830794E+04  0.12699999809E+01 0.  1.
</event>
<event>
 5   0  0.1098949E-03  0.1387293E+04  0.7818609E-02  0.8963068E-01
        2   -1    0    0  501    0  0.00000000000E+00  0.00000000000E+00  0.10680255570E+04  0.10680255570E+04  0.25500000920E-02 0.  1.
       -2   -1    0    0    0  501  0.00000000000E+00  0.00000000000E+00 -0.45050025348E+03  0.45050025349E+03  0.25500000920E-02 0. -1.
    10030    2    1    2    0    0  0.00000000000E+00  0.00000000000E+00  0.61752530349E+03  0.15185258105E+04  0.13872934573E+04 0.  0.
        4    1    3    3  502    0  0.25054195817E+03  0.48704456416E+02 -0.39723118464E+03  0.47216270906E+03  0.12699999809E+01 0. -1.
       -4    1    3    3    0  502 -0.25054195817E+03 -0.48704456416E+02  0.10147564881E+04  0.10463631014E+04  0.12699999809E+01 0.  1.
</event>
<event>
 5   0  0.6194742E-04  0.1396720E+04  0.7818609E-02  0.8956197E-01
        1   -1    0    0  501    0  0.00000000000E+00  0.00000000000E+00  0.14553542573E+04  0.14553542573E+04  0.50400001928E-02 0.  1.
       -1   -1    0    0    0  501  0.00000000000E+00  0.00000000000E+00 -0.33511179349E+03  0.33511179353E+03  0.50400001928E-02 0. -1.
    10030    2    1    2    0    0  0.00000000000E+00  0.00000000000E+00  0.11202424638E+04  0.17904660508E+04  0.13967195500E+04 0.  0.
        4    1    3    3  502    0  0.15186071350E+01  0.26076308048E+03  0.13906008676E+04  0.14148399472E+04  0.12699999809E+01 0.  1.
       -4    1    3    3    0  502 -0.15186071350E+01 -0.26076308048E+03 -0.27035840381E+03  0.37562610362E+03  0.12699999809E+01 0. -1.
</event>
<event>
 5   0  0.6114266E-04  0.1380305E+04  0.7818609E-02  0.8968200E-01
       -1   -1    0    0    0  501  0.00000000000E+00  0.00000000000E+00  0.29904659457E+03  0.29904659461E+03  0.50400001928E-02 0. -1.
        1   -1    0    0  501    0  0.00000000000E+00  0.00000000000E+00 -0.15927625294E+04  0.15927625294E+04  0.50400001928E-02 0.  1.
    10030    2    1    2    0    0  0.00000000000E+00  0.00000000000E+00 -0.12937159348E+04  0.18918091240E+04  0.13803046191E+04 0.  0.
        3    1    3    3  502    0 -0.23804742710E+03  0.13883588030E+03 -0.15140837351E+04  0.15389579417E+04  0.10100000352E+00 0.  1.
       -3    1    3    3    0  502  0.23804742710E+03 -0.13883588030E+03  0.22036780032E+03  0.35285118227E+03  0.10100000352E+00 0. -1.
</event>
<event>
 5   0  0.5875298E-04  0.1465280E+04  0.7818609E-02  0.8907875E-01
        1   -1    0    0  501    0  0.00000000000E+00  0.00000000000E+00  0.10558198863E+04  0.10558198864E+04  0.50400001928E-02 0.  1.
       -1   -1    0    0    0  501  0.00000000000E+00  0.00000000000E+00 -0.50838338209E+03  0.50838338211E+03  0.50400001928E-02 0. -1.
    10030    2    1    2    0    0  0.00000000000E+00  0.00000000000E+00  0.54743650425E+03  0.15642032685E+04  0.14652798841E+04 0.  0.
        1    1    3    3  502    0 -0.28201936406E+03  0.52575940278E+03  0.72763469399E+03  0.94096233678E+03  0.50400001928E-02 0.  1.
       -1    1    3    3    0  502  0.28201936406E+03 -0.52575940278E+03 -0.18019818974E+03  0.62324093168E+03  0.50400001928E-02 0. -1.
</event>
<event>
 5   0  0.6194742E-04  0.1374649E+04  0.7818609E-02  0.8972376E-01
       -1   -1    0    0    0  501  0.00000000000E+00  0.00000000000E+00  0.77046117128E+03  0.77046117130E+03  0.50400001928E-02 0. -1.
        1   -1    0    0  501    0  0.00000000000E+00  0.00000000000E+00 -0.61315847195E+03  0.61315847197E+03  0.50400001928E-02 0.  1.
    10030    2    1    2    0    0  0.00000000000E+00  0.00000000000E+00  0.15730269933E+03  0.13836196433E+04  0.13746487472E+04 0.  0.
        4    1    3    3  502    0  0.50622292490E+03  0.52263234901E+02  0.54364029059E+03  0.74467407225E+03  0.12699999809E+01 0. -1.
       -4    1    3    3    0  502 -0.50622292490E+03 -0.52263234901E+02 -0.38633759126E+03  0.63894557103E+03  0.12699999809E+01 0.  1.
</event>
<event>
 5   0  0.5875298E-04  0.1395661E+04  0.7818609E-02  0.8956965E-01
        1   -1    0    0  501    0  0.00000000000E+00  0.00000000000E+00  0.57860174374E+03  0.57860174376E+03  0.50400001928E-02 0.  1.
       -1   -1    0    0    0  501  0.00000000000E+00  0.00000000000E+00 -0.84162831880E+03  0.84162831882E+03  0.50400001928E-02 0. -1.
    10030    2    1    2    0    0  0.00000000000E+00  0.00000000000E+00 -0.26302657506E+03  0.14202300626E+04  0.13956612954E+04 0.  0.
        1    1    3    3  502    0  0.34393712095E+03 -0.48590171180E+02  0.48437982155E+03  0.59605164160E+03  0.50400001928E-02 0.  1.
       -1    1    3    3    0  502 -0.34393712095E+03  0.48590171180E+02 -0.74740639661E+03  0.82417842099E+03  0.50400001928E-02 0. -1.
</event>
<event>
 5   0  0.1120053E-03  0.1392730E+04  0.7818609E-02  0.8959098E-01
       -2   -1    0    0    0  501  0.00000000000E+00  0.00000000000E+00  0.99694517307E+03  0.99694517308E+03  0.25500000920E-02 0.  1.
        2   -1    0    0  501    0  0.00000000000E+00  0.00000000000E+00 -0.48641025129E+03  0.48641025130E+03  0.25500000920E-02 0. -1.
    10030    2    1    2    0    0  0.00000000000E+00  0.00000000000E+00  0.51053492178E+03  0.14833554244E+04  0.13927301995E+04 0.  0.
        2    1    3    3  502    0 -0.50705738742E+03 -0.26814677866E+03  0.67582113655E+03  0.88642207647E+03  0.25500000920E-02 0.  1.
       -2    1    3    3    0  502  0.50705738742E+03  0.26814677866E+03 -0.16528621476E+03  0.59693334791E+03  0.25500000920E-02 0. -1.
</event>
<event>
 5   0  0.6194742E-04  0.1400900E+04  0.7818609E-02  0.8953168E-01
        1   -1    0    0  501    0  0.00000000000E+00  0.00000000000E+00  0.37714649766E+03  0.37714649770E+03  0.50400001928E-02 0. -1.
       -1   -1    0    0    0  501  0.00000000000E+00  0.00000000000E+00 -0.13008999728E+04  0.13008999728E+04  0.50400001928E-02 0.  1.
    10030    2    1    2    0    0  0.00000000000E+00  0.00000000000E+00 -0.92375347513E+03  0.16780464705E+04  0.14008995233E+04 0.  0.
        4    1    3    3  502    0  0.28235013457E+03 -0.28789602632E+03  0.22416231202E+03  0.46136327930E+03  0.12699999809E+01 0. -1.
       -4    1    3    3    0  502 -0.28235013457E+03  0.28789602632E+03 -0.11479157871E+04  0.12166831912E+04  0.12699999809E+01 0.  1.
</event>
<event>
 5   0  0.1098949E-03  0.1386945E+04  0.7818609E-02  0.8963323E-01
       -2   -1    0    0    0  501  0.00000000000E+00  0.00000000000E+00  0.48450939023E+03  0.48450939024E+03  0.25500000920E-02 0. -1.
        2   -1    0    0  501    0  0.00000000000E+00  0.00000000000E+00 -0.99255939150E+03  0.99255939150E+03  0.25500000920E-02 0.  1.
    10030    2    1    2    0    0  0.00000000000E+00  0.00000000000E+00 -0.50805000127E+03  0.14770687817E+04  0.13869453422E+04 0.  0.
        4    1    3    3  502    0 -0.34702881002E+03 -0.42796353829E+03 -0.70248260705E+03  0.89278508679E+03  0.12699999809E+01 0.  1.
       -4    1    3    3    0  502  0.34702881002E+03  0.42796353829E+03  0.19443260578E+03  0.58428369495E+03  0.12699999809E+01 0. -1.
</event>
<event>
 5   0  0.5875298E-04  0.1404333E+04  0.7818609E-02  0.8950688E-01
       -1   -1    0    0    0  501  0.00000000000E+00  0.00000000000E+00  0.82029372061E+03  0.82029372062E+03  0.50400001928E-02 0. -1.
        1   -1    0    0  501    0  0.00000000000E+00  0.00000000000E+00 -0.60104996704E+03  0.60104996707E+03  0.50400001928E-02 0.  1.
    10030    2    1    2    0    0  0.00000000000E+00  0.00000000000E+00  0.21924375356E+03  0.14213436877E+04  0.14043326013E+04 0.  0.
        1    1    3    3  502    0 -0.18708700363E+03 -0.19882109512E+03 -0.54513496248E+03  0.60967491513E+03  0.50400001928E-02 0.  1.
       -1    1    3    3    0  502  0.18708700363E+03  0.19882109512E+03  0.76437871604E+03  0.81166877256E+03  0.50400001928E-02 0. -1.
</event>
<event>
 5   0  0.6114266E-04  0.1397139E+04  0.7818609E-02  0.8955892E-01
       -1   -1    0    0    0  501  0.00000000000E+00  0.00000000000E+00  0.77029278604E+03  0.77029278606E+03  0.50400001928E-02 0.  1.
        1   -1    0    0  501    0  0.00000000000E+00  0.00000000000E+00 -0.63352452935E+03  0.63352452937E+03  0.50400001928E-02 0. -1.
    10030    2    1    2    0    0  0.00000000000E+00  0.00000000000E+00  0.13676825668E+03  0.14038173154E+04  0.13971390407E+04 0.  0.
        3    1    3    3  502    0  0.41879629504E+03  0.27045314981E+03 -0.42330566489E+03  0.65400530511E+03  0.10100000352E+00 0. -1.
       -3    1    3    3    0  502 -0.41879629504E+03 -0.27045314981E+03  0.56007392158E+03  0.74981201032E+03  0.10100000352E+00 0.  1.
</event>
<event>
 5   0  0.1120053E-03  0.1379528E+04  0.7818609E-02  0.8968772E-01
        2   -1    0    0  501    0  0.00000000000E+00  0.00000000000E+00  0.91262975509E+03  0.91262975509E+03  0.25500000920E-02 0. -1.
       -2   -1    0    0    0  501  0.00000000000E+00  0.00000000000E+00 -0.52132277756E+03  0.52132277757E+03  0.25500000920E-02 0.  1.
    10030    2    1    2    0    0  0.00000000000E+00  0.00000000000E+00  0.39130697753E+03  0.14339525327E+04  0.13795284395E+04 0.  0.
        2    1    3    3  502    0  0.99583012496E+02 -0.45144993917E+03 -0.33645098178E+03  0.57177188379E+03  0.25500000920E-02 0.  1.
       -2    1    3    3    0  502 -0.99583012496E+02  0.45144993917E+03  0.72775795930E+03  0.86218064887E+03  0.25500000920E-02 0. -1.
</event>
<event>
 5   0  0.1108819E-03  0.1397243E+04  0.7818609E-02  0.8955817E-01
       -2   -1    0    0    0  501  0.00000000000E+00  0.00000000000E+00  0.86470676768E+03  0.86470676769E+03  0.25500000920E-02 0.  1.
        2   -1    0    0  501    0  0.00000000000E+00  0.00000000000E+00 -0.56443636266E+03  0.56443636267E+03  0.25500000920E-02 0. -1.
    10030    2    1    2    0    0  0.00000000000E+00  0.00000000000E+00  0.30027040502E+03  0.14291431304E+04  0.13972429176E+04 0.  0.
        3    1    3    3  502    0  0.88296751472E+02 -0.17488468512E+03  0.83603533890E+03  0.85868275137E+03  0.10100000352E+00 0.  1.
       -3    1    3    3    0  502 -0.88296751472E+02  0.17488468512E+03 -0.53576493388E+03  0.57046037898E+03  0.10100000352E+00 0. -1.
</event>
<event>
 5   0  0.1095119E-03  0.1387165E+04  0.7818609E-02  0.8963162E-01
       -2   -1    0    0    0  501  0.00000000000E+00  0.00000000000E+00  0.42077128884E+03  0.42077128884E+03  0.25500000920E-02 0.  1.
        2   -1    0    0  501    0  0.00000000000E+00  0.00000000000E+00 -0.11432733960E+04  0.11432733960E+04  0.25500000920E-02 0. -1.
    10030    2    1    2    0    0  0.00000000000E+00  0.00000000000E+00 -0.72250210714E+03  0.15640446848E+04  0.13871649077E+04 0.  0.
        5    1    3    3  502    0  0.36535243735E+03 -0.10652723229E+03 -0.10150173837E+04  0.10840262146E+04  0.46999998093E+01 0. -1.
       -5    1    3    3    0  502 -0.36535243735E+03  0.10652723229E+03  0.29251527659E+03  0.48001847020E+03  0.46999998093E+01 0.  1.
</event>
<event>
 5   0  0.6194742E-04  0.1401686E+04  0.7818609E-02  0.8952599E-01
       -1   -1    0    0    0  501  0.00000000000E+00  0.00000000000E+00  0.63501679500E+03  0.63501679502E+03  0.50400001928E-02 0.  1.
        1   -1    0    0  501    0  0.00000000000E+00  0.00000000000E+00 -0.77349230419E+03  0.77349230421E+03  0.50400001928E-02 0. -1.
    10030    2    1    2    0    0  0.00000000000E+00  0.00000000000E+00 -0.13847550919E+03  0.14085090992E+04  0.14016855624E+04 0.  0.
        4    1    3    3  502    0 -0.71270988645E+02  0.56893520820E+02  0.62902813180E+03  0.63560556167E+03  0.12699999809E+01 0.  1.
       -4    1    3    3    0  502  0.71270988645E+02 -0.56893520820E+02 -0.76750364099E+03  0.77290353756E+03  0.12699999809E+01 0. -1.
</event>
<event>
 5   0  0.5875298E-04  0.1349214E+04  0.7818609E-02  0.8991423E-01
       -1   -1    0    0    0  501  0.00000000000E+00  0.00000000000E+00  0.38268972618E+03  0.38268972621E+03  0.50400001928E-02 0. -1.
        1   -1    0    0  501    0  0.00000000000E+00  0.00000000000E+00 -0.11892005835E+04  0.11892005835E+04  0.50400001928E-02 0.  1.
    10030    2    1    2    0    0  0.00000000000E+00  0.00000000000E+00 -0.80651085736E+03  0.15718903098E+04  0.13492143576E+04 0.  0.
        1    1    3    3  502    0  0.49093120352E+02  0.66917675422E+03 -0.32180927565E+03  0.74415648407E+03  0.50400001928E-02 0. -1.
       -1    1    3    3    0  502 -0.49093120352E+02 -0.66917675422E+03 -0.48470158170E+03  0.82773382569E+03  0.50400001928E-02 0.  1.
</event>
<event>
 5   0  0.6114266E-04  0.1417906E+04  0.7818609E-02  0.8940959E-01
        1   -1    0    0  501    0  0.00000000000E+00  0.00000000000E+00  0.19042669978E+04  0.19042669978E+04  0.50400001928E-02 0. -1.
       -1   -1    0    0    0  501  0.00000000000E+00  0.00000000000E+00 -0.26394095715E+03  0.26394095719E+03  0.50400001928E-02 0.  1.
    10030    2    1    2    0    0  0.00000000000E+00  0.00000000000E+00  0.16403260407E+04  0.21682079550E+04  0.14179055739E+04 0.  0.
        3    1    3    3  502    0  0.30506687358E+03 -0.21249208580E+02 -0.15789950974E+03  0.34416506446E+03  0.10100000352E+00 0.  1.
       -3    1    3    3    0  502 -0.30506687358E+03  0.21249208580E+02  0.17982255504E+04  0.18240428905E+04  0.10100000352E+00 0. -1.
</event>
<event>
 5   0  0.1108819E-03  0.1393644E+04  0.7818609E-02  0.8958432E-01
        2   -1    0    0  501    0  0.00000000000E+00  0.00000000000E+00  0.11895216981E+04  0.11895216981E+04  0.25500000920E-02 0. -1.
       -2   -1    0    0    0  501  0.00000000000E+00  0.00000000000E+00 -0.40819851883E+03  0.40819851884E+03  0.25500000920E-02 0.  1.
    10030    2    1    2    0    0  0.00000000000E+00  0.00000000000E+00  0.78132317923E+03  0.15977202169E+04  0.13936441372E+04 0.  0.
        3    1    3    3  502    0  0.54202036300E+03  0.22178372823E+02  0.89206474286E+03  0.10440581736E+04  0.10100000352E+00 0. -1.
       -3    1    3    3    0  502 -0.54202036300E+03 -0.22178372823E+02 -0.11074156362E+03  0.55366204335E+03  0.10100000352E+00 0.  1.
</event>
<event>
 5   0  0.1120053E-03  0.1444557E+04  0.7818609E-02  0.8922183E-01
        2   -1    0    0  501    0  0.00000000000E+00  0.00000000000E+00  0.74238974848E+03  0.74238974848E+03  0.25500000920E-02 0. -1.
       -2   -1    0    0    0  501  0.00000000000E+00  0.00000000000E+00 -0.70271203076E+03  0.70271203076E+03  0.25500000920E-02 0.  1.
    10030    2    1    2    0    0  0.00000000000E+00  0.00000000000E+00  0.39677717718E+02  0.14451017792E+04  0.14445569671E+04 0.  0.
        2    1    3    3  502    0  0.28081211134E+03 -0.44214802112E+03  0.51735518332E+03  0.73621104323E+03  0.25500000920E-02 0. -1.
       -2    1    3    3    0  502 -0.28081211134E+03  0.44214802112E+03 -0.47767746560E+03  0.70889073602E+03  0.25500000920E-02 0.  1.
</event>
<event>
 5   0  0.6097538E-04  0.1393326E+04  0.7818609E-02  0.8958664E-01
       -1   -1    0    0    0  501  0.00000000000E+00  0.00000000000E+00  0.29675938893E+03  0.29675938897E+03  0.50400001928E-02 0.  1.
        1   -1    0    0  501    0  0.00000000000E+00  0.00000000000E+00 -0.16354633615E+04  0.16354633615E+04  0.50400001928E-02 0. -1.
    10030    2    1    2    0    0  0.00000000000E+00  0.00000000000E+00 -0.13387039726E+04  0.19322227505E+04  0.13933256731E+04 0.  0.
        2    1    3    3  502    0  0.66337465659E+03 -0.10354895559E+03 -0.92712266883E+03  0.11447029153E+04  0.25500000920E-02 0. -1.
       -2    1    3    3    0  502 -0.66337465659E+03  0.10354895559E+03 -0.41158130373E+03  0.78751983517E+03  0.25500000920E-02 0.  1.
</event>
<event>
 5   0  0.6097538E-04  0.1398953E+04  0.7818609E-02  0.8954577E-01
        1   -1    0    0  501    0  0.00000000000E+00  0.00000000000E+00  0.15667352776E+04  0.15667352776E+04  0.50400001928E-02 0.  1.
       -1   -1    0    0    0  501  0.00000000000E+00  0.00000000000E+00 -0.31228471592E+03  0.31228471596E+03  0.50400001928E-02 0. -1.
    10030    2    1    2    0    0  0.00000000000E+00  0.00000000000E+00  0.12544505617E+04  0.18790199936E+04  0.13989531531E+04 0.  0.
        2    1    3    3  502    0 -0.30595691031E+03 -0.11525901412E+03 -0.20333652943E+03  0.38501950017E+03  0.25500000920E-02 0. -1.
       -2    1    3    3    0  502  0.30595691031E+03  0.11525901412E+03  0.14577870911E+04  0.14940004934E+04  0.25500000920E-02 0.  1.
</event>
<event>
 5   0  0.1098949E-03  0.1413374E+04  0.7818609E-02  0.8944194E-01
        2   -1    0    0  501    0  0.00000000000E+00  0.00000000000E+00  0.91518733219E+03  0.91518733219E+03  0.25500000920E-02 0.  1.
       -2   -1    0    0    0  501  0.00000000000E+00  0.00000000000E+00 -0.54568752138E+03  0.54568752139E+03  0.25500000920E-02 0. -1.
    10030    2    1    2    0    0  0.00000000000E+00  0.00000000000E+00  0.36949981081E+03  0.14608748536E+04  0.14133737042E+04 0.  0.
        4    1    3    3  502    0  0.35814298023E+02  0.16399506406E+03  0.89428092809E+03  0.90989946490E+03  0.12699999809E+01 0.  1.
       -4    1    3    3    0  502 -0.35814298023E+02 -0.16399506406E+03 -0.52478111728E+03  0.55097538868E+03  0.12699999809E+01 0. -1.
</event>
<event>
 5   0  0.6114266E-04  0.1410178E+04  0.7818609E-02  0.8946484E-01
        1   -1    0    0  501    0  0.00000000000E+00  0.00000000000E+00  0.52245810957E+03  0.52245810960E+03  0.50400001928E-02 0. -1.
       -1   -1    0    0    0  501  0.00000000000E+00  0.00000000000E+00 -0.95155988728E+03  0.95155988730E+03  0.50400001928E-02 0.  1.
    10030    2    1    2    0    0  0.00000000000E+00  0.00000000000E+00 -0.42910177771E+03  0.14740179969E+04  0.14101775489E+04 0.  0.
        3    1    3    3  502    0 -0.10362238002E+03 -0.51174953402E+03  0.28074112950E+03  0.59282440504E+03  0.10100000352E+00 0. -1.
       -3    1    3    3    0  502  0.10362238002E+03  0.51174953402E+03 -0.70984290721E+03  0.88119359186E+03  0.10100000352E+00 0.  1.
</event>
<event>
 5   0  0.1175146E-03  0.1419500E+04  0.7818609E-02  0.8939823E-01
       -2   -1    0    0    0  501  0.00000000000E+00  0.00000000000E+00  0.47249186069E+03  0.47249186070E+03  0.25500000920E-02 0.  1.
        2   -1    0    0  501    0  0.00000000000E+00  0.00000000000E+00 -0.10661460934E+04  0.10661460934E+04  0.25500000920E-02 0. -1.
    10030    2    1    2    0    0  0.00000000000E+00  0.00000000000E+00 -0.59365423273E+03  0.15386379541E+04  0.14195004071E+04 0.  0.
        1    1    3    3  502    0 -0.52284657314E+03 -0.36497004335E+03  0.41062810091E+02  0.63895056615E+03  0.50400001928E-02 0.  1.
       -1    1    3    3    0  502  0.52284657314E+03  0.36497004335E+03 -0.63471704282E+03  0.89968738796E+03  0.50400001928E-02 0. -1.
</event>
<event>
 5   0  0.6097538E-04  0.1449211E+04  0.7818609E-02  0.8918947E-01
       -1   -1    0    0    0  501  0.00000000000E+00  0.00000000000E+00  0.55019196230E+03  0.55019196233E+03  0.50400001928E-02 0. -1.
        1   -1    0    0  501    0  0.00000000000E+00  0.00000000000E+00 -0.95430941406E+03  0.95430941407E+03  0.50400001928E-02 0.  1.
    10030    2    1    2    0    0  0.00000000000E+00  0.00000000000E+00 -0.40411745175E+03  0.15045013764E+04  0.14492113292E+04 0.  0.
        2    1    3    3  502    0  0.43380255821E+03 -0.60699647087E+02  0.39718446635E+03  0.59129062819E+03  0.25500000920E-02 0. -1.
       -2    1    3    3    0  502 -0.43380255821E+03  0.60699647087E+02 -0.80130191811E+03  0.91321074821E+03  0.25500000920E-02 0.  1.
</event>
<event>
 5   0  0.6194742E-04  0.1405046E+04  0.7818609E-02  0.8950174E-01
        1   -1    0    0  501    0  0.00000000000E+00  0.00000000000E+00  0.10898765544E+04  0.10898765544E+04  0.50400001928E-02 0. -1.
       -1   -1    0    0    0  501  0.00000000000E+00  0.00000000000E+00 -0.45283892393E+03  0.45283892396E+03  0.50400001928E-02 0.  1.
    10030    2    1    2    0    0  0.00000000000E+00  0.00000000000E+00  0.63703763043E+03  0.15427154783E+04  0.14050459439E+04 0.  0.
        4    1    3    3  502    0  0.19772550538E+02  0.34004583141E+03  0.99314360830E+03  0.10499323601E+04  0.12699999809E+01 0. -1.
       -4    1    3    3    0  502 -0.19772550538E+02 -0.34004583141E+03 -0.35610597787E+03  0.49278311821E+03  0.12699999809E+01 0.  1.
</event>
<event>
 5   0  0.1098949E-03  0.1417385E+04  0.7818609E-02  0.8941330E-01
       -2   -1    0    0    0  501  0.00000000000E+00  0.00000000000E+00  0.41599540159E+03  0.41599540159E+03  0.25500000920E-02 0. -1.
        2   -1    0    0  501    0  0.00000000000E+00  0.00000000000E+00 -0.12073333385E+04  0.12073333385E+04  0.25500000920E-02 0.  1.
    10030    2    1    2    0    0  0.00000000000E+00  0.00000000000E+00 -0.79133793688E+03  0.16233287401E+04  0.14173850810E+04 0.  0.
        4    1    3    3  502    0 -0.21378095364E+03 -0.34483502773E+03 -0.10611553036E+04  0.11360746823E+04  0.12699999809E+01 0.  1.
       -4    1    3    3    0  502  0.21378095364E+03  0.34483502773E+03  0.26981736675E+03  0.48725405774E+03  0.12699999809E+01 0. -1.
</event>
<event>
 5   0  0.1120053E-03  0.1392715E+04  0.7818609E-02  0.8959109E-01
       -2   -1    0    0    0  501  0.00000000000E+00  0.00000000000E+00  0.40320007226E+03  0.40320007227E+03  0.25500000920E-02 0. -1.
        2   -1    0    0  501    0  0.00000000000E+00  0.00000000000E+00 -0.12026622909E+04  0.12026622909E+04  0.25500000920E-02 0.  1.
    10030    2    1    2    0    0  0.00000000000E+00  0.00000000000E+00 -0.79946221860E+03  0.16058623631E+04  0.13927146479E+04 0.  0.
        2    1    3    3  502    0  0.79666186626E+00 -0.63784431607E+03 -0.77563883222E+02  0.64254350997E+03  0.25500000920E-02 0. -1.
       -2    1    3    3    0  502 -0.79666186626E+00  0.63784431607E+03 -0.72189833538E+03  0.96331885316E+03  0.25500000920E-02 0.  1.
</event>
<event>
 5   0  0.6153318E-04  0.1234388E+04  0.7818609E-02  0.9083278E-01
        1   -1    0    0  501    0  0.00000000000E+00  0.00000000000E+00  0.15924195710E+04  0.15924195710E+04  0.50400001928E-02 0. -1.
       -1   -1    0    0    0  501  0.00000000000E+00  0.00000000000E+00 -0.23921370824E+03  0.23921370829E+03  0.50400001928E-02 0.  1.
    10030    2    1    2    0    0  0.00000000000E+00  0.00000000000E+00  0.13532058628E+04  0.18316332793E+04  0.12343882545E+04 0.  0.
        5    1    3    3  502    0 -0.53325929212E+03 -0.22714264937E+03  0.36201773405E+03  0.68340192095E+03  0.46999998093E+01 0.  1.
       -5    1    3    3    0  502  0.53325929212E+03  0.22714264937E+03  0.99118812874E+03  0.11482313584E+04  0.46999998093E+01 0. -1.
</event>
<event>
 5   0  0.1095119E-03  0.1387109E+04  0.7818609E-02  0.8963203E-01
        2   -1    0    0  501    0  0.00000000000E+00  0.00000000000E+00  0.47773195916E+03  0.47773195917E+03  0.25500000920E-02 0. -1.
       -2   -1    0    0    0  501  0.00000000000E+00  0.00000000000E+00 -0.10068785048E+04  0.10068785048E+04  0.25500000920E-02 0.  1.
    10030    2    1    2    0    0  0.00000000000E+00  0.00000000000E+00 -0.52914654563E+03  0.14846104640E+04  0.13871092830E+04 0.  0.
        5    1    3    3  502    0 -0.43670807100E+03  0.53388205626E+03 -0.34213770275E+03  0.76995083409E+03  0.46999998093E+01 0.  1.
       -5    1    3    3    0  502  0.43670807100E+03 -0.53388205626E+03 -0.18700884288E+03  0.71465962988E+03  0.46999998093E+01 0. -1.
</event>
<event>
 5   0  0.1120053E-03  0.1426033E+04  0.7818609E-02  0.8935187E-01
       -2   -1    0    0    0  501  0.00000000000E+00  0.00000000000E+00  0.11786224906E+04  0.11786224906E+04  0.25500000920E-02 0.  1.
        2   -1    0    0  501    0  0.00000000000E+00  0.00000000000E+00 -0.43134454575E+03  0.43134454576E+03  0.25500000920E-02 0. -1.
    10030    2    1    2    0    0  0.00000000000E+00  0.00000000000E+00  0.74727794485E+03  0.16099670364E+04  0.14260327946E+04 0.  0.
        2    1    3    3  502    0  0.92295128475E+02 -0.52068234220E+03  0.91362336567E+03  0.10556212136E+04  0.25500000920E-02 0.  1.
       -2    1    3    3    0  502 -0.92295128475E+02  0.52068234220E+03 -0.16634542082E+03  0.55434582279E+03  0.25500000920E-02 0. -1.
</event>
<event>
 5   0  0.4176125E-04  0.1392368E+04  0.7818609E-02  0.8959362E-01
       -4   -1    0    0    0  501  0.00000000000E+00  0.00000000000E+00  0.24071064215E+03  0.24071399242E+03  0.12699999809E+01 0.  1.
        4   -1    0    0  501    0  0.00000000000E+00  0.00000000000E+00 -0.20134879961E+04  0.20134883966E+04  0.12699999809E+01 0. -1.
    10030    2    1    2    0    0  0.00000000000E+00  0.00000000000E+00 -0.17727773539E+04  0.22542023890E+04  0.13923680778E+04 0.  0.
        1    1    3    3  502    0  0.17084770573E+03  0.32167342946E+03 -0.18469299466E+04  0.18825017826E+04  0.50400001928E-02 0. -1.
       -1    1    3    3    0  502 -0.17084770573E+03 -0.32167342946E+03  0.74152592699E+02  0.37170060641E+03  0.50400001928E-02 0.  1.
</event>
<event>
 5   0  0.6114266E-04  0.1404945E+04  0.7818609E-02  0.8950247E-01
        1   -1    0    0  501    0  0.00000000000E+00  0.00000000000E+00  0.93695658935E+03  0.93695658936E+03  0.50400001928E-02 0. -1.
       -1   -1    0    0    0  501  0.00000000000E+00  0.00000000000E+00 -0.52667066780E+03  0.52667066783E+03  0.50400001928E-02 0.  1.
    10030    2    1    2    0    0  0.00000000000E+00  0.00000000000E+00  0.41028592154E+03  0.14636272572E+04  0.14049449137E+04 0.  0.
        3    1    3    3  502    0 -0.42747927924E+02  0.53159387426E+03  0.68145802289E+03  0.86533489451E+03  0.10100000352E+00 0. -1.
       -3    1    3    3    0  502  0.42747927924E+02 -0.53159387426E+03 -0.27117210135E+03  0.59829236268E+03  0.10100000352E+00 0.  1.
</event>
<event>
 5   0  0.1175146E-03  0.1410157E+04  0.7818609E-02  0.8946499E-01
        2   -1    0    0  501    0  0.00000000000E+00  0.00000000000E+00  0.16410924945E+04  0.16410924945E+04  0.25500000920E-02 0. -1.
       -2   -1    0    0    0  501  0.00000000000E+00  0.00000000000E+00 -0.30292991831E+03  0.30292991832E+03  0.25500000920E-02 0.  1.
    10030    2    1    2    0    0  0.00000000000E+00  0.00000000000E+00  0.13381625762E+04  0.19440224129E+04  0.14101574598E+04 0.  0.
        1    1    3    3  502    0 -0.56217829771E+03  0.41825040350E+03  0.56089810968E+03  0.89754360781E+03  0.50400001928E-02 0.  1.
       -1    1    3    3    0  502  0.56217829771E+03 -0.41825040350E+03  0.77726446655E+03  0.10464788051E+04  0.50400001928E-02 0. -1.
</event>
<event>
 5   0  0.6114266E-04  0.1395002E+04  0.7818609E-02  0.8957444E-01
       -1   -1    0    0    0  501  0.00000000000E+00  0.00000000000E+00  0.28763474659E+03  0.28763474663E+03  0.50400001928E-02 0. -1.
        1   -1    0    0  501    0  0.00000000000E+00  0.00000000000E+00 -0.16914072899E+04  0.16914072899E+04  0.50400001928E-02 0.  1.
    10030    2    1    2    0    0  0.00000000000E+00  0.00000000000E+00 -0.14037725433E+04  0.19790420365E+04  0.13950018025E+04 0.  0.
        3    1    3    3  502    0 -0.21972352599E+03  0.30721156037E+03 -0.15337742426E+04  0.15795951406E+04  0.10100000352E+00 0.  1.
       -3    1    3    3    0  502  0.21972352599E+03 -0.30721156037E+03  0.13000169926E+03  0.39944689598E+03  0.10100000352E+00 0. -1.
</event>
<event>
 5   0  0.1120053E-03  0.1392607E+04  0.7818609E-02  0.8959188E-01
       -2   -1    0    0    0  501  0.00000000000E+00  0.00000000000E+00  0.51089281152E+03  0.51089281153E+03  0.25500000920E-02 0. -1.
        2   -1    0    0  501    0  0.00000000000E+00  0.00000000000E+00 -0.94900210457E+03  0.94900210457E+03  0.25500000920E-02 0.  1.
    10030    2    1    2    0    0  0.00000000000E+00  0.00000000000E+00 -0.43810929305E+03  0.14598949161E+04  0.13926066973E+04 0.  0.
        2    1    3    3  502    0 -0.23555332860E+03 -0.48228838785E+03 -0.68405306262E+03  0.86949183559E+03  0.25500000920E-02 0.  1.
       -2    1    3    3    0  502  0.23555332860E+03  0.48228838785E+03  0.24594376958E+03  0.59040308051E+03  0.25500000920E-02 0. -1.
</event>
<event>
 5   0  0.1108819E-03  0.1402420E+04  0.7818609E-02  0.8952069E-01
       -2   -1    0    0    0  501  0.00000000000E+00  0.00000000000E+00  0.47383170846E+03  0.47383170847E+03  0.25500000920E-02 0.  1.
        2   -1    0    0  501    0  0.00000000000E+00  0.00000000000E+00 -0.10377005556E+04  0.10377005556E+04  0.25500000920E-02 0. -1.
    10030    2    1    2    0    0  0.00000000000E+00  0.00000000000E+00 -0.56386884717E+03  0.15115322641E+04  0.14024199473E+04 0.  0.
        3    1    3    3  502    0  0.12787448876E+03  0.65179167332E+03 -0.39701620250E+02  0.66540250912E+03  0.10100000352E+00 0. -1.
       -3    1    3    3    0  502 -0.12787448876E+03 -0.65179167332E+03 -0.52416722692E+03  0.84612975498E+03  0.10100000352E+00 0.  1.
</event>
<event>
 5   0  0.1175146E-03  0.1400664E+04  0.7818609E-02  0.8953338E-01
        2   -1    0    0  501    0  0.00000000000E+00  0.00000000000E+00  0.19021920008E+04  0.19021920008E+04  0.25500000920E-02 0. -1.
       -2   -1    0    0    0  501  0.00000000000E+00  0.00000000000E+00 -0.25784192733E+03  0.25784192734E+03  0.25500000920E-02 0.  1.
    10030    2    1    2    0    0  0.00000000000E+00  0.00000000000E+00  0.16443500735E+04  0.21600339281E+04  0.14006639164E+04 0.  0.
        1    1    3    3  502    0 -0.74555078974E+02 -0.25003536135E+03 -0.18009046680E+03  0.31703109940E+03  0.50400001928E-02 0.  1.
       -1    1    3    3    0  502  0.74555078974E+02  0.25003536135E+03  0.18244405403E+04  0.18430028287E+04  0.50400001928E-02 0. -1.
</event>
<event>
 5   0  0.1095119E-03  0.1393456E+04  0.7818609E-02  0.8958569E-01
        2   -1    0    0  501    0  0.00000000000E+00  0.00000000000E+00  0.14550577254E+04  0.14550577254E+04  0.25500000920E-02 0.  1.
       -2   -1    0    0    0  501  0.00000000000E+00  0.00000000000E+00 -0.33361535059E+03  0.33361535060E+03  0.25500000920E-02 0. -1.
    10030    2    1    2    0    0  0.00000000000E+00  0.00000000000E+00  0.11214423748E+04  0.17886730760E+04  0.13934555511E+04 0.  0.
        5    1    3    3  502    0  0.35430524700E+03  0.19880086416E+03  0.12872495853E+04  0.13498472419E+04  0.46999998093E+01 0.  1.
       -5    1    3    3    0  502 -0.35430524700E+03 -0.19880086416E+03 -0.16580721047E+03  0.43882583411E+03  0.46999998093E+01 0. -1.
</event>
<event>
 5   0  0.6194742E-04  0.1402016E+04  0.7818609E-02  0.8952361E-01
        1   -1    0    0  501    0  0.00000000000E+00  0.00000000000E+00  0.52188068108E+03  0.52188068111E+03  0.50400001928E-02 0.  1.
       -1   -1    0    0    0  501  0.00000000000E+00  0.00000000000E+00 -0.94161757487E+03  0.94161757488E+03  0.50400001928E-02 0. -1.
    10030    2    1    2    0    0  0.00000000000E+00  0.00000000000E+00 -0.41973689379E+03  0.14634982560E+04  0.14020157222E+04 0.  0.
        4    1    3    3  502    0  0.58922391225E+03  0.13082485399E+03  0.16229177224E+03  0.62501215463E+03  0.12699999809E+01 0. -1.
       -4    1    3    3    0  502 -0.58922391225E+03 -0.13082485399E+03 -0.58202866603E+03  0.83848610136E+03  0.12699999809E+01 0.  1.
</event>
<event>
 5   0  0.6153318E-04  0.1399170E+04  0.7818609E-02  0.8954419E-01
        1   -1    0    0  501    0  0.00000000000E+00  0.00000000000E+00  0.39547216959E+03  0.39547216963E+03  0.50400001928E-02 0. -1.
       -1   -1    0    0    0  501  0.00000000000E+00  0.00000000000E+00 -0.12375572388E+04  0.12375572388E+04  0.50400001928E-02 0.  1.
    10030    2    1    2    0    0  0.00000000000E+00  0.00000000000E+00 -0.84208506923E+03  0.16330294085E+04  0.13991703917E+04 0.  0.
        5    1    3    3  502    0  0.49476074048E+03 -0.37974952589E+03 -0.51223640470E+02  0.62581454447E+03  0.46999998093E+01 0. -1.
       -5    1    3    3    0  502 -0.49476074048E+03  0.37974952589E+03 -0.79086142876E+03  0.10072148640E+04  0.46999998093E+01 0.  1.
</event>
<event>
 5   0  0.1098949E-03  0.1395733E+04  0.7818609E-02  0.8956913E-01
       -2   -1    0    0    0  501  0.00000000000E+00  0.00000000000E+00  0.46113396961E+03  0.46113396962E+03  0.25500000920E-02 0.  1.
        2   -1    0    0  501    0  0.00000000000E+00  0.00000000000E+00 -0.10561311500E+04  0.10561311500E+04  0.25500000920E-02 0. -1.
    10030    2    1    2    0    0  0.00000000000E+00  0.00000000000E+00 -0.59499718039E+03  0.15172651196E+04  0.13957334268E+04 0.  0.
        4    1    3    3  502    0  0.50099935482E+03 -0.17239605576E+03 -0.79124500959E+03  0.95225575959E+03  0.12699999809E+01 0. -1.
       -4    1    3    3    0  502 -0.50099935482E+03  0.17239605576E+03  0.19624782919E+03  0.56500936004E+03  0.12699999809E+01 0.  1.
</event>
<event>
 5   0  0.6194742E-04  0.1396162E+04  0.7818609E-02  0.8956601E-01
       -1   -1    0    0    0  501  0.00000000000E+00  0.00000000000E+00  0.81801567138E+03  0.81801567140E+03  0.50400001928E-02 0.  1.
        1   -1    0    0  501    0  0.00000000000E+00  0.00000000000E+00 -0.59573068571E+03  0.59573068573E+03  0.50400001928E-02 0. -1.
    10030    2    1    2    0    0  0.00000000000E+00  0.00000000000E+00  0.22228498567E+03  0.14137463571E+04  0.13961619345E+04 0.  0.
        4    1    3    3  502    0  0.53073569737E+03  0.45322305514E+03  0.12629443751E+03  0.70925553647E+03  0.12699999809E+01 0. -1.
       -4    1    3    3    0  502 -0.53073569737E+03 -0.45322305514E+03  0.95990548166E+02  0.70449082066E+03  0.12699999809E+01 0.  1.
</event>
<event>
 5   0  0.5875298E-04  0.1405140E+04  0.7818609E-02  0.8950107E-01
        1   -1    0    0  501    0  0.00000000000E+00  0.00000000000E+00  0.14848156899E+04  0.14848156899E+04  0.50400001928E-02 0.  1.
       -1   -1    0    0    0  501  0.00000000000E+00  0.00000000000E+00 -0.33243482201E+03  0.33243482205E+03  0.50400001928E-02 0. -1.
    10030    2    1    2    0    0  0.00000000000E+00  0.00000000000E+00  0.11523808679E+04  0.18172505119E+04  0.14051397648E+04 0.  0.
        1    1    3    3  502    0  0.16963612012E+03  0.53672128903E+02 -0.30281489048E+03  0.35121783638E+03  0.50400001928E-02 0. -1.
       -1    1    3    3    0  502 -0.16963612012E+03 -0.53672128903E+02  0.14551957583E+04  0.14660326756E+04  0.50400001928E-02 0.  1.
</event>
<event>
 5   0  0.1175146E-03  0.1437480E+04  0.7818609E-02  0.8927127E-01
       -2   -1    0    0    0  501  0.00000000000E+00  0.00000000000E+00  0.33205507662E+03  0.33205507663E+03  0.25500000920E-02 0. -1.
        2   -1    0    0  501    0  0.00000000000E+00  0.00000000000E+00 -0.15557266428E+04  0.15557266428E+04  0.25500000920E-02 0.  1.
    10030    2    1    2    0    0  0.00000000000E+00  0.00000000000E+00 -0.12236715661E+04  0.18877817194E+04  0.14374796410E+04 0.  0.
        1    1    3    3  502    0 -0.47393674767E+03  0.68082846406E+02 -0.13157906299E+04  0.14001986632E+04  0.50400001928E-02 0.  1.
       -1    1    3    3    0  502  0.47393674767E+03 -0.68082846406E+02  0.92119063716E+02  0.48758305620E+03  0.50400001928E-02 0. -1.
</event>
<event>
 5   0  0.6153318E-04  0.1415890E+04  0.7818609E-02  0.8942396E-01
       -1   -1    0    0    0  501  0.00000000000E+00  0.00000000000E+00  0.80223828420E+03  0.80223828421E+03  0.50400001928E-02 0.  1.
        1   -1    0    0  501    0  0.00000000000E+00  0.00000000000E+00 -0.62473468473E+03  0.62473468475E+03  0.50400001928E-02 0. -1.
    10030    2    1    2    0    0  0.00000000000E+00  0.00000000000E+00  0.17750359947E+03  0.14269729690E+04  0.14158899415E+04 0.  0.
        5    1    3    3  502    0  0.52224286763E+02  0.71670250643E+02 -0.61909912453E+03  0.62543570169E+03  0.46999998093E+01 0. -1.
       -5    1    3    3    0  502 -0.52224286763E+02 -0.71670250643E+02  0.79660272400E+03  0.80153726728E+03  0.46999998093E+01 0.  1.
</event>
<event>
 5   0  0.1098949E-03  0.1351015E+04  0.7818609E-02  0.8990060E-01
        2   -1    0    0  501    0  0.00000000000E+00  0.00000000000E+00  0.16696281849E+04  0.16696281849E+04  0.25500000920E-02 0.  1.
       -2   -1    0    0    0  501  0.00000000000E+00  0.00000000000E+00 -0.27330050956E+03  0.27330050957E+03  0.25500000920E-02 0. -1.
    10030    2    1    2    0    0  0.00000000000E+00  0.00000000000E+00  0.13963276754E+04  0.19429286945E+04  0.13510147797E+04 0.  0.
        4    1    3    3  502    0  0.62380433285E+03 -0.21155000617E+03  0.91351499209E+03  0.11262311062E+04  0.12699999809E+01 0.  1.
       -4    1    3    3    0  502 -0.62380433285E+03  0.21155000617E+03  0.48281268329E+03  0.81669758837E+03  0.12699999809E+01 0. -1.
</event>
<event>
 5   0  0.1175146E-03  0.1419425E+04  0.7818609E-02  0.8939877E-01
        2   -1    0    0  501    0  0.00000000000E+00  0.00000000000E+00  0.60368089424E+03  0.60368089424E+03  0.25500000920E-02 0.  1.
       -2   -1    0    0    0  501  0.00000000000E+00  0.00000000000E+00 -0.83436739401E+03  0.83436739401E+03  0.25500000920E-02 0. -1.
    10030    2    1    2    0    0  0.00000000000E+00  0.00000000000E+00 -0.23068649977E+03  0.14380482883E+04  0.14194247490E+04 0.  0.
        1    1    3    3  502    0 -0.32647355711E+03 -0.28472848194E+03  0.45420382209E+03  0.62765946495E+03  0.50400001928E-02 0.  1.
       -1    1    3    3    0  502  0.32647355711E+03  0.28472848194E+03 -0.68489032186E+03  0.81038882330E+03  0.50400001928E-02 0. -1.
</event>
<event>
 5   0  0.1108819E-03  0.1410300E+04  0.7818609E-02  0.8946396E-01
       -2   -1    0    0    0  501  0.00000000000E+00  0.00000000000E+00  0.39887311247E+03  0.39887311248E+03  0.25500000920E-02 0. -1.
        2   -1    0    0  501    0  0.00000000000E+00  0.00000000000E+00 -0.12466034631E+04  0.12466034631E+04  0.25500000920E-02 0.  1.
    10030    2    1    2    0    0  0.00000000000E+00  0.00000000000E+00 -0.84773035065E+03  0.16454765756E+04  0.14103001147E+04 0.  0.
        3    1    3    3  502    0 -0.48777065922E+03 -0.31139983876E+02  0.16917157076E+03  0.51721266916E+03  0.10100000352E+00 0. -1.
       -3    1    3    3    0  502  0.48777065922E+03  0.31139983876E+02 -0.10169019214E+04  0.11282639064E+04  0.10100000352E+00 0.  1.
</event>
<event>
 5   0  0.1120053E-03  0.1407623E+04  0.7818609E-02  0.8948319E-01
       -2   -1    0    0    0  501  0.00000000000E+00  0.00000000000E+00  0.28049916471E+03  0.28049916472E+03  0.25500000920E-02 0. -1.
        2   -1    0    0  501    0  0.00000000000E+00  0.00000000000E+00 -0.17659622444E+04  0.17659622444E+04  0.25500000920E-02 0.  1.
    10030    2    1    2    0    0  0.00000000000E+00  0.00000000000E+00 -0.14854630797E+04  0.20464614092E+04  0.14076234361E+04 0.  0.
        2    1    3    3  502    0  0.12223976572E+03 -0.40673186383E+03  0.73205936907E+02  0.43096691124E+03  0.25500000920E-02 0. -1.
       -2    1    3    3    0  502 -0.12223976572E+03  0.40673186383E+03 -0.15586690166E+04  0.16154944979E+04  0.25500000920E-02 0.  1.
</event>
<event>
 5   0  0.1175146E-03  0.1420453E+04  0.7818609E-02  0.8939145E-01
        2   -1    0    0  501    0  0.00000000000E+00  0.00000000000E+00  0.11965624881E+04  0.11965624881E+04  0.25500000920E-02 0. -1.
       -2   -1    0    0    0  501  0.00000000000E+00  0.00000000000E+00 -0.42155886935E+03  0.42155886936E+03  0.25500000920E-02 0.  1.
    10030    2    1    2    0    0  0.00000000000E+00  0.00000000000E+00  0.77500361873E+03  0.16181213574E+04  0.14204527864E+04 0.  0.
        1    1    3    3  502    0  0.30068806998E+03 -0.31858604764E+03  0.10243223186E+04  0.11140675911E+04  0.50400001928E-02 0. -1.
       -1    1    3    3    0  502 -0.30068806998E+03  0.31858604764E+03 -0.24931869989E+03  0.50405376630E+03  0.50400001928E-02 0.  1.
</event>
<event>
 5   0  0.1095119E-03  0.1399784E+04  0.7818609E-02  0.8953975E-01
        2   -1    0    0  501    0  0.00000000000E+00  0.00000000000E+00  0.25805264768E+03  0.25805264769E+03  0.25500000920E-02 0.  1.
       -2   -1    0    0    0  501  0.00000000000E+00  0.00000000000E+00 -0.18982524186E+04  0.18982524186E+04  0.25500000920E-02 0. -1.
    10030    2    1    2    0    0  0.00000000000E+00  0.00000000000E+00 -0.16401997709E+04  0.21563050663E+04  0.13997843585E+04 0.  0.
        5    1    3    3  502    0 -0.27976064179E+03  0.13447396730E+03  0.14619378210E+03  0.34313842177E+03  0.46999998093E+01 0.  1.
       -5    1    3    3    0  502  0.27976064179E+03 -0.13447396730E+03 -0.17863935530E+04  0.18131666445E+04  0.46999998093E+01 0. -1.
</event>
<event>
 5   0  0.1120053E-03  0.1401767E+04  0.7818609E-02  0.8952541E-01
        2   -1    0    0  501    0  0.00000000000E+00  0.00000000000E+00  0.93329909798E+03  0.93329909799E+03  0.25500000920E-02 0.  1.
       -2   -1    0    0    0  501  0.00000000000E+00  0.00000000000E+00 -0.52634528722E+03  0.52634528723E+03  0.25500000920E-02 0. -1.
    10030    2    1    2    0    0  0.00000000000E+00  0.00000000000E+00  0.40695381076E+03  0.14596443852E+04  0.14017668591E+04 0.  0.
        2    1    3    3  502    0  0.27002255671E+03 -0.49578924612E+03 -0.22902598496E+03  0.60923891824E+03  0.25500000920E-02 0. -1.
       -2    1    3    3    0  502 -0.27002255671E+03  0.49578924612E+03  0.63597979572E+03  0.85040546698E+03  0.25500000920E-02 0.  1.
</event>
<event>
 5   0  0.6114266E-04  0.1304924E+04  0.7818609E-02  0.9025670E-01
        1   -1    0    0  501    0  0.00000000000E+00  0.00000000000E+00  0.92610560829E+03  0.92610560830E+03  0.50400001928E-02 0. -1.
       -1   -1    0    0    0  501  0.00000000000E+00  0.00000000000E+00 -0.45967385597E+03  0.45967385599E+03  0.50400001928E-02 0.  1.
    10030    2    1    2    0    0  0.00000000000E+00  0.00000000000E+00  0.46643175232E+03  0.13857794643E+04  0.13049238078E+04 0.  0.
        3    1    3    3  502    0 -0.17969765932E+03 -0.58929571009E+03  0.46134212498E+03  0.76967346919E+03  0.10100000352E+00 0. -1.
       -3    1    3    3    0  502  0.17969765932E+03  0.58929571009E+03  0.50896273423E+01  0.61610599510E+03  0.10100000352E+00 0.  1.
</event>
<event>
 5   0  0.5875298E-04  0.1403398E+04  0.7818609E-02  0.8951363E-01
        1   -1    0    0  501    0  0.00000000000E+00  0.00000000000E+00  0.54003540292E+03  0.54003540294E+03  0.50400001928E-02 0.  1.
       -1   -1    0    0    0  501  0.00000000000E+00  0.00000000000E+00 -0.91175722209E+03  0.91175722211E+03  0.50400001928E-02 0. -1.
    10030    2    1    2    0    0  0.00000000000E+00  0.00000000000E+00 -0.37172181917E+03  0.14517926251E+04  0.14033975614E+04 0.  0.
        1    1    3    3  502    0 -0.37244290685E+03 -0.13562122361E+03  0.41313523745E+03  0.57252734397E+03  0.50400001928E-02 0.  1.
       -1    1    3    3    0  502  0.37244290685E+03  0.13562122361E+03 -0.78485705662E+03  0.87926528108E+03  0.50400001928E-02 0. -1.
</event>
<event>
 5   0  0.1120053E-03  0.1442948E+04  0.7818609E-02  0.8923304E-01
       -2   -1    0    0    0  501  0.00000000000E+00  0.00000000000E+00  0.46285517991E+03  0.46285517992E+03  0.25500000920E-02 0. -1.
        2   -1    0    0  501    0  0.00000000000E+00  0.00000000000E+00 -0.11245952688E+04  0.11245952688E+04  0.25500000920E-02 0.  1.
    10030    2    1    2    0    0  0.00000000000E+00  0.00000000000E+00 -0.66174008885E+03  0.15874504487E+04  0.14429480177E+04 0.  0.
        2    1    3    3  502    0 -0.39416287263E+02  0.16973837482E+03  0.43935638959E+03  0.47265081896E+03  0.25500000920E-02 0. -1.
       -2    1    3    3    0  502  0.39416287263E+02 -0.16973837482E+03 -0.11010964784E+04  0.11147996297E+04  0.25500000920E-02 0.  1.
</event>
<event>
 5   0  0.1095119E-03  0.1260053E+04  0.7818609E-02  0.9061857E-01
       -2   -1    0    0    0  501  0.00000000000E+00  0.00000000000E+00  0.10124274613E+04  0.10124274613E+04  0.25500000920E-02 0. -1.
        2   -1    0    0  501    0  0.00000000000E+00  0.00000000000E+00 -0.39206120130E+03  0.39206120131E+03  0.25500000920E-02 0.  1.
    10030    2    1    2    0    0  0.00000000000E+00  0.00000000000E+00  0.62036625997E+03  0.14044886626E+04  0.12600532159E+04 0.  0.
        5    1    3    3  502    0 -0.46281329374E+02  0.62711833131E+03  0.26712804000E+03  0.68322678714E+03  0.46999998093E+01 0.  1.
       -5    1    3    3    0  502  0.46281329374E+02 -0.62711833131E+03  0.35323821997E+03  0.72126187544E+03  0.46999998093E+01 0. -1.
</event>
<event>
 5   0  0.1095119E-03  0.1393723E+04  0.7818609E-02  0.8958375E-01
       -2   -1    0    0    0  501  0.00000000000E+00  0.00000000000E+00  0.42225482003E+03  0.42225482004E+03  0.25500000920E-02 0.  1.
        2   -1    0    0  501    0  0.00000000000E+00  0.00000000000E+00 -0.11500538760E+04  0.11500538760E+04  0.25500000920E-02 0. -1.
    10030    2    1    2    0    0  0.00000000000E+00  0.00000000000E+00 -0.72779905601E+03  0.15723086961E+04  0.13937227737E+04 0.  0.
        5    1    3    3  502    0  0.35210124998E+03 -0.33896930841E+03  0.19645389801E+03  0.52677481557E+03  0.46999998093E+01 0.  1.
       -5    1    3    3    0  502 -0.35210124998E+03  0.33896930841E+03 -0.92425295402E+03  0.10455338805E+04  0.46999998093E+01 0. -1.
</event>
<event>
 5   0  0.6194742E-04  0.1410182E+04  0.7818609E-02  0.8946481E-01
        1   -1    0    0  501    0  0.00000000000E+00  0.00000000000E+00  0.11967757268E+04  0.11967757268E+04  0.50400001928E-02 0.  1.
       -1   -1    0    0    0  501  0.00000000000E+00  0.00000000000E+00 -0.41541071155E+03  0.41541071158E+03  0.50400001928E-02 0. -1.
    10030    2    1    2    0    0  0.00000000000E+00  0.00000000000E+00  0.78136501528E+03  0.16121864384E+04  0.14101821957E+04 0.  0.
        4    1    3    3  502    0  0.11413380418E+03 -0.43495301436E+03  0.10115626257E+04  0.11070100309E+04  0.12699999809E+01 0.  1.
       -4    1    3    3    0  502 -0.11413380418E+03  0.43495301436E+03 -0.23019761042E+03  0.50517640750E+03  0.12699999809E+01 0. -1.
</event>
<event>
 5   0  0.6153318E-04  0.1400099E+04  0.7818609E-02  0.8953747E-01
       -1   -1    0    0    0  501  0.00000000000E+00  0.00000000000E+00  0.11980847459E+04  0.11980847459E+04  0.50400001928E-02 0.  1.
        1   -1    0    0  501    0  0.00000000000E+00  0.00000000000E+00 -0.40904391765E+03  0.40904391768E+03  0.50400001928E-02 0. -1.
    10030    2    1    2    0    0  0.00000000000E+00  0.00000000000E+00  0.78904082828E+03  0.16071286636E+04  0.14000989653E+04 0.  0.
        5    1    3    3  502    0  0.34825946173E+02  0.45224014171E+03 -0.21753454461E+03  0.50306794809E+03  0.46999998093E+01 0. -1.
       -5    1    3    3    0  502 -0.34825946173E+02 -0.45224014171E+03  0.10065753729E+04  0.11040607155E+04  0.46999998093E+01 0.  1.
</event>
<event>
 5   0  0.1175146E-03  0.1402230E+04  0.7818609E-02  0.8952206E-01
        2   -1    0    0  501    0  0.00000000000E+00  0.00000000000E+00  0.13492613006E+04  0.13492613006E+04  0.25500000920E-02 0.  1.
       -2   -1    0    0    0  501  0.00000000000E+00  0.00000000000E+00 -0.36431963523E+03  0.36431963524E+03  0.25500000920E-02 0. -1.
    10030    2    1    2    0    0  0.00000000000E+00  0.00000000000E+00  0.98494166533E+03  0.17135809358E+04  0.14022302020E+04 0.  0.
        1    1    3    3  502    0 -0.21525606918E+03 -0.54007151725E+03  0.97133260310E+03  0.11320333232E+04  0.50400001928E-02 0.  1.
       -1    1    3    3    0  502  0.21525606918E+03  0.54007151725E+03  0.13609062234E+02  0.58154761255E+03  0.50400001928E-02 0. -1.
</event>
<event>
 5   0  0.1098949E-03  0.1356609E+04  0.7818609E-02  0.8985840E-01
       -2   -1    0    0    0  501  0.00000000000E+00  0.00000000000E+00  0.39965808903E+03  0.39965808904E+03  0.25500000920E-02 0. -1.
        2   -1    0    0  501    0  0.00000000000E+00  0.00000000000E+00 -0.11512273591E+04  0.11512273591E+04  0.25500000920E-02 0.  1.
    10030    2    1    2    0    0  0.00000000000E+00  0.00000000000E+00 -0.75156927012E+03  0.15508854482E+04  0.13566094890E+04 0.  0.
        4    1    3    3  502    0 -0.41372025636E+03  0.41644055292E+03 -0.76432120058E+03  0.96373009458E+03  0.12699999809E+01 0.  1.
       -4    1    3    3    0  502  0.41372025636E+03 -0.41644055292E+03  0.12751930462E+02  0.58715535361E+03  0.12699999809E+01 0. -1.
</event>
<event>
 5   0  0.1120053E-03  0.1167920E+04  0.7818609E-02  0.9141409E-01
       -2   -1    0    0    0  501  0.00000000000E+00  0.00000000000E+00  0.27798145843E+03  0.27798145845E+03  0.25500000920E-02 0.  1.
        2   -1    0    0  501    0  0.00000000000E+00  0.00000000000E+00 -0.12267338859E+04  0.12267338859E+04  0.25500000920E-02 0. -1.
    10030    2    1    2    0    0  0.00000000000E+00  0.00000000000E+00 -0.94875242749E+03  0.15047153444E+04  0.11679199882E+04 0.  0.
        2    1    3    3  502    0 -0.15128935682E+03  0.27901846573E+03 -0.11059012635E+04  0.11505465564E+04  0.25500000920E-02 0. -1.
       -2    1    3    3    0  502  0.15128935682E+03 -0.27901846573E+03  0.15714883606E+03  0.35416878798E+03  0.25500000920E-02 0.  1.
</event>
<event>
 5   0  0.1120053E-03  0.1361181E+04  0.7818609E-02  0.8982407E-01
       -2   -1    0    0    0  501  0.00000000000E+00  0.00000000000E+00  0.45781999928E+03  0.45781999929E+03  0.25500000920E-02 0. -1.
        2   -1    0    0  501    0  0.00000000000E+00  0.00000000000E+00 -0.10117582183E+04  0.10117582183E+04  0.25500000920E-02 0.  1.
    10030    2    1    2    0    0  0.00000000000E+00  0.00000000000E+00 -0.55393821903E+03  0.14695782176E+04  0.13611805858E+04 0.  0.
        2    1    3    3  502    0 -0.61941292824E+03 -0.28040281988E+03 -0.30944853795E+03  0.74703180302E+03  0.25500000920E-02 0. -1.
       -2    1    3    3    0  502  0.61941292824E+03  0.28040281988E+03 -0.24448968108E+03  0.72254641459E+03  0.25500000920E-02 0.  1.
</event>
<event>
 5   0  0.6097538E-04  0.1404687E+04  0.7818609E-02  0.8950433E-01
       -1   -1    0    0    0  501  0.00000000000E+00  0.00000000000E+00  0.83383213358E+03  0.83383213359E+03  0.50400001928E-02 0. -1.
        1   -1    0    0  501    0  0.00000000000E+00  0.00000000000E+00 -0.59158957492E+03  0.59158957494E+03  0.50400001928E-02 0.  1.
    10030    2    1    2    0    0  0.00000000000E+00  0.00000000000E+00  0.24224255866E+03  0.14254217085E+04  0.14046870078E+04 0.  0.
        2    1    3    3  502    0 -0.53352662474E+03  0.41284049473E+03 -0.77207963284E+02  0.67900589320E+03  0.25500000920E-02 0.  1.
       -2    1    3    3    0  502  0.53352662474E+03 -0.41284049473E+03  0.31945052195E+03  0.74641581533E+03  0.25500000920E-02 0. -1.
</event>
<event>
 5   0  0.6114266E-04  0.1456115E+04  0.7818609E-02  0.8914172E-01
        1   -1    0    0  501    0  0.00000000000E+00  0.00000000000E+00  0.79826542955E+03  0.79826542957E+03  0.50400001928E-02 0.  1.
       -1   -1    0    0    0  501  0.00000000000E+00  0.00000000000E+00 -0.66402410618E+03  0.66402410620E+03  0.50400001928E-02 0. -1.
    10030    2    1    2    0    0  0.00000000000E+00  0.00000000000E+00  0.13424132338E+03  0.14622895358E+04  0.14561146773E+04 0.  0.
        3    1    3    3  502    0 -0.39940072580E+03 -0.60810574058E+03  0.94695191147E+02  0.73367616897E+03  0.10100000352E+00 0. -1.
       -3    1    3    3    0  502  0.39940072580E+03  0.60810574058E+03  0.39546132232E+02  0.72861336679E+03  0.10100000352E+00 0.  1.
</event>
<event>
 5   0  0.1095119E-03  0.1398794E+04  0.7818609E-02  0.8954692E-01
        2   -1    0    0  501    0  0.00000000000E+00  0.00000000000E+00  0.13483964837E+04  0.13483964837E+04  0.25500000920E-02 0. -1.
       -2   -1    0    0    0  501  0.00000000000E+00  0.00000000000E+00 -0.36276861320E+03  0.36276861321E+03  0.25500000920E-02 0.  1.
    10030    2    1    2    0    0  0.00000000000E+00  0.00000000000E+00  0.98562787049E+03  0.17111650969E+04  0.13987936552E+04 0.  0.
        5    1    3    3  502    0  0.16448175698E+03  0.66553462810E+03  0.32355717874E+03  0.75809097573E+03  0.46999998093E+01 0. -1.
       -5    1    3    3    0  502 -0.16448175698E+03 -0.66553462810E+03  0.66207069175E+03  0.95307412117E+03  0.46999998093E+01 0.  1.
</event>
<event>
 5   0  0.1175146E-03  0.1408080E+04  0.7818609E-02  0.8947990E-01
        2   -1    0    0  501    0  0.00000000000E+00  0.00000000000E+00  0.15688621806E+04  0.15688621806E+04  0.25500000920E-02 0. -1.
       -2   -1    0    0    0  501  0.00000000000E+00  0.00000000000E+00 -0.31594390122E+03  0.31594390123E+03  0.25500000920E-02 0.  1.
    10030    2    1    2    0    0  0.00000000000E+00  0.00000000000E+00  0.12529182794E+04  0.18848060819E+04  0.14080801651E+04 0.  0.
        1    1    3    3  502    0 -0.57078984854E+03  0.36066743045E+03  0.89346967552E+03  0.11198973648E+04  0.50400001928E-02 0. -1.
       -1    1    3    3    0  502  0.57078984854E+03 -0.36066743045E+03  0.35944860389E+03  0.76490871707E+03  0.50400001928E-02 0.  1.
</event>
<event>
 5   0  0.6194742E-04  0.1423884E+04  0.7818609E-02  0.8936709E-01
        1   -1    0    0  501    0  0.00000000000E+00  0.00000000000E+00  0.72675475025E+03  0.72675475027E+03  0.50400001928E-02 0. -1.
       -1   -1    0    0    0  501  0.00000000000E+00  0.00000000000E+00 -0.69743162244E+03  0.69743162246E+03  0.50400001928E-02 0.  1.
    10030    2    1    2    0    0  0.00000000000E+00  0.00000000000E+00  0.29323127807E+02  0.14241863727E+04  0.14238844681E+04 0.  0.
        4    1    3    3  502    0 -0.36342036654E+03 -0.38401445237E+03  0.49154213148E+03  0.72191186607E+03  0.12699999809E+01 0. -1.
       -4    1    3    3    0  502  0.36342036654E+03  0.38401445237E+03 -0.46221900368E+03  0.70227450666E+03  0.12699999809E+01 0.  1.
</event>
<event>
 5   0  0.6114266E-04  0.1415352E+04  0.7818609E-02  0.8942780E-01
        1   -1    0    0  501    0  0.00000000000E+00  0.00000000000E+00  0.91611315325E+03  0.91611315326E+03  0.50400001928E-02 0. -1.
       -1   -1    0    0    0  501  0.00000000000E+00  0.00000000000E+00 -0.54666322599E+03  0.54666322601E+03  0.50400001928E-02 0.  1.
    10030    2    1    2    0    0  0.00000000000E+00  0.00000000000E+00  0.36944992726E+03  0.14627763793E+04  0.14153520717E+04 0.  0.
        3    1    3    3  502    0  0.80876559817E+01 -0.75983657148E+02 -0.54238706386E+03  0.54774324604E+03  0.10100000352E+00 0.  1.
       -3    1    3    3    0  502 -0.80876559817E+01  0.75983657148E+02  0.91183699112E+03  0.91503313323E+03  0.10100000352E+00 0. -1.
</event>
<event>
 5   0  0.1095119E-03  0.1396034E+04  0.7818609E-02  0.8956694E-01
       -2   -1    0    0    0  501  0.00000000000E+00  0.00000000000E+00  0.27221134913E+03  0.27221134914E+03  0.25500000920E-02 0. -1.
        2   -1    0    0  501    0  0.00000000000E+00  0.00000000000E+00 -0.17898877184E+04  0.17898877184E+04  0.25500000920E-02 0.  1.
    10030    2    1    2    0    0  0.00000000000E+00  0.00000000000E+00 -0.15176763692E+04  0.20620990675E+04  0.13960340263E+04 0.  0.
        5    1    3    3  502    0  0.48521334748E+03 -0.19189447376E+03 -0.14436676338E+04  0.15350745287E+04  0.46999998093E+01 0.  1.
       -5    1    3    3    0  502 -0.48521334748E+03  0.19189447376E+03 -0.74008735423E+02  0.52702453885E+03  0.46999998093E+01 0. -1.
</event>
<event>
 5   0  0.4176125E-04  0.1393865E+04  0.7818609E-02  0.8958271E-01
        4   -1    0    0  501    0  0.00000000000E+00  0.00000000000E+00  0.51582204840E+03  0.51582361183E+03  0.12699999809E+01 0. -1.
       -4   -1    0    0    0  501  0.00000000000E+00  0.00000000000E+00 -0.94162943860E+03  0.94163029504E+03  0.12699999809E+01 0.  1.
    10030    2    1    2    0    0  0.00000000000E+00  0.00000000000E+00 -0.42580739020E+03  0.14574539069E+04  0.13938651144E+04 0.  0.
        4    1    3    3  502    0 -0.93156989082E+02 -0.65749082521E+03  0.82665814085E+01  0.66411020104E+03  0.12699999809E+01 0. -1.
       -4    1    3    3    0  502  0.93156989082E+02  0.65749082521E+03 -0.43407397161E+03  0.79334370583E+03  0.12699999809E+01 0.  1.
</event>
<event>
 5   0  0.1120053E-03  0.1418606E+04  0.7818609E-02  0.8940459E-01
        2   -1    0    0  501    0  0.00000000000E+00  0.00000000000E+00  0.39004593941E+03  0.39004593942E+03  0.25500000920E-02 0.  1.
       -2   -1    0    0    0  501  0.00000000000E+00  0.00000000000E+00 -0.12898759781E+04  0.12898759781E+04  0.25500000920E-02 0. -1.
    10030    2    1    2    0    0  0.00000000000E+00  0.00000000000E+00 -0.89983003873E+03  0.16799219176E+04  0.14186061999E+04 0.  0.
        2    1    3    3  502    0  0.62263048717E+03  0.26752814312E+02 -0.85102089354E+03  0.10548085124E+04  0.25500000920E-02 0. -1.
       -2    1    3    3    0  502 -0.62263048717E+03 -0.26752814312E+02 -0.48809145190E+02  0.62511340515E+03  0.25500000920E-02 0.  1.
</event>
<event>
 5   0  0.1098949E-03  0.1667521E+04  0.7818609E-02  0.8780108E-01
       -2   -1    0    0    0  501  0.00000000000E+00  0.00000000000E+00  0.49735908217E+03  0.49735908218E+03  0.25500000920E-02 0. -1.
        2   -1    0    0  501    0  0.00000000000E+00  0.00000000000E+00 -0.13976953376E+04  0.13976953376E+04  0.25500000920E-02 0.  1.
    10030    2    1    2    0    0  0.00000000000E+00  0.00000000000E+00 -0.90033625543E+03  0.18950544198E+04  0.16675208787E+04 0.  0.
        4    1    3    3  502    0  0.10081298596E+03 -0.28648671086E+03 -0.13325958783E+04  0.13667667253E+04  0.12699999809E+01 0.  1.
       -4    1    3    3    0  502 -0.10081298596E+03  0.28648671086E+03  0.43225962289E+03  0.52828769446E+03  0.12699999809E+01 0. -1.
</event>
<event>
 5   0  0.5875298E-04  0.1362987E+04  0.7818609E-02  0.8981055E-01
        1   -1    0    0  501    0  0.00000000000E+00  0.00000000000E+00  0.62292776433E+03  0.62292776435E+03  0.50400001928E-02 0.  1.
       -1   -1    0    0    0  501  0.00000000000E+00  0.00000000000E+00 -0.74556492578E+03  0.74556492580E+03  0.50400001928E-02 0. -1.
    10030    2    1    2    0    0  0.00000000000E+00  0.00000000000E+00 -0.12263716145E+03  0.13684926902E+04  0.13629865625E+04 0.  0.
        1    1    3    3  502    0 -0.20978851109E+03  0.41574845970E+03 -0.56089781918E+03  0.72901602500E+03  0.50400001928E-02 0. -1.
       -1    1    3    3    0  502  0.20978851109E+03 -0.41574845970E+03  0.43826065773E+03  0.63947666515E+03  0.50400001928E-02 0.  1.
</event>
<event>
 5   0  0.5875298E-04  0.1412571E+04  0.7818609E-02  0.8944769E-01
        1   -1    0    0  501    0  0.00000000000E+00  0.00000000000E+00  0.10143417144E+04  0.10143417144E+04  0.50400001928E-02 0.  1.
       -1   -1    0    0    0  501  0.00000000000E+00  0.00000000000E+00 -0.49178586434E+03  0.49178586437E+03  0.50400001928E-02 0. -1.
    10030    2    1    2    0    0  0.00000000000E+00  0.00000000000E+00  0.52255585005E+03  0.15061275788E+04  0.14125705884E+04 0.  0.
        1    1    3    3  502    0 -0.31654356495E+03  0.37031518730E+03  0.80652359220E+03  0.94223854265E+03  0.50400001928E-02 0.  1.
       -1    1    3    3    0  502  0.31654356495E+03 -0.37031518730E+03 -0.28396774214E+03  0.56388903612E+03  0.50400001928E-02 0. -1.
</event>
<event>
 5   0  0.6114266E-04  0.1401617E+04  0.7818609E-02  0.8952649E-01
        1   -1    0    0  501    0  0.00000000000E+00  0.00000000000E+00  0.41019144629E+03  0.41019144632E+03  0.50400001928E-02 0.  1.
       -1   -1    0    0    0  501  0.00000000000E+00  0.00000000000E+00 -0.11973244857E+04  0.11973244857E+04  0.50400001928E-02 0. -1.
    10030    2    1    2    0    0  0.00000000000E+00  0.00000000000E+00 -0.78713303936E+03  0.16075159320E+04  0.14016165845E+04 0.  0.
        3    1    3    3  502    0  0.35662446300E+02  0.63221530826E+02 -0.11930015721E+04  0.11952077365E+04  0.10100000352E+00 0. -1.
       -3    1    3    3    0  502 -0.35662446300E+02 -0.63221530826E+02  0.40586853274E+03  0.41230819553E+03  0.10100000352E+00 0.  1.
</event>
<event>
 5   0  0.1175146E-03  0.1357894E+04  0.7818609E-02  0.8984874E-01
       -2   -1    0    0    0  501  0.00000000000E+00  0.00000000000E+00  0.37026982853E+03  0.37026982854E+03  0.25500000920E-02 0. -1.
        2   -1    0    0  501    0  0.00000000000E+00  0.00000000000E+00 -0.12449541639E+04  0.12449541639E+04  0.25500000920E-02 0.  1.
    10030    2    1    2    0    0  0.00000000000E+00  0.00000000000E+00 -0.87468433540E+03  0.16152239925E+04  0.13578939057E+04 0.  0.
        1    1    3    3  502    0  0.13167100859E+03 -0.17100421685E+03 -0.12030642426E+04  0.12222697201E+04  0.50400001928E-02 0.  1.
       -1    1    3    3    0  502 -0.13167100859E+03  0.17100421685E+03  0.32837990724E+03  0.39295427238E+03  0.50400001928E-02 0. -1.
</event>
<event>
 5   0  0.4176125E-04  0.1405458E+04  0.7818609E-02  0.8949877E-01
       -3   -1    0    0    0  501  0.00000000000E+00  0.00000000000E+00  0.35932844266E+03  0.35932845685E+03  0.10100000352E+00 0.  1.
        3   -1    0    0  501    0  0.00000000000E+00  0.00000000000E+00 -0.13743080955E+04  0.13743080992E+04  0.10100000352E+00 0. -1.
    10030    2    1    2    0    0  0.00000000000E+00  0.00000000000E+00 -0.10149796529E+04  0.17336365561E+04  0.14054579371E+04 0.  0.
        3    1    3    3  502    0  0.14856495416E+02  0.51852325034E+03  0.77275047683E+02  0.52446021755E+03  0.10100000352E+00 0.  1.
       -3    1    3    3    0  502 -0.14856495416E+02 -0.51852325034E+03 -0.10922547005E+04  0.12091763385E+04  0.10100000352E+00 0. -1.
</event>
<event>
 5   0  0.1098949E-03  0.1430413E+04  0.7818609E-02  0.8932093E-01
        2   -1    0    0  501    0  0.00000000000E+00  0.00000000000E+00  0.47895143798E+03  0.47895143799E+03  0.25500000920E-02 0. -1.
       -2   -1    0    0    0  501  0.00000000000E+00  0.00000000000E+00 -0.10680007113E+04  0.10680007113E+04  0.25500000920E-02 0.  1.
    10030    2    1    2    0    0  0.00000000000E+00  0.00000000000E+00 -0.58904927335E+03  0.15469521493E+04  0.14304131941E+04 0.  0.
        4    1    3    3  502    0  0.45969117707E+03  0.30869950643E+03 -0.78407153148E+03  0.95988600517E+03  0.12699999809E+01 0.  1.
       -4    1    3    3    0  502 -0.45969117707E+03 -0.30869950643E+03  0.19502225813E+03  0.58706614416E+03  0.12699999809E+01 0. -1.
</event>
<event>
 5   0  0.6194742E-04  0.1405552E+04  0.7818609E-02  0.8949810E-01
       -1   -1    0    0    0  501  0.00000000000E+00  0.00000000000E+00  0.37782850757E+03  0.37782850760E+03  0.50400001928E-02 0. -1.
        1   -1    0    0  501    0  0.00000000000E+00  0.00000000000E+00 -0.13071906621E+04  0.13071906621E+04  0.50400001928E-02 0.  1.
    10030    2    1    2    0    0  0.00000000000E+00  0.00000000000E+00 -0.92936215454E+03  0.16850191697E+04  0.14055517024E+04 0.  0.
        4    1    3    3  502    0 -0.46800587800E+03  0.52197150732E+03 -0.40584633540E+03  0.81005963803E+03  0.12699999809E+01 0. -1.
       -4    1    3    3    0  502  0.46800587800E+03 -0.52197150732E+03 -0.52351581915E+03  0.87495953169E+03  0.12699999809E+01 0.  1.
</event>
<event>
 5   0  0.6153318E-04  0.1406300E+04  0.7818609E-02  0.8949271E-01
       -1   -1    0    0    0  501  0.00000000000E+00  0.00000000000E+00  0.26738877448E+03  0.26738877452E+03  0.50400001928E-02 0. -1.
        1   -1    0    0  501    0  0.00000000000E+00  0.00000000000E+00 -0.18490681050E+04  0.18490681050E+04  0.50400001928E-02 0.  1.
    10030    2    1    2    0    0  0.00000000000E+00  0.00000000000E+00 -0.15816793306E+04  0.21164568796E+04  0.14063001878E+04 0.  0.
        5    1    3    3  502    0 -0.14427549715E+03 -0.67515928503E+03 -0.99130469258E+03  0.12080407952E+04  0.46999998093E+01 0.  1.
       -5    1    3    3    0  502  0.14427549715E+03  0.67515928503E+03 -0.59037463797E+03  0.90841608440E+03  0.46999998093E+01 0. -1.
</event>
<event>
 5   0  0.1175146E-03  0.1392207E+04  0.7818609E-02  0.8959479E-01
       -2   -1    0    0    0  501  0.00000000000E+00  0.00000000000E+00  0.53883082046E+03  0.53883082047E+03  0.25500000920E-02 0. -1.
        2   -1    0    0  501    0  0.00000000000E+00  0.00000000000E+00 -0.89928083215E+03  0.89928083216E+03  0.25500000920E-02 0.  1.
    10030    2    1    2    0    0  0.00000000000E+00  0.00000000000E+00 -0.36045001169E+03  0.14381116526E+04  0.13922072096E+04 0.  0.
        1    1    3    3  502    0 -0.22238654359E+03  0.14899258780E+03 -0.84398969666E+03  0.88542259632E+03  0.50400001928E-02 0.  1.
       -1    1    3    3    0  502  0.22238654359E+03 -0.14899258780E+03  0.48353968497E+03  0.55268905630E+03  0.50400001928E-02 0. -1.
</event>
<event>
 5   0  0.6114266E-04  0.1401753E+04  0.7818609E-02  0.8952551E-01
       -1   -1    0    0    0  501  0.00000000000E+00  0.00000000000E+00  0.28165352854E+03  0.28165352858E+03  0.50400001928E-02 0.  1.
        1   -1    0    0  501    0  0.00000000000E+00  0.00000000000E+00 -0.17440855974E+04  0.17440855974E+04  0.50400001928E-02 0. -1.
    10030    2    1    2    0    0  0.00000000000E+00  0.00000000000E+00 -0.14624320689E+04  0.20257391260E+04  0.14017529920E+04 0.  0.
        3    1    3    3  502    0  0.13251093577E+02  0.44958751558E+03 -0.15080055014E+04  0.15736534333E+04  0.10100000352E+00 0. -1.
       -3    1    3    3    0  502 -0.13251093577E+02 -0.44958751558E+03  0.45573432480E+02  0.45208569276E+03  0.10100000352E+00 0.  1.
</event>
<event>
 5   0  0.1120053E-03  0.1377322E+04  0.7818609E-02  0.8970400E-01
       -2   -1    0    0    0  501  0.00000000000E+00  0.00000000000E+00  0.70348089062E+03  0.70348089062E+03  0.25500000920E-02 0. -1.
        2   -1    0    0  501    0  0.00000000000E+00  0.00000000000E+00 -0.67415299194E+03  0.67415299195E+03  0.25500000920E-02 0.  1.
    10030    2    1    2    0    0  0.00000000000E+00  0.00000000000E+00  0.29327898675E+02  0.13776338826E+04  0.13773216722E+04 0.  0.
        2    1    3    3  502    0  0.55167550127E+03  0.37166266921E+03 -0.16363118740E+03  0.68502128718E+03  0.25500000920E-02 0. -1.
       -2    1    3    3    0  502 -0.55167550127E+03 -0.37166266921E+03  0.19295908608E+03  0.69261259539E+03  0.25500000920E-02 0.  1.
</event>
<event>
 5   0  0.1120053E-03  0.1336256E+04  0.7818609E-02  0.9001298E-01
        2   -1    0    0  501    0  0.00000000000E+00  0.00000000000E+00  0.25808217732E+04  0.25808217732E+04  0.25500000920E-02 0. -1.
       -2   -1    0    0    0  501  0.00000000000E+00  0.00000000000E+00 -0.17296615530E+03  0.17296615532E+03  0.25500000920E-02 0.  1.
    10030    2    1    2    0    0  0.00000000000E+00  0.00000000000E+00  0.24078556179E+04  0.27537879285E+04  0.13362556936E+04 0.  0.
        2    1    3    3  502    0  0.34509624226E+03  0.53555651251E+03  0.78928393197E+03  0.10143378726E+04  0.25500000920E-02 0.  1.
       -2    1    3    3    0  502 -0.34509624226E+03 -0.53555651251E+03  0.16185716859E+04  0.17394500559E+04  0.25500000920E-02 0. -1.
</event>
<event>
 5   0  0.1098949E-03  0.1405838E+04  0.7818609E-02  0.8949603E-01
        2   -1    0    0  501    0  0.00000000000E+00  0.00000000000E+00  0.11105113412E+04  0.11105113412E+04  0.25500000920E-02 0.  1.
       -2   -1    0    0    0  501  0.00000000000E+00  0.00000000000E+00 -0.44492603400E+03  0.44492603400E+03  0.25500000920E-02 0. -1.
    10030    2    1    2    0    0  0.00000000000E+00  0.00000000000E+00  0.66558530724E+03  0.15554373752E+04  0.14058384072E+04 0.  0.
        4    1    3    3  502    0 -0.51888342448E+03 -0.28965865514E+03  0.74817899028E+03  0.95546614754E+03  0.12699999809E+01 0.  1.
       -4    1    3    3    0  502  0.51888342448E+03  0.28965865514E+03 -0.82593683040E+02  0.59997122771E+03  0.12699999809E+01 0. -1.
</event>
<event>
 5   0  0.1095119E-03  0.1410642E+04  0.7818609E-02  0.8946151E-01
        2   -1    0    0  501    0  0.00000000000E+00  0.00000000000E+00  0.14780073060E+04  0.14780073060E+04  0.25500000920E-02 0.  1.
       -2   -1    0    0    0  501  0.00000000000E+00  0.00000000000E+00 -0.33658683618E+03  0.33658683619E+03  0.25500000920E-02 0. -1.
    10030    2    1    2    0    0  0.00000000000E+00  0.00000000000E+00  0.11414204698E+04  0.18145941422E+04  0.14106421275E+04 0.  0.
        5    1    3    3  502    0 -0.65922420904E+02  0.65411637645E+03  0.24214218186E+03  0.70062038634E+03  0.46999998093E+01 0. -1.
       -5    1    3    3    0  502  0.65922420904E+02 -0.65411637645E+03  0.89927828795E+03  0.11139737558E+04  0.46999998093E+01 0.  1.
</event>
<event>
 5   0  0.1175146E-03  0.1384176E+04  0.7818609E-02  0.8965353E-01
       -2   -1    0    0    0  501  0.00000000000E+00  0.00000000000E+00  0.62773016087E+03  0.62773016088E+03  0.25500000920E-02 0. -1.
        2   -1    0    0  501    0  0.00000000000E+00  0.00000000000E+00 -0.76304437363E+03  0.76304437364E+03  0.25500000920E-02 0.  1.
    10030    2    1    2    0    0  0.00000000000E+00  0.00000000000E+00 -0.13531421276E+03  0.13907745345E+04  0.13841762423E+04 0.  0.
        1    1    3    3  502    0 -0.51175308342E+03 -0.15757125293E+03 -0.50822885046E+03  0.73825231636E+03  0.50400001928E-02 0.  1.
       -1    1    3    3    0  502  0.51175308342E+03  0.15757125293E+03  0.37291463770E+03  0.65252221815E+03  0.50400001928E-02 0. -1.
</event>
<event>
 5   0  0.1095119E-03  0.1407207E+04  0.7818609E-02  0.8948618E-01
        2   -1    0    0  501    0  0.00000000000E+00  0.00000000000E+00  0.13845359613E+04  0.13845359613E+04  0.25500000920E-02 0. -1.
       -2   -1    0    0    0  501  0.00000000000E+00  0.00000000000E+00 -0.35756245380E+03  0.35756245381E+03  0.25500000920E-02 0.  1.
    10030    2    1    2    0    0  0.00000000000E+00  0.00000000000E+00  0.10269735075E+04  0.17420984151E+04  0.14072072707E+04 0.  0.
        5    1    3    3  502    0  0.55173047508E+03 -0.69768366663E+02 -0.20085050062E+02  0.55650664089E+03  0.46999998093E+01 0.  1.
       -5    1    3    3    0  502 -0.55173047508E+03  0.69768366663E+02  0.10470585576E+04  0.11855917742E+04  0.46999998093E+01 0. -1.
</event>
<event>
 5   0  0.6194742E-04  0.1403384E+04  0.7818609E-02  0.8951373E-01
       -1   -1    0    0    0  501  0.00000000000E+00  0.00000000000E+00  0.49951771012E+03  0.49951771015E+03  0.50400001928E-02 0.  1.
        1   -1    0    0  501    0  0.00000000000E+00  0.00000000000E+00 -0.98569416416E+03  0.98569416418E+03  0.50400001928E-02 0. -1.
    10030    2    1    2    0    0  0.00000000000E+00  0.00000000000E+00 -0.48617645404E+03  0.14852118743E+04  0.14033840412E+04 0.  0.
        4    1    3    3  502    0 -0.11380743093E+03  0.66290163432E+03 -0.31481311632E+02  0.67333750378E+03  0.12699999809E+01 0.  1.
       -4    1    3    3    0  502  0.11380743093E+03 -0.66290163432E+03 -0.45469514241E+03  0.81187437054E+03  0.12699999809E+01 0. -1.
</event>
<event>
 5   0  0.6153318E-04  0.1410273E+04  0.7818609E-02  0.8946416E-01
        1   -1    0    0  501    0  0.00000000000E+00  0.00000000000E+00  0.62773216139E+03  0.62773216141E+03  0.50400001928E-02 0.  1.
       -1   -1    0    0    0  501  0.00000000000E+00  0.00000000000E+00 -0.79208509399E+03  0.79208509400E+03  0.50400001928E-02 0. -1.
    10030    2    1    2    0    0  0.00000000000E+00  0.00000000000E+00 -0.16435293260E+03  0.14198172554E+04  0.14102727227E+04 0.  0.
        5    1    3    3  502    0  0.50380099339E+03  0.24996200742E+03  0.34602399358E+03  0.66034168446E+03  0.46999998093E+01 0.  1.
       -5    1    3    3    0  502 -0.50380099339E+03 -0.24996200742E+03 -0.51037692618E+03  0.75947557095E+03  0.46999998093E+01 0. -1.
</event>
<event>
 5   0  0.1098949E-03  0.1432163E+04  0.7818609E-02  0.8930861E-01
        2   -1    0    0  501    0  0.00000000000E+00  0.00000000000E+00  0.62654261551E+03  0.62654261551E+03  0.25500000920E-02 0.  1.
       -2   -1    0    0    0  501  0.00000000000E+00  0.00000000000E+00 -0.81841631748E+03  0.81841631749E+03  0.25500000920E-02 0. -1.
    10030    2    1    2    0    0  0.00000000000E+00  0.00000000000E+00 -0.19187370197E+03  0.14449589330E+04  0.14321629797E+04 0.  0.
        4    1    3    3  502    0  0.33275808521E+03 -0.53742291918E+03  0.24355093698E+03  0.67739944577E+03  0.12699999809E+01 0.  1.
       -4    1    3    3    0  502 -0.33275808521E+03  0.53742291918E+03 -0.43542463895E+03  0.76755948723E+03  0.12699999809E+01 0. -1.
</event>
<event>
 5   0  0.1120053E-03  0.1382517E+04  0.7818609E-02  0.8966572E-01
        2   -1    0    0  501    0  0.00000000000E+00  0.00000000000E+00  0.20110523203E+04  0.20110523203E+04  0.25500000920E-02 0.  1.
       -2   -1    0    0    0  501  0.00000000000E+00  0.00000000000E+00 -0.23760615871E+03  0.23760615873E+03  0.25500000920E-02 0. -1.
    10030    2    1    2    0    0  0.00000000000E+00  0.00000000000E+00  0.17734461616E+04  0.22486584791E+04  0.13825171490E+04 0.  0.
        2    1    3    3  502    0  0.20522887046E+03 -0.64374957431E+03  0.11241358473E+04  0.13115692155E+04  0.25500000920E-02 0.  1.
       -2    1    3    3    0  502 -0.20522887046E+03  0.64374957431E+03  0.64931031431E+03  0.93708926361E+03  0.25500000920E-02 0. -1.
</event>
<event>
 5   0  0.6153318E-04  0.1408588E+04  0.7818609E-02  0.8947626E-01
       -1   -1    0    0    0  501  0.00000000000E+00  0.00000000000E+00  0.13686731678E+04  0.13686731678E+04  0.50400001928E-02 0. -1.
        1   -1    0    0  501    0  0.00000000000E+00  0.00000000000E+00 -0.36241652372E+03  0.36241652376E+03  0.50400001928E-02 0.  1.
    10030    2    1    2    0    0  0.00000000000E+00  0.00000000000E+00  0.10062566441E+04  0.17310896916E+04  0.14085876212E+04 0.  0.
        5    1    3    3  502    0 -0.16320930392E+03  0.35319133149E+03  0.12245844124E+04  0.12849165212E+04  0.46999998093E+01 0. -1.
       -5    1    3    3    0  502  0.16320930392E+03 -0.35319133149E+03 -0.21832776829E+03  0.44617317034E+03  0.46999998093E+01 0.  1.
</event>
<event>
 5   0  0.6097538E-04  0.1387552E+04  0.7818609E-02  0.8962878E-01
       -1   -1    0    0    0  501  0.00000000000E+00  0.00000000000E+00  0.85838281606E+03  0.85838281607E+03  0.50400001928E-02 0. -1.
        1   -1    0    0  501    0  0.00000000000E+00  0.00000000000E+00 -0.56073519769E+03  0.56073519771E+03  0.50400001928E-02 0.  1.
    10030    2    1    2    0    0  0.00000000000E+00  0.00000000000E+00  0.29764761837E+03  0.14191180138E+04  0.13875524611E+04 0.  0.
        2    1    3    3  502    0  0.40758917877E+02 -0.46784878675E+03  0.67110891535E+03  0.81910374979E+03  0.25500000920E-02 0. -1.
       -2    1    3    3    0  502 -0.40758917877E+02  0.46784878675E+03 -0.37346129698E+03  0.60001426399E+03  0.25500000920E-02 0.  1.
</event>
<event>
 5   0  0.1095119E-03  0.1399742E+04  0.7818609E-02  0.8954006E-01
        2   -1    0    0  501    0  0.00000000000E+00  0.00000000000E+00  0.10044754421E+04  0.10044754421E+04  0.25500000920E-02 0. -1.
       -2   -1    0    0    0  501  0.00000000000E+00  0.00000000000E+00 -0.48763676076E+03  0.48763676077E+03  0.25500000920E-02 0.  1.
    10030    2    1    2    0    0  0.00000000000E+00  0.00000000000E+00  0.51683868132E+03  0.14921122029E+04  0.13997416202E+04 0.  0.
        5    1    3    3  502    0 -0.79273429302E+02  0.54326615685E+03  0.72108243150E+03  0.90631360841E+03  0.46999998093E+01 0. -1.
       -5    1    3    3    0  502  0.79273429302E+02 -0.54326615685E+03 -0.20424375018E+03  0.58579859445E+03  0.46999998093E+01 0.  1.
</event>
<event>
 5   0  0.6097538E-04  0.1404564E+04  0.7818609E-02  0.8950521E-01
        1   -1    0    0  501    0  0.00000000000E+00  0.00000000000E+00  0.54008146647E+03  0.54008146649E+03  0.50400001928E-02 0. -1.
       -1   -1    0    0    0  501  0.00000000000E+00  0.00000000000E+00 -0.91319576340E+03  0.91319576341E+03  0.50400001928E-02 0.  1.
    10030    2    1    2    0    0  0.00000000000E+00  0.00000000000E+00 -0.37311429693E+03  0.14532772299E+04  0.14045641418E+04 0.  0.
        2    1    3    3  502    0 -0.50739815549E+03  0.11549492958E+03  0.30140061429E+03  0.60136037221E+03  0.25500000920E-02 0. -1.
       -2    1    3    3    0  502  0.50739815549E+03 -0.11549492958E+03 -0.67451491122E+03  0.85191685770E+03  0.25500000920E-02 0.  1.
</event>
<event>
 5   0  0.6114266E-04  0.1377382E+04  0.7818609E-02  0.8970355E-01
       -1   -1    0    0    0  501  0.00000000000E+00  0.00000000000E+00  0.82866636409E+03  0.82866636411E+03  0.50400001928E-02 0.  1.
        1   -1    0    0  501    0  0.00000000000E+00  0.00000000000E+00 -0.57236003671E+03  0.57236003673E+03  0.50400001928E-02 0. -1.
    10030    2    1    2    0    0  0.00000000000E+00  0.00000000000E+00  0.25630632738E+03  0.14010264008E+04  0.13773823153E+04 0.  0.
        3    1    3    3  502    0  0.55701070229E+03 -0.22712830731E+03 -0.21293476658E+03  0.63811395179E+03  0.10100000352E+00 0. -1.
       -3    1    3    3    0  502 -0.55701070229E+03  0.22712830731E+03  0.46924109397E+03  0.76291244905E+03  0.10100000352E+00 0.  1.
</event>
<event>
 5   0  0.5875298E-04  0.1409948E+04  0.7818609E-02  0.8946649E-01
        1   -1    0    0  501    0  0.00000000000E+00  0.00000000000E+00  0.64162721626E+03  0.64162721628E+03  0.50400001928E-02 0.  1.
       -1   -1    0    0    0  501  0.00000000000E+00  0.00000000000E+00 -0.77457472637E+03  0.77457472638E+03  0.50400001928E-02 0. -1.
    10030    2    1    2    0    0  0.00000000000E+00  0.00000000000E+00 -0.13294751011E+03  0.14162019427E+04  0.14099478366E+04 0.  0.
        1    1    3    3  502    0  0.26511575632E+03 -0.51974090754E+03  0.33097226284E+03  0.67079029063E+03  0.50400001928E-02 0.  1.
       -1    1    3    3    0  502 -0.26511575632E+03  0.51974090754E+03 -0.46391977295E+03  0.74541165203E+03  0.50400001928E-02 0. -1.
</event>
<event>
 5   0  0.1175146E-03  0.1395783E+04  0.7818609E-02  0.8956877E-01
        2   -1    0    0  501    0  0.00000000000E+00  0.00000000000E+00  0.10764088799E+04  0.10764088800E+04  0.25500000920E-02 0.  1.
       -2   -1    0    0    0  501  0.00000000000E+00  0.00000000000E+00 -0.45247913516E+03  0.45247913517E+03  0.25500000920E-02 0. -1.
    10030    2    1    2    0    0  0.00000000000E+00  0.00000000000E+00  0.62392974478E+03  0.15288880151E+04  0.13957830191E+04 0.  0.
        1    1    3    3  502    0 -0.24220225636E+03 -0.35796191597E+03  0.91217330008E+03  0.10093853554E+04  0.50400001928E-02 0.  1.
       -1    1    3    3    0  502  0.24220225636E+03  0.35796191597E+03 -0.28824355530E+03  0.51950265973E+03  0.50400001928E-02 0. -1.
</event>
<event>
 5   0  0.4176125E-04  0.1389934E+04  0.7818609E-02  0.8961137E-01
        3   -1    0    0  501    0  0.00000000000E+00  0.00000000000E+00  0.73294036945E+03  0.73294037641E+03  0.10100000352E+00 0.  1.
       -3   -1    0    0    0  501  0.00000000000E+00  0.00000000000E+00 -0.65896121486E+03  0.65896122261E+03  0.10100000352E+00 0. -1.
    10030    2    1    2    0    0  0.00000000000E+00  0.00000000000E+00  0.73979154587E+02  0.13919015990E+04  0.13899342236E+04 0.  0.
        5    1    3    3  502    0  0.28766951117E+03  0.45454263831E+03  0.47760604455E+03  0.71936943324E+03  0.46999998093E+01 0.  1.
       -5    1    3    3    0  502 -0.28766951117E+03 -0.45454263831E+03 -0.40362688996E+03  0.67253216577E+03  0.46999998093E+01 0. -1.
</event>
<event>
 5   0  0.1108819E-03  0.1396755E+04  0.7818609E-02  0.8956171E-01
       -2   -1    0    0    0  501  0.00000000000E+00  0.00000000000E+00  0.88925733389E+03  0.88925733390E+03  0.25500000920E-02 0. -1.
        2   -1    0    0  501    0  0.00000000000E+00  0.00000000000E+00 -0.54847036066E+03  0.54847036067E+03  0.25500000920E-02 0.  1.
    10030    2    1    2    0    0  0.00000000000E+00  0.00000000000E+00  0.34078697323E+03  0.14377276946E+04  0.13967552264E+04 0.  0.
        3    1    3    3  502    0  0.67288952037E+03  0.42130210418E+02 -0.17092352209E+02  0.67442376883E+03  0.10100000352E+00 0.  1.
       -3    1    3    3    0  502 -0.67288952037E+03 -0.42130210418E+02  0.35787932544E+03  0.76330392573E+03  0.10100000352E+00 0. -1.
</event>
<event>
 5   0  0.1095119E-03  0.1389528E+04  0.7818609E-02  0.8961434E-01
        2   -1    0    0  501    0  0.00000000000E+00  0.00000000000E+00  0.16319396092E+04  0.16319396092E+04  0.25500000920E-02 0. -1.
       -2   -1    0    0    0  501  0.00000000000E+00  0.00000000000E+00 -0.29578101372E+03  0.29578101373E+03  0.25500000920E-02 0.  1.
    10030    2    1    2    0    0  0.00000000000E+00  0.00000000000E+00  0.13361585955E+04  0.19277206230E+04  0.13895276204E+04 0.  0.
        5    1    3    3  502    0 -0.47151999582E+03 -0.34976363584E+03  0.11834628359E+04  0.13210874616E+04  0.46999998093E+01 0. -1.
       -5    1    3    3    0  502  0.47151999582E+03  0.34976363584E+03  0.15269575965E+03  0.60663316133E+03  0.46999998093E+01 0.  1.
</event>
<event>
 5   0  0.1098949E-03  0.1395604E+04  0.7818609E-02  0.8957006E-01
        2   -1    0    0  501    0  0.00000000000E+00  0.00000000000E+00  0.84554413465E+03  0.84554413465E+03  0.25500000920E-02 0.  1.
       -2   -1    0    0    0  501  0.00000000000E+00  0.00000000000E+00 -0.57587518402E+03  0.57587518403E+03  0.25500000920E-02 0. -1.
    10030    2    1    2    0    0  0.00000000000E+00  0.00000000000E+00  0.26966895062E+03  0.14214193187E+04  0.13956043625E+04 0.  0.
        4    1    3    3  502    0  0.16969586244E+03 -0.42594505146E+03 -0.40091874205E+03  0.60906758510E+03  0.12699999809E+01 0. -1.
       -4    1    3    3    0  502 -0.16969586244E+03  0.42594505146E+03  0.67058769267E+03  0.81235173358E+03  0.12699999809E+01 0.  1.
</event>
<event>
 5   0  0.1175146E-03  0.1394268E+04  0.7818609E-02  0.8957978E-01
       -2   -1    0    0    0  501  0.00000000000E+00  0.00000000000E+00  0.48329012265E+03  0.48329012265E+03  0.25500000920E-02 0.  1.
        2   -1    0    0  501    0  0.00000000000E+00  0.00000000000E+00 -0.10055984439E+04  0.10055984439E+04  0.25500000920E-02 0. -1.
    10030    2    1    2    0    0  0.00000000000E+00  0.00000000000E+00 -0.52230832124E+03  0.14888885665E+04  0.13942679732E+04 0.  0.
        1    1    3    3  502    0 -0.29932764937E+02  0.48667426011E+03 -0.79321195916E+03  0.93109237891E+03  0.50400001928E-02 0. -1.
       -1    1    3    3    0  502  0.29932764937E+02 -0.48667426011E+03  0.27090363793E+03  0.55779618763E+03  0.50400001928E-02 0.  1.
</event>
<event>
 5   0  0.6097538E-04  0.1395622E+04  0.7818609E-02  0.8956994E-01
       -1   -1    0    0    0  501  0.00000000000E+00  0.00000000000E+00  0.53462104686E+03  0.53462104688E+03  0.50400001928E-02 0. -1.
        1   -1    0    0  501    0  0.00000000000E+00  0.00000000000E+00 -0.91081324168E+03  0.91081324170E+03  0.50400001928E-02 0.  1.
    10030    2    1    2    0    0  0.00000000000E+00  0.00000000000E+00 -0.37619219483E+03  0.14454342886E+04  0.13956216232E+04 0.  0.
        2    1    3    3  502    0  0.39357996087E+01  0.77765566408E+02  0.53010761498E+03  0.53579572349E+03  0.25500000920E-02 0. -1.
       -2    1    3    3    0  502 -0.39357996087E+01 -0.77765566408E+02 -0.90629980981E+03  0.90963856509E+03  0.25500000920E-02 0.  1.
</event>
<event>
 5   0  0.6114266E-04  0.1558024E+04  0.7818609E-02  0.8846759E-01
        1   -1    0    0  501    0  0.00000000000E+00  0.00000000000E+00  0.75399303286E+03  0.75399303288E+03  0.50400001928E-02 0. -1.
       -1   -1    0    0    0  501  0.00000000000E+00  0.00000000000E+00 -0.80486142461E+03  0.80486142463E+03  0.50400001928E-02 0.  1.
    10030    2    1    2    0    0  0.00000000000E+00  0.00000000000E+00 -0.50868391752E+02  0.15588544575E+04  0.15580242702E+04 0.  0.
        3    1    3    3  502    0 -0.29127966345E+03  0.35698292726E+03 -0.65392433570E+03  0.79993605977E+03  0.10100000352E+00 0.  1.
       -3    1    3    3    0  502  0.29127966345E+03 -0.35698292726E+03  0.60305594395E+03  0.75891839774E+03  0.10100000352E+00 0. -1.
</event>
<event>
 5   0  0.1108819E-03  0.1396034E+04  0.7818609E-02  0.8956694E-01
       -2   -1    0    0    0  501  0.00000000000E+00  0.00000000000E+00  0.43595366603E+03  0.43595366604E+03  0.25500000920E-02 0.  1.
        2   -1    0    0  501    0  0.00000000000E+00  0.00000000000E+00 -0.11176139384E+04  0.11176139384E+04  0.25500000920E-02 0. -1.
    10030    2    1    2    0    0  0.00000000000E+00  0.00000000000E+00 -0.68166027233E+03  0.15535676044E+04  0.13960342312E+04 0.  0.
        3    1    3    3  502    0  0.29070380421E+03 -0.26716047034E+03  0.29975071043E+03  0.49571556088E+03  0.10100000352E+00 0.  1.
       -3    1    3    3    0  502 -0.29070380421E+03  0.26716047034E+03 -0.98141098276E+03  0.10578520435E+04  0.10100000352E+00 0. -1.
</event>
<event>
 5   0  0.1108819E-03  0.1433475E+04  0.7818609E-02  0.8929938E-01
       -2   -1    0    0    0  501  0.00000000000E+00  0.00000000000E+00  0.27480961488E+03  0.27480961489E+03  0.25500000920E-02 0. -1.
        2   -1    0    0  501    0  0.00000000000E+00  0.00000000000E+00 -0.18693389170E+04  0.18693389170E+04  0.25500000920E-02 0.  1.
    10030    2    1    2    0    0  0.00000000000E+00  0.00000000000E+00 -0.15945293021E+04  0.21441485319E+04  0.14334745312E+04 0.  0.
        3    1    3    3  502    0 -0.34708348249E+03  0.24767774999E+02  0.13999016963E+03  0.37507018582E+03  0.10100000352E+00 0. -1.
       -3    1    3    3    0  502  0.34708348249E+03 -0.24767774999E+02 -0.17345194717E+04  0.17690783461E+04  0.10100000352E+00 0.  1.
</event>
<event>
 5   0  0.6097538E-04  0.1443673E+04  0.7818609E-02  0.8922799E-01
       -1   -1    0    0    0  501  0.00000000000E+00  0.00000000000E+00  0.44537330989E+03  0.44537330992E+03  0.50400001928E-02 0.  1.
        1   -1    0    0  501    0  0.00000000000E+00  0.00000000000E+00 -0.11699126265E+04  0.11699126265E+04  0.50400001928E-02 0. -1.
    10030    2    1    2    0    0  0.00000000000E+00  0.00000000000E+00 -0.72453931661E+03  0.16152859364E+04  0.14436728976E+04 0.  0.
        2    1    3    3  502    0  0.70410369364E+03 -0.12458256310E+03 -0.47283460268E+03  0.85723706635E+03  0.25500000920E-02 0. -1.
       -2    1    3    3    0  502 -0.70410369364E+03  0.12458256310E+03 -0.25170471394E+03  0.75804887009E+03  0.25500000920E-02 0.  1.
</event>
<event>
 5   0  0.5875298E-04  0.1390765E+04  0.7818609E-02  0.8960530E-01
       -1   -1    0    0    0  501  0.00000000000E+00  0.00000000000E+00  0.65621733435E+03  0.65621733437E+03  0.50400001928E-02 0.  1.
        1   -1    0    0  501    0  0.00000000000E+00  0.00000000000E+00 -0.73688559810E+03  0.73688559812E+03  0.50400001928E-02 0. -1.
    10030    2    1    2    0    0  0.00000000000E+00  0.00000000000E+00 -0.80668263753E+02  0.13931029325E+04  0.13907654050E+04 0.  0.
        1    1    3    3  502    0  0.68651806174E+02  0.69196336987E+03 -0.34781605082E+02  0.69622994463E+03  0.50400001928E-02 0. -1.
       -1    1    3    3    0  502 -0.68651806174E+02 -0.69196336987E+03 -0.45886658672E+02  0.69687298785E+03  0.50400001928E-02 0.  1.
</event>
<event>
 5   0  0.1095119E-03  0.1411045E+04  0.7818609E-02  0.8945862E-01
        2   -1    0    0  501    0  0.00000000000E+00  0.00000000000E+00  0.17905568310E+04  0.17905568310E+04  0.25500000920E-02 0.  1.
       -2   -1    0    0    0  501  0.00000000000E+00  0.00000000000E+00 -0.27799290039E+03  0.27799290040E+03  0.25500000920E-02 0. -1.
    10030    2    1    2    0    0  0.00000000000E+00  0.00000000000E+00  0.15125639306E+04  0.20685497314E+04  0.14110451258E+04 0.  0.
        5    1    3    3  502    0 -0.37723028348E+03  0.23010890953E+02 -0.11705700781E+03  0.39567236567E+03  0.46999998093E+01 0. -1.
       -5    1    3    3    0  502  0.37723028348E+03 -0.23010890953E+02  0.16296209384E+04  0.16728773657E+04  0.46999998093E+01 0.  1.
</event>
<event>
 5   0  0.6194742E-04  0.1382579E+04  0.7818609E-02  0.8966526E-01
       -1   -1    0    0    0  501  0.00000000000E+00  0.00000000000E+00  0.67403278655E+03  0.67403278657E+03  0.50400001928E-02 0.  1.
        1   -1    0    0  501    0  0.00000000000E+00  0.00000000000E+00 -0.70898808194E+03  0.70898808196E+03  0.50400001928E-02 0. -1.
    10030    2    1    2    0    0  0.00000000000E+00  0.00000000000E+00 -0.34955295386E+02  0.13830208685E+04  0.13825790575E+04 0.  0.
        4    1    3    3  502    0  0.14156838828E+03  0.76127735737E+01  0.65933300232E+03  0.67440431770E+03  0.12699999809E+01 0.  1.
       -4    1    3    3    0  502 -0.14156838828E+03 -0.76127735737E+01 -0.69428829771E+03  0.70861655083E+03  0.12699999809E+01 0. -1.
</event>
<event>
 5   0  0.5875298E-04  0.1434963E+04  0.7818609E-02  0.8928892E-01
        1   -1    0    0  501    0  0.00000000000E+00  0.00000000000E+00  0.73887642789E+03  0.73887642791E+03  0.50400001928E-02 0.  1.
       -1   -1    0    0    0  501  0.00000000000E+00  0.00000000000E+00 -0.69670595139E+03  0.69670595141E+03  0.50400001928E-02 0. -1.
    10030    2    1    2    0    0  0.00000000000E+00  0.00000000000E+00  0.42170476497E+02  0.14355823793E+04  0.14349628632E+04 0.  0.
        1    1    3    3  502    0  0.22699520009E+03 -0.54057187338E+03 -0.39265688800E+03  0.70563744435E+03  0.50400001928E-02 0. -1.
       -1    1    3    3    0  502 -0.22699520009E+03  0.54057187338E+03  0.43482736450E+03  0.72994493497E+03  0.50400001928E-02 0.  1.
</event>
<event>
 5   0  0.1098949E-03  0.1381564E+04  0.7818609E-02  0.8967273E-01
        2   -1    0    0  501    0  0.00000000000E+00  0.00000000000E+00  0.14831813790E+04  0.14831813790E+04  0.25500000920E-02 0.  1.
       -2   -1    0    0    0  501  0.00000000000E+00  0.00000000000E+00 -0.32172722292E+03  0.32172722293E+03  0.25500000920E-02 0. -1.
    10030    2    1    2    0    0  0.00000000000E+00  0.00000000000E+00  0.11614541561E+04  0.18049086020E+04  0.13815640791E+04 0.  0.
        4    1    3    3  502    0  0.60973763132E+03 -0.88939084642E+02  0.17282123565E+03  0.63996791499E+03  0.12699999809E+01 0. -1.
       -4    1    3    3    0  502 -0.60973763132E+03  0.88939084642E+02  0.98863292046E+03  0.11649406870E+04  0.12699999809E+01 0.  1.
</event>
<event>
 5   0  0.6114266E-04  0.1390692E+04  0.7818609E-02  0.8960584E-01
        1   -1    0    0  501    0  0.00000000000E+00  0.00000000000E+00  0.10272460463E+04  0.10272460463E+04  0.50400001928E-02 0.  1.
       -1   -1    0    0    0  501  0.00000000000E+00  0.00000000000E+00 -0.47068191020E+03  0.47068191023E+03  0.50400001928E-02 0. -1.
    10030    2    1    2    0    0  0.00000000000E+00  0.00000000000E+00  0.55656413610E+03  0.14979279565E+04  0.13906921030E+04 0.  0.
        3    1    3    3  502    0 -0.33973044721E+03 -0.45931376733E+03  0.70523102785E+03  0.90759943062E+03  0.10100000352E+00 0.  1.
       -3    1    3    3    0  502  0.33973044721E+03  0.45931376733E+03 -0.14866689175E+03  0.59032852593E+03  0.10100000352E+00 0. -1.
</event>
<event>
 5   0  0.5875298E-04  0.1384658E+04  0.7818609E-02  0.8964999E-01
        1   -1    0    0  501    0  0.00000000000E+00  0.00000000000E+00  0.60092304353E+03  0.60092304355E+03  0.50400001928E-02 0.  1.
       -1   -1    0    0    0  501  0.00000000000E+00  0.00000000000E+00 -0.79763886966E+03  0.79763886968E+03  0.50400001928E-02 0. -1.
    10030    2    1    2    0    0  0.00000000000E+00  0.00000000000E+00 -0.19671582613E+03  0.13985619132E+04  0.13846581921E+04 0.  0.
        1    1    3    3  502    0  0.29696847310E+03  0.91528624199E+02  0.52652370082E+03  0.61138774163E+03  0.50400001928E-02 0.  1.
       -1    1    3    3    0  502 -0.29696847310E+03 -0.91528624199E+02 -0.72323952695E+03  0.78717417160E+03  0.50400001928E-02 0. -1.
</event>
<event>
 5   0  0.5875298E-04  0.1409117E+04  0.7818609E-02  0.8947246E-01
       -1   -1    0    0    0  501  0.00000000000E+00  0.00000000000E+00  0.60292026393E+03  0.60292026395E+03  0.50400001928E-02 0.  1.
        1   -1    0    0  501    0  0.00000000000E+00  0.00000000000E+00 -0.82333051930E+03  0.82333051932E+03  0.50400001928E-02 0. -1.
    10030    2    1    2    0    0  0.00000000000E+00  0.00000000000E+00 -0.22041025537E+03  0.14262507833E+04  0.14091169632E+04 0.  0.
        1    1    3    3  502    0 -0.37121792992E+03  0.57703562316E+03 -0.27224481430E+03  0.73816671615E+03  0.50400001928E-02 0. -1.
       -1    1    3    3    0  502  0.37121792992E+03 -0.57703562316E+03  0.51834558922E+02  0.68808406712E+03  0.50400001928E-02 0.  1.
</event>
<event>
 5   0  0.6153318E-04  0.1417992E+04  0.7818609E-02  0.8940897E-01
       -1   -1    0    0    0  501  0.00000000000E+00  0.00000000000E+00  0.53104627065E+03  0.53104627068E+03  0.50400001928E-02 0. -1.
        1   -1    0    0  501    0  0.00000000000E+00  0.00000000000E+00 -0.94657511797E+03  0.94657511798E+03  0.50400001928E-02 0.  1.
    10030    2    1    2    0    0  0.00000000000E+00  0.00000000000E+00 -0.41552884732E+03  0.14776213887E+04  0.14179918001E+04 0.  0.
        5    1    3    3  502    0  0.40991548868E+03 -0.48532533964E+02 -0.80843041353E+03  0.90772679714E+03  0.46999998093E+01 0.  1.
       -5    1    3    3    0  502 -0.40991548868E+03  0.48532533964E+02  0.39290156622E+03  0.56989459152E+03  0.46999998093E+01 0. -1.
</event>
<event>
 5   0  0.6153318E-04  0.1394423E+04  0.7818609E-02  0.8957865E-01
        1   -1    0    0  501    0  0.00000000000E+00  0.00000000000E+00  0.93269895500E+03  0.93269895502E+03  0.50400001928E-02 0. -1.
       -1   -1    0    0    0  501  0.00000000000E+00  0.00000000000E+00 -0.52117993044E+03  0.52117993046E+03  0.50400001928E-02 0.  1.
    10030    2    1    2    0    0  0.00000000000E+00  0.00000000000E+00  0.41151902456E+03  0.14538788855E+04  0.13944231446E+04 0.  0.
        5    1    3    3  502    0  0.53606214792E+03  0.30034996170E+03  0.54921214420E+03  0.82415338090E+03  0.46999998093E+01 0. -1.
       -5    1    3    3    0  502 -0.53606214792E+03 -0.30034996170E+03 -0.13769311963E+03  0.62972550458E+03  0.46999998093E+01 0.  1.
</event>
<event>
 5   0  0.6097538E-04  0.1403911E+04  0.7818609E-02  0.8950992E-01
       -1   -1    0    0    0  501  0.00000000000E+00  0.00000000000E+00  0.50846473933E+03  0.50846473935E+03  0.50400001928E-02 0.  1.
        1   -1    0    0  501    0  0.00000000000E+00  0.00000000000E+00 -0.96907703587E+03  0.96907703588E+03  0.50400001928E-02 0. -1.
    10030    2    1    2    0    0  0.00000000000E+00  0.00000000000E+00 -0.46061229654E+03  0.14775417752E+04  0.14039109693E+04 0.  0.
        2    1    3    3  502    0  0.22092663916E+03 -0.15742557138E+03  0.45106696843E+03  0.52635805345E+03  0.25500000920E-02 0.  1.
       -2    1    3    3    0  502 -0.22092663916E+03  0.15742557138E+03 -0.91167926497E+03  0.95118372179E+03  0.25500000920E-02 0. -1.
</event>
<event>
 5   0  0.6097538E-04  0.1401878E+04  0.7818609E-02  0.8952460E-01
       -1   -1    0    0    0  501  0.00000000000E+00  0.00000000000E+00  0.53330544486E+03  0.53330544489E+03  0.50400001928E-02 0.  1.
        1   -1    0    0  501    0  0.00000000000E+00  0.00000000000E+00 -0.92126461809E+03  0.92126461811E+03  0.50400001928E-02 0. -1.
    10030    2    1    2    0    0  0.00000000000E+00  0.00000000000E+00 -0.38795917323E+03  0.14545700630E+04  0.14018779362E+04 0.  0.
        2    1    3    3  502    0  0.18104036015E+03  0.60444376358E+03 -0.51071995575E+03  0.81176520531E+03  0.25500000920E-02 0. -1.
       -2    1    3    3    0  502 -0.18104036015E+03 -0.60444376358E+03  0.12276078253E+03  0.64280485769E+03  0.25500000920E-02 0.  1.
</event>
<event>
 5   0  0.6097538E-04  0.1404687E+04  0.7818609E-02  0.8950433E-01
       -1   -1    0    0    0  501  0.00000000000E+00  0.00000000000E+00  0.83073380998E+03  0.83073381000E+03  0.50400001928E-02 0.  1.
        1   -1    0    0  501    0  0.00000000000E+00  0.00000000000E+00 -0.59379614381E+03  0.59379614383E+03  0.50400001928E-02 0. -1.
    10030    2    1    2    0    0  0.00000000000E+00  0.00000000000E+00  0.23693766617E+03  0.14245299538E+04  0.14046872007E+04 0.  0.
        2    1    3    3  502    0 -0.23951250685E+03  0.63641855767E+03  0.29671202270E+03  0.74191161597E+03  0.25500000920E-02 0.  1.
       -2    1    3    3    0  502  0.23951250685E+03 -0.63641855767E+03 -0.59774356532E+02  0.68261833786E+03  0.25500000920E-02 0. -1.
</event>
<event>
 5   0  0.1095119E-03  0.1396550E+04  0.7818609E-02  0.8956320E-01
       -2   -1    0    0    0  501  0.00000000000E+00  0.00000000000E+00  0.53115609810E+03  0.53115609811E+03  0.25500000920E-02 0.  1.
        2   -1    0    0  501    0  0.00000000000E+00  0.00000000000E+00 -0.91797463204E+03  0.91797463205E+03  0.25500000920E-02 0. -1.
    10030    2    1    2    0    0  0.00000000000E+00  0.00000000000E+00 -0.38681853394E+03  0.14491307302E+04  0.13965497825E+04 0.  0.
        5    1    3    3  502    0 -0.38275558991E+01 -0.25425649660E+03  0.48138659313E+03  0.54444114309E+03  0.46999998093E+01 0.  1.
       -5    1    3    3    0  502  0.38275558991E+01  0.25425649660E+03 -0.86820512708E+03  0.90468958706E+03  0.46999998093E+01 0. -1.
</event>
<event>
 5   0  0.5875298E-04  0.1383926E+04  0.7818609E-02  0.8965537E-01
       -1   -1    0    0    0  501  0.00000000000E+00  0.00000000000E+00  0.70835552294E+03  0.70835552295E+03  0.50400001928E-02 0. -1.
        1   -1    0    0  501    0  0.00000000000E+00  0.00000000000E+00 -0.67594963494E+03  0.67594963496E+03  0.50400001928E-02 0.  1.
    10030    2    1    2    0    0  0.00000000000E+00  0.00000000000E+00  0.32405887995E+02  0.13843051579E+04  0.13839258032E+04 0.  0.
        1    1    3    3  502    0 -0.26106175995E+03 -0.28302132192E+03 -0.55889669326E+03  0.67868978549E+03  0.50400001928E-02 0.  1.
       -1    1    3    3    0  502  0.26106175995E+03  0.28302132192E+03  0.59130258126E+03  0.70561537242E+03  0.50400001928E-02 0. -1.
</event>
<event>
 5   0  0.4176125E-04  0.1381460E+04  0.7818609E-02  0.8967349E-01
        3   -1    0    0  501    0  0.00000000000E+00  0.00000000000E+00  0.10478542307E+04  0.10478542356E+04  0.10100000352E+00 0. -1.
       -3   -1    0    0    0  501  0.00000000000E+00  0.00000000000E+00 -0.45531885555E+03  0.45531886675E+03  0.10100000352E+00 0.  1.
    10030    2    1    2    0    0  0.00000000000E+00  0.00000000000E+00  0.59253537517E+03  0.15031731023E+04  0.13814598093E+04 0.  0.
        4    1    3    3  502    0  0.67373349244E+01  0.36374599118E+03 -0.34261726382E+03  0.49974467496E+03  0.12699999809E+01 0.  1.
       -4    1    3    3    0  502 -0.67373349244E+01 -0.36374599118E+03  0.93515263898E+03  0.10034284274E+04  0.12699999809E+01 0. -1.
</event>
<event>
 5   0  0.1095119E-03  0.1401687E+04  0.7818609E-02  0.8952598E-01
        2   -1    0    0  501    0  0.00000000000E+00  0.00000000000E+00  0.10679268508E+04  0.10679268508E+04  0.25500000920E-02 0.  1.
       -2   -1    0    0    0  501  0.00000000000E+00  0.00000000000E+00 -0.45993927444E+03  0.45993927445E+03  0.25500000920E-02 0. -1.
    10030    2    1    2    0    0  0.00000000000E+00  0.00000000000E+00  0.60798757637E+03  0.15278661253E+04  0.14016868422E+04 0.  0.
        5    1    3    3  502    0  0.28604630508E+03  0.14042596617E+03 -0.37638931026E+03  0.49318652000E+03  0.46999998093E+01 0. -1.
       -5    1    3    3    0  502 -0.28604630508E+03 -0.14042596617E+03  0.98437688663E+03  0.10346796053E+04  0.46999998093E+01 0.  1.
</event>
<event>
 5   0  0.6194742E-04  0.1403780E+04  0.7818609E-02  0.8951087E-01
        1   -1    0    0  501    0  0.00000000000E+00  0.00000000000E+00  0.43003027827E+03  0.43003027830E+03  0.50400001928E-02 0. -1.
       -1   -1    0    0    0  501  0.00000000000E+00  0.00000000000E+00 -0.11456166017E+04  0.11456166017E+04  0.50400001928E-02 0.  1.
    10030    2    1    2    0    0  0.00000000000E+00  0.00000000000E+00 -0.71558632341E+03  0.15756468800E+04  0.14037803618E+04 0.  0.
        4    1    3    3  502    0  0.41295374945E+03  0.50153475066E+03 -0.65598895013E+03  0.92325024825E+03  0.12699999809E+01 0.  1.
       -4    1    3    3    0  502 -0.41295374945E+03 -0.50153475066E+03 -0.59597373284E+02  0.65239663174E+03  0.12699999809E+01 0. -1.
</event>
<event>
 5   0  0.1098949E-03  0.1367941E+04  0.7818609E-02  0.8977357E-01
        2   -1    0    0  501    0  0.00000000000E+00  0.00000000000E+00  0.21562739258E+04  0.21562739258E+04  0.25500000920E-02 0. -1.
       -2   -1    0    0    0  501  0.00000000000E+00  0.00000000000E+00 -0.21695546824E+03  0.21695546825E+03  0.25500000920E-02 0.  1.
    10030    2    1    2    0    0  0.00000000000E+00  0.00000000000E+00  0.19393184575E+04  0.23732293940E+04  0.13679406701E+04 0.  0.
        4    1    3    3  502    0 -0.61339122275E+03  0.18042494895E+03  0.13911053675E+04  0.15310054575E+04  0.12699999809E+01 0. -1.
       -4    1    3    3    0  502  0.61339122275E+03 -0.18042494895E+03  0.54821309000E+03  0.84222393655E+03  0.12699999809E+01 0.  1.
</event>
<event>
 5   0  0.1175146E-03  0.1395754E+04  0.7818609E-02  0.8956898E-01
        2   -1    0    0  501    0  0.00000000000E+00  0.00000000000E+00  0.13604032382E+04  0.13604032382E+04  0.25500000920E-02 0.  1.
       -2   -1    0    0    0  501  0.00000000000E+00  0.00000000000E+00 -0.35800563785E+03  0.35800563786E+03  0.25500000920E-02 0. -1.
    10030    2    1    2    0    0  0.00000000000E+00  0.00000000000E+00  0.10023976003E+04  0.17184088760E+04  0.13957536015E+04 0.  0.
        1    1    3    3  502    0  0.13425968797E+03 -0.60220545005E+03  0.99688559421E+02  0.62499190138E+03  0.50400001928E-02 0. -1.
       -1    1    3    3    0  502 -0.13425968797E+03  0.60220545005E+03  0.90270904088E+03  0.10934169746E+04  0.50400001928E-02 0.  1.
</event>
<event>
 5   0  0.6114266E-04  0.1398275E+04  0.7818609E-02  0.8955068E-01
        1   -1    0    0  501    0  0.00000000000E+00  0.00000000000E+00  0.13670169997E+04  0.13670169997E+04  0.50400001928E-02 0. -1.
       -1   -1    0    0    0  501  0.00000000000E+00  0.00000000000E+00 -0.35756199573E+03  0.35756199576E+03  0.50400001928E-02 0.  1.
    10030    2    1    2    0    0  0.00000000000E+00  0.00000000000E+00  0.10094550039E+04  0.17245789954E+04  0.13982751183E+04 0.  0.
        3    1    3    3  502    0  0.12055014007E+03 -0.40356361162E+02 -0.34318723237E+03  0.36597603585E+03  0.10100000352E+00 0.  1.
       -3    1    3    3    0  502 -0.12055014007E+03  0.40356361162E+02  0.13526422363E+04  0.13586029596E+04  0.10100000352E+00 0. -1.
</event>
<event>
 5   0  0.1108819E-03  0.1391047E+04  0.7818609E-02  0.8960324E-01
        2   -1    0    0  501    0  0.00000000000E+00  0.00000000000E+00  0.10725647982E+04  0.10725647982E+04  0.25500000920E-02 0. -1.
       -2   -1    0    0    0  501  0.00000000000E+00  0.00000000000E+00 -0.45102476549E+03  0.45102476550E+03  0.25500000920E-02 0.  1.
    10030    2    1    2    0    0  0.00000000000E+00  0.00000000000E+00  0.62154003273E+03  0.15235895637E+04  0.13910474997E+04 0.  0.
        3    1    3    3  502    0 -0.39352266518E+03 -0.46965284937E+03 -0.49708287516E+02  0.61473962861E+03  0.10100000352E+00 0.  1.
       -3    1    3    3    0  502  0.39352266518E+03  0.46965284937E+03  0.67124832025E+03  0.90884993512E+03  0.10100000352E+00 0. -1.
</event>
<event>
 5   0  0.6194742E-04  0.1339189E+04  0.7818609E-02  0.8999052E-01
        1   -1    0    0  501    0  0.00000000000E+00  0.00000000000E+00  0.11106206918E+04  0.11106206918E+04  0.50400001928E-02 0. -1.
       -1   -1    0    0    0  501  0.00000000000E+00  0.00000000000E+00 -0.40369951794E+03  0.40369951798E+03  0.50400001928E-02 0.  1.
    10030    2    1    2    0    0  0.00000000000E+00  0.00000000000E+00  0.70692117382E+03  0.15143202097E+04  0.13391893636E+04 0.  0.
        4    1    3    3  502    0 -0.69442262419E+02 -0.56119881435E+02 -0.39693690310E+03  0.40685646959E+03  0.12699999809E+01 0.  1.
       -4    1    3    3    0  502  0.69442262419E+02  0.56119881435E+02  0.11038580769E+04  0.11074637402E+04  0.12699999809E+01 0. -1.
</event>
<event>
 5   0  0.1120053E-03  0.1415483E+04  0.7818609E-02  0.8942687E-01
       -2   -1    0    0    0  501  0.00000000000E+00  0.00000000000E+00  0.53834317964E+03  0.53834317965E+03  0.25500000920E-02 0.  1.
        2   -1    0    0  501    0  0.00000000000E+00  0.00000000000E+00 -0.93044335439E+03  0.93044335440E+03  0.25500000920E-02 0. -1.
    10030    2    1    2    0    0  0.00000000000E+00  0.00000000000E+00 -0.39210017475E+03  0.14687865340E+04  0.14154827217E+04 0.  0.
        2    1    3    3  502    0 -0.41282458500E+03  0.39889399257E+03 -0.62559184306E+03  0.84906166407E+03  0.25500000920E-02 0. -1.
       -2    1    3    3    0  502  0.41282458500E+03 -0.39889399257E+03  0.23349166831E+03  0.61972486997E+03  0.25500000920E-02 0.  1.
</event>
<event>
 5   0  0.6194742E-04  0.1401379E+04  0.7818609E-02  0.8952821E-01
        1   -1    0    0  501    0  0.00000000000E+00  0.00000000000E+00  0.19800914381E+04  0.19800914381E+04  0.50400001928E-02 0. -1.
       -1   -1    0    0    0  501  0.00000000000E+00  0.00000000000E+00 -0.24795090345E+03  0.24795090350E+03  0.50400001928E-02 0.  1.
    10030    2    1    2    0    0  0.00000000000E+00  0.00000000000E+00  0.17321405346E+04  0.22280423416E+04  0.14013785513E+04 0.  0.
        4    1    3    3  502    0  0.89798997134E+02 -0.67253055577E+03  0.11442000004E+04  0.13302467674E+04  0.12699999809E+01 0. -1.
       -4    1    3    3    0  502 -0.89798997134E+02  0.67253055577E+03  0.58794053419E+03  0.89779557416E+03  0.12699999809E+01 0.  1.
</event>
<event>
 5   0  0.6194742E-04  0.1405488E+04  0.7818609E-02  0.8949856E-01
        1   -1    0    0  501    0  0.00000000000E+00  0.00000000000E+00  0.54422284612E+03  0.54422284614E+03  0.50400001928E-02 0. -1.
       -1   -1    0    0    0  501  0.00000000000E+00  0.00000000000E+00 -0.90743870054E+03  0.90743870056E+03  0.50400001928E-02 0.  1.
    10030    2    1    2    0    0  0.00000000000E+00  0.00000000000E+00 -0.36321585442E+03  0.14516615467E+04  0.14054876340E+04 0.  0.
        4    1    3    3  502    0 -0.42642452650E+03  0.22077356511E+03  0.34834552293E+03  0.59323272001E+03  0.12699999809E+01 0. -1.
       -4    1    3    3    0  502  0.42642452650E+03 -0.22077356511E+03 -0.71156137735E+03  0.85842882669E+03  0.12699999809E+01 0.  1.
</event>
<event>
 5   0  0.6097538E-04  0.1421813E+04  0.7818609E-02  0.8938178E-01
       -1   -1    0    0    0  501  0.00000000000E+00  0.00000000000E+00  0.14996209584E+04  0.14996209584E+04  0.50400001928E-02 0.  1.
        1   -1    0    0  501    0  0.00000000000E+00  0.00000000000E+00 -0.33701073859E+03  0.33701073863E+03  0.50400001928E-02 0. -1.
    10030    2    1    2    0    0  0.00000000000E+00  0.00000000000E+00  0.11626102198E+04  0.18366316970E+04  0.14218134432E+04 0.  0.
        2    1    3    3  502    0 -0.46109582084E+03  0.21576703181E+02  0.12797045192E+04  0.13604111756E+04  0.25500000920E-02 0.  1.
       -2    1    3    3    0  502  0.46109582084E+03 -0.21576703181E+02 -0.11709429940E+03  0.47622052147E+03  0.25500000920E-02 0. -1.
</event>
<event>
 5   0  0.1120053E-03  0.1387880E+04  0.7818609E-02  0.8962639E-01
       -2   -1    0    0    0  501  0.00000000000E+00  0.00000000000E+00  0.22883997413E+03  0.22883997415E+03  0.25500000920E-02 0. -1.
        2   -1    0    0  501    0  0.00000000000E+00  0.00000000000E+00 -0.21043199531E+04  0.21043199531E+04  0.25500000920E-02 0.  1.
    10030    2    1    2    0    0  0.00000000000E+00  0.00000000000E+00 -0.18754799790E+04  0.23331599272E+04  0.13878797119E+04 0.  0.
        2    1    3    3  502    0 -0.60508572470E+02 -0.66785683103E+03 -0.63768194666E+03  0.92538224491E+03  0.25500000920E-02 0. -1.
       -2    1    3    3    0  502  0.60508572470E+02  0.66785683103E+03 -0.12377980323E+04  0.14077776823E+04  0.25500000920E-02 0.  1.
</event>
<event>
 5   0  0.1175146E-03  0.1399759E+04  0.7818609E-02  0.8953993E-01
       -2   -1    0    0    0  501  0.00000000000E+00  0.00000000000E+00  0.56692545378E+03  0.56692545379E+03  0.25500000920E-02 0. -1.
        2   -1    0    0  501    0  0.00000000000E+00  0.00000000000E+00 -0.86401314693E+03  0.86401314693E+03  0.25500000920E-02 0.  1.
    10030    2    1    2    0    0  0.00000000000E+00  0.00000000000E+00 -0.29708769314E+03  0.14309386007E+04  0.13997586155E+04 0.  0.
        1    1    3    3  502    0  0.14393186103E+03  0.68491499604E+03 -0.15107135882E+03  0.71599405578E+03  0.50400001928E-02 0.  1.
       -1    1    3    3    0  502 -0.14393186103E+03 -0.68491499604E+03 -0.14601633433E+03  0.71494454494E+03  0.50400001928E-02 0. -1.
</event>
<event>
 5   0  0.4176125E-04  0.1362126E+04  0.7818609E-02  0.8981700E-01
        4   -1    0    0  501    0  0.00000000000E+00  0.00000000000E+00  0.17347755431E+04  0.17347760080E+04  0.12699999809E+01 0. -1.
       -4   -1    0    0    0  501  0.00000000000E+00  0.00000000000E+00 -0.26737931334E+03  0.26738232945E+03  0.12699999809E+01 0.  1.
    10030    2    1    2    0    0  0.00000000000E+00  0.00000000000E+00  0.14673962298E+04  0.20021583374E+04  0.13621256598E+04 0.  0.
        4    1    3    3  502    0  0.80249463090E+02  0.55671752033E+03  0.16923709394E+03  0.58738163117E+03  0.12699999809E+01 0.  1.
       -4    1    3    3    0  502 -0.80249463090E+02 -0.55671752033E+03  0.12981591358E+04  0.14147767063E+04  0.12699999809E+01 0. -1.
</event>
<event>
 5   0  0.1175146E-03  0.1399095E+04  0.7818609E-02  0.8954474E-01
       -2   -1    0    0    0  501  0.00000000000E+00  0.00000000000E+00  0.54060489571E+03  0.54060489571E+03  0.25500000920E-02 0. -1.
        2   -1    0    0  501    0  0.00000000000E+00  0.00000000000E+00 -0.90522051643E+03  0.90522051643E+03  0.25500000920E-02 0.  1.
    10030    2    1    2    0    0  0.00000000000E+00  0.00000000000E+00 -0.36461562072E+03  0.14458254121E+04  0.13990949116E+04 0.  0.
        1    1    3    3  502    0 -0.38951951059E+02 -0.23104905803E+03  0.49884795213E+03  0.55113537455E+03  0.50400001928E-02 0. -1.
       -1    1    3    3    0  502  0.38951951059E+02  0.23104905803E+03 -0.86346357285E+03  0.89469003760E+03  0.50400001928E-02 0.  1.
</event>
<event>
 5   0  0.5875298E-04  0.1395571E+04  0.7818609E-02  0.8957030E-01
        1   -1    0    0  501    0  0.00000000000E+00  0.00000000000E+00  0.11957021750E+04  0.11957021750E+04  0.50400001928E-02 0. -1.
       -1   -1    0    0    0  501  0.00000000000E+00  0.00000000000E+00 -0.40721253511E+03  0.40721253514E+03  0.50400001928E-02 0.  1.
    10030    2    1    2    0    0  0.00000000000E+00  0.00000000000E+00  0.78848963993E+03  0.16029147102E+04  0.13955714442E+04 0.  0.
        1    1    3    3  502    0  0.93640022392E+02 -0.15406648097E+01 -0.39996123364E+03  0.41077952223E+03  0.50400001928E-02 0.  1.
       -1    1    3    3    0  502 -0.93640022392E+02  0.15406648097E+01  0.11884508736E+04  0.11921351880E+04  0.50400001928E-02 0. -1.
</event>
<event>
 5   0  0.1095119E-03  0.1392966E+04  0.7818609E-02  0.8958926E-01
        2   -1    0    0  501    0  0.00000000000E+00  0.00000000000E+00  0.22104675597E+03  0.22104675599E+03  0.25500000920E-02 0. -1.
       -2   -1    0    0    0  501  0.00000000000E+00  0.00000000000E+00 -0.21945056232E+04  0.21945056232E+04  0.25500000920E-02 0.  1.
    10030    2    1    2    0    0  0.00000000000E+00  0.00000000000E+00 -0.19734588672E+04  0.24155523792E+04  0.13929656837E+04 0.  0.
        5    1    3    3  502    0 -0.79293885426E+00 -0.43311514780E+02  0.21868085773E+03  0.22297964840E+03  0.46999998093E+01 0. -1.
       -5    1    3    3    0  502  0.79293885426E+00  0.43311514780E+02 -0.21921397250E+04  0.21925727308E+04  0.46999998093E+01 0.  1.
</event>
<event>
 5   0  0.4176125E-04  0.1390038E+04  0.7818609E-02  0.8961061E-01
       -3   -1    0    0    0  501  0.00000000000E+00  0.00000000000E+00  0.10164551188E+04  0.10164551238E+04  0.10100000352E+00 0. -1.
        3   -1    0    0  501    0  0.00000000000E+00  0.00000000000E+00 -0.47523133787E+03  0.47523134860E+03  0.10100000352E+00 0.  1.
    10030    2    1    2    0    0  0.00000000000E+00  0.00000000000E+00  0.54122378089E+03  0.14916864724E+04  0.13900378955E+04 0.  0.
        3    1    3    3  502    0 -0.10671682344E+03 -0.17185307289E+03  0.98416383331E+03  0.10047389811E+04  0.10100000352E+00 0. -1.
       -3    1    3    3    0  502  0.10671682344E+03  0.17185307289E+03 -0.44294005241E+03  0.48694749132E+03  0.10100000352E+00 0.  1.
</event>
<event>
 5   0  0.1098949E-03  0.1398019E+04  0.7818609E-02  0.8955254E-01
        2   -1    0    0  501    0  0.00000000000E+00  0.00000000000E+00  0.14300086260E+04  0.14300086260E+04  0.25500000920E-02 0.  1.
       -2   -1    0    0    0  501  0.00000000000E+00  0.00000000000E+00 -0.34168607161E+03  0.34168607162E+03  0.25500000920E-02 0. -1.
    10030    2    1    2    0    0  0.00000000000E+00  0.00000000000E+00  0.10883225544E+04  0.17716946976E+04  0.13980186405E+04 0.  0.
        4    1    3    3  502    0  0.39220109417E+03  0.25356730714E+03 -0.11494434139E+03  0.48096974129E+03  0.12699999809E+01 0. -1.
       -4    1    3    3    0  502 -0.39220109417E+03 -0.25356730714E+03  0.12032668958E+04  0.12907249563E+04  0.12699999809E+01 0.  1.
</event>
<event>
 5   0  0.1098949E-03  0.1402267E+04  0.7818609E-02  0.8952179E-01
        2   -1    0    0  501    0  0.00000000000E+00  0.00000000000E+00  0.45293594204E+03  0.45293594204E+03  0.25500000920E-02 0.  1.
       -2   -1    0    0    0  501  0.00000000000E+00  0.00000000000E+00 -0.10853365862E+04  0.10853365862E+04  0.25500000920E-02 0. -1.
    10030    2    1    2    0    0  0.00000000000E+00  0.00000000000E+00 -0.63240064418E+03  0.15382725283E+04  0.14022666638E+04 0.  0.
        4    1    3    3  502    0  0.26184532839E+03  0.71079246019E+02 -0.10254118759E+04  0.10607008830E+04  0.12699999809E+01 0. -1.
       -4    1    3    3    0  502 -0.26184532839E+03 -0.71079246019E+02  0.39301123167E+03  0.47757164524E+03  0.12699999809E+01 0.  1.
</event>
<event>
 5   0  0.6097538E-04  0.1376990E+04  0.7818609E-02  0.8970645E-01
       -1   -1    0    0    0  501  0.00000000000E+00  0.00000000000E+00  0.87555811215E+03  0.87555811216E+03  0.50400001928E-02 0. -1.
        1   -1    0    0  501    0  0.00000000000E+00  0.00000000000E+00 -0.54139767831E+03  0.54139767833E+03  0.50400001928E-02 0.  1.
    10030    2    1    2    0    0  0.00000000000E+00  0.00000000000E+00  0.33416043384E+03  0.14169557905E+04  0.13769896574E+04 0.  0.
        2    1    3    3  502    0  0.24021944863E+03 -0.55902705025E+02  0.82853925972E+03  0.86446966450E+03  0.25500000920E-02 0. -1.
       -2    1    3    3    0  502 -0.24021944863E+03  0.55902705025E+02 -0.49437882588E+03  0.55248612600E+03  0.25500000920E-02 0.  1.
</event>
<event>
 5   0  0.6114266E-04  0.1388124E+04  0.7818609E-02  0.8962460E-01
       -1   -1    0    0    0  501  0.00000000000E+00  0.00000000000E+00  0.16918176777E+04  0.16918176777E+04  0.50400001928E-02 0. -1.
        1   -1    0    0  501    0  0.00000000000E+00  0.00000000000E+00 -0.28473629099E+03  0.28473629104E+03  0.50400001928E-02 0.  1.
    10030    2    1    2    0    0  0.00000000000E+00  0.00000000000E+00  0.14070813867E+04  0.19765539688E+04  0.13881237562E+04 0.  0.
        3    1    3    3  502    0  0.21539683813E+03 -0.36580364869E+02  0.16415763143E+04  0.16560515472E+04  0.10100000352E+00 0. -1.
       -3    1    3    3    0  502 -0.21539683813E+03  0.36580364869E+02 -0.23449492760E+03  0.32050242159E+03  0.10100000352E+00 0.  1.
</event>
<event>
 5   0  0.6153318E-04  0.1403314E+04  0.7818609E-02  0.8951423E-01
        1   -1    0    0  501    0  0.00000000000E+00  0.00000000000E+00  0.24761606754E+04  0.24761606754E+04  0.50400001928E-02 0. -1.
       -1   -1    0    0    0  501  0.00000000000E+00  0.00000000000E+00 -0.19882488914E+03  0.19882488920E+03  0.50400001928E-02 0.  1.
    10030    2    1    2    0    0  0.00000000000E+00  0.00000000000E+00  0.22773357863E+04  0.26749855647E+04  0.14033137523E+04 0.  0.
        5    1    3    3  502    0 -0.85695059181E+02  0.23051650828E+03  0.23912823610E+04  0.24038999405E+04  0.46999998093E+01 0. -1.
       -5    1    3    3    0  502  0.85695059181E+02 -0.23051650828E+03 -0.11394657469E+03  0.27108562419E+03  0.46999998093E+01 0.  1.
</event>
<event>
 5   0  0.1098949E-03  0.1378986E+04  0.7818609E-02  0.8969171E-01
        2   -1    0    0  501    0  0.00000000000E+00  0.00000000000E+00  0.10797304427E+04  0.10797304427E+04  0.25500000920E-02 0.  1.
       -2   -1    0    0    0  501  0.00000000000E+00  0.00000000000E+00 -0.44029574069E+03  0.44029574070E+03  0.25500000920E-02 0. -1.
    10030    2    1    2    0    0  0.00000000000E+00  0.00000000000E+00  0.63943470205E+03  0.15200261834E+04  0.13789861711E+04 0.  0.
        4    1    3    3  502    0  0.56332561129E+03 -0.32240709823E+03  0.63293688947E+02  0.65214245781E+03  0.12699999809E+01 0. -1.
       -4    1    3    3    0  502 -0.56332561129E+03  0.32240709823E+03  0.57614101310E+03  0.86788372562E+03  0.12699999809E+01 0.  1.
</event>
<event>
 5   0  0.1095119E-03  0.1400502E+04  0.7818609E-02  0.8953455E-01
        2   -1    0    0  501    0  0.00000000000E+00  0.00000000000E+00  0.14908314833E+04  0.14908314833E+04  0.25500000920E-02 0. -1.
       -2   -1    0    0    0  501  0.00000000000E+00  0.00000000000E+00 -0.32891143637E+03  0.32891143638E+03  0.25500000920E-02 0.  1.
    10030    2    1    2    0    0  0.00000000000E+00  0.00000000000E+00  0.11619200469E+04  0.18197429196E+04  0.14005020879E+04 0.  0.
        5    1    3    3  502    0 -0.22941008926E+03 -0.44069392740E+03  0.12221197356E+04  0.13192569366E+04  0.46999998093E+01 0. -1.
       -5    1    3    3    0  502  0.22941008926E+03  0.44069392740E+03 -0.60199688675E+02  0.50048598304E+03  0.46999998093E+01 0.  1.
</event>
<event>
 5   0  0.1175146E-03  0.1393122E+04  0.7818609E-02  0.8958812E-01
       -2   -1    0    0    0  501  0.00000000000E+00  0.00000000000E+00  0.49733090964E+03  0.49733090965E+03  0.25500000920E-02 0.  1.
        2   -1    0    0  501    0  0.00000000000E+00  0.00000000000E+00 -0.97560199881E+03  0.97560199881E+03  0.25500000920E-02 0. -1.
    10030    2    1    2    0    0  0.00000000000E+00  0.00000000000E+00 -0.47827108917E+03  0.14729329085E+04  0.13931217169E+04 0.  0.
        1    1    3    3  502    0  0.22982618643E+03 -0.45106657444E+02  0.45445145304E+03  0.51125415374E+03  0.50400001928E-02 0.  1.
       -1    1    3    3    0  502 -0.22982618643E+03  0.45106657444E+02 -0.93272254221E+03  0.96167875473E+03  0.50400001928E-02 0. -1.
</event>
<event>
 5   0  0.1175146E-03  0.1411163E+04  0.7818609E-02  0.8945777E-01
       -2   -1    0    0    0  501  0.00000000000E+00  0.00000000000E+00  0.37555217106E+03  0.37555217107E+03  0.25500000920E-02 0.  1.
        2   -1    0    0  501    0  0.00000000000E+00  0.00000000000E+00 -0.13256358523E+04  0.13256358523E+04  0.25500000920E-02 0. -1.
    10030    2    1    2    0    0  0.00000000000E+00  0.00000000000E+00 -0.95008368121E+03  0.17011880233E+04  0.14111632398E+04 0.  0.
        1    1    3    3  502    0 -0.68193652207E+02 -0.53266660394E+03  0.76688665685E+02  0.54246219834E+03  0.50400001928E-02 0.  1.
       -1    1    3    3    0  502  0.68193652207E+02  0.53266660394E+03 -0.10267723469E+04  0.11587258250E+04  0.50400001928E-02 0. -1.
</event>
<event>
 5   0  0.6153318E-04  0.1375316E+04  0.7818609E-02  0.8971883E-01
        1   -1    0    0  501    0  0.00000000000E+00  0.00000000000E+00  0.10176158402E+04  0.10176158402E+04  0.50400001928E-02 0.  1.
       -1   -1    0    0    0  501  0.00000000000E+00  0.00000000000E+00 -0.46468736338E+03  0.46468736341E+03  0.50400001928E-02 0. -1.
    10030    2    1    2    0    0  0.00000000000E+00  0.00000000000E+00  0.55292847684E+03  0.14823032037E+04  0.13753155591E+04 0.  0.
        5    1    3    3  502    0 -0.65760311573E+03  0.96620972454E+02  0.46645431034E+03  0.81202166459E+03  0.46999998093E+01 0.  1.
       -5    1    3    3    0  502  0.65760311573E+03 -0.96620972454E+02  0.86474166500E+02  0.67028153906E+03  0.46999998093E+01 0. -1.
</event>
<event>
 5   0  0.4176125E-04  0.1374273E+04  0.7818609E-02  0.8972654E-01
        3   -1    0    0  501    0  0.00000000000E+00  0.00000000000E+00  0.87112649234E+03  0.87112649819E+03  0.10100000352E+00 0.  1.
       -3   -1    0    0    0  501  0.00000000000E+00  0.00000000000E+00 -0.54200710889E+03  0.54200711830E+03  0.10100000352E+00 0. -1.
    10030    2    1    2    0    0  0.00000000000E+00  0.00000000000E+00  0.32911938345E+03  0.14131336165E+04  0.13742732805E+04 0.  0.
        2    1    3    3  502    0  0.39034602513E+03 -0.12464591090E+03 -0.40262632898E+03  0.57446895759E+03  0.25500000920E-02 0. -1.
       -2    1    3    3    0  502 -0.39034602513E+03  0.12464591090E+03  0.73174571243E+03  0.83866465891E+03  0.25500000920E-02 0.  1.
</event>
<event>
 5   0  0.1098949E-03  0.1406941E+04  0.7818609E-02  0.8948810E-01
        2   -1    0    0  501    0  0.00000000000E+00  0.00000000000E+00  0.11488653096E+04  0.11488653096E+04  0.25500000920E-02 0.  1.
       -2   -1    0    0    0  501  0.00000000000E+00  0.00000000000E+00 -0.43074729190E+03  0.43074729191E+03  0.25500000920E-02 0. -1.
    10030    2    1    2    0    0  0.00000000000E+00  0.00000000000E+00  0.71811801766E+03  0.15796126015E+04  0.14069408244E+04 0.  0.
        4    1    3    3  502    0 -0.37247468565E+03  0.48604090656E+03 -0.29696754301E+02  0.61307150024E+03  0.12699999809E+01 0. -1.
       -4    1    3    3    0  502  0.37247468565E+03 -0.48604090656E+03  0.74781477196E+03  0.96654110123E+03  0.12699999809E+01 0.  1.
</event>
<event>
 5   0  0.6194742E-04  0.1369048E+04  0.7818609E-02  0.8976533E-01
       -1   -1    0    0    0  501  0.00000000000E+00  0.00000000000E+00  0.42629035827E+03  0.42629035830E+03  0.50400001928E-02 0.  1.
        1   -1    0    0  501    0  0.00000000000E+00  0.00000000000E+00 -0.10991877232E+04  0.10991877232E+04  0.50400001928E-02 0. -1.
    10030    2    1    2    0    0  0.00000000000E+00  0.00000000000E+00 -0.67289736495E+03  0.15254780815E+04  0.13690480318E+04 0.  0.
        4    1    3    3  502    0 -0.56401856444E+03  0.26536953637E+03 -0.65167568944E+03  0.90178752984E+03  0.12699999809E+01 0. -1.
       -4    1    3    3    0  502  0.56401856444E+03 -0.26536953637E+03 -0.21221675516E+02  0.62369055170E+03  0.12699999809E+01 0.  1.
</event>
<event>
 5   0  0.1098949E-03  0.1396529E+04  0.7818609E-02  0.8956335E-01
       -2   -1    0    0    0  501  0.00000000000E+00  0.00000000000E+00  0.40846020014E+03  0.40846020015E+03  0.25500000920E-02 0.  1.
        2   -1    0    0  501    0  0.00000000000E+00  0.00000000000E+00 -0.11936862028E+04  0.11936862028E+04  0.25500000920E-02 0. -1.
    10030    2    1    2    0    0  0.00000000000E+00  0.00000000000E+00 -0.78522600266E+03  0.16021464030E+04  0.13965289905E+04 0.  0.
        4    1    3    3  502    0  0.31934424253E+03 -0.25446877916E+03  0.25720866537E+03  0.48258990380E+03  0.12699999809E+01 0.  1.
       -4    1    3    3    0  502 -0.31934424253E+03  0.25446877916E+03 -0.10424346680E+04  0.11195564992E+04  0.12699999809E+01 0. -1.
</event>
<event>
 5   0  0.6114266E-04  0.1410682E+04  0.7818609E-02  0.8946123E-01
       -1   -1    0    0    0  501  0.00000000000E+00  0.00000000000E+00  0.18094428691E+04  0.18094428691E+04  0.50400001928E-02 0.  1.
        1   -1    0    0  501    0  0.00000000000E+00  0.00000000000E+00 -0.27494962478E+03  0.27494962482E+03  0.50400001928E-02 0. -1.
    10030    2    1    2    0    0  0.00000000000E+00  0.00000000000E+00  0.15344932443E+04  0.20843924939E+04  0.14106815912E+04 0.  0.
        3    1    3    3  502    0  0.47837999661E+03 -0.19939570610E+03  0.60322209777E+02  0.52177087688E+03  0.10100000352E+00 0. -1.
       -3    1    3    3    0  502 -0.47837999661E+03  0.19939570610E+03  0.14741710345E+04  0.15626216170E+04  0.10100000352E+00 0.  1.
</event>
<event>
 5   0  0.6194742E-04  0.1392634E+04  0.7818609E-02  0.8959168E-01
       -1   -1    0    0    0  501  0.00000000000E+00  0.00000000000E+00  0.35612299858E+03  0.35612299862E+03  0.50400001928E-02 0.  1.
        1   -1    0    0  501    0  0.00000000000E+00  0.00000000000E+00 -0.13614887527E+04  0.13614887527E+04  0.50400001928E-02 0. -1.
    10030    2    1    2    0    0  0.00000000000E+00  0.00000000000E+00 -0.10053657542E+04  0.17176117514E+04  0.13926341331E+04 0.  0.
        4    1    3    3  502    0  0.59437248848E+03 -0.43272668149E+02 -0.94686979759E+03  0.11188007890E+04  0.12699999809E+01 0. -1.
       -4    1    3    3    0  502 -0.59437248848E+03  0.43272668149E+02 -0.58495956566E+02  0.59881096241E+03  0.12699999809E+01 0.  1.
</event>
<event>
 5   0  0.6097538E-04  0.1398541E+04  0.7818609E-02  0.8954875E-01
        1   -1    0    0  501    0  0.00000000000E+00  0.00000000000E+00  0.12607274240E+04  0.12607274240E+04  0.50400001928E-02 0.  1.
       -1   -1    0    0    0  501  0.00000000000E+00  0.00000000000E+00 -0.38785510692E+03  0.38785510695E+03  0.50400001928E-02 0. -1.
    10030    2    1    2    0    0  0.00000000000E+00  0.00000000000E+00  0.87287231710E+03  0.16485825310E+04  0.13985414829E+04 0.  0.
        2    1    3    3  502    0 -0.17500065838E+02  0.45622725863E+02  0.12587124557E+04  0.12596605620E+04  0.25500000920E-02 0.  1.
       -2    1    3    3    0  502  0.17500065838E+02 -0.45622725863E+02 -0.38584013856E+03  0.38892196897E+03  0.25500000920E-02 0. -1.
</event>
<event>
 5   0  0.1175146E-03  0.1421889E+04  0.7818609E-02  0.8938125E-01
        2   -1    0    0  501    0  0.00000000000E+00  0.00000000000E+00  0.10992838919E+04  0.10992838919E+04  0.25500000920E-02 0. -1.
       -2   -1    0    0    0  501  0.00000000000E+00  0.00000000000E+00 -0.45979222408E+03  0.45979222409E+03  0.25500000920E-02 0.  1.
    10030    2    1    2    0    0  0.00000000000E+00  0.00000000000E+00  0.63949166784E+03  0.15590761160E+04  0.14218891456E+04 0.  0.
        1    1    3    3  502    0  0.28227376690E+03  0.37608800721E+01  0.10351948396E+04  0.10729962626E+04  0.50400001928E-02 0. -1.
       -1    1    3    3    0  502 -0.28227376690E+03 -0.37608800721E+01 -0.39570317175E+03  0.48607985337E+03  0.50400001928E-02 0.  1.
</event>
<event>
 5   0  0.5875298E-04  0.1383446E+04  0.7818609E-02  0.8965889E-01
        1   -1    0    0  501    0  0.00000000000E+00  0.00000000000E+00  0.59938126637E+03  0.59938126639E+03  0.50400001928E-02 0.  1.
       -1   -1    0    0    0  501  0.00000000000E+00  0.00000000000E+00 -0.79829078131E+03  0.79829078133E+03  0.50400001928E-02 0. -1.
    10030    2    1    2    0    0  0.00000000000E+00  0.00000000000E+00 -0.19890951494E+03  0.13976720477E+04  0.13834457553E+04 0.  0.
        1    1    3    3  502    0  0.68414959118E+03  0.89198555680E+02 -0.14959874853E+03  0.70597225940E+03  0.50400001928E-02 0. -1.
       -1    1    3    3    0  502 -0.68414959118E+03 -0.89198555680E+02 -0.49310766404E+02  0.69169978832E+03  0.50400001928E-02 0.  1.
</event>
<event>
 5   0  0.1108819E-03  0.1418547E+04  0.7818609E-02  0.8940502E-01
        2   -1    0    0  501    0  0.00000000000E+00  0.00000000000E+00  0.20935541733E+04  0.20935541733E+04  0.25500000920E-02 0.  1.
       -2   -1    0    0    0  501  0.00000000000E+00  0.00000000000E+00 -0.24029403618E+03  0.24029403619E+03  0.25500000920E-02 0. -1.
    10030    2    1    2    0    0  0.00000000000E+00  0.00000000000E+00  0.18532601371E+04  0.23338482095E+04  0.14185465552E+04 0.  0.
        3    1    3    3  502    0  0.27785144718E+03 -0.62258879910E+03  0.12484008619E+04  0.14224355738E+04  0.10100000352E+00 0.  1.
       -3    1    3    3    0  502 -0.27785144718E+03  0.62258879910E+03  0.60485927526E+03  0.91141263571E+03  0.10100000352E+00 0. -1.
</event>
<event>
 5   0  0.1120053E-03  0.1387966E+04  0.7818609E-02  0.8962575E-01
       -2   -1    0    0    0  501  0.00000000000E+00  0.00000000000E+00  0.33329561517E+03  0.33329561518E+03  0.25500000920E-02 0. -1.
        2   -1    0    0  501    0  0.00000000000E+00  0.00000000000E+00 -0.14450016703E+04  0.14450016703E+04  0.25500000920E-02 0.  1.
    10030    2    1    2    0    0  0.00000000000E+00  0.00000000000E+00 -0.11117060551E+04  0.17782972855E+04  0.13879664558E+04 0.  0.
        2    1    3    3  502    0  0.31154185608E+03 -0.12564492876E+03  0.22218685338E+03  0.40275547673E+03  0.25500000920E-02 0. -1.
       -2    1    3    3    0  502 -0.31154185608E+03  0.12564492876E+03 -0.13338929085E+04  0.13755418088E+04  0.25500000920E-02 0.  1.
</event>
<event>
 5   0  0.1098949E-03  0.1412761E+04  0.7818609E-02  0.8944633E-01
       -2   -1    0    0    0  501  0.00000000000E+00  0.00000000000E+00  0.36066574372E+03  0.36066574372E+03  0.25500000920E-02 0. -1.
        2   -1    0    0  501    0  0.00000000000E+00  0.00000000000E+00 -0.13834797371E+04  0.13834797371E+04  0.25500000920E-02 0.  1.
    10030    2    1    2    0    0  0.00000000000E+00  0.00000000000E+00 -0.10228139933E+04  0.17441454808E+04  0.14127614778E+04 0.  0.
        4    1    3    3  502    0 -0.15577796577E+03  0.68831113224E+03 -0.54911978691E+03  0.89418853865E+03  0.12699999809E+01 0.  1.
       -4    1    3    3    0  502  0.15577796577E+03 -0.68831113224E+03 -0.47369420644E+03  0.84995694214E+03  0.12699999809E+01 0. -1.
</event>
<event>
 5   0  0.6194742E-04  0.1341728E+04  0.7818609E-02  0.8997114E-01
       -1   -1    0    0    0  501  0.00000000000E+00  0.00000000000E+00  0.52297756576E+03  0.52297756578E+03  0.50400001928E-02 0. -1.
        1   -1    0    0  501    0  0.00000000000E+00  0.00000000000E+00 -0.86056906720E+03  0.86056906721E+03  0.50400001928E-02 0.  1.
    10030    2    1    2    0    0  0.00000000000E+00  0.00000000000E+00 -0.33759150144E+03  0.13835466330E+04  0.13417277160E+04 0.  0.
        4    1    3    3  502    0 -0.65251230762E+02 -0.16062525550E+03  0.49947627881E+03  0.52871198380E+03  0.12699999809E+01 0. -1.
       -4    1    3    3    0  502  0.65251230762E+02  0.16062525550E+03 -0.83706778025E+03  0.85483464919E+03  0.12699999809E+01 0.  1.
</event>
<event>
 5   0  0.5875298E-04  0.1360607E+04  0.7818609E-02  0.8982838E-01
        1   -1    0    0  501    0  0.00000000000E+00  0.00000000000E+00  0.12413521823E+04  0.12413521823E+04  0.50400001928E-02 0. -1.
       -1   -1    0    0    0  501  0.00000000000E+00  0.00000000000E+00 -0.37282948123E+03  0.37282948127E+03  0.50400001928E-02 0.  1.
    10030    2    1    2    0    0  0.00000000000E+00  0.00000000000E+00  0.86852270108E+03  0.16141816636E+04  0.13606067620E+04 0.  0.
        1    1    3    3  502    0  0.24027531521E+03 -0.41905481859E+03  0.10025723678E+04  0.11128748900E+04  0.50400001928E-02 0. -1.
       -1    1    3    3    0  502 -0.24027531521E+03  0.41905481859E+03 -0.13404966672E+03  0.50130677359E+03  0.50400001928E-02 0.  1.
</event>
<event>
 5   0  0.1098949E-03  0.1400081E+04  0.7818609E-02  0.8953760E-01
        2   -1    0    0  501    0  0.00000000000E+00  0.00000000000E+00  0.42244997707E+03  0.42244997708E+03  0.25500000920E-02 0. -1.
       -2   -1    0    0    0  501  0.00000000000E+00  0.00000000000E+00 -0.11600352780E+04  0.11600352780E+04  0.25500000920E-02 0.  1.
    10030    2    1    2    0    0  0.00000000000E+00  0.00000000000E+00 -0.73758530089E+03  0.15824852550E+04  0.14000812499E+04 0.  0.
        4    1    3    3  502    0  0.99584339107E+02 -0.46590854951E+03  0.21092962387E+03  0.52103813318E+03  0.12699999809E+01 0. -1.
       -4    1    3    3    0  502 -0.99584339107E+02  0.46590854951E+03 -0.94851492476E+03  0.10614471219E+04  0.12699999809E+01 0.  1.
</event>
<event>
 5   0  0.1095119E-03  0.1398767E+04  0.7818609E-02  0.8954712E-01
        2   -1    0    0  501    0  0.00000000000E+00  0.00000000000E+00  0.21130450692E+04  0.21130450692E+04  0.25500000920E-02 0.  1.
       -2   -1    0    0    0  501  0.00000000000E+00  0.00000000000E+00 -0.23148439137E+03  0.23148439138E+03  0.25500000920E-02 0. -1.
    10030    2    1    2    0    0  0.00000000000E+00  0.00000000000E+00  0.18815606778E+04  0.23445294605E+04  0.13987665306E+04 0.  0.
        5    1    3    3  502    0 -0.63274239564E+03 -0.19807120631E+03  0.13137723684E+04  0.14716028908E+04  0.46999998093E+01 0.  1.
       -5    1    3    3    0  502  0.63274239564E+03  0.19807120631E+03  0.56778830934E+03  0.87292656978E+03  0.46999998093E+01 0. -1.
</event>
<event>
 5   0  0.6097538E-04  0.1399383E+04  0.7818609E-02  0.8954265E-01
       -1   -1    0    0    0  501  0.00000000000E+00  0.00000000000E+00  0.38520485213E+03  0.38520485216E+03  0.50400001928E-02 0.  1.
        1   -1    0    0  501    0  0.00000000000E+00  0.00000000000E+00 -0.12709294635E+04  0.12709294635E+04  0.50400001928E-02 0. -1.
    10030    2    1    2    0    0  0.00000000000E+00  0.00000000000E+00 -0.88572461133E+03  0.16561343156E+04  0.13993830013E+04 0.  0.
        2    1    3    3  502    0 -0.33208093244E+03 -0.34695786143E+03  0.15932827107E+03  0.50600691820E+03  0.25500000920E-02 0.  1.
       -2    1    3    3    0  502  0.33208093244E+03  0.34695786143E+03 -0.10450528824E+04  0.11501273974E+04  0.25500000920E-02 0. -1.
</event>
<event>
 5   0  0.6114266E-04  0.1322808E+04  0.7818609E-02  0.9011671E-01
        1   -1    0    0  501    0  0.00000000000E+00  0.00000000000E+00  0.69089214759E+03  0.69089214761E+03  0.50400001928E-02 0. -1.
       -1   -1    0    0    0  501  0.00000000000E+00  0.00000000000E+00 -0.63317435903E+03  0.63317435905E+03  0.50400001928E-02 0.  1.
    10030    2    1    2    0    0  0.00000000000E+00  0.00000000000E+00  0.57717788555E+02  0.13240665067E+04  0.13228079116E+04 0.  0.
        3    1    3    3  502    0  0.19640267961E-01  0.50740762490E+03 -0.39580021366E+03  0.64352180811E+03  0.10100000352E+00 0.  1.
       -3    1    3    3    0  502 -0.19640267961E-01 -0.50740762490E+03  0.45351800221E+03  0.68054469855E+03  0.10100000352E+00 0. -1.
</event>
<event>
 5   0  0.1120053E-03  0.1403059E+04  0.7818609E-02  0.8951607E-01
        2   -1    0    0  501    0  0.00000000000E+00  0.00000000000E+00  0.73797464941E+03  0.73797464942E+03  0.25500000920E-02 0.  1.
       -2   -1    0    0    0  501  0.00000000000E+00  0.00000000000E+00 -0.66688405018E+03  0.66688405019E+03  0.25500000920E-02 0. -1.
    10030    2    1    2    0    0  0.00000000000E+00  0.00000000000E+00  0.71090599228E+02  0.14048586996E+04  0.14030588343E+04 0.  0.
        2    1    3    3  502    0  0.59786717605E+03 -0.36412177321E+03 -0.10488640578E+02  0.70009987681E+03  0.25500000920E-02 0.  1.
       -2    1    3    3    0  502 -0.59786717605E+03  0.36412177321E+03  0.81579239806E+02  0.70475882279E+03  0.25500000920E-02 0. -1.
</event>
<event>
 5   0  0.1098949E-03  0.1403289E+04  0.7818609E-02  0.8951441E-01
       -2   -1    0    0    0  501  0.00000000000E+00  0.00000000000E+00  0.39733757509E+03  0.39733757510E+03  0.25500000920E-02 0.  1.
        2   -1    0    0  501    0  0.00000000000E+00  0.00000000000E+00 -0.12390095681E+04  0.12390095681E+04  0.25500000920E-02 0. -1.
    10030    2    1    2    0    0  0.00000000000E+00  0.00000000000E+00 -0.84167199300E+03  0.16363471432E+04  0.14032890754E+04 0.  0.
        4    1    3    3  502    0  0.44465240204E+02 -0.41791839074E+03  0.23432087622E+03  0.48118689180E+03  0.12699999809E+01 0.  1.
       -4    1    3    3    0  502 -0.44465240204E+02  0.41791839074E+03 -0.10759928692E+04  0.11551602514E+04  0.12699999809E+01 0. -1.
</event>
<event>
 5   0  0.5875298E-04  0.1403822E+04  0.7818609E-02  0.8951057E-01
        1   -1    0    0  501    0  0.00000000000E+00  0.00000000000E+00  0.11402424478E+04  0.11402424478E+04  0.50400001928E-02 0. -1.
       -1   -1    0    0    0  501  0.00000000000E+00  0.00000000000E+00 -0.43208271523E+03  0.43208271526E+03  0.50400001928E-02 0.  1.
    10030    2    1    2    0    0  0.00000000000E+00  0.00000000000E+00  0.70815973260E+03  0.15723251631E+04  0.14038220014E+04 0.  0.
        1    1    3    3  502    0 -0.18051326764E+03 -0.67822576424E+03  0.36549242432E+03  0.79130268503E+03  0.50400001928E-02 0.  1.
       -1    1    3    3    0  502  0.18051326764E+03  0.67822576424E+03  0.34266730827E+03  0.78102247808E+03  0.50400001928E-02 0. -1.
</event>
<event>
 5   0  0.5875298E-04  0.1289636E+04  0.7818609E-02  0.9037825E-01
        1   -1    0    0  501    0  0.00000000000E+00  0.00000000000E+00  0.59245015161E+03  0.59245015163E+03  0.50400001928E-02 0. -1.
       -1   -1    0    0    0  501  0.00000000000E+00  0.00000000000E+00 -0.70181469248E+03  0.70181469250E+03  0.50400001928E-02 0.  1.
    10030    2    1    2    0    0  0.00000000000E+00  0.00000000000E+00 -0.10936454087E+03  0.12942648441E+04  0.12896359502E+04 0.  0.
        1    1    3    3  502    0 -0.49999059900E+03  0.36399383130E+03 -0.23784243961E+03  0.66260933771E+03  0.50400001928E-02 0.  1.
       -1    1    3    3    0  502  0.49999059900E+03 -0.36399383130E+03  0.12847789873E+03  0.63165550643E+03  0.50400001928E-02 0. -1.
</event>
<event>
 5   0  0.1108819E-03  0.1413145E+04  0.7818609E-02  0.8944358E-01
       -2   -1    0    0    0  501  0.00000000000E+00  0.00000000000E+00  0.37226193131E+03  0.37226193131E+03  0.25500000920E-02 0. -1.
        2   -1    0    0  501    0  0.00000000000E+00  0.00000000000E+00 -0.13411118736E+04  0.13411118736E+04  0.25500000920E-02 0.  1.
    10030    2    1    2    0    0  0.00000000000E+00  0.00000000000E+00 -0.96884994234E+03  0.17133738050E+04  0.14131452808E+04 0.  0.
        3    1    3    3  502    0 -0.32657501423E+03  0.43120436981E+03 -0.10356003123E+04  0.11683563093E+04  0.10100000352E+00 0.  1.
       -3    1    3    3    0  502  0.32657501423E+03 -0.43120436981E+03  0.66750369980E+02  0.54501749564E+03  0.10100000352E+00 0. -1.
</event>
<event>
 5   0  0.6194742E-04  0.1406778E+04  0.7818609E-02  0.8948927E-01
        1   -1    0    0  501    0  0.00000000000E+00  0.00000000000E+00  0.69175286289E+03  0.69175286291E+03  0.50400001928E-02 0. -1.
       -1   -1    0    0    0  501  0.00000000000E+00  0.00000000000E+00 -0.71522086820E+03  0.71522086822E+03  0.50400001928E-02 0.  1.
    10030    2    1    2    0    0  0.00000000000E+00  0.00000000000E+00 -0.23468005304E+02  0.14069737311E+04  0.14067779970E+04 0.  0.
        4    1    3    3  502    0  0.31481055012E+03 -0.54124407589E+03  0.30878467042E+03  0.69814068621E+03  0.12699999809E+01 0.  1.
       -4    1    3    3    0  502 -0.31481055012E+03  0.54124407589E+03 -0.33225267572E+03  0.70883304492E+03  0.12699999809E+01 0. -1.
</event>
<event>
 5   0  0.5875298E-04  0.1390450E+04  0.7818609E-02  0.8960760E-01
       -1   -1    0    0    0  501  0.00000000000E+00  0.00000000000E+00  0.37435795540E+03  0.37435795543E+03  0.50400001928E-02 0.  1.
        1   -1    0    0  501    0  0.00000000000E+00  0.00000000000E+00 -0.12911117455E+04  0.12911117455E+04  0.50400001928E-02 0. -1.
    10030    2    1    2    0    0  0.00000000000E+00  0.00000000000E+00 -0.91675379014E+03  0.16654697010E+04  0.13904502196E+04 0.  0.
        1    1    3    3  502    0  0.19313481511E+02  0.29275149017E+03  0.29657544298E+03  0.41717315227E+03  0.50400001928E-02 0.  1.
       -1    1    3    3    0  502 -0.19313481511E+02 -0.29275149017E+03 -0.12133292331E+04  0.12482965487E+04  0.50400001928E-02 0. -1.
</event>
<event>
 5   0  0.5875298E-04  0.1462435E+04  0.7818609E-02  0.8909824E-01
       -1   -1    0    0    0  501  0.00000000000E+00  0.00000000000E+00  0.39058906573E+03  0.39058906576E+03  0.50400001928E-02 0.  1.
        1   -1    0    0  501    0  0.00000000000E+00  0.00000000000E+00 -0.13689051003E+04  0.13689051003E+04  0.50400001928E-02 0. -1.
    10030    2    1    2    0    0  0.00000000000E+00  0.00000000000E+00 -0.97831603459E+03  0.17594941661E+04  0.14624354540E+04 0.  0.
        1    1    3    3  502    0  0.20907547039E+03  0.52963242228E+03  0.62782274615E+02  0.57285658684E+03  0.50400001928E-02 0.  1.
       -1    1    3    3    0  502 -0.20907547039E+03 -0.52963242228E+03 -0.10410983092E+04  0.11866375793E+04  0.50400001928E-02 0. -1.
</event>
<event>
 5   0  0.6114266E-04  0.1380038E+04  0.7818609E-02  0.8968396E-01
       -1   -1    0    0    0  501  0.00000000000E+00  0.00000000000E+00  0.17605309345E+03  0.17605309352E+03  0.50400001928E-02 0. -1.
        1   -1    0    0  501    0  0.00000000000E+00  0.00000000000E+00 -0.27044473951E+04  0.27044473951E+04  0.50400001928E-02 0.  1.
    10030    2    1    2    0    0  0.00000000000E+00  0.00000000000E+00 -0.25283943016E+04  0.28805004886E+04  0.13800381590E+04 0.  0.
        3    1    3    3  502    0 -0.29667114627E+03 -0.17732328779E+03 -0.17647613977E+02  0.34607624290E+03  0.10100000352E+00 0. -1.
       -3    1    3    3    0  502  0.29667114627E+03  0.17732328779E+03 -0.25107466876E+04  0.25344242457E+04  0.10100000352E+00 0.  1.
</event>
<event>
 5   0  0.4176125E-04  0.1400158E+04  0.7818609E-02  0.8953705E-01
       -4   -1    0    0    0  501  0.00000000000E+00  0.00000000000E+00  0.32539548797E+03  0.32539796633E+03  0.12699999809E+01 0.  1.
        4   -1    0    0  501    0  0.00000000000E+00  0.00000000000E+00 -0.15061903443E+04  0.15061908797E+04  0.12699999809E+01 0. -1.
    10030    2    1    2    0    0  0.00000000000E+00  0.00000000000E+00 -0.11807948563E+04  0.18315888461E+04  0.14001575655E+04 0.  0.
        2    1    3    3  502    0  0.46985646966E+03  0.51520914932E+03 -0.50865515353E+03  0.86309653855E+03  0.25500000920E-02 0.  1.
       -2    1    3    3    0  502 -0.46985646966E+03 -0.51520914932E+03 -0.67213970280E+03  0.96849230752E+03  0.25500000920E-02 0. -1.
</event>
<event>
 5   0  0.6194742E-04  0.1394292E+04  0.7818609E-02  0.8957961E-01
        1   -1    0    0  501    0  0.00000000000E+00  0.00000000000E+00  0.58992886392E+03  0.58992886394E+03  0.50400001928E-02 0. -1.
       -1   -1    0    0    0  501  0.00000000000E+00  0.00000000000E+00 -0.82384903286E+03  0.82384903288E+03  0.50400001928E-02 0.  1.
    10030    2    1    2    0    0  0.00000000000E+00  0.00000000000E+00 -0.23392016894E+03  0.14137778968E+04  0.13942916826E+04 0.  0.
        4    1    3    3  502    0 -0.26504800651E+03  0.63527002544E+03 -0.49983388050E+01  0.68836403688E+03  0.12699999809E+01 0. -1.
       -4    1    3    3    0  502  0.26504800651E+03 -0.63527002544E+03 -0.22892183014E+03  0.72541385994E+03  0.12699999809E+01 0.  1.
</event>
<event>
 5   0  0.5875298E-04  0.1410140E+04  0.7818609E-02  0.8946511E-01
       -1   -1    0    0    0  501  0.00000000000E+00  0.00000000000E+00  0.66212806006E+03  0.66212806008E+03  0.50400001928E-02 0.  1.
        1   -1    0    0  501    0  0.00000000000E+00  0.00000000000E+00 -0.75079672494E+03  0.75079672495E+03  0.50400001928E-02 0. -1.
    10030    2    1    2    0    0  0.00000000000E+00  0.00000000000E+00 -0.88668664872E+02  0.14129247850E+04  0.14101398215E+04 0.  0.
        1    1    3    3  502    0 -0.36447305639E+03  0.60316075619E+03 -0.22380506961E+02  0.70508467134E+03  0.50400001928E-02 0.  1.
       -1    1    3    3    0  502  0.36447305639E+03 -0.60316075619E+03 -0.66288157911E+02  0.70784011369E+03  0.50400001928E-02 0. -1.
</event>
<event>
 5   0  0.5875298E-04  0.1392431E+04  0.7818609E-02  0.8959315E-01
        1   -1    0    0  501    0  0.00000000000E+00  0.00000000000E+00  0.11110754111E+04  0.11110754111E+04  0.50400001928E-02 0. -1.
       -1   -1    0    0    0  501  0.00000000000E+00  0.00000000000E+00 -0.43625860818E+03  0.43625860821E+03  0.50400001928E-02 0.  1.
    10030    2    1    2    0    0  0.00000000000E+00  0.00000000000E+00  0.67481680294E+03  0.15473340193E+04  0.13924312729E+04 0.  0.
        1    1    3    3  502    0  0.49565620466E+03 -0.33707183862E+03 -0.56141796456E+02  0.60203355300E+03  0.50400001928E-02 0.  1.
       -1    1    3    3    0  502 -0.49565620466E+03  0.33707183862E+03  0.73095859939E+03  0.94530046634E+03  0.50400001928E-02 0. -1.
</event>
<event>
 5   0  0.1095119E-03  0.1403341E+04  0.7818609E-02  0.8951404E-01
       -2   -1    0    0    0  501  0.00000000000E+00  0.00000000000E+00  0.27222227033E+03  0.27222227034E+03  0.25500000920E-02 0.  1.
        2   -1    0    0  501    0  0.00000000000E+00  0.00000000000E+00 -0.18086002682E+04  0.18086002682E+04  0.25500000920E-02 0. -1.
    10030    2    1    2    0    0  0.00000000000E+00  0.00000000000E+00 -0.15363779979E+04  0.20808225385E+04  0.14033406873E+04 0.  0.
        5    1    3    3  502    0 -0.15018897064E+03  0.36729308108E+03 -0.16262189065E+04  0.16739387552E+04  0.46999998093E+01 0. -1.
       -5    1    3    3    0  502  0.15018897064E+03 -0.36729308108E+03  0.89840908609E+02  0.40688378337E+03  0.46999998093E+01 0.  1.
</event>
<event>
 5   0  0.1098949E-03  0.1398519E+04  0.7818609E-02  0.8954892E-01
        2   -1    0    0  501    0  0.00000000000E+00  0.00000000000E+00  0.13994033455E+04  0.13994033455E+04  0.25500000920E-02 0. -1.
       -2   -1    0    0    0  501  0.00000000000E+00  0.00000000000E+00 -0.34940859221E+03  0.34940859222E+03  0.25500000920E-02 0.  1.
    10030    2    1    2    0    0  0.00000000000E+00  0.00000000000E+00  0.10499947533E+04  0.17488119377E+04  0.13985185775E+04 0.  0.
        4    1    3    3  502    0 -0.64971490533E+02 -0.64698124729E+03  0.20336541704E+03  0.68129665688E+03  0.12699999809E+01 0. -1.
       -4    1    3    3    0  502  0.64971490533E+02  0.64698124729E+03  0.84662933626E+03  0.10675152808E+04  0.12699999809E+01 0.  1.
</event>
<event>
 5   0  0.6153318E-04  0.1421821E+04  0.7818609E-02  0.8938173E-01
        1   -1    0    0  501    0  0.00000000000E+00  0.00000000000E+00  0.91362803461E+03  0.91362803462E+03  0.50400001928E-02 0.  1.
       -1   -1    0    0    0  501  0.00000000000E+00  0.00000000000E+00 -0.55317242145E+03  0.55317242147E+03  0.50400001928E-02 0. -1.
    10030    2    1    2    0    0  0.00000000000E+00  0.00000000000E+00  0.36045561316E+03  0.14668004561E+04  0.14218211311E+04 0.  0.
        5    1    3    3  502    0  0.39411480612E+03 -0.20828664586E+03 -0.39106138522E+03  0.59301003723E+03  0.46999998093E+01 0. -1.
       -5    1    3    3    0  502 -0.39411480612E+03  0.20828664586E+03  0.75151699838E+03  0.87379041886E+03  0.46999998093E+01 0.  1.
</event>
<event>
 5   0  0.1098949E-03  0.1414917E+04  0.7818609E-02  0.8943091E-01
       -2   -1    0    0    0  501  0.00000000000E+00  0.00000000000E+00  0.98450554589E+03  0.98450554589E+03  0.25500000920E-02 0.  1.
        2   -1    0    0  501    0  0.00000000000E+00  0.00000000000E+00 -0.50837426164E+03  0.50837426164E+03  0.25500000920E-02 0. -1.
    10030    2    1    2    0    0  0.00000000000E+00  0.00000000000E+00  0.47613128425E+03  0.14928798075E+04  0.14149166477E+04 0.  0.
        4    1    3    3  502    0 -0.31511691786E+03  0.63074160747E+03  0.29924347916E+03  0.76595164341E+03  0.12699999809E+01 0. -1.
       -4    1    3    3    0  502  0.31511691786E+03 -0.63074160747E+03  0.17688780509E+03  0.72692816413E+03  0.12699999809E+01 0.  1.
</event>
<event>
 5   0  0.6114266E-04  0.1393991E+04  0.7818609E-02  0.8958180E-01
        1   -1    0    0  501    0  0.00000000000E+00  0.00000000000E+00  0.89544787215E+03  0.89544787216E+03  0.50400001928E-02 0. -1.
       -1   -1    0    0    0  501  0.00000000000E+00  0.00000000000E+00 -0.54252495479E+03  0.54252495481E+03  0.50400001928E-02 0.  1.
    10030    2    1    2    0    0  0.00000000000E+00  0.00000000000E+00  0.35292291736E+03  0.14379728270E+04  0.13939911282E+04 0.  0.
        3    1    3    3  502    0  0.30177907668E+03  0.55564351464E+03 -0.12603542564E+03  0.64474434096E+03  0.10100000352E+00 0.  1.
       -3    1    3    3    0  502 -0.30177907668E+03 -0.55564351464E+03  0.47895834301E+03  0.79322848601E+03  0.10100000352E+00 0. -1.
</event>
<event>
 5   0  0.1120053E-03  0.1195351E+04  0.7818609E-02  0.9116936E-01
       -2   -1    0    0    0  501  0.00000000000E+00  0.00000000000E+00  0.11002460536E+03  0.11002460539E+03  0.25500000920E-02 0.  1.
        2   -1    0    0  501    0  0.00000000000E+00  0.00000000000E+00 -0.32466911677E+04  0.32466911677E+04  0.25500000920E-02 0. -1.
    10030    2    1    2    0    0  0.00000000000E+00  0.00000000000E+00 -0.31366665624E+04  0.33567157731E+04  0.11953508514E+04 0.  0.
        2    1    3    3  502    0  0.18737183353E+03 -0.33913163552E+03 -0.28462617461E+04  0.28725118620E+04  0.25500000920E-02 0. -1.
       -2    1    3    3    0  502 -0.18737183353E+03  0.33913163552E+03 -0.29040481631E+03  0.48420391113E+03  0.25500000920E-02 0.  1.
</event>
<event>
 5   0  0.1175146E-03  0.1302528E+04  0.7818609E-02  0.9027563E-01
        2   -1    0    0  501    0  0.00000000000E+00  0.00000000000E+00  0.77028184915E+03  0.77028184916E+03  0.25500000920E-02 0. -1.
       -2   -1    0    0    0  501  0.00000000000E+00  0.00000000000E+00 -0.55063545968E+03  0.55063545969E+03  0.25500000920E-02 0.  1.
    10030    2    1    2    0    0  0.00000000000E+00  0.00000000000E+00  0.21964638947E+03  0.13209173088E+04  0.13025275431E+04 0.  0.
        1    1    3    3  502    0 -0.47283453444E+03  0.44416099781E+03  0.51628242592E+02  0.65078181013E+03  0.50400001928E-02 0.  1.
       -1    1    3    3    0  502  0.47283453444E+03 -0.44416099781E+03  0.16801814688E+03  0.67013549872E+03  0.50400001928E-02 0. -1.
</event>
<event>
 5   0  0.6194742E-04  0.1401701E+04  0.7818609E-02  0.8952588E-01
        1   -1    0    0  501    0  0.00000000000E+00  0.00000000000E+00  0.99053970845E+03  0.99053970847E+03  0.50400001928E-02 0.  1.
       -1   -1    0    0    0  501  0.00000000000E+00  0.00000000000E+00 -0.49588248248E+03  0.49588248250E+03  0.50400001928E-02 0. -1.
    10030    2    1    2    0    0  0.00000000000E+00  0.00000000000E+00  0.49465722598E+03  0.14864221910E+04  0.14017008092E+04 0.  0.
        4    1    3    3  502    0  0.46956033792E+03  0.11521050713E+03 -0.29071297801E+03  0.56415956996E+03  0.12699999809E+01 0. -1.
       -4    1    3    3    0  502 -0.46956033792E+03 -0.11521050713E+03  0.78537020398E+03  0.92226262101E+03  0.12699999809E+01 0.  1.
</event>
<event>
 5   0  0.1175146E-03  0.1127757E+04  0.7818609E-02  0.9178553E-01
       -2   -1    0    0    0  501  0.00000000000E+00  0.00000000000E+00  0.28830429184E+03  0.28830429185E+03  0.25500000920E-02 0.  1.
        2   -1    0    0  501    0  0.00000000000E+00  0.00000000000E+00 -0.11028583792E+04  0.11028583792E+04  0.25500000920E-02 0. -1.
    10030    2    1    2    0    0  0.00000000000E+00  0.00000000000E+00 -0.81455408738E+03  0.13911626711E+04  0.11277567185E+04 0.  0.
        1    1    3    3  502    0 -0.14955813941E+03  0.54344237959E+03 -0.42722678972E+03  0.70726231829E+03  0.50400001928E-02 0. -1.
       -1    1    3    3    0  502  0.14955813941E+03 -0.54344237959E+03 -0.38732729766E+03  0.68390035279E+03  0.50400001928E-02 0.  1.
</event>
<event>
 5   0  0.6097538E-04  0.1397310E+04  0.7818609E-02  0.8955768E-01
       -1   -1    0    0    0  501  0.00000000000E+00  0.00000000000E+00  0.93840144089E+03  0.93840144090E+03  0.50400001928E-02 0. -1.
        1   -1    0    0  501    0  0.00000000000E+00  0.00000000000E+00 -0.52015955537E+03  0.52015955540E+03  0.50400001928E-02 0.  1.
    10030    2    1    2    0    0  0.00000000000E+00  0.00000000000E+00  0.41824188551E+03  0.14585609963E+04  0.13973095237E+04 0.  0.
        2    1    3    3  502    0  0.66024074803E+03 -0.20895182647E+03  0.30558264909E+03  0.75694086068E+03  0.25500000920E-02 0. -1.
       -2    1    3    3    0  502 -0.66024074803E+03  0.20895182647E+03  0.11265923643E+03  0.70162013562E+03  0.25500000920E-02 0.  1.
</event>
<event>
 5   0  0.1098949E-03  0.1399025E+04  0.7818609E-02  0.8954524E-01
       -2   -1    0    0    0  501  0.00000000000E+00  0.00000000000E+00  0.32774659502E+03  0.32774659503E+03  0.25500000920E-02 0.  1.
        2   -1    0    0  501    0  0.00000000000E+00  0.00000000000E+00 -0.14929761478E+04  0.14929761478E+04  0.25500000920E-02 0. -1.
    10030    2    1    2    0    0  0.00000000000E+00  0.00000000000E+00 -0.11652295528E+04  0.18207227428E+04  0.13990251590E+04 0.  0.
        4    1    3    3  502    0  0.41391159424E+03 -0.10368085747E+03 -0.13039876237E+04  0.13720269180E+04  0.12699999809E+01 0. -1.
       -4    1    3    3    0  502 -0.41391159424E+03  0.10368085747E+03  0.13875807094E+03  0.44869582481E+03  0.12699999809E+01 0.  1.
</event>
<event>
 5   0  0.1108819E-03  0.1388707E+04  0.7818609E-02  0.8962034E-01
        2   -1    0    0  501    0  0.00000000000E+00  0.00000000000E+00  0.11082211707E+04  0.11082211707E+04  0.25500000920E-02 0.  1.
       -2   -1    0    0    0  501  0.00000000000E+00  0.00000000000E+00 -0.43504544851E+03  0.43504544851E+03  0.25500000920E-02 0. -1.
    10030    2    1    2    0    0  0.00000000000E+00  0.00000000000E+00  0.67317572215E+03  0.15432666192E+04  0.13887067023E+04 0.  0.
        3    1    3    3  502    0  0.65801129758E+03 -0.20282076948E+03  0.23711936441E+03  0.72824496940E+03  0.10100000352E+00 0. -1.
       -3    1    3    3    0  502 -0.65801129758E+03  0.20282076948E+03  0.43605635774E+03  0.81502164977E+03  0.10100000352E+00 0.  1.
</event>
<event>
 5   0  0.6097538E-04  0.1388775E+04  0.7818609E-02  0.8961984E-01
       -1   -1    0    0    0  501  0.00000000000E+00  0.00000000000E+00  0.49544897360E+03  0.49544897363E+03  0.50400001928E-02 0. -1.
        1   -1    0    0  501    0  0.00000000000E+00  0.00000000000E+00 -0.97320661045E+03  0.97320661046E+03  0.50400001928E-02 0.  1.
    10030    2    1    2    0    0  0.00000000000E+00  0.00000000000E+00 -0.47775763684E+03  0.14686555841E+04  0.13887753112E+04 0.  0.
        2    1    3    3  502    0 -0.28490701109E+03 -0.30630304614E+03  0.34723897349E+03  0.54366208784E+03  0.25500000920E-02 0. -1.
       -2    1    3    3    0  502  0.28490701109E+03  0.30630304614E+03 -0.82499661033E+03  0.92499349625E+03  0.25500000920E-02 0.  1.
</event>
<event>
 5   0  0.6194742E-04  0.1408500E+04  0.7818609E-02  0.8947689E-01
       -1   -1    0    0    0  501  0.00000000000E+00  0.00000000000E+00  0.44999147209E+03  0.44999147212E+03  0.50400001928E-02 0. -1.
        1   -1    0    0  501    0  0.00000000000E+00  0.00000000000E+00 -0.11021725548E+04  0.11021725548E+04  0.50400001928E-02 0.  1.
    10030    2    1    2    0    0  0.00000000000E+00  0.00000000000E+00 -0.65218108267E+03  0.15521640269E+04  0.14085002669E+04 0.  0.
        4    1    3    3  502    0 -0.54776716421E+03  0.43883671701E+03 -0.38977902092E+03  0.80284234345E+03  0.12699999809E+01 0. -1.
       -4    1    3    3    0  502  0.54776716421E+03 -0.43883671701E+03 -0.26240206175E+03  0.74932168345E+03  0.12699999809E+01 0.  1.
</event>
<event>
 5   0  0.6114266E-04  0.1410037E+04  0.7818609E-02  0.8946585E-01
        1   -1    0    0  501    0  0.00000000000E+00  0.00000000000E+00  0.10753331254E+04  0.10753331254E+04  0.50400001928E-02 0. -1.
       -1   -1    0    0    0  501  0.00000000000E+00  0.00000000000E+00 -0.46223001833E+03  0.46223001836E+03  0.50400001928E-02 0.  1.
    10030    2    1    2    0    0  0.00000000000E+00  0.00000000000E+00  0.61310310704E+03  0.15375631437E+04  0.14100372340E+04 0.  0.
        3    1    3    3  502    0 -0.83241273779E+00  0.70332126887E+03  0.35985775034E+03  0.79003741104E+03  0.10100000352E+00 0.  1.
       -3    1    3    3    0  502  0.83241273779E+00 -0.70332126887E+03  0.25324535670E+03  0.74752573270E+03  0.10100000352E+00 0. -1.
</event>
<event>
 5   0  0.6114266E-04  0.1412924E+04  0.7818609E-02  0.8944516E-01
       -1   -1    0    0    0  501  0.00000000000E+00  0.00000000000E+00  0.43683067042E+03  0.43683067045E+03  0.50400001928E-02 0. -1.
        1   -1    0    0  501    0  0.00000000000E+00  0.00000000000E+00 -0.11425215892E+04  0.11425215892E+04  0.50400001928E-02 0.  1.
    10030    2    1    2    0    0  0.00000000000E+00  0.00000000000E+00 -0.70569091876E+03  0.15793522596E+04  0.14129238788E+04 0.  0.
        3    1    3    3  502    0  0.55223536129E+03  0.27805168735E+03 -0.73488089581E+03  0.96037835061E+03  0.10100000352E+00 0.  1.
       -3    1    3    3    0  502 -0.55223536129E+03 -0.27805168735E+03  0.29189977047E+02  0.61897390903E+03  0.10100000352E+00 0. -1.
</event>
<event>
 5   0  0.1108819E-03  0.1388497E+04  0.7818609E-02  0.8962187E-01
       -2   -1    0    0    0  501  0.00000000000E+00  0.00000000000E+00  0.22782304660E+03  0.22782304662E+03  0.25500000920E-02 0. -1.
        2   -1    0    0  501    0  0.00000000000E+00  0.00000000000E+00 -0.21155949698E+04  0.21155949698E+04  0.25500000920E-02 0.  1.
    10030    2    1    2    0    0  0.00000000000E+00  0.00000000000E+00 -0.18877719232E+04  0.23434180164E+04  0.13884974489E+04 0.  0.
        3    1    3    3  502    0 -0.41753079684E+03 -0.28769406739E+03 -0.17442387893E+04  0.18164440005E+04  0.10100000352E+00 0.  1.
       -3    1    3    3    0  502  0.41753079684E+03  0.28769406739E+03 -0.14353313392E+03  0.52697401592E+03  0.10100000352E+00 0. -1.
</event>
<event>
 5   0  0.1095119E-03  0.1395104E+04  0.7818609E-02  0.8957370E-01
       -2   -1    0    0    0  501  0.00000000000E+00  0.00000000000E+00  0.53894822120E+03  0.53894822121E+03  0.25500000920E-02 0. -1.
        2   -1    0    0  501    0  0.00000000000E+00  0.00000000000E+00 -0.90283092266E+03  0.90283092266E+03  0.25500000920E-02 0.  1.
    10030    2    1    2    0    0  0.00000000000E+00  0.00000000000E+00 -0.36388270145E+03  0.14417791439E+04  0.13951044689E+04 0.  0.
        5    1    3    3  502    0 -0.96897165106E+02 -0.63650971497E+03  0.95408970884E+02  0.65089065102E+03  0.46999998093E+01 0. -1.
       -5    1    3    3    0  502  0.96897165106E+02  0.63650971497E+03 -0.45929167233E+03  0.79088849285E+03  0.46999998093E+01 0.  1.
</event>
<event>
 5   0  0.1120053E-03  0.1435070E+04  0.7818609E-02  0.8928817E-01
        2   -1    0    0  501    0  0.00000000000E+00  0.00000000000E+00  0.10192778431E+04  0.10192778431E+04  0.25500000920E-02 0.  1.
       -2   -1    0    0    0  501  0.00000000000E+00  0.00000000000E+00 -0.50511852969E+03  0.50511852970E+03  0.25500000920E-02 0. -1.
    10030    2    1    2    0    0  0.00000000000E+00  0.00000000000E+00  0.51415931339E+03  0.15243963728E+04  0.14350695111E+04 0.  0.
        2    1    3    3  502    0  0.29830602674E+03  0.65211930149E+03  0.23084290955E+03  0.75334886863E+03  0.25500000920E-02 0.  1.
       -2    1    3    3    0  502 -0.29830602674E+03 -0.65211930149E+03  0.28331640384E+03  0.77104750415E+03  0.25500000920E-02 0. -1.
</event>
<event>
 5   0  0.5875298E-04  0.1320544E+04  0.7818609E-02  0.9013430E-01
        1   -1    0    0  501    0  0.00000000000E+00  0.00000000000E+00  0.10114853154E+04  0.10114853154E+04  0.50400001928E-02 0.  1.
       -1   -1    0    0    0  501  0.00000000000E+00  0.00000000000E+00 -0.43100892018E+03  0.43100892021E+03  0.50400001928E-02 0. -1.
    10030    2    1    2    0    0  0.00000000000E+00  0.00000000000E+00  0.58047639525E+03  0.14424942357E+04  0.13205441206E+04 0.  0.
        1    1    3    3  502    0 -0.97220422098E+02  0.32401115018E+03 -0.32915720131E+03  0.47199523209E+03  0.50400001928E-02 0. -1.
       -1    1    3    3    0  502  0.97220422098E+02 -0.32401115018E+03  0.90963359656E+03  0.97049900357E+03  0.50400001928E-02 0.  1.
</event>
<event>
 5   0  0.1120053E-03  0.1389574E+04  0.7818609E-02  0.8961400E-01
       -2   -1    0    0    0  501  0.00000000000E+00  0.00000000000E+00  0.28363985466E+03  0.28363985467E+03  0.25500000920E-02 0.  1.
        2   -1    0    0  501    0  0.00000000000E+00  0.00000000000E+00 -0.17019070429E+04  0.17019070429E+04  0.25500000920E-02 0. -1.
    10030    2    1    2    0    0  0.00000000000E+00  0.00000000000E+00 -0.14182671882E+04  0.19855468975E+04  0.13895735551E+04 0.  0.
        2    1    3    3  502    0 -0.28641118241E+03 -0.55480837872E+02 -0.16101491107E+04  0.16363647660E+04  0.25500000920E-02 0. -1.
       -2    1    3    3    0  502  0.28641118241E+03  0.55480837872E+02  0.19188192249E+03  0.34918213151E+03  0.25500000920E-02 0.  1.
</event>
<event>
 5   0  0.5875298E-04  0.1373394E+04  0.7818609E-02  0.8973306E-01
        1   -1    0    0  501    0  0.00000000000E+00  0.00000000000E+00  0.69825534192E+03  0.69825534193E+03  0.50400001928E-02 0. -1.
       -1   -1    0    0    0  501  0.00000000000E+00  0.00000000000E+00 -0.67533019061E+03  0.67533019063E+03  0.50400001928E-02 0.  1.
    10030    2    1    2    0    0  0.00000000000E+00  0.00000000000E+00  0.22925151305E+02  0.13735855326E+04  0.13733942088E+04 0.  0.
        1    1    3    3  502    0  0.90282634774E+02  0.61759979894E+03  0.29781076869E+03  0.69157191945E+03  0.50400001928E-02 0.  1.
       -1    1    3    3    0  502 -0.90282634774E+02 -0.61759979894E+03 -0.27488561739E+03  0.68201361311E+03  0.50400001928E-02 0. -1.
</event>
<event>
 5   0  0.6153318E-04  0.1408425E+04  0.7818609E-02  0.8947743E-01
       -1   -1    0    0    0  501  0.00000000000E+00  0.00000000000E+00  0.85205407450E+03  0.85205407451E+03  0.50400001928E-02 0. -1.
        1   -1    0    0  501    0  0.00000000000E+00  0.00000000000E+00 -0.58202328640E+03  0.58202328642E+03  0.50400001928E-02 0.  1.
    10030    2    1    2    0    0  0.00000000000E+00  0.00000000000E+00  0.27003078810E+03  0.14340773609E+04  0.14084250958E+04 0.  0.
        5    1    3    3  502    0  0.50336834956E+03 -0.99061668354E+02  0.62619158728E+03  0.80952510984E+03  0.46999998093E+01 0. -1.
       -5    1    3    3    0  502 -0.50336834956E+03  0.99061668354E+02 -0.35616079918E+03  0.62455225110E+03  0.46999998093E+01 0.  1.
</event>
<event>
 5   0  0.1098949E-03  0.1388027E+04  0.7818609E-02  0.8962531E-01
       -2   -1    0    0    0  501  0.00000000000E+00  0.00000000000E+00  0.32420720369E+03  0.32420720370E+03  0.25500000920E-02 0. -1.
        2   -1    0    0  501    0  0.00000000000E+00  0.00000000000E+00 -0.14856381945E+04  0.14856381945E+04  0.25500000920E-02 0.  1.
    10030    2    1    2    0    0  0.00000000000E+00  0.00000000000E+00 -0.11614309908E+04  0.18098453982E+04  0.13880268077E+04 0.  0.
        4    1    3    3  502    0 -0.40327426338E+03  0.56481973713E+03 -0.58232563786E+03  0.90595597485E+03  0.12699999809E+01 0. -1.
       -4    1    3    3    0  502  0.40327426338E+03 -0.56481973713E+03 -0.57910535296E+03  0.90388942337E+03  0.12699999809E+01 0.  1.
</event>
<event>
 5   0  0.6114266E-04  0.1398035E+04  0.7818609E-02  0.8955242E-01
       -1   -1    0    0    0  501  0.00000000000E+00  0.00000000000E+00  0.10333108600E+04  0.10333108600E+04  0.50400001928E-02 0. -1.
        1   -1    0    0  501    0  0.00000000000E+00  0.00000000000E+00 -0.47287359743E+03  0.47287359746E+03  0.50400001928E-02 0.  1.
    10030    2    1    2    0    0  0.00000000000E+00  0.00000000000E+00  0.56043726255E+03  0.15061844575E+04  0.13980349404E+04 0.  0.
        3    1    3    3  502    0 -0.32206228049E+03 -0.49165347645E+03 -0.12744176715E+03  0.60140557666E+03  0.10100000352E+00 0.  1.
       -3    1    3    3    0  502  0.32206228049E+03  0.49165347645E+03  0.68787902970E+03  0.90477888079E+03  0.10100000352E+00 0. -1.
</event>
<event>
 5   0  0.4176125E-04  0.1404928E+04  0.7818609E-02  0.8950259E-01
       -3   -1    0    0    0  501  0.00000000000E+00  0.00000000000E+00  0.89631212449E+03  0.89631213019E+03  0.10100000352E+00 0.  1.
        3   -1    0    0  501    0  0.00000000000E+00  0.00000000000E+00 -0.55053986855E+03  0.55053987781E+03  0.10100000352E+00 0. -1.
    10030    2    1    2    0    0  0.00000000000E+00  0.00000000000E+00  0.34577225594E+03  0.14468520080E+04  0.14049278558E+04 0.  0.
        4    1    3    3  502    0  0.92332728265E+02  0.15080265812E+03 -0.52724443541E+03  0.55610707780E+03  0.12699999809E+01 0. -1.
       -4    1    3    3    0  502 -0.92332728265E+02 -0.15080265812E+03  0.87301669135E+03  0.89074493020E+03  0.12699999809E+01 0.  1.
</event>
<event>
 5   0  0.5875298E-04  0.1397964E+04  0.7818609E-02  0.8955294E-01
        1   -1    0    0  501    0  0.00000000000E+00  0.00000000000E+00  0.14384244084E+04  0.14384244084E+04  0.50400001928E-02 0.  1.
       -1   -1    0    0    0  501  0.00000000000E+00  0.00000000000E+00 -0.33966022294E+03  0.33966022298E+03  0.50400001928E-02 0. -1.
    10030    2    1    2    0    0  0.00000000000E+00  0.00000000000E+00  0.10987641855E+04  0.17780846314E+04  0.13979635979E+04 0.  0.
        1    1    3    3  502    0 -0.42065573511E+03  0.55359278937E+03  0.64074150039E+03  0.94549769660E+03  0.50400001928E-02 0.  1.
       -1    1    3    3    0  502  0.42065573511E+03 -0.55359278937E+03  0.45802268507E+03  0.83258693479E+03  0.50400001928E-02 0. -1.
</event>
<event>
 5   0  0.6097538E-04  0.1411814E+04  0.7818609E-02  0.8945311E-01
        1   -1    0    0  501    0  0.00000000000E+00  0.00000000000E+00  0.77152351472E+03  0.77152351473E+03  0.50400001928E-02 0.  1.
       -1   -1    0    0    0  501  0.00000000000E+00  0.00000000000E+00 -0.64587068912E+03  0.64587068914E+03  0.50400001928E-02 0. -1.
    10030    2    1    2    0    0  0.00000000000E+00  0.00000000000E+00  0.12565282560E+03  0.14173942039E+04  0.14118136196E+04 0.  0.
        2    1    3    3  502    0 -0.38572808720E+03  0.33711274885E+03  0.55041400040E+03  0.75192202690E+03  0.25500000920E-02 0.  1.
       -2    1    3    3    0  502  0.38572808720E+03 -0.33711274885E+03 -0.42476117480E+03  0.66547217697E+03  0.25500000920E-02 0. -1.
</event>
<event>
 5   0  0.6194742E-04  0.1398348E+04  0.7818609E-02  0.8955015E-01
       -1   -1    0    0    0  501  0.00000000000E+00  0.00000000000E+00  0.28747008974E+03  0.28747008979E+03  0.50400001928E-02 0. -1.
        1   -1    0    0  501    0  0.00000000000E+00  0.00000000000E+00 -0.17005055538E+04  0.17005055539E+04  0.50400001928E-02 0.  1.
    10030    2    1    2    0    0  0.00000000000E+00  0.00000000000E+00 -0.14130354641E+04  0.19879756436E+04  0.13983482888E+04 0.  0.
        4    1    3    3  502    0  0.36352002451E+03 -0.23681436196E+03  0.72955207460E+02  0.43994536644E+03  0.12699999809E+01 0. -1.
       -4    1    3    3    0  502 -0.36352002451E+03  0.23681436196E+03 -0.14859906716E+04  0.15480302772E+04  0.12699999809E+01 0.  1.
</event>
<event>
 5   0  0.6153318E-04  0.1387624E+04  0.7818609E-02  0.8962826E-01
       -1   -1    0    0    0  501  0.00000000000E+00  0.00000000000E+00  0.10848801149E+04  0.10848801149E+04  0.50400001928E-02 0. -1.
        1   -1    0    0  501    0  0.00000000000E+00  0.00000000000E+00 -0.44371302277E+03  0.44371302280E+03  0.50400001928E-02 0.  1.
    10030    2    1    2    0    0  0.00000000000E+00  0.00000000000E+00  0.64116709209E+03  0.15285931377E+04  0.13876244955E+04 0.  0.
        5    1    3    3  502    0 -0.53062196490E+03 -0.19175623769E+03 -0.12419587210E+03  0.57773422001E+03  0.46999998093E+01 0.  1.
       -5    1    3    3    0  502  0.53062196490E+03  0.19175623769E+03  0.76536296418E+03  0.95085891765E+03  0.46999998093E+01 0. -1.
</event>
<event>
 5   0  0.1175146E-03  0.1370115E+04  0.7818609E-02  0.8975740E-01
        2   -1    0    0  501    0  0.00000000000E+00  0.00000000000E+00  0.20657948308E+04  0.20657948308E+04  0.25500000920E-02 0. -1.
       -2   -1    0    0    0  501  0.00000000000E+00  0.00000000000E+00 -0.22717816187E+03  0.22717816189E+03  0.25500000920E-02 0.  1.
    10030    2    1    2    0    0  0.00000000000E+00  0.00000000000E+00  0.18386166689E+04  0.22929729927E+04  0.13701145536E+04 0.  0.
        1    1    3    3  502    0 -0.44591658627E+03  0.49016637894E+03  0.12101367531E+04  0.13796867913E+04  0.50400001928E-02 0. -1.
       -1    1    3    3    0  502  0.44591658627E+03 -0.49016637894E+03  0.62847991579E+03  0.91328620132E+03  0.50400001928E-02 0.  1.
</event>
<event>
 5   0  0.6097538E-04  0.1410897E+04  0.7818609E-02  0.8945968E-01
        1   -1    0    0  501    0  0.00000000000E+00  0.00000000000E+00  0.13471453485E+04  0.13471453486E+04  0.50400001928E-02 0.  1.
       -1   -1    0    0    0  501  0.00000000000E+00  0.00000000000E+00 -0.36941660069E+03  0.36941660072E+03  0.50400001928E-02 0. -1.
    10030    2    1    2    0    0  0.00000000000E+00  0.00000000000E+00  0.97772874786E+03  0.17165619493E+04  0.14108973816E+04 0.  0.
        2    1    3    3  502    0 -0.60854406949E+03  0.34035371251E+03  0.61928582738E+03  0.93256713975E+03  0.25500000920E-02 0. -1.
       -2    1    3    3    0  502  0.60854406949E+03 -0.34035371251E+03  0.35844292047E+03  0.78399480953E+03  0.25500000920E-02 0.  1.
</event>
<event>
 5   0  0.1108819E-03  0.1403058E+04  0.7818609E-02  0.8951608E-01
        2   -1    0    0  501    0  0.00000000000E+00  0.00000000000E+00  0.13298042221E+04  0.13298042221E+04  0.25500000920E-02 0.  1.
       -2   -1    0    0    0  501  0.00000000000E+00  0.00000000000E+00 -0.37008669594E+03  0.37008669595E+03  0.25500000920E-02 0. -1.
    10030    2    1    2    0    0  0.00000000000E+00  0.00000000000E+00  0.95971752614E+03  0.16998909180E+04  0.14030578759E+04 0.  0.
        3    1    3    3  502    0 -0.42275674509E+03 -0.13389347228E+03  0.11384537407E+04  0.12217723427E+04  0.10100000352E+00 0.  1.
       -3    1    3    3    0  502  0.42275674509E+03  0.13389347228E+03 -0.17873621461E+03  0.47811857531E+03  0.10100000352E+00 0. -1.
</event>
<event>
 5   0  0.6194742E-04  0.1389828E+04  0.7818609E-02  0.8961215E-01
        1   -1    0    0  501    0  0.00000000000E+00  0.00000000000E+00  0.57054352493E+03  0.57054352495E+03  0.50400001928E-02 0. -1.
       -1   -1    0    0    0  501  0.00000000000E+00  0.00000000000E+00 -0.84639552506E+03  0.84639552508E+03  0.50400001928E-02 0.  1.
    10030    2    1    2    0    0  0.00000000000E+00  0.00000000000E+00 -0.27585200013E+03  0.14169390500E+04  0.13898280273E+04 0.  0.
        4    1    3    3  502    0 -0.24564745836E+03 -0.14925955231E+03 -0.78294656414E+03  0.83404317811E+03  0.12699999809E+01 0.  1.
       -4    1    3    3    0  502  0.24564745836E+03  0.14925955231E+03  0.50709456400E+03  0.58289587191E+03  0.12699999809E+01 0. -1.
</event>
<event>
 5   0  0.1175146E-03  0.1408029E+04  0.7818609E-02  0.8948027E-01
       -2   -1    0    0    0  501  0.00000000000E+00  0.00000000000E+00  0.37648591393E+03  0.37648591394E+03  0.25500000920E-02 0. -1.
        2   -1    0    0  501    0  0.00000000000E+00  0.00000000000E+00 -0.13164808184E+04  0.13164808184E+04  0.25500000920E-02 0.  1.
    10030    2    1    2    0    0  0.00000000000E+00  0.00000000000E+00 -0.93999490446E+03  0.16929667323E+04  0.14080290964E+04 0.  0.
        1    1    3    3  502    0  0.19521419203E+03 -0.37031615665E+03  0.21058207139E+03  0.46860158500E+03  0.50400001928E-02 0. -1.
       -1    1    3    3    0  502 -0.19521419203E+03  0.37031615665E+03 -0.11505769758E+04  0.12243651473E+04  0.50400001928E-02 0.  1.
</event>
<event>
 5   0  0.6114266E-04  0.1415670E+04  0.7818609E-02  0.8942553E-01
        1   -1    0    0  501    0  0.00000000000E+00  0.00000000000E+00  0.60367232367E+03  0.60367232369E+03  0.50400001928E-02 0.  1.
       -1   -1    0    0    0  501  0.00000000000E+00  0.00000000000E+00 -0.82997082454E+03  0.82997082455E+03  0.50400001928E-02 0. -1.
    10030    2    1    2    0    0  0.00000000000E+00  0.00000000000E+00 -0.22629850087E+03  0.14336431482E+04  0.14156700410E+04 0.  0.
        3    1    3    3  502    0 -0.18030901950E+03 -0.49414020445E+02 -0.80451523157E+03  0.82595269596E+03  0.10100000352E+00 0. -1.
       -3    1    3    3    0  502  0.18030901950E+03  0.49414020445E+02  0.57821673070E+03  0.60769045228E+03  0.10100000352E+00 0.  1.
</event>
<event>
 5   0  0.1098949E-03  0.1388784E+04  0.7818609E-02  0.8961978E-01
       -2   -1    0    0    0  501  0.00000000000E+00  0.00000000000E+00  0.38658775788E+03  0.38658775789E+03  0.25500000920E-02 0.  1.
        2   -1    0    0  501    0  0.00000000000E+00  0.00000000000E+00 -0.12472722026E+04  0.12472722026E+04  0.25500000920E-02 0. -1.
    10030    2    1    2    0    0  0.00000000000E+00  0.00000000000E+00 -0.86068444474E+03  0.16338599605E+04  0.13887838771E+04 0.  0.
        4    1    3    3  502    0 -0.76717209114E+01  0.16375560357E+03 -0.12241782421E+04  0.12351067704E+04  0.12699999809E+01 0. -1.
       -4    1    3    3    0  502  0.76717209114E+01 -0.16375560357E+03  0.36349379736E+03  0.39875319010E+03  0.12699999809E+01 0.  1.
</event>
<event>
 5   0  0.4176125E-04  0.1374222E+04  0.7818609E-02  0.8972692E-01
        3   -1    0    0  501    0  0.00000000000E+00  0.00000000000E+00  0.92814217032E+03  0.92814217582E+03  0.10100000352E+00 0.  1.
       -3   -1    0    0    0  501  0.00000000000E+00  0.00000000000E+00 -0.50867363724E+03  0.50867364727E+03  0.10100000352E+00 0. -1.
    10030    2    1    2    0    0  0.00000000000E+00  0.00000000000E+00  0.41946853308E+03  0.14368158231E+04  0.13742219105E+04 0.  0.
        5    1    3    3  502    0  0.58874484456E+02  0.47819696583E+03  0.72190459249E+03  0.86793252831E+03  0.46999998093E+01 0.  1.
       -5    1    3    3    0  502 -0.58874484456E+02 -0.47819696583E+03 -0.30243605941E+03  0.56888329478E+03  0.46999998093E+01 0. -1.
</event>
<event>
 5   0  0.1098949E-03  0.1403191E+04  0.7818609E-02  0.8951512E-01
        2   -1    0    0  501    0  0.00000000000E+00  0.00000000000E+00  0.40992422392E+03  0.40992422393E+03  0.25500000920E-02 0. -1.
       -2   -1    0    0    0  501  0.00000000000E+00  0.00000000000E+00 -0.12007986503E+04  0.12007986503E+04  0.25500000920E-02 0.  1.
    10030    2    1    2    0    0  0.00000000000E+00  0.00000000000E+00 -0.79087442637E+03  0.16107228742E+04  0.14031912982E+04 0.  0.
        4    1    3    3  502    0  0.15879104690E+03  0.21919065766E+03  0.34757912158E+03  0.44053603670E+03  0.12699999809E+01 0. -1.
       -4    1    3    3    0  502 -0.15879104690E+03 -0.21919065766E+03 -0.11384535479E+04  0.11701868375E+04  0.12699999809E+01 0.  1.
</event>
<event>
 5   0  0.1095119E-03  0.1391189E+04  0.7818609E-02  0.8960221E-01
        2   -1    0    0  501    0  0.00000000000E+00  0.00000000000E+00  0.89932303488E+03  0.89932303488E+03  0.25500000920E-02 0.  1.
       -2   -1    0    0    0  501  0.00000000000E+00  0.00000000000E+00 -0.53801793817E+03  0.53801793818E+03  0.25500000920E-02 0. -1.
    10030    2    1    2    0    0  0.00000000000E+00  0.00000000000E+00  0.36130509671E+03  0.14373409731E+04  0.13911893113E+04 0.  0.
        5    1    3    3  502    0  0.51642893067E+03 -0.11628739955E+03  0.64685144724E+03  0.83585912959E+03  0.46999998093E+01 0.  1.
       -5    1    3    3    0  502 -0.51642893067E+03  0.11628739955E+03 -0.28554635053E+03  0.60148184347E+03  0.46999998093E+01 0. -1.
</event>
<event>
 5   0  0.1120053E-03  0.1393296E+04  0.7818609E-02  0.8958686E-01
       -2   -1    0    0    0  501  0.00000000000E+00  0.00000000000E+00  0.35949709116E+03  0.35949709117E+03  0.25500000920E-02 0.  1.
        2   -1    0    0  501    0  0.00000000000E+00  0.00000000000E+00 -0.13499921122E+04  0.13499921122E+04  0.25500000920E-02 0. -1.
    10030    2    1    2    0    0  0.00000000000E+00  0.00000000000E+00 -0.99049502101E+03  0.17094892033E+04  0.13932957151E+04 0.  0.
        2    1    3    3  502    0 -0.58464698560E+01  0.45405256741E+03 -0.11434620823E+04  0.12303265618E+04  0.25500000920E-02 0. -1.
       -2    1    3    3    0  502  0.58464698560E+01 -0.45405256741E+03  0.15296706125E+03  0.47916264150E+03  0.25500000920E-02 0.  1.
</event>
<event>
 5   0  0.1108819E-03  0.1395255E+04  0.7818609E-02  0.8957261E-01
        2   -1    0    0  501    0  0.00000000000E+00  0.00000000000E+00  0.73618751615E+03  0.73618751616E+03  0.25500000920E-02 0. -1.
       -2   -1    0    0    0  501  0.00000000000E+00  0.00000000000E+00 -0.66108695892E+03  0.66108695893E+03  0.25500000920E-02 0.  1.
    10030    2    1    2    0    0  0.00000000000E+00  0.00000000000E+00  0.75100557231E+02  0.13972744751E+04  0.13952547671E+04 0.  0.
        3    1    3    3  502    0 -0.44332923742E+03  0.20652883186E+03 -0.46065250274E+03  0.67185988838E+03  0.10100000352E+00 0.  1.
       -3    1    3    3    0  502  0.44332923742E+03 -0.20652883186E+03  0.53575305997E+03  0.72541458670E+03  0.10100000352E+00 0. -1.
</event>
<event>
 5   0  0.1108819E-03  0.1286888E+04  0.7818609E-02  0.9040029E-01
        2   -1    0    0  501    0  0.00000000000E+00  0.00000000000E+00  0.88114848075E+03  0.88114848076E+03  0.25500000920E-02 0. -1.
       -2   -1    0    0    0  501  0.00000000000E+00  0.00000000000E+00 -0.46986394996E+03  0.46986394997E+03  0.25500000920E-02 0.  1.
    10030    2    1    2    0    0  0.00000000000E+00  0.00000000000E+00  0.41128453079E+03  0.13510124307E+04  0.12868875719E+04 0.  0.
        3    1    3    3  502    0 -0.61473022537E+03 -0.13074238775E+03  0.60807372961E+02  0.63141457755E+03  0.10100000352E+00 0. -1.
       -3    1    3    3    0  502  0.61473022537E+03  0.13074238775E+03  0.35047715783E+03  0.71959785318E+03  0.10100000352E+00 0.  1.
</event>
<event>
 5   0  0.1120053E-03  0.1394058E+04  0.7818609E-02  0.8958131E-01
        2   -1    0    0  501    0  0.00000000000E+00  0.00000000000E+00  0.10579829572E+04  0.10579829572E+04  0.25500000920E-02 0. -1.
       -2   -1    0    0    0  501  0.00000000000E+00  0.00000000000E+00 -0.45922226053E+03  0.45922226054E+03  0.25500000920E-02 0.  1.
    10030    2    1    2    0    0  0.00000000000E+00  0.00000000000E+00  0.59876069666E+03  0.15172052177E+04  0.13940578542E+04 0.  0.
        2    1    3    3  502    0 -0.59712563842E+03  0.31915698622E+03  0.47962792310E+03  0.82973679835E+03  0.25500000920E-02 0. -1.
       -2    1    3    3    0  502  0.59712563842E+03 -0.31915698622E+03  0.11913277356E+03  0.68746841939E+03  0.25500000920E-02 0.  1.
</event>
<event>
 5   0  0.4176125E-04  0.1390977E+04  0.7818609E-02  0.8960376E-01
        3   -1    0    0  501    0  0.00000000000E+00  0.00000000000E+00  0.15272740901E+04  0.15272740935E+04  0.10100000352E+00 0.  1.
       -3   -1    0    0    0  501  0.00000000000E+00  0.00000000000E+00 -0.31671080971E+03  0.31671082581E+03  0.10100000352E+00 0. -1.
    10030    2    1    2    0    0  0.00000000000E+00  0.00000000000E+00  0.12105632804E+04  0.18439849193E+04  0.13909769684E+04 0.  0.
        1    1    3    3  502    0  0.28708566617E+03 -0.61848667846E+03  0.78685707359E+03  0.10411954694E+04  0.50400001928E-02 0.  1.
       -1    1    3    3    0  502 -0.28708566617E+03  0.61848667846E+03  0.42370620683E+03  0.80278944991E+03  0.50400001928E-02 0. -1.
</event>
<event>
 5   0  0.4176125E-04  0.1398070E+04  0.7818609E-02  0.8955217E-01
       -4   -1    0    0    0  501  0.00000000000E+00  0.00000000000E+00  0.15648505733E+04  0.15648510887E+04  0.12699999809E+01 0. -1.
        4   -1    0    0  501    0  0.00000000000E+00  0.00000000000E+00 -0.31226421570E+03  0.31226679828E+03  0.12699999809E+01 0.  1.
    10030    2    1    2    0    0  0.00000000000E+00  0.00000000000E+00  0.12525863576E+04  0.18771178869E+04  0.13980697330E+04 0.  0.
        4    1    3    3  502    0 -0.32928322967E+03 -0.21817978955E+03 -0.14805407379E+03  0.42184296554E+03  0.12699999809E+01 0.  1.
       -4    1    3    3    0  502  0.32928322967E+03  0.21817978955E+03  0.14006404314E+04  0.14552749214E+04  0.12699999809E+01 0. -1.
</event>
<event>
 5   0  0.1108819E-03  0.1404563E+04  0.7818609E-02  0.8950522E-01
        2   -1    0    0  501    0  0.00000000000E+00  0.00000000000E+00  0.31266435391E+03  0.31266435392E+03  0.25500000920E-02 0. -1.
       -2   -1    0    0    0  501  0.00000000000E+00  0.00000000000E+00 -0.15774087532E+04  0.15774087532E+04  0.25500000920E-02 0.  1.
    10030    2    1    2    0    0  0.00000000000E+00  0.00000000000E+00 -0.12647443993E+04  0.18900731071E+04  0.14045632612E+04 0.  0.
        3    1    3    3  502    0  0.49234485145E+03 -0.24410167075E+03 -0.43944574709E+02  0.55128959201E+03  0.10100000352E+00 0. -1.
       -3    1    3    3    0  502 -0.49234485145E+03  0.24410167075E+03 -0.12207998246E+04  0.13387835151E+04  0.10100000352E+00 0.  1.
</event>
<event>
 5   0  0.6194742E-04  0.1383553E+04  0.7818609E-02  0.8965810E-01
       -1   -1    0    0    0  501  0.00000000000E+00  0.00000000000E+00  0.18039282997E+03  0.18039283004E+03  0.50400001928E-02 0.  1.
        1   -1    0    0  501    0  0.00000000000E+00  0.00000000000E+00 -0.26528479365E+04  0.26528479365E+04  0.50400001928E-02 0. -1.
    10030    2    1    2    0    0  0.00000000000E+00  0.00000000000E+00 -0.24724551065E+04  0.28332407665E+04  0.13835530302E+04 0.  0.
        4    1    3    3  502    0  0.39438373083E+03 -0.13644018448E+03 -0.10640807786E+03  0.43067243123E+03  0.12699999809E+01 0.  1.
       -4    1    3    3    0  502 -0.39438373083E+03  0.13644018448E+03 -0.23660470286E+04  0.24025683353E+04  0.12699999809E+01 0. -1.
</event>
<event>
 5   0  0.1175146E-03  0.1389565E+04  0.7818609E-02  0.8961406E-01
       -2   -1    0    0    0  501  0.00000000000E+00  0.00000000000E+00  0.20654671345E+03  0.20654671346E+03  0.25500000920E-02 0.  1.
        2   -1    0    0  501    0  0.00000000000E+00  0.00000000000E+00 -0.23371128327E+04  0.23371128327E+04  0.25500000920E-02 0. -1.
    10030    2    1    2    0    0  0.00000000000E+00  0.00000000000E+00 -0.21305661193E+04  0.25436595462E+04  0.13895653631E+04 0.  0.
        1    1    3    3  502    0 -0.51986105138E+03  0.46004638564E+03 -0.10127115626E+04  0.12277959516E+04  0.50400001928E-02 0.  1.
       -1    1    3    3    0  502  0.51986105138E+03 -0.46004638564E+03 -0.11178545567E+04  0.13158635946E+04  0.50400001928E-02 0. -1.
</event>
<event>
 5   0  0.1120053E-03  0.1400533E+04  0.7818609E-02  0.8953433E-01
        2   -1    0    0  501    0  0.00000000000E+00  0.00000000000E+00  0.14776826563E+04  0.14776826563E+04  0.25500000920E-02 0. -1.
       -2   -1    0    0    0  501  0.00000000000E+00  0.00000000000E+00 -0.33185264221E+03  0.33185264222E+03  0.25500000920E-02 0.  1.
    10030    2    1    2    0    0  0.00000000000E+00  0.00000000000E+00  0.11458300141E+04  0.18095352986E+04  0.14005326042E+04 0.  0.
        2    1    3    3  502    0 -0.22749582885E+03  0.35599241378E+03 -0.14864612087E+03  0.44786227801E+03  0.25500000920E-02 0.  1.
       -2    1    3    3    0  502  0.22749582885E+03 -0.35599241378E+03  0.12944761350E+04  0.13616730205E+04  0.25500000920E-02 0. -1.
</event>
<event>
 5   0  0.6097538E-04  0.1335953E+04  0.7818609E-02  0.9001530E-01
        1   -1    0    0  501    0  0.00000000000E+00  0.00000000000E+00  0.51307006614E+03  0.51307006617E+03  0.50400001928E-02 0.  1.
       -1   -1    0    0    0  501  0.00000000000E+00  0.00000000000E+00 -0.86965257202E+03  0.86965257204E+03  0.50400001928E-02 0. -1.
    10030    2    1    2    0    0  0.00000000000E+00  0.00000000000E+00 -0.35658250588E+03  0.13827226382E+04  0.13359531469E+04 0.  0.
        2    1    3    3  502    0  0.84774921573E+02 -0.13259650582E+03  0.49360701366E+03  0.51808928248E+03  0.25500000920E-02 0.  1.
       -2    1    3    3    0  502 -0.84774921573E+02  0.13259650582E+03 -0.85018951954E+03  0.86463335572E+03  0.25500000920E-02 0. -1.
</event>
<event>
 5   0  0.1095119E-03  0.1405887E+04  0.7818609E-02  0.8949568E-01
        2   -1    0    0  501    0  0.00000000000E+00  0.00000000000E+00  0.43123131355E+03  0.43123131356E+03  0.25500000920E-02 0. -1.
       -2   -1    0    0    0  501  0.00000000000E+00  0.00000000000E+00 -0.11458576547E+04  0.11458576547E+04  0.25500000920E-02 0.  1.
    10030    2    1    2    0    0  0.00000000000E+00  0.00000000000E+00 -0.71462634111E+03  0.15770889682E+04  0.14058871954E+04 0.  0.
        5    1    3    3  502    0  0.62236785164E+03 -0.30152297971E+03 -0.49853995943E+03  0.85253858047E+03  0.46999998093E+01 0. -1.
       -5    1    3    3    0  502 -0.62236785164E+03  0.30152297971E+03 -0.21608638168E+03  0.72455038775E+03  0.46999998093E+01 0.  1.
</event>
<event>
 5   0  0.6114266E-04  0.1368455E+04  0.7818609E-02  0.8976974E-01
       -1   -1    0    0    0  501  0.00000000000E+00  0.00000000000E+00  0.35744037287E+03  0.35744037290E+03  0.50400001928E-02 0. -1.
        1   -1    0    0  501    0  0.00000000000E+00  0.00000000000E+00 -0.13097779162E+04  0.13097779162E+04  0.50400001928E-02 0.  1.
    10030    2    1    2    0    0  0.00000000000E+00  0.00000000000E+00 -0.95233754330E+03  0.16672182891E+04  0.13684553435E+04 0.  0.
        3    1    3    3  502    0 -0.28705403358E+03  0.30661659225E+03 -0.11342356837E+04  0.12095058285E+04  0.10100000352E+00 0.  1.
       -3    1    3    3    0  502  0.28705403358E+03 -0.30661659225E+03  0.18189814043E+03  0.45771246053E+03  0.10100000352E+00 0. -1.
</event>
<event>
 5   0  0.6114266E-04  0.1290030E+04  0.7818609E-02  0.9037509E-01
        1   -1    0    0  501    0  0.00000000000E+00  0.00000000000E+00  0.12923896786E+04  0.12923896786E+04  0.50400001928E-02 0.  1.
       -1   -1    0    0    0  501  0.00000000000E+00  0.00000000000E+00 -0.32191878709E+03  0.32191878713E+03  0.50400001928E-02 0. -1.
    10030    2    1    2    0    0  0.00000000000E+00  0.00000000000E+00  0.97047089153E+03  0.16143084658E+04  0.12900302598E+04 0.  0.
        3    1    3    3  502    0  0.53755904938E+03  0.35324181299E+03  0.54518386648E+03  0.84319331620E+03  0.10100000352E+00 0.  1.
       -3    1    3    3    0  502 -0.53755904938E+03 -0.35324181299E+03  0.42528702504E+03  0.77111514956E+03  0.10100000352E+00 0. -1.
</event>
<event>
 5   0  0.6194742E-04  0.1436903E+04  0.7818609E-02  0.8927531E-01
       -1   -1    0    0    0  501  0.00000000000E+00  0.00000000000E+00  0.61478926244E+03  0.61478926246E+03  0.50400001928E-02 0.  1.
        1   -1    0    0  501    0  0.00000000000E+00  0.00000000000E+00 -0.83959299972E+03  0.83959299973E+03  0.50400001928E-02 0. -1.
    10030    2    1    2    0    0  0.00000000000E+00  0.00000000000E+00 -0.22480373728E+03  0.14543822622E+04  0.14369032829E+04 0.  0.
        4    1    3    3  502    0  0.48005741450E+03  0.42806011745E+03 -0.43642184284E+03  0.77727486977E+03  0.12699999809E+01 0. -1.
       -4    1    3    3    0  502 -0.48005741450E+03 -0.42806011745E+03  0.21161810556E+03  0.67710739242E+03  0.12699999809E+01 0.  1.
</event>
<event>
 5   0  0.1098949E-03  0.1374329E+04  0.7818609E-02  0.8972613E-01
        2   -1    0    0  501    0  0.00000000000E+00  0.00000000000E+00  0.16624152983E+04  0.16624152983E+04  0.25500000920E-02 0.  1.
       -2   -1    0    0    0  501  0.00000000000E+00  0.00000000000E+00 -0.28404161673E+03  0.28404161674E+03  0.25500000920E-02 0. -1.
    10030    2    1    2    0    0  0.00000000000E+00  0.00000000000E+00  0.13783736816E+04  0.19464569151E+04  0.13743291149E+04 0.  0.
        4    1    3    3  502    0 -0.27930249676E+03 -0.58343812954E+03  0.36072955247E+03  0.74063307962E+03  0.12699999809E+01 0. -1.
       -4    1    3    3    0  502  0.27930249676E+03  0.58343812954E+03  0.10176441291E+04  0.12058238355E+04  0.12699999809E+01 0.  1.
</event>
<event>
 5   0  0.1120053E-03  0.1419960E+04  0.7818609E-02  0.8939496E-01
       -2   -1    0    0    0  501  0.00000000000E+00  0.00000000000E+00  0.66716277844E+03  0.66716277844E+03  0.25500000920E-02 0.  1.
        2   -1    0    0  501    0  0.00000000000E+00  0.00000000000E+00 -0.75554502124E+03  0.75554502124E+03  0.25500000920E-02 0. -1.
    10030    2    1    2    0    0  0.00000000000E+00  0.00000000000E+00 -0.88382242799E+02  0.14227077997E+04  0.14199598806E+04 0.  0.
        2    1    3    3  502    0  0.74389446085E+02 -0.59409494675E+03  0.33810844095E+03  0.68760447445E+03  0.25500000920E-02 0.  1.
       -2    1    3    3    0  502 -0.74389446085E+02  0.59409494675E+03 -0.42649068375E+03  0.73510332523E+03  0.25500000920E-02 0. -1.
</event>
<event>
 5   0  0.1098949E-03  0.1390048E+04  0.7818609E-02  0.8961054E-01
       -2   -1    0    0    0  501  0.00000000000E+00  0.00000000000E+00  0.51179903340E+03  0.51179903341E+03  0.25500000920E-02 0.  1.
        2   -1    0    0  501    0  0.00000000000E+00  0.00000000000E+00 -0.94384322508E+03  0.94384322508E+03  0.25500000920E-02 0. -1.
    10030    2    1    2    0    0  0.00000000000E+00  0.00000000000E+00 -0.43204419168E+03  0.14556422585E+04  0.13900475536E+04 0.  0.
        4    1    3    3  502    0  0.56141494853E+03 -0.40909091663E+03 -0.19227341224E+03  0.72077236383E+03  0.12699999809E+01 0.  1.
       -4    1    3    3    0  502 -0.56141494853E+03  0.40909091663E+03 -0.23977077944E+03  0.73486989466E+03  0.12699999809E+01 0. -1.
</event>
<event>
 5   0  0.1175146E-03  0.1408563E+04  0.7818609E-02  0.8947643E-01
       -2   -1    0    0    0  501  0.00000000000E+00  0.00000000000E+00  0.13377105812E+04  0.13377105812E+04  0.25500000920E-02 0. -1.
        2   -1    0    0  501    0  0.00000000000E+00  0.00000000000E+00 -0.37079225412E+03  0.37079225413E+03  0.25500000920E-02 0.  1.
    10030    2    1    2    0    0  0.00000000000E+00  0.00000000000E+00  0.96691832704E+03  0.17085028353E+04  0.14085634125E+04 0.  0.
        1    1    3    3  502    0  0.78661582421E+02  0.13860494210E+03  0.13155516589E+04  0.13251698539E+04  0.50400001928E-02 0. -1.
       -1    1    3    3    0  502 -0.78661582421E+02 -0.13860494210E+03 -0.34863333183E+03  0.38333298138E+03  0.50400001928E-02 0.  1.
</event>
<event>
 5   0  0.1108819E-03  0.1309860E+04  0.7818609E-02  0.9021783E-01
       -2   -1    0    0    0  501  0.00000000000E+00  0.00000000000E+00  0.40435160549E+03  0.40435160550E+03  0.25500000920E-02 0. -1.
        2   -1    0    0  501    0  0.00000000000E+00  0.00000000000E+00 -0.10607924187E+04  0.10607924187E+04  0.25500000920E-02 0.  1.
    10030    2    1    2    0    0  0.00000000000E+00  0.00000000000E+00 -0.65644081316E+03  0.14651440242E+04  0.13098597140E+04 0.  0.
        3    1    3    3  502    0 -0.23780000890E+03  0.60894758816E+03 -0.28394081423E+03  0.71273305350E+03  0.10100000352E+00 0. -1.
       -3    1    3    3    0  502  0.23780000890E+03 -0.60894758816E+03 -0.37249999894E+03  0.75241097066E+03  0.10100000352E+00 0.  1.
</event>
<event>
 5   0  0.5875298E-04  0.1401651E+04  0.7818609E-02  0.8952624E-01
        1   -1    0    0  501    0  0.00000000000E+00  0.00000000000E+00  0.64414496241E+03  0.64414496243E+03  0.50400001928E-02 0. -1.
       -1   -1    0    0    0  501  0.00000000000E+00  0.00000000000E+00 -0.76249338022E+03  0.76249338024E+03  0.50400001928E-02 0.  1.
    10030    2    1    2    0    0  0.00000000000E+00  0.00000000000E+00 -0.11834841781E+03  0.14066383427E+04  0.14016508406E+04 0.  0.
        1    1    3    3  502    0  0.10913627942E+03 -0.40744011295E+03  0.50249407080E+03  0.65606285091E+03  0.50400001928E-02 0. -1.
       -1    1    3    3    0  502 -0.10913627942E+03  0.40744011295E+03 -0.62084248861E+03  0.75057549175E+03  0.50400001928E-02 0.  1.
</event>
<event>
 5   0  0.1120053E-03  0.1397296E+04  0.7818609E-02  0.8955778E-01
        2   -1    0    0  501    0  0.00000000000E+00  0.00000000000E+00  0.10289372674E+04  0.10289372674E+04  0.25500000920E-02 0.  1.
       -2   -1    0    0    0  501  0.00000000000E+00  0.00000000000E+00 -0.47438155667E+03  0.47438155668E+03  0.25500000920E-02 0. -1.
    10030    2    1    2    0    0  0.00000000000E+00  0.00000000000E+00  0.55455571075E+03  0.15033188241E+04  0.13972957635E+04 0.  0.
        2    1    3    3  502    0  0.62028479421E+02  0.76230122071E+02 -0.46690758397E+03  0.47713861272E+03  0.25500000920E-02 0. -1.
       -2    1    3    3    0  502 -0.62028479421E+02 -0.76230122071E+02  0.10214632947E+04  0.10261802114E+04  0.25500000920E-02 0.  1.
</event>
<event>
 5   0  0.6097538E-04  0.1382454E+04  0.7818609E-02  0.8966618E-01
        1   -1    0    0  501    0  0.00000000000E+00  0.00000000000E+00  0.93074721707E+03  0.93074721709E+03  0.50400001928E-02 0. -1.
       -1   -1    0    0    0  501  0.00000000000E+00  0.00000000000E+00 -0.51334554555E+03  0.51334554558E+03  0.50400001928E-02 0.  1.
    10030    2    1    2    0    0  0.00000000000E+00  0.00000000000E+00  0.41740167152E+03  0.14440927627E+04  0.13824542494E+04 0.  0.
        2    1    3    3  502    0  0.30430763458E+03  0.12703749265E+03 -0.42588278248E+03  0.53862584920E+03  0.25500000920E-02 0.  1.
       -2    1    3    3    0  502 -0.30430763458E+03 -0.12703749265E+03  0.84328445401E+03  0.90546691346E+03  0.25500000920E-02 0. -1.
</event>
<event>
 5   0  0.1098949E-03  0.1394105E+04  0.7818609E-02  0.8958097E-01
        2   -1    0    0  501    0  0.00000000000E+00  0.00000000000E+00  0.22386861636E+04  0.22386861636E+04  0.25500000920E-02 0.  1.
       -2   -1    0    0    0  501  0.00000000000E+00  0.00000000000E+00 -0.21703903088E+03  0.21703903089E+03  0.25500000920E-02 0. -1.
    10030    2    1    2    0    0  0.00000000000E+00  0.00000000000E+00  0.20216471328E+04  0.24557251945E+04  0.13941051258E+04 0.  0.
        4    1    3    3  502    0 -0.50640680604E+02 -0.69371704017E+03  0.10910224655E+04  0.12938854059E+04  0.12699999809E+01 0. -1.
       -4    1    3    3    0  502  0.50640680604E+02  0.69371704017E+03  0.93062466721E+03  0.11618397886E+04  0.12699999809E+01 0.  1.
</event>
<event>
 5   0  0.1098949E-03  0.1432785E+04  0.7818609E-02  0.8930423E-01
       -2   -1    0    0    0  501  0.00000000000E+00  0.00000000000E+00  0.19518724235E+03  0.19518724237E+03  0.25500000920E-02 0.  1.
        2   -1    0    0  501    0  0.00000000000E+00  0.00000000000E+00 -0.26293642899E+04  0.26293642899E+04  0.25500000920E-02 0. -1.
    10030    2    1    2    0    0  0.00000000000E+00  0.00000000000E+00 -0.24341770475E+04  0.28245515322E+04  0.14327852106E+04 0.  0.
        4    1    3    3  502    0 -0.47644588162E+03  0.36264861694E+03 -0.19924718420E+04  0.20804952179E+04  0.12699999809E+01 0. -1.
       -4    1    3    3    0  502  0.47644588162E+03 -0.36264861694E+03 -0.44170520552E+03  0.74405631437E+03  0.12699999809E+01 0.  1.
</event>
<event>
 5   0  0.5875298E-04  0.1382325E+04  0.7818609E-02  0.8966713E-01
        1   -1    0    0  501    0  0.00000000000E+00  0.00000000000E+00  0.56581075480E+03  0.56581075482E+03  0.50400001928E-02 0.  1.
       -1   -1    0    0    0  501  0.00000000000E+00  0.00000000000E+00 -0.84428470431E+03  0.84428470432E+03  0.50400001928E-02 0. -1.
    10030    2    1    2    0    0  0.00000000000E+00  0.00000000000E+00 -0.27847394951E+03  0.14100954591E+04  0.13823246592E+04 0.  0.
        1    1    3    3  502    0  0.30551142192E+03  0.36723434109E+03  0.37030491289E+03  0.60442039901E+03  0.50400001928E-02 0.  1.
       -1    1    3    3    0  502 -0.30551142192E+03 -0.36723434109E+03 -0.64877886240E+03  0.80567506014E+03  0.50400001928E-02 0. -1.
</event>
<event>
 5   0  0.6114266E-04  0.1385168E+04  0.7818609E-02  0.8964625E-01
       -1   -1    0    0    0  501  0.00000000000E+00  0.00000000000E+00  0.10407873390E+04  0.10407873391E+04  0.50400001928E-02 0.  1.
        1   -1    0    0  501    0  0.00000000000E+00  0.00000000000E+00 -0.46087448815E+03  0.46087448817E+03  0.50400001928E-02 0. -1.
    10030    2    1    2    0    0  0.00000000000E+00  0.00000000000E+00  0.57991285090E+03  0.15016618272E+04  0.13851676176E+04 0.  0.
        3    1    3    3  502    0 -0.66265274988E+02  0.45362007151E+03  0.85276059487E+03  0.96817503496E+03  0.10100000352E+00 0.  1.
       -3    1    3    3    0  502  0.66265274988E+02 -0.45362007151E+03 -0.27284774397E+03  0.53348679228E+03  0.10100000352E+00 0. -1.
</event>
<event>
 5   0  0.1108819E-03  0.1400273E+04  0.7818609E-02  0.8953621E-01
        2   -1    0    0  501    0  0.00000000000E+00  0.00000000000E+00  0.14451889205E+04  0.14451889205E+04  0.25500000920E-02 0.  1.
       -2   -1    0    0    0  501  0.00000000000E+00  0.00000000000E+00 -0.33918821816E+03  0.33918821817E+03  0.25500000920E-02 0. -1.
    10030    2    1    2    0    0  0.00000000000E+00  0.00000000000E+00  0.11060007023E+04  0.17843771387E+04  0.14002729089E+04 0.  0.
        3    1    3    3  502    0 -0.29184891692E+03  0.51646507719E+02  0.13613045398E+04  0.13931953246E+04  0.10100000352E+00 0.  1.
       -3    1    3    3    0  502  0.29184891692E+03 -0.51646507719E+02 -0.25530383747E+03  0.39118181411E+03  0.10100000352E+00 0. -1.
</event>
<event>
 5   0  0.6153318E-04  0.1405180E+04  0.7818609E-02  0.8950078E-01
        1   -1    0    0  501    0  0.00000000000E+00  0.00000000000E+00  0.35099904744E+03  0.35099904747E+03  0.50400001928E-02 0.  1.
       -1   -1    0    0    0  501  0.00000000000E+00  0.00000000000E+00 -0.14063638323E+04  0.14063638323E+04  0.50400001928E-02 0. -1.
    10030    2    1    2    0    0  0.00000000000E+00  0.00000000000E+00 -0.10553647849E+04  0.17573628798E+04  0.14051795124E+04 0.  0.
        5    1    3    3  502    0 -0.69996181249E+03 -0.59233149110E+02 -0.54326120702E+03  0.88803712419E+03  0.46999998093E+01 0.  1.
       -5    1    3    3    0  502  0.69996181249E+03  0.59233149110E+02 -0.51210357785E+03  0.86932575559E+03  0.46999998093E+01 0. -1.
</event>
<event>
 5   0  0.6194742E-04  0.1348042E+04  0.7818609E-02  0.8992312E-01
        1   -1    0    0  501    0  0.00000000000E+00  0.00000000000E+00  0.13229837098E+04  0.13229837098E+04  0.50400001928E-02 0.  1.
       -1   -1    0    0    0  501  0.00000000000E+00  0.00000000000E+00 -0.34339376904E+03  0.34339376908E+03  0.50400001928E-02 0. -1.
    10030    2    1    2    0    0  0.00000000000E+00  0.00000000000E+00  0.97958994077E+03  0.16663774789E+04  0.13480420803E+04 0.  0.
        4    1    3    3  502    0 -0.61566801076E+01  0.50425535184E+03  0.10426045780E+04  0.11581611647E+04  0.12699999809E+01 0.  1.
       -4    1    3    3    0  502  0.61566801076E+01 -0.50425535184E+03 -0.63014637224E+02  0.50821631416E+03  0.12699999809E+01 0. -1.
</event>
<event>
 5   0  0.1098949E-03  0.1414425E+04  0.7818609E-02  0.8943443E-01
        2   -1    0    0  501    0  0.00000000000E+00  0.00000000000E+00  0.10326844699E+04  0.10326844699E+04  0.25500000920E-02 0.  1.
       -2   -1    0    0    0  501  0.00000000000E+00  0.00000000000E+00 -0.48431982173E+03  0.48431982174E+03  0.25500000920E-02 0. -1.
    10030    2    1    2    0    0  0.00000000000E+00  0.00000000000E+00  0.54836464812E+03  0.15170042916E+04  0.14144250540E+04 0.  0.
        4    1    3    3  502    0 -0.67845431722E+03 -0.50238212749E+01  0.48821044351E+03  0.83586873933E+03  0.12699999809E+01 0.  1.
       -4    1    3    3    0  502  0.67845431722E+03  0.50238212749E+01  0.60154204608E+02  0.68113555227E+03  0.12699999809E+01 0. -1.
</event>
<event>
 5   0  0.1175146E-03  0.1461791E+04  0.7818609E-02  0.8910267E-01
       -2   -1    0    0    0  501  0.00000000000E+00  0.00000000000E+00  0.41404162292E+03  0.41404162293E+03  0.25500000920E-02 0.  1.
        2   -1    0    0  501    0  0.00000000000E+00  0.00000000000E+00 -0.12902276149E+04  0.12902276150E+04  0.25500000920E-02 0. -1.
    10030    2    1    2    0    0  0.00000000000E+00  0.00000000000E+00 -0.87618599203E+03  0.17042692379E+04  0.14617905946E+04 0.  0.
        1    1    3    3  502    0  0.61829194518E+03  0.21317404627E+03 -0.81853347578E+03  0.10477237969E+04  0.50400001928E-02 0. -1.
       -1    1    3    3    0  502 -0.61829194518E+03 -0.21317404627E+03 -0.57652516242E+02  0.65654544103E+03  0.50400001928E-02 0.  1.
</event>
<event>
 5   0  0.6097538E-04  0.1397356E+04  0.7818609E-02  0.8955735E-01
        1   -1    0    0  501    0  0.00000000000E+00  0.00000000000E+00  0.64244029318E+03  0.64244029320E+03  0.50400001928E-02 0. -1.
       -1   -1    0    0    0  501  0.00000000000E+00  0.00000000000E+00 -0.75983849408E+03  0.75983849410E+03  0.50400001928E-02 0.  1.
    10030    2    1    2    0    0  0.00000000000E+00  0.00000000000E+00 -0.11739820090E+03  0.14022787873E+04  0.13973558816E+04 0.  0.
        2    1    3    3  502    0  0.72263012677E+02 -0.35051750375E+03 -0.66086843641E+03  0.75155276174E+03  0.25500000920E-02 0.  1.
       -2    1    3    3    0  502 -0.72263012677E+02  0.35051750375E+03  0.54347023551E+03  0.65072602555E+03  0.25500000920E-02 0. -1.
</event>
<event>
 5   0  0.1120053E-03  0.1385652E+04  0.7818609E-02  0.8964271E-01
        2   -1    0    0  501    0  0.00000000000E+00  0.00000000000E+00  0.15035923770E+04  0.15035923770E+04  0.25500000920E-02 0.  1.
       -2   -1    0    0    0  501  0.00000000000E+00  0.00000000000E+00 -0.31924055692E+03  0.31924055693E+03  0.25500000920E-02 0. -1.
    10030    2    1    2    0    0  0.00000000000E+00  0.00000000000E+00  0.11843518201E+04  0.18228329340E+04  0.13856517136E+04 0.  0.
        2    1    3    3  502    0 -0.34641107885E+02 -0.31744144302E+03  0.14010126158E+04  0.14369430837E+04  0.25500000920E-02 0.  1.
       -2    1    3    3    0  502  0.34641107885E+02  0.31744144302E+03 -0.21666079573E+03  0.38588985024E+03  0.25500000920E-02 0. -1.
</event>
<event>
 5   0  0.1175146E-03  0.1393843E+04  0.7818609E-02  0.8958288E-01
       -2   -1    0    0    0  501  0.00000000000E+00  0.00000000000E+00  0.37355841291E+03  0.37355841292E+03  0.25500000920E-02 0.  1.
        2   -1    0    0  501    0  0.00000000000E+00  0.00000000000E+00 -0.13001962946E+04  0.13001962946E+04  0.25500000920E-02 0. -1.
    10030    2    1    2    0    0  0.00000000000E+00  0.00000000000E+00 -0.92663788173E+03  0.16737547076E+04  0.13938425511E+04 0.  0.
        1    1    3    3  502    0 -0.61663988498E+03 -0.33686382429E+02 -0.85116675637E+03  0.10516008593E+04  0.50400001928E-02 0. -1.
       -1    1    3    3    0  502  0.61663988498E+03  0.33686382429E+02 -0.75471125356E+02  0.62215384826E+03  0.50400001928E-02 0.  1.
</event>
<event>
 5   0  0.1108819E-03  0.1287468E+04  0.7818609E-02  0.9039563E-01
        2   -1    0    0  501    0  0.00000000000E+00  0.00000000000E+00  0.77984824533E+03  0.77984824533E+03  0.25500000920E-02 0.  1.
       -2   -1    0    0    0  501  0.00000000000E+00  0.00000000000E+00 -0.53137703446E+03  0.53137703447E+03  0.25500000920E-02 0. -1.
    10030    2    1    2    0    0  0.00000000000E+00  0.00000000000E+00  0.24847121086E+03  0.13112252798E+04  0.12874679770E+04 0.  0.
        3    1    3    3  502    0 -0.35614457411E+03  0.43055180306E+03  0.44978960115E+03  0.71730363745E+03  0.10100000352E+00 0.  1.
       -3    1    3    3    0  502  0.35614457411E+03 -0.43055180306E+03 -0.20131839029E+03  0.59392164236E+03  0.10100000352E+00 0. -1.
</event>
<event>
 5   0  0.1120053E-03  0.1407496E+04  0.7818609E-02  0.8948410E-01
        2   -1    0    0  501    0  0.00000000000E+00  0.00000000000E+00  0.14209693047E+04  0.14209693047E+04  0.25500000920E-02 0. -1.
       -2   -1    0    0    0  501  0.00000000000E+00  0.00000000000E+00 -0.34853754287E+03  0.34853754288E+03  0.25500000920E-02 0.  1.
    10030    2    1    2    0    0  0.00000000000E+00  0.00000000000E+00  0.10724317618E+04  0.17695068476E+04  0.14074958614E+04 0.  0.
        2    1    3    3  502    0 -0.33956607494E+03 -0.29281561627E+03  0.12181423689E+04  0.12980435029E+04  0.25500000920E-02 0. -1.
       -2    1    3    3    0  502  0.33956607494E+03  0.29281561627E+03 -0.14571060709E+03  0.47146334471E+03  0.25500000920E-02 0.  1.
</event>
<event>
 5   0  0.6153318E-04  0.1151658E+04  0.7818609E-02  0.9156255E-01
        1   -1    0    0  501    0  0.00000000000E+00  0.00000000000E+00  0.78814083593E+03  0.78814083594E+03  0.50400001928E-02 0.  1.
       -1   -1    0    0    0  501  0.00000000000E+00  0.00000000000E+00 -0.42071059909E+03  0.42071059912E+03  0.50400001928E-02 0. -1.
    10030    2    1    2    0    0  0.00000000000E+00  0.00000000000E+00  0.36743023684E+03  0.12088514351E+04  0.11516582883E+04 0.  0.
        5    1    3    3  502    0  0.10629320002E+03  0.39393430910E+03  0.61018607260E+03  0.73405150872E+03  0.46999998093E+01 0.  1.
       -5    1    3    3    0  502 -0.10629320002E+03 -0.39393430910E+03 -0.24275583576E+03  0.47479992634E+03  0.46999998093E+01 0. -1.
</event>
<event>
 5   0  0.1098949E-03  0.1429302E+04  0.7818609E-02  0.8932878E-01
       -2   -1    0    0    0  501  0.00000000000E+00  0.00000000000E+00  0.39454527244E+03  0.39454527245E+03  0.25500000920E-02 0. -1.
        2   -1    0    0  501    0  0.00000000000E+00  0.00000000000E+00 -0.12944666953E+04  0.12944666953E+04  0.25500000920E-02 0.  1.
    10030    2    1    2    0    0  0.00000000000E+00  0.00000000000E+00 -0.89992142281E+03  0.16890119677E+04  0.14293015287E+04 0.  0.
        4    1    3    3  502    0 -0.32674232336E+03  0.31888143646E+03 -0.10996598217E+04  0.11906717653E+04  0.12699999809E+01 0.  1.
       -4    1    3    3    0  502  0.32674232336E+03 -0.31888143646E+03  0.19973839890E+03  0.49834020236E+03  0.12699999809E+01 0. -1.
</event>
<event>
 5   0  0.6114266E-04  0.1422852E+04  0.7818609E-02  0.8937441E-01
       -1   -1    0    0    0  501  0.00000000000E+00  0.00000000000E+00  0.33961189972E+03  0.33961189976E+03  0.50400001928E-02 0.  1.
        1   -1    0    0  501    0  0.00000000000E+00  0.00000000000E+00 -0.14903108362E+04  0.14903108362E+04  0.50400001928E-02 0. -1.
    10030    2    1    2    0    0  0.00000000000E+00  0.00000000000E+00 -0.11506989365E+04  0.18299227360E+04  0.14228524791E+04 0.  0.
        3    1    3    3  502    0  0.12607875132E+03 -0.91826534334E+02 -0.14680503621E+04  0.14763129207E+04  0.10100000352E+00 0. -1.
       -3    1    3    3    0  502 -0.12607875132E+03  0.91826534334E+02  0.31735142560E+03  0.35360981529E+03  0.10100000352E+00 0.  1.
</event>
<event>
 5   0  0.5875298E-04  0.1402974E+04  0.7818609E-02  0.8951669E-01
       -1   -1    0    0    0  501  0.00000000000E+00  0.00000000000E+00  0.48867844120E+03  0.48867844122E+03  0.50400001928E-02 0.  1.
        1   -1    0    0  501    0  0.00000000000E+00  0.00000000000E+00 -0.10069683551E+04  0.10069683551E+04  0.50400001928E-02 0. -1.
    10030    2    1    2    0    0  0.00000000000E+00  0.00000000000E+00 -0.51828991390E+03  0.14956467963E+04  0.14029735937E+04 0.  0.
        1    1    3    3  502    0 -0.53710609064E+03 -0.18082857010E+03  0.18156500623E+03  0.59510316406E+03  0.50400001928E-02 0.  1.
       -1    1    3    3    0  502  0.53710609064E+03  0.18082857010E+03 -0.69985492013E+03  0.90054363227E+03  0.50400001928E-02 0. -1.
</event>
<event>
 5   0  0.1108819E-03  0.1399799E+04  0.7818609E-02  0.8953964E-01
       -2   -1    0    0    0  501  0.00000000000E+00  0.00000000000E+00  0.10473216057E+04  0.10473216057E+04  0.25500000920E-02 0.  1.
        2   -1    0    0  501    0  0.00000000000E+00  0.00000000000E+00 -0.46772587300E+03  0.46772587301E+03  0.25500000920E-02 0. -1.
    10030    2    1    2    0    0  0.00000000000E+00  0.00000000000E+00  0.57959573273E+03  0.15150474787E+04  0.13997991461E+04 0.  0.
        3    1    3    3  502    0  0.46361044187E+03 -0.26212251504E+03  0.78129645438E+03  0.94555116970E+03  0.10100000352E+00 0.  1.
       -3    1    3    3    0  502 -0.46361044187E+03  0.26212251504E+03 -0.20170072164E+03  0.56949630904E+03  0.10100000352E+00 0. -1.
</event>
<event>
 5   0  0.4176125E-04  0.1403098E+04  0.7818609E-02  0.8951579E-01
       -3   -1    0    0    0  501  0.00000000000E+00  0.00000000000E+00  0.97147462355E+03  0.97147462880E+03  0.10100000352E+00 0.  1.
        3   -1    0    0  501    0  0.00000000000E+00  0.00000000000E+00 -0.50662281276E+03  0.50662282283E+03  0.10100000352E+00 0. -1.
    10030    2    1    2    0    0  0.00000000000E+00  0.00000000000E+00  0.46485181078E+03  0.14780974516E+04  0.14030983111E+04 0.  0.
        4    1    3    3  502    0  0.25733477072E+03 -0.61957516537E+03  0.16339617379E+02  0.67109102644E+03  0.12699999809E+01 0.  1.
       -4    1    3    3    0  502 -0.25733477072E+03  0.61957516537E+03  0.44851219341E+03  0.80700642519E+03  0.12699999809E+01 0. -1.
</event>
<event>
 5   0  0.6114266E-04  0.1395324E+04  0.7818609E-02  0.8957211E-01
       -1   -1    0    0    0  501  0.00000000000E+00  0.00000000000E+00  0.17343897184E+04  0.17343897184E+04  0.50400001928E-02 0.  1.
        1   -1    0    0  501    0  0.00000000000E+00  0.00000000000E+00 -0.28063588727E+03  0.28063588731E+03  0.50400001928E-02 0. -1.
    10030    2    1    2    0    0  0.00000000000E+00  0.00000000000E+00  0.14537538311E+04  0.20150256057E+04  0.13953236149E+04 0.  0.
        3    1    3    3  502    0 -0.53801212676E+02 -0.42534642133E+03 -0.67941735460E+02  0.43408551950E+03  0.10100000352E+00 0. -1.
       -3    1    3    3    0  502  0.53801212676E+02  0.42534642133E+03  0.15216955666E+04  0.15809400862E+04  0.10100000352E+00 0.  1.
</event>
<event>
 5   0  0.6194742E-04  0.1418588E+04  0.7818609E-02  0.8940472E-01
       -1   -1    0    0    0  501  0.00000000000E+00  0.00000000000E+00  0.70432346711E+03  0.70432346713E+03  0.50400001928E-02 0. -1.
        1   -1    0    0  501    0  0.00000000000E+00  0.00000000000E+00 -0.71430008265E+03  0.71430008267E+03  0.50400001928E-02 0.  1.
    10030    2    1    2    0    0  0.00000000000E+00  0.00000000000E+00 -0.99766155408E+01  0.14186235498E+04  0.14185884686E+04 0.  0.
        4    1    3    3  502    0  0.12778729593E+03  0.52180631898E+03  0.45814869009E+03  0.70605471648E+03  0.12699999809E+01 0. -1.
       -4    1    3    3    0  502 -0.12778729593E+03 -0.52180631898E+03 -0.46812530563E+03  0.71256883331E+03  0.12699999809E+01 0.  1.
</event>
<event>
 5   0  0.6153318E-04  0.1424930E+04  0.7818609E-02  0.8935968E-01
        1   -1    0    0  501    0  0.00000000000E+00  0.00000000000E+00  0.70312213339E+03  0.70312213341E+03  0.50400001928E-02 0.  1.
       -1   -1    0    0    0  501  0.00000000000E+00  0.00000000000E+00 -0.72193223198E+03  0.72193223200E+03  0.50400001928E-02 0. -1.
    10030    2    1    2    0    0  0.00000000000E+00  0.00000000000E+00 -0.18810098593E+02  0.14250543654E+04  0.14249302174E+04 0.  0.
        5    1    3    3  502    0  0.41526539129E+03 -0.50585034049E+03 -0.29095138610E+03  0.71624347205E+03  0.46999998093E+01 0. -1.
       -5    1    3    3    0  502 -0.41526539129E+03  0.50585034049E+03  0.27214128751E+03  0.70881089336E+03  0.46999998093E+01 0.  1.
</event>
<event>
 5   0  0.6194742E-04  0.1330955E+04  0.7818609E-02  0.9005372E-01
        1   -1    0    0  501    0  0.00000000000E+00  0.00000000000E+00  0.13951452562E+04  0.13951452562E+04  0.50400001928E-02 0. -1.
       -1   -1    0    0    0  501  0.00000000000E+00  0.00000000000E+00 -0.31742943708E+03  0.31742943712E+03  0.50400001928E-02 0.  1.
    10030    2    1    2    0    0  0.00000000000E+00  0.00000000000E+00  0.10777158191E+04  0.17125746933E+04  0.13309548052E+04 0.  0.
        4    1    3    3  502    0 -0.69631360483E+02 -0.52859122998E+02  0.13877228832E+04  0.13904743891E+04  0.12699999809E+01 0. -1.
       -4    1    3    3    0  502  0.69631360483E+02  0.52859122998E+02 -0.31000706414E+03  0.32210030419E+03  0.12699999809E+01 0.  1.
</event>
<event>
 5   0  0.1108819E-03  0.1377713E+04  0.7818609E-02  0.8970111E-01
       -2   -1    0    0    0  501  0.00000000000E+00  0.00000000000E+00  0.32188947869E+03  0.32188947870E+03  0.25500000920E-02 0. -1.
        2   -1    0    0  501    0  0.00000000000E+00  0.00000000000E+00 -0.14741809406E+04  0.14741809407E+04  0.25500000920E-02 0.  1.
    10030    2    1    2    0    0  0.00000000000E+00  0.00000000000E+00 -0.11522914620E+04  0.17960704193E+04  0.13777130826E+04 0.  0.
        3    1    3    3  502    0  0.37408756859E+03 -0.45398686446E+03 -0.10886429719E+03  0.59824495608E+03  0.10100000352E+00 0. -1.
       -3    1    3    3    0  502 -0.37408756859E+03  0.45398686446E+03 -0.10434271648E+04  0.11978254633E+04  0.10100000352E+00 0.  1.
</event>
<event>
 5   0  0.5875298E-04  0.1397383E+04  0.7818609E-02  0.8955715E-01
        1   -1    0    0  501    0  0.00000000000E+00  0.00000000000E+00  0.20435463004E+04  0.20435463004E+04  0.50400001928E-02 0.  1.
       -1   -1    0    0    0  501  0.00000000000E+00  0.00000000000E+00 -0.23888366191E+03  0.23888366196E+03  0.50400001928E-02 0. -1.
    10030    2    1    2    0    0  0.00000000000E+00  0.00000000000E+00  0.18046626385E+04  0.22824299624E+04  0.13973830163E+04 0.  0.
        1    1    3    3  502    0  0.38571233597E+03 -0.19762043997E+03  0.17974693696E+04  0.18489791722E+04  0.50400001928E-02 0.  1.
       -1    1    3    3    0  502 -0.38571233597E+03  0.19762043997E+03  0.71932689182E+01  0.43345079023E+03  0.50400001928E-02 0. -1.
</event>
<event>
 5   0  0.1108819E-03  0.1386154E+04  0.7818609E-02  0.8963902E-01
        2   -1    0    0  501    0  0.00000000000E+00  0.00000000000E+00  0.15130318294E+04  0.15130318294E+04  0.25500000920E-02 0. -1.
       -2   -1    0    0    0  501  0.00000000000E+00  0.00000000000E+00 -0.31747891549E+03  0.31747891551E+03  0.25500000920E-02 0.  1.
    10030    2    1    2    0    0  0.00000000000E+00  0.00000000000E+00  0.11955529139E+04  0.18305107449E+04  0.13861539659E+04 0.  0.
        3    1    3    3  502    0  0.31406529276E+03  0.57456265117E+03  0.29781137397E+03  0.71934058199E+03  0.10100000352E+00 0.  1.
       -3    1    3    3    0  502 -0.31406529276E+03 -0.57456265117E+03  0.89774153995E+03  0.11111701629E+04  0.10100000352E+00 0. -1.
</event>
<event>
 5   0  0.1098949E-03  0.1412358E+04  0.7818609E-02  0.8944922E-01
       -2   -1    0    0    0  501  0.00000000000E+00  0.00000000000E+00  0.10396853430E+04  0.10396853430E+04  0.25500000920E-02 0.  1.
        2   -1    0    0  501    0  0.00000000000E+00  0.00000000000E+00 -0.47965331389E+03  0.47965331389E+03  0.25500000920E-02 0. -1.
    10030    2    1    2    0    0  0.00000000000E+00  0.00000000000E+00  0.56003202909E+03  0.15193386569E+04  0.14123576320E+04 0.  0.
        4    1    3    3  502    0 -0.11359811669E+03  0.69632786905E+03  0.31246495496E+03  0.77163008903E+03  0.12699999809E+01 0. -1.
       -4    1    3    3    0  502  0.11359811669E+03 -0.69632786905E+03  0.24756707414E+03  0.74770856784E+03  0.12699999809E+01 0.  1.
</event>
<event>
 5   0  0.6194742E-04  0.1388824E+04  0.7818609E-02  0.8961949E-01
        1   -1    0    0  501    0  0.00000000000E+00  0.00000000000E+00  0.52568674137E+03  0.52568674139E+03  0.50400001928E-02 0. -1.
       -1   -1    0    0    0  501  0.00000000000E+00  0.00000000000E+00 -0.91729112886E+03  0.91729112888E+03  0.50400001928E-02 0.  1.
    10030    2    1    2    0    0  0.00000000000E+00  0.00000000000E+00 -0.39160438750E+03  0.14429778703E+04  0.13888236525E+04 0.  0.
        4    1    3    3  502    0  0.63352855941E+02  0.66368067855E+03 -0.39759307683E+03  0.77625221100E+03  0.12699999809E+01 0. -1.
       -4    1    3    3    0  502 -0.63352855941E+02 -0.66368067855E+03  0.59886893396E+01  0.66672565927E+03  0.12699999809E+01 0.  1.
</event>
<event>
 5   0  0.5875298E-04  0.1423747E+04  0.7818609E-02  0.8936806E-01
        1   -1    0    0  501    0  0.00000000000E+00  0.00000000000E+00  0.15921868394E+04  0.15921868394E+04  0.50400001928E-02 0. -1.
       -1   -1    0    0    0  501  0.00000000000E+00  0.00000000000E+00 -0.31828187524E+03  0.31828187528E+03  0.50400001928E-02 0.  1.
    10030    2    1    2    0    0  0.00000000000E+00  0.00000000000E+00  0.12739049641E+04  0.19104687146E+04  0.14237474678E+04 0.  0.
        1    1    3    3  502    0  0.18806231219E+03  0.66842094977E+03  0.42644639565E+03  0.81486841131E+03  0.50400001928E-02 0.  1.
       -1    1    3    3    0  502 -0.18806231219E+03 -0.66842094977E+03  0.84745856847E+03  0.10956003033E+04  0.50400001928E-02 0. -1.
</event>
<event>
 5   0  0.1120053E-03  0.1389599E+04  0.7818609E-02  0.8961382E-01
        2   -1    0    0  501    0  0.00000000000E+00  0.00000000000E+00  0.18213154009E+04  0.18213154009E+04  0.25500000920E-02 0.  1.
       -2   -1    0    0    0  501  0.00000000000E+00  0.00000000000E+00 -0.26505352253E+03  0.26505352254E+03  0.25500000920E-02 0. -1.
    10030    2    1    2    0    0  0.00000000000E+00  0.00000000000E+00  0.15562618784E+04  0.20863689234E+04  0.13895985934E+04 0.  0.
        2    1    3    3  502    0  0.61416748229E+03  0.19234203994E+03  0.38503188077E+03  0.74996446973E+03  0.25500000920E-02 0. -1.
       -2    1    3    3    0  502 -0.61416748229E+03 -0.19234203994E+03  0.11712299976E+04  0.13364044537E+04  0.25500000920E-02 0.  1.
</event>
<event>
 5   0  0.1108819E-03  0.1392761E+04  0.7818609E-02  0.8959075E-01
       -2   -1    0    0    0  501  0.00000000000E+00  0.00000000000E+00  0.54482158472E+03  0.54482158473E+03  0.25500000920E-02 0. -1.
        2   -1    0    0  501    0  0.00000000000E+00  0.00000000000E+00 -0.89009983386E+03  0.89009983386E+03  0.25500000920E-02 0.  1.
    10030    2    1    2    0    0  0.00000000000E+00  0.00000000000E+00 -0.34527824914E+03  0.14349214186E+04  0.13927607146E+04 0.  0.
        3    1    3    3  502    0 -0.16842392097E+03  0.54699762966E+03  0.23607168645E+03  0.61911458984E+03  0.10100000352E+00 0. -1.
       -3    1    3    3    0  502  0.16842392097E+03 -0.54699762966E+03 -0.58134993559E+03  0.81580682874E+03  0.10100000352E+00 0.  1.
</event>
<event>
 5   0  0.6194742E-04  0.1368841E+04  0.7818609E-02  0.8976687E-01
       -1   -1    0    0    0  501  0.00000000000E+00  0.00000000000E+00  0.65938514549E+03  0.65938514551E+03  0.50400001928E-02 0. -1.
        1   -1    0    0  501    0  0.00000000000E+00  0.00000000000E+00 -0.71040676051E+03  0.71040676053E+03  0.50400001928E-02 0.  1.
    10030    2    1    2    0    0  0.00000000000E+00  0.00000000000E+00 -0.51021615017E+02  0.13697919060E+04  0.13688413570E+04 0.  0.
        4    1    3    3  502    0 -0.35186791785E+03 -0.35062175547E+03 -0.49667043475E+03  0.70244557133E+03  0.12699999809E+01 0.  1.
       -4    1    3    3    0  502  0.35186791785E+03  0.35062175547E+03  0.44564881973E+03  0.66734633471E+03  0.12699999809E+01 0. -1.
</event>
<event>
 5   0  0.6097538E-04  0.1398034E+04  0.7818609E-02  0.8955243E-01
       -1   -1    0    0    0  501  0.00000000000E+00  0.00000000000E+00  0.27424087646E+03  0.27424087651E+03  0.50400001928E-02 0. -1.
        1   -1    0    0  501    0  0.00000000000E+00  0.00000000000E+00 -0.17817366107E+04  0.17817366107E+04  0.50400001928E-02 0.  1.
    10030    2    1    2    0    0  0.00000000000E+00  0.00000000000E+00 -0.15074957342E+04  0.20559774872E+04  0.13980343483E+04 0.  0.
        2    1    3    3  502    0 -0.49596812872E+03  0.25571679731E+03 -0.13728938752E+04  0.14819625696E+04  0.25500000920E-02 0.  1.
       -2    1    3    3    0  502  0.49596812872E+03 -0.25571679731E+03 -0.13460185899E+03  0.57401491756E+03  0.25500000920E-02 0. -1.
</event>
<event>
 5   0  0.5875298E-04  0.1388216E+04  0.7818609E-02  0.8962393E-01
       -1   -1    0    0    0  501  0.00000000000E+00  0.00000000000E+00  0.61530886853E+03  0.61530886855E+03  0.50400001928E-02 0. -1.
        1   -1    0    0  501    0  0.00000000000E+00  0.00000000000E+00 -0.78299792990E+03  0.78299792992E+03  0.50400001928E-02 0.  1.
    10030    2    1    2    0    0  0.00000000000E+00  0.00000000000E+00 -0.16768906138E+03  0.13983067985E+04  0.13882155025E+04 0.  0.
        1    1    3    3  502    0  0.27539194716E+03  0.63277494996E+03 -0.15882155985E+03  0.70814486495E+03  0.50400001928E-02 0.  1.
       -1    1    3    3    0  502 -0.27539194716E+03 -0.63277494996E+03 -0.88675015280E+01  0.69016193351E+03  0.50400001928E-02 0. -1.
</event>
<event>
 5   0  0.1120053E-03  0.1433573E+04  0.7818609E-02  0.8929869E-01
       -2   -1    0    0    0  501  0.00000000000E+00  0.00000000000E+00  0.64596202904E+03  0.64596202905E+03  0.25500000920E-02 0. -1.
        2   -1    0    0  501    0  0.00000000000E+00  0.00000000000E+00 -0.79537685015E+03  0.79537685016E+03  0.25500000920E-02 0.  1.
    10030    2    1    2    0    0  0.00000000000E+00  0.00000000000E+00 -0.14941482111E+03  0.14413388792E+04  0.14335734986E+04 0.  0.
        2    1    3    3  502    0 -0.61869660555E+03  0.35156643903E+02  0.28746845704E+03  0.68312487375E+03  0.25500000920E-02 0. -1.
       -2    1    3    3    0  502  0.61869660555E+03 -0.35156643903E+02 -0.43688327815E+03  0.75821400546E+03  0.25500000920E-02 0.  1.
</event>
<event>
 5   0  0.6153318E-04  0.1398171E+04  0.7818609E-02  0.8955143E-01
        1   -1    0    0  501    0  0.00000000000E+00  0.00000000000E+00  0.52016121444E+03  0.52016121447E+03  0.50400001928E-02 0.  1.
       -1   -1    0    0    0  501  0.00000000000E+00  0.00000000000E+00 -0.93955654990E+03  0.93955654991E+03  0.50400001928E-02 0. -1.
    10030    2    1    2    0    0  0.00000000000E+00  0.00000000000E+00 -0.41939533546E+03  0.14597177644E+04  0.13981714860E+04 0.  0.
        5    1    3    3  502    0 -0.15675842839E+03 -0.63543877071E+03 -0.46615932271E+03  0.80354355223E+03  0.46999998093E+01 0. -1.
       -5    1    3    3    0  502  0.15675842839E+03  0.63543877071E+03  0.46763987251E+02  0.65617421215E+03  0.46999998093E+01 0.  1.
</event>
<event>
 5   0  0.6114266E-04  0.1399963E+04  0.7818609E-02  0.8953845E-01
       -1   -1    0    0    0  501  0.00000000000E+00  0.00000000000E+00  0.30367765239E+03  0.30367765244E+03  0.50400001928E-02 0.  1.
        1   -1    0    0  501    0  0.00000000000E+00  0.00000000000E+00 -0.16134687609E+04  0.16134687609E+04  0.50400001928E-02 0. -1.
    10030    2    1    2    0    0  0.00000000000E+00  0.00000000000E+00 -0.13097911085E+04  0.19171464133E+04  0.13999634360E+04 0.  0.
        3    1    3    3  502    0 -0.58776143693E+03  0.33952574737E+03 -0.88903599774E+03  0.11185375521E+04  0.10100000352E+00 0. -1.
       -3    1    3    3    0  502  0.58776143693E+03 -0.33952574737E+03 -0.42075511073E+03  0.79860886126E+03  0.10100000352E+00 0.  1.
</event>
<event>
 5   0  0.1108819E-03  0.1382138E+04  0.7818609E-02  0.8966851E-01
        2   -1    0    0  501    0  0.00000000000E+00  0.00000000000E+00  0.13000465433E+04  0.13000465433E+04  0.25500000920E-02 0. -1.
       -2   -1    0    0    0  501  0.00000000000E+00  0.00000000000E+00 -0.36735319193E+03  0.36735319194E+03  0.25500000920E-02 0.  1.
    10030    2    1    2    0    0  0.00000000000E+00  0.00000000000E+00  0.93269335135E+03  0.16673997352E+04  0.13821378330E+04 0.  0.
        3    1    3    3  502    0 -0.30126753404E+03 -0.31621746399E+03 -0.17974413261E+03  0.47229606711E+03  0.10100000352E+00 0.  1.
       -3    1    3    3    0  502  0.30126753404E+03  0.31621746399E+03  0.11124374840E+04  0.11951036681E+04  0.10100000352E+00 0. -1.
</event>
<event>
 5   0  0.1108819E-03  0.1389855E+04  0.7818609E-02  0.8961195E-01
       -2   -1    0    0    0  501  0.00000000000E+00  0.00000000000E+00  0.86471061469E+03  0.86471061470E+03  0.25500000920E-02 0. -1.
        2   -1    0    0  501    0  0.00000000000E+00  0.00000000000E+00 -0.55848103460E+03  0.55848103460E+03  0.25500000920E-02 0.  1.
    10030    2    1    2    0    0  0.00000000000E+00  0.00000000000E+00  0.30622958010E+03  0.14231916493E+04  0.13898553576E+04 0.  0.
        3    1    3    3  502    0  0.17508925268E+03  0.38329411399E+03 -0.41272759716E+03  0.58984294849E+03  0.10100000352E+00 0.  1.
       -3    1    3    3    0  502 -0.17508925268E+03 -0.38329411399E+03  0.71895717725E+03  0.83334870081E+03  0.10100000352E+00 0. -1.
</event>
<event>
 5   0  0.5875298E-04  0.1395755E+04  0.7818609E-02  0.8956897E-01
       -1   -1    0    0    0  501  0.00000000000E+00  0.00000000000E+00  0.75237948772E+03  0.75237948774E+03  0.50400001928E-02 0.  1.
        1   -1    0    0  501    0  0.00000000000E+00  0.00000000000E+00 -0.64732392846E+03  0.64732392848E+03  0.50400001928E-02 0. -1.
    10030    2    1    2    0    0  0.00000000000E+00  0.00000000000E+00  0.10505555926E+03  0.13997034162E+04  0.13957553449E+04 0.  0.
        1    1    3    3  502    0  0.14151726448E+03  0.39011239910E+03  0.61520171038E+03  0.74208352936E+03  0.50400001928E-02 0.  1.
       -1    1    3    3    0  502 -0.14151726448E+03 -0.39011239910E+03 -0.51014615112E+03  0.65761988686E+03  0.50400001928E-02 0. -1.
</event>
<event>
 5   0  0.1175146E-03  0.1441148E+04  0.7818609E-02  0.8924561E-01
        2   -1    0    0  501    0  0.00000000000E+00  0.00000000000E+00  0.11899018204E+04  0.11899018204E+04  0.25500000920E-02 0.  1.
       -2   -1    0    0    0  501  0.00000000000E+00  0.00000000000E+00 -0.43636093831E+03  0.43636093831E+03  0.25500000920E-02 0. -1.
    10030    2    1    2    0    0  0.00000000000E+00  0.00000000000E+00  0.75354088210E+03  0.16262627587E+04  0.14411477022E+04 0.  0.
        1    1    3    3  502    0 -0.11437916303E+03 -0.61566015975E+02  0.11765808081E+04  0.11837294308E+04  0.50400001928E-02 0.  1.
       -1    1    3    3    0  502  0.11437916303E+03  0.61566015975E+02 -0.42303992604E+03  0.44253332791E+03  0.50400001928E-02 0. -1.
</event>
<event>
 5   0  0.6097538E-04  0.1383449E+04  0.7818609E-02  0.8965887E-01
       -1   -1    0    0    0  501  0.00000000000E+00  0.00000000000E+00  0.44513736586E+03  0.44513736589E+03  0.50400001928E-02 0.  1.
        1   -1    0    0  501    0  0.00000000000E+00  0.00000000000E+00 -0.10749097010E+04  0.10749097010E+04  0.50400001928E-02 0. -1.
    10030    2    1    2    0    0  0.00000000000E+00  0.00000000000E+00 -0.62977233517E+03  0.15200470669E+04  0.13834485504E+04 0.  0.
        2    1    3    3  502    0  0.66514268948E+03  0.17985805530E+03 -0.38188894925E+03  0.78778352800E+03  0.25500000920E-02 0. -1.
       -2    1    3    3    0  502 -0.66514268948E+03 -0.17985805530E+03 -0.24788338592E+03  0.73226353893E+03  0.25500000920E-02 0.  1.
</event>
<event>
 5   0  0.5875298E-04  0.1402203E+04  0.7818609E-02  0.8952225E-01
       -1   -1    0    0    0  501  0.00000000000E+00  0.00000000000E+00  0.29662892417E+03  0.29662892421E+03  0.50400001928E-02 0. -1.
        1   -1    0    0  501    0  0.00000000000E+00  0.00000000000E+00 -0.16570987784E+04  0.16570987784E+04  0.50400001928E-02 0.  1.
    10030    2    1    2    0    0  0.00000000000E+00  0.00000000000E+00 -0.13604698542E+04  0.19537277026E+04  0.14022031635E+04 0.  0.
        1    1    3    3  502    0  0.17537229757E+03  0.86380091468E+02 -0.16183554324E+04  0.16301200166E+04  0.50400001928E-02 0.  1.
       -1    1    3    3    0  502 -0.17537229757E+03 -0.86380091468E+02  0.25788557819E+03  0.32360768598E+03  0.50400001928E-02 0. -1.
</event>
<event>
 5   0  0.4176125E-04  0.1394676E+04  0.7818609E-02  0.8957681E-01
        4   -1    0    0  501    0  0.00000000000E+00  0.00000000000E+00  0.64375022839E+03  0.64375148112E+03  0.12699999809E+01 0. -1.
       -4   -1    0    0    0  501  0.00000000000E+00  0.00000000000E+00 -0.75538422329E+03  0.75538529089E+03  0.12699999809E+01 0.  1.
    10030    2    1    2    0    0  0.00000000000E+00  0.00000000000E+00 -0.11163399490E+03  0.13991367720E+04  0.13946761481E+04 0.  0.
        3    1    3    3  502    0  0.32633203839E+03  0.29065888660E+03  0.48934093821E+03  0.65607145316E+03  0.10100000352E+00 0. -1.
       -3    1    3    3    0  502 -0.32633203839E+03 -0.29065888660E+03 -0.60097493311E+03  0.74306531885E+03  0.10100000352E+00 0.  1.
</event>
<event>
 5   0  0.1108819E-03  0.1412657E+04  0.7818609E-02  0.8944707E-01
        2   -1    0    0  501    0  0.00000000000E+00  0.00000000000E+00  0.48479668426E+03  0.48479668427E+03  0.25500000920E-02 0.  1.
       -2   -1    0    0    0  501  0.00000000000E+00  0.00000000000E+00 -0.10290915259E+04  0.10290915259E+04  0.25500000920E-02 0. -1.
    10030    2    1    2    0    0  0.00000000000E+00  0.00000000000E+00 -0.54429484161E+03  0.15138882101E+04  0.14126572968E+04 0.  0.
        3    1    3    3  502    0 -0.45075597659E+03  0.27417116594E+03 -0.77542768617E+03  0.93789065745E+03  0.10100000352E+00 0. -1.
       -3    1    3    3    0  502  0.45075597659E+03 -0.27417116594E+03  0.23113284456E+03  0.57599755268E+03  0.10100000352E+00 0.  1.
</event>
<event>
 5   0  0.6097538E-04  0.1412542E+04  0.7818609E-02  0.8944790E-01
       -1   -1    0    0    0  501  0.00000000000E+00  0.00000000000E+00  0.83125930463E+03  0.83125930465E+03  0.50400001928E-02 0. -1.
        1   -1    0    0  501    0  0.00000000000E+00  0.00000000000E+00 -0.60007605090E+03  0.60007605093E+03  0.50400001928E-02 0.  1.
    10030    2    1    2    0    0  0.00000000000E+00  0.00000000000E+00  0.23118325373E+03  0.14313353556E+04  0.14125421067E+04 0.  0.
        2    1    3    3  502    0  0.35204885527E+03 -0.60993232049E+03  0.61373026836E+02  0.70691051803E+03  0.25500000920E-02 0. -1.
       -2    1    3    3    0  502 -0.35204885527E+03  0.60993232049E+03  0.16981022689E+03  0.72442483754E+03  0.25500000920E-02 0.  1.
</event>
<event>
 5   0  0.6097538E-04  0.1415485E+04  0.7818609E-02  0.8942685E-01
       -1   -1    0    0    0  501  0.00000000000E+00  0.00000000000E+00  0.18899730069E+04  0.18899730069E+04  0.50400001928E-02 0.  1.
        1   -1    0    0  501    0  0.00000000000E+00  0.00000000000E+00 -0.26503008860E+03  0.26503008865E+03  0.50400001928E-02 0. -1.
    10030    2    1    2    0    0  0.00000000000E+00  0.00000000000E+00  0.16249429183E+04  0.21550030956E+04  0.14154853776E+04 0.  0.
        2    1    3    3  502    0 -0.33248439021E+03  0.57910111519E+02 -0.13463356616E+03  0.36335333753E+03  0.25500000920E-02 0.  1.
       -2    1    3    3    0  502  0.33248439021E+03 -0.57910111519E+02  0.17595764845E+04  0.17916497581E+04  0.25500000920E-02 0. -1.
</event>
<event>
 5   0  0.1120053E-03  0.1393572E+04  0.7818609E-02  0.8958485E-01
       -2   -1    0    0    0  501  0.00000000000E+00  0.00000000000E+00  0.10363489931E+04  0.10363489931E+04  0.25500000920E-02 0. -1.
        2   -1    0    0  501    0  0.00000000000E+00  0.00000000000E+00 -0.46848156487E+03  0.46848156488E+03  0.25500000920E-02 0.  1.
    10030    2    1    2    0    0  0.00000000000E+00  0.00000000000E+00  0.56786742824E+03  0.15048305580E+04  0.13935715239E+04 0.  0.
        2    1    3    3  502    0 -0.64280909585E+03 -0.14971864197E+03  0.42737614277E+02  0.66139678646E+03  0.25500000920E-02 0. -1.
       -2    1    3    3    0  502  0.64280909585E+03  0.14971864197E+03  0.52512981396E+03  0.84343377154E+03  0.25500000920E-02 0.  1.
</event>
<event>
 5   0  0.6114266E-04  0.1383953E+04  0.7818609E-02  0.8965517E-01
       -1   -1    0    0    0  501  0.00000000000E+00  0.00000000000E+00  0.50309867709E+03  0.50309867712E+03  0.50400001928E-02 0. -1.
        1   -1    0    0  501    0  0.00000000000E+00  0.00000000000E+00 -0.95176493645E+03  0.95176493646E+03  0.50400001928E-02 0.  1.
    10030    2    1    2    0    0  0.00000000000E+00  0.00000000000E+00 -0.44866625936E+03  0.14548636136E+04  0.13839532947E+04 0.  0.
        3    1    3    3  502    0  0.15231326076E+03 -0.66302140055E+02 -0.93049277483E+03  0.94520480183E+03  0.10100000352E+00 0.  1.
       -3    1    3    3    0  502 -0.15231326076E+03  0.66302140055E+02  0.48182651548E+03  0.50965881175E+03  0.10100000352E+00 0. -1.
</event>
<event>
 5   0  0.1095119E-03  0.1402133E+04  0.7818609E-02  0.8952276E-01
       -2   -1    0    0    0  501  0.00000000000E+00  0.00000000000E+00  0.36927455581E+03  0.36927455582E+03  0.25500000920E-02 0.  1.
        2   -1    0    0  501    0  0.00000000000E+00  0.00000000000E+00 -0.13309720826E+04  0.13309720826E+04  0.25500000920E-02 0. -1.
    10030    2    1    2    0    0  0.00000000000E+00  0.00000000000E+00 -0.96169752683E+03  0.17002466385E+04  0.14021328391E+04 0.  0.
        5    1    3    3  502    0  0.46968441469E+03 -0.51183048268E+03 -0.36646287877E+03  0.78542410450E+03  0.46999998093E+01 0. -1.
       -5    1    3    3    0  502 -0.46968441469E+03  0.51183048268E+03 -0.59523464806E+03  0.91482253397E+03  0.46999998093E+01 0.  1.
</event>
<event>
 5   0  0.6114266E-04  0.1409623E+04  0.7818609E-02  0.8946882E-01
        1   -1    0    0  501    0  0.00000000000E+00  0.00000000000E+00  0.41994324538E+03  0.41994324541E+03  0.50400001928E-02 0.  1.
       -1   -1    0    0    0  501  0.00000000000E+00  0.00000000000E+00 -0.11829195973E+04  0.11829195973E+04  0.50400001928E-02 0. -1.
    10030    2    1    2    0    0  0.00000000000E+00  0.00000000000E+00 -0.76297635195E+03  0.16028628428E+04  0.14096227790E+04 0.  0.
        3    1    3    3  502    0 -0.15764473050E+03  0.46141398198E+03  0.19720317325E+03  0.52596941505E+03  0.10100000352E+00 0.  1.
       -3    1    3    3    0  502  0.15764473050E+03 -0.46141398198E+03 -0.96017952520E+03  0.10768934277E+04  0.10100000352E+00 0. -1.
</event>
<event>
 5   0  0.1120053E-03  0.1504458E+04  0.7818609E-02  0.8881494E-01
       -2   -1    0    0    0  501  0.00000000000E+00  0.00000000000E+00  0.32000016560E+03  0.32000016561E+03  0.25500000920E-02 0. -1.
        2   -1    0    0  501    0  0.00000000000E+00  0.00000000000E+00 -0.17682763428E+04  0.17682763428E+04  0.25500000920E-02 0.  1.
    10030    2    1    2    0    0  0.00000000000E+00  0.00000000000E+00 -0.14482761772E+04  0.20882765084E+04  0.15044583378E+04 0.  0.
        2    1    3    3  502    0  0.10564286071E+03  0.64932517822E+03 -0.21780074973E+03  0.69297963006E+03  0.25500000920E-02 0. -1.
       -2    1    3    3    0  502 -0.10564286071E+03 -0.64932517822E+03 -0.12304754275E+04  0.13952968783E+04  0.25500000920E-02 0.  1.
</event>
<event>
 5   0  0.1120053E-03  0.1419470E+04  0.7818609E-02  0.8939844E-01
        2   -1    0    0  501    0  0.00000000000E+00  0.00000000000E+00  0.19688620691E+04  0.19688620691E+04  0.25500000920E-02 0. -1.
       -2   -1    0    0    0  501  0.00000000000E+00  0.00000000000E+00 -0.25584514587E+03  0.25584514589E+03  0.25500000920E-02 0.  1.
    10030    2    1    2    0    0  0.00000000000E+00  0.00000000000E+00  0.17130169233E+04  0.22247072150E+04  0.14194700466E+04 0.  0.
        2    1    3    3  502    0  0.44384610369E+03  0.43959221829E+03  0.13844821338E+04  0.15188915238E+04  0.25500000920E-02 0. -1.
       -2    1    3    3    0  502 -0.44384610369E+03 -0.43959221829E+03  0.32853478947E+03  0.70581569127E+03  0.25500000920E-02 0.  1.
</event>
<event>
 5   0  0.5875298E-04  0.1410363E+04  0.7818609E-02  0.8946351E-01
        1   -1    0    0  501    0  0.00000000000E+00  0.00000000000E+00  0.27737239732E+04  0.27737239732E+04  0.50400001928E-02 0. -1.
       -1   -1    0    0    0  501  0.00000000000E+00  0.00000000000E+00 -0.17928287140E+03  0.17928287147E+03  0.50400001928E-02 0.  1.
    10030    2    1    2    0    0  0.00000000000E+00  0.00000000000E+00  0.25944411018E+04  0.29530068446E+04  0.14103633553E+04 0.  0.
        1    1    3    3  502    0 -0.58256628670E+03  0.31824204335E+03  0.79900497120E+03  0.10387831442E+04  0.50400001928E-02 0.  1.
       -1    1    3    3    0  502  0.58256628670E+03 -0.31824204335E+03  0.17954361306E+04  0.19142237005E+04  0.50400001928E-02 0. -1.
</event>
<event>
 5   0  0.1108819E-03  0.1396478E+04  0.7818609E-02  0.8956372E-01
       -2   -1    0    0    0  501  0.00000000000E+00  0.00000000000E+00  0.48813820673E+03  0.48813820674E+03  0.25500000920E-02 0. -1.
        2   -1    0    0  501    0  0.00000000000E+00  0.00000000000E+00 -0.99876999887E+03  0.99876999887E+03  0.25500000920E-02 0.  1.
    10030    2    1    2    0    0  0.00000000000E+00  0.00000000000E+00 -0.51063179214E+03  0.14869082056E+04  0.13964781362E+04 0.  0.
        3    1    3    3  502    0  0.68186696532E+03 -0.34051205132E+02 -0.99425525796E+02  0.68991846500E+03  0.10100000352E+00 0. -1.
       -3    1    3    3    0  502 -0.68186696532E+03  0.34051205132E+02 -0.41120626634E+03  0.79698974061E+03  0.10100000352E+00 0.  1.
</event>
<event>
 5   0  0.1120053E-03  0.1406183E+04  0.7818609E-02  0.8949355E-01
        2   -1    0    0  501    0  0.00000000000E+00  0.00000000000E+00  0.11315873633E+04  0.11315873633E+04  0.25500000920E-02 0. -1.
       -2   -1    0    0    0  501  0.00000000000E+00  0.00000000000E+00 -0.43685299103E+03  0.43685299104E+03  0.25500000920E-02 0.  1.
    10030    2    1    2    0    0  0.00000000000E+00  0.00000000000E+00  0.69473437228E+03  0.15684403543E+04  0.14061825262E+04 0.  0.
        2    1    3    3  502    0 -0.47174814719E+03  0.77607905019E+02 -0.22764582744E+03  0.52952046613E+03  0.25500000920E-02 0.  1.
       -2    1    3    3    0  502  0.47174814719E+03 -0.77607905019E+02  0.92238019972E+03  0.10389198882E+04  0.25500000920E-02 0. -1.
</event>
<event>
 5   0  0.6114266E-04  0.1401643E+04  0.7818609E-02  0.8952630E-01
       -1   -1    0    0    0  501  0.00000000000E+00  0.00000000000E+00  0.26063326631E+04  0.26063326631E+04  0.50400001928E-02 0. -1.
        1   -1    0    0  501    0  0.00000000000E+00  0.00000000000E+00 -0.18844516280E+03  0.18844516286E+03  0.50400001928E-02 0.  1.
    10030    2    1    2    0    0  0.00000000000E+00  0.00000000000E+00  0.24178875003E+04  0.27947778260E+04  0.14016430118E+04 0.  0.
        3    1    3    3  502    0 -0.73215518508E+02 -0.22071778093E+02  0.25979890343E+04  0.25991142160E+04  0.10100000352E+00 0. -1.
       -3    1    3    3    0  502  0.73215518508E+02  0.22071778093E+02 -0.18010153394E+03  0.19566360997E+03  0.10100000352E+00 0.  1.
</event>
<event>
 5   0  0.6114266E-04  0.1393096E+04  0.7818609E-02  0.8958831E-01
        1   -1    0    0  501    0  0.00000000000E+00  0.00000000000E+00  0.66736345566E+03  0.66736345568E+03  0.50400001928E-02 0. -1.
       -1   -1    0    0    0  501  0.00000000000E+00  0.00000000000E+00 -0.72700926345E+03  0.72700926347E+03  0.50400001928E-02 0.  1.
    10030    2    1    2    0    0  0.00000000000E+00  0.00000000000E+00 -0.59645807791E+02  0.13943727191E+04  0.13930964279E+04 0.  0.
        3    1    3    3  502    0 -0.35599726356E+03 -0.11985408941E+03  0.55729812274E+03  0.67207161986E+03  0.10100000352E+00 0. -1.
       -3    1    3    3    0  502  0.35599726356E+03  0.11985408941E+03 -0.61694393053E+03  0.72230109929E+03  0.10100000352E+00 0.  1.
</event>
<event>
 5   0  0.6194742E-04  0.1371101E+04  0.7818609E-02  0.8975007E-01
        1   -1    0    0  501    0  0.00000000000E+00  0.00000000000E+00  0.49884338711E+03  0.49884338714E+03  0.50400001928E-02 0.  1.
       -1   -1    0    0    0  501  0.00000000000E+00  0.00000000000E+00 -0.94213888380E+03  0.94213888381E+03  0.50400001928E-02 0. -1.
    10030    2    1    2    0    0  0.00000000000E+00  0.00000000000E+00 -0.44329549668E+03  0.14409822709E+04  0.13711013849E+04 0.  0.
        4    1    3    3  502    0 -0.54222404767E+03  0.20103097690E+03 -0.60859455946E+03  0.83952922656E+03  0.12699999809E+01 0. -1.
       -4    1    3    3    0  502  0.54222404767E+03 -0.20103097690E+03  0.16529906277E+03  0.60145304439E+03  0.12699999809E+01 0.  1.
</event>
<event>
 5   0  0.1108819E-03  0.1391764E+04  0.7818609E-02  0.8959801E-01
        2   -1    0    0  501    0  0.00000000000E+00  0.00000000000E+00  0.11401873178E+04  0.11401873178E+04  0.25500000920E-02 0. -1.
       -2   -1    0    0    0  501  0.00000000000E+00  0.00000000000E+00 -0.42471274260E+03  0.42471274261E+03  0.25500000920E-02 0.  1.
    10030    2    1    2    0    0  0.00000000000E+00  0.00000000000E+00  0.71547457518E+03  0.15649000604E+04  0.13917644669E+04 0.  0.
        3    1    3    3  502    0  0.53585097644E+02  0.14740623554E+03 -0.40457951573E+03  0.43391768311E+03  0.10100000352E+00 0.  1.
       -3    1    3    3    0  502 -0.53585097644E+02 -0.14740623554E+03  0.11200540909E+04  0.11309823773E+04  0.10100000352E+00 0. -1.
</event>
<event>
 5   0  0.1120053E-03  0.1415297E+04  0.7818609E-02  0.8942820E-01
       -2   -1    0    0    0  501  0.00000000000E+00  0.00000000000E+00  0.30927324382E+03  0.30927324383E+03  0.25500000920E-02 0. -1.
        2   -1    0    0  501    0  0.00000000000E+00  0.00000000000E+00 -0.16191717728E+04  0.16191717728E+04  0.25500000920E-02 0.  1.
    10030    2    1    2    0    0  0.00000000000E+00  0.00000000000E+00 -0.13098985290E+04  0.19284450166E+04  0.14152971511E+04 0.  0.
        2    1    3    3  502    0 -0.23519057664E+02  0.70290015764E+03 -0.76175903652E+03  0.10367731707E+04  0.25500000920E-02 0.  1.
       -2    1    3    3    0  502  0.23519057664E+02 -0.70290015764E+03 -0.54813949246E+03  0.89167184597E+03  0.25500000920E-02 0. -1.
</event>
<event>
 5   0  0.1098949E-03  0.1401728E+04  0.7818609E-02  0.8952569E-01
       -2   -1    0    0    0  501  0.00000000000E+00  0.00000000000E+00  0.44199959732E+03  0.44199959732E+03  0.25500000920E-02 0. -1.
        2   -1    0    0  501    0  0.00000000000E+00  0.00000000000E+00 -0.11113358948E+04  0.11113358948E+04  0.25500000920E-02 0.  1.
    10030    2    1    2    0    0  0.00000000000E+00  0.00000000000E+00 -0.66933629745E+03  0.15533354921E+04  0.14017275313E+04 0.  0.
        4    1    3    3  502    0 -0.52863642113E+03 -0.33185321073E+03 -0.68793490119E+03  0.92889130709E+03  0.12699999809E+01 0.  1.
       -4    1    3    3    0  502  0.52863642113E+03  0.33185321073E+03  0.18598603736E+02  0.62444418500E+03  0.12699999809E+01 0. -1.
</event>
<event>
 5   0  0.6097538E-04  0.1398247E+04  0.7818609E-02  0.8955089E-01
        1   -1    0    0  501    0  0.00000000000E+00  0.00000000000E+00  0.15222905126E+04  0.15222905126E+04  0.50400001928E-02 0. -1.
       -1   -1    0    0    0  501  0.00000000000E+00  0.00000000000E+00 -0.32107767030E+03  0.32107767034E+03  0.50400001928E-02 0.  1.
    10030    2    1    2    0    0  0.00000000000E+00  0.00000000000E+00  0.12012128423E+04  0.18433681829E+04  0.13982467470E+04 0.  0.
        2    1    3    3  502    0 -0.44801967596E+03 -0.11827394412E+03  0.12907724528E+04  0.13714240340E+04  0.25500000920E-02 0. -1.
       -2    1    3    3    0  502  0.44801967596E+03  0.11827394412E+03 -0.89559610555E+02  0.47194414897E+03  0.25500000920E-02 0.  1.
</event>
<event>
 5   0  0.4176125E-04  0.1402841E+04  0.7818609E-02  0.8951764E-01
        3   -1    0    0  501    0  0.00000000000E+00  0.00000000000E+00  0.24592249803E+03  0.24592251877E+03  0.10100000352E+00 0. -1.
       -3   -1    0    0    0  501  0.00000000000E+00  0.00000000000E+00 -0.20005935129E+04  0.20005935154E+04  0.10100000352E+00 0.  1.
    10030    2    1    2    0    0  0.00000000000E+00  0.00000000000E+00 -0.17546710149E+04  0.22465160342E+04  0.14028413743E+04 0.  0.
        1    1    3    3  502    0 -0.26916930007E+03  0.14204662569E+02 -0.19143446805E+04  0.19332277260E+04  0.50400001928E-02 0.  1.
       -1    1    3    3    0  502  0.26916930007E+03 -0.14204662569E+02  0.15967366568E+03  0.31328830824E+03  0.50400001928E-02 0. -1.
</event>
<event>
 5   0  0.1108819E-03  0.1437418E+04  0.7818609E-02  0.8927170E-01
        2   -1    0    0  501    0  0.00000000000E+00  0.00000000000E+00  0.75946292083E+03  0.75946292084E+03  0.25500000920E-02 0.  1.
       -2   -1    0    0    0  501  0.00000000000E+00  0.00000000000E+00 -0.68014183872E+03  0.68014183873E+03  0.25500000920E-02 0. -1.
    10030    2    1    2    0    0  0.00000000000E+00  0.00000000000E+00  0.79321082108E+02  0.14396047596E+04  0.14374178341E+04 0.  0.
        3    1    3    3  502    0  0.42945967413E+03  0.86568114322E+02 -0.53095434452E+03  0.68836195151E+03  0.10100000352E+00 0. -1.
       -3    1    3    3    0  502 -0.42945967413E+03 -0.86568114322E+02  0.61027542663E+03  0.75124280806E+03  0.10100000352E+00 0.  1.
</event>
<event>
 5   0  0.1120053E-03  0.1393282E+04  0.7818609E-02  0.8958696E-01
       -2   -1    0    0    0  501  0.00000000000E+00  0.00000000000E+00  0.67966776682E+03  0.67966776682E+03  0.25500000920E-02 0. -1.
        2   -1    0    0  501    0  0.00000000000E+00  0.00000000000E+00 -0.71403808011E+03  0.71403808012E+03  0.25500000920E-02 0.  1.
    10030    2    1    2    0    0  0.00000000000E+00  0.00000000000E+00 -0.34370313295E+02  0.13937058469E+04  0.13932819777E+04 0.  0.
        2    1    3    3  502    0 -0.35551411256E+03  0.31184518253E+01 -0.61645727225E+03  0.71163163047E+03  0.25500000920E-02 0.  1.
       -2    1    3    3    0  502  0.35551411256E+03 -0.31184518253E+01  0.58208695896E+03  0.68207421646E+03  0.25500000920E-02 0. -1.
</event>
<event>
 5   0  0.5875298E-04  0.1400438E+04  0.7818609E-02  0.8953502E-01
        1   -1    0    0  501    0  0.00000000000E+00  0.00000000000E+00  0.71234961112E+03  0.71234961114E+03  0.50400001928E-02 0. -1.
       -1   -1    0    0    0  501  0.00000000000E+00  0.00000000000E+00 -0.68829495710E+03  0.68829495712E+03  0.50400001928E-02 0.  1.
    10030    2    1    2    0    0  0.00000000000E+00  0.00000000000E+00  0.24054654023E+02  0.14006445683E+04  0.14004379959E+04 0.  0.
        1    1    3    3  502    0 -0.25000048233E+03  0.48644616813E+03  0.44932920529E+03  0.70783250166E+03  0.50400001928E-02 0. -1.
       -1    1    3    3    0  502  0.25000048233E+03 -0.48644616813E+03 -0.42527455127E+03  0.69281206660E+03  0.50400001928E-02 0.  1.
</event>
<event>
 5   0  0.6114266E-04  0.1361465E+04  0.7818609E-02  0.8982195E-01
       -1   -1    0    0    0  501  0.00000000000E+00  0.00000000000E+00  0.27842692323E+03  0.27842692327E+03  0.50400001928E-02 0.  1.
        1   -1    0    0  501    0  0.00000000000E+00  0.00000000000E+00 -0.16643382875E+04  0.16643382875E+04  0.50400001928E-02 0. -1.
    10030    2    1    2    0    0  0.00000000000E+00  0.00000000000E+00 -0.13859113643E+04  0.19427652108E+04  0.13614647827E+04 0.  0.
        3    1    3    3  502    0 -0.39534500977E+03 -0.36081766335E+03 -0.12931467151E+04  0.13995411748E+04  0.10100000352E+00 0. -1.
       -3    1    3    3    0  502  0.39534500977E+03  0.36081766335E+03 -0.92764649170E+02  0.54322403599E+03  0.10100000352E+00 0.  1.
</event>
<event>
 5   0  0.6194742E-04  0.1406853E+04  0.7818609E-02  0.8948873E-01
       -1   -1    0    0    0  501  0.00000000000E+00  0.00000000000E+00  0.91658991570E+03  0.91658991572E+03  0.50400001928E-02 0.  1.
        1   -1    0    0  501    0  0.00000000000E+00  0.00000000000E+00 -0.53983655078E+03  0.53983655080E+03  0.50400001928E-02 0. -1.
    10030    2    1    2    0    0  0.00000000000E+00  0.00000000000E+00  0.37675336492E+03  0.14564264665E+04  0.14068528546E+04 0.  0.
        4    1    3    3  502    0 -0.26615583242E+03  0.52633505522E+03 -0.20845772916E+03  0.62555875441E+03  0.12699999809E+01 0. -1.
       -4    1    3    3    0  502  0.26615583242E+03 -0.52633505522E+03  0.58521109408E+03  0.83086771210E+03  0.12699999809E+01 0.  1.
</event>
<event>
 5   0  0.5875298E-04  0.1453456E+04  0.7818609E-02  0.8916008E-01
       -1   -1    0    0    0  501  0.00000000000E+00  0.00000000000E+00  0.13795540466E+04  0.13795540466E+04  0.50400001928E-02 0.  1.
        1   -1    0    0  501    0  0.00000000000E+00  0.00000000000E+00 -0.38282914282E+03  0.38282914285E+03  0.50400001928E-02 0. -1.
    10030    2    1    2    0    0  0.00000000000E+00  0.00000000000E+00  0.99672490377E+03  0.17623831894E+04  0.14534558723E+04 0.  0.
        1    1    3    3  502    0  0.15585396652E+03  0.70427110722E+03  0.39096310085E+03  0.82045133774E+03  0.50400001928E-02 0. -1.
       -1    1    3    3    0  502 -0.15585396652E+03 -0.70427110722E+03  0.60576180292E+03  0.94193185170E+03  0.50400001928E-02 0.  1.
</event>
<event>
 5   0  0.1108819E-03  0.1392214E+04  0.7818609E-02  0.8959474E-01
        2   -1    0    0  501    0  0.00000000000E+00  0.00000000000E+00  0.10739120093E+04  0.10739120093E+04  0.25500000920E-02 0.  1.
       -2   -1    0    0    0  501  0.00000000000E+00  0.00000000000E+00 -0.45121483415E+03  0.45121483416E+03  0.25500000920E-02 0. -1.
    10030    2    1    2    0    0  0.00000000000E+00  0.00000000000E+00  0.62269717519E+03  0.15251268435E+04  0.13922141059E+04 0.  0.
        3    1    3    3  502    0 -0.31641919276E+03 -0.36879859196E+03 -0.23466478170E+03  0.53963050038E+03  0.10100000352E+00 0. -1.
       -3    1    3    3    0  502  0.31641919276E+03  0.36879859196E+03  0.85736195689E+03  0.98549634311E+03  0.10100000352E+00 0.  1.
</event>
<event>
 5   0  0.6097538E-04  0.1397763E+04  0.7818609E-02  0.8955439E-01
        1   -1    0    0  501    0  0.00000000000E+00  0.00000000000E+00  0.95153146832E+03  0.95153146834E+03  0.50400001928E-02 0.  1.
       -1   -1    0    0    0  501  0.00000000000E+00  0.00000000000E+00 -0.51331493486E+03  0.51331493489E+03  0.50400001928E-02 0. -1.
    10030    2    1    2    0    0  0.00000000000E+00  0.00000000000E+00  0.43821653346E+03  0.14648464032E+04  0.13977629466E+04 0.  0.
        2    1    3    3  502    0  0.58351190533E+03  0.99353729050E+02  0.60853056877E+03  0.84892093876E+03  0.25500000920E-02 0.  1.
       -2    1    3    3    0  502 -0.58351190533E+03 -0.99353729050E+02 -0.17031403531E+03  0.61592546446E+03  0.25500000920E-02 0. -1.
</event>
<event>
 5   0  0.1175146E-03  0.1405372E+04  0.7818609E-02  0.8949939E-01
       -2   -1    0    0    0  501  0.00000000000E+00  0.00000000000E+00  0.31191770512E+03  0.31191770513E+03  0.25500000920E-02 0.  1.
        2   -1    0    0  501    0  0.00000000000E+00  0.00000000000E+00 -0.15830054986E+04  0.15830054986E+04  0.25500000920E-02 0. -1.
    10030    2    1    2    0    0  0.00000000000E+00  0.00000000000E+00 -0.12710877935E+04  0.18949232037E+04  0.14053717548E+04 0.  0.
        1    1    3    3  502    0  0.60304324112E+03 -0.24404688914E+03 -0.99367407797E+03  0.11876902829E+04  0.50400001928E-02 0. -1.
       -1    1    3    3    0  502 -0.60304324112E+03  0.24404688914E+03 -0.27741371550E+03  0.70723292085E+03  0.50400001928E-02 0.  1.
</event>
<event>
 5   0  0.6097538E-04  0.1396892E+04  0.7818609E-02  0.8956072E-01
        1   -1    0    0  501    0  0.00000000000E+00  0.00000000000E+00  0.45865444791E+03  0.45865444794E+03  0.50400001928E-02 0.  1.
       -1   -1    0    0    0  501  0.00000000000E+00  0.00000000000E+00 -0.10636037149E+04  0.10636037149E+04  0.50400001928E-02 0. -1.
    10030    2    1    2    0    0  0.00000000000E+00  0.00000000000E+00 -0.60494926701E+03  0.15222581629E+04  0.13968916561E+04 0.  0.
        2    1    3    3  502    0  0.43163884579E+03  0.55618872339E+01  0.29587826115E+03  0.52334211870E+03  0.25500000920E-02 0.  1.
       -2    1    3    3    0  502 -0.43163884579E+03 -0.55618872339E+01 -0.90082752817E+03  0.99891604416E+03  0.25500000920E-02 0. -1.
</event>
<event>
 5   0  0.6114266E-04  0.1410974E+04  0.7818609E-02  0.8945913E-01
       -1   -1    0    0    0  501  0.00000000000E+00  0.00000000000E+00  0.24519346233E+03  0.24519346238E+03  0.50400001928E-02 0. -1.
        1   -1    0    0  501    0  0.00000000000E+00  0.00000000000E+00 -0.20298754705E+04  0.20298754705E+04  0.50400001928E-02 0.  1.
    10030    2    1    2    0    0  0.00000000000E+00  0.00000000000E+00 -0.17846820082E+04  0.22750689329E+04  0.14109744077E+04 0.  0.
        3    1    3    3  502    0 -0.17186943976E+03 -0.13340284407E+03  0.18974906240E+03  0.28868692386E+03  0.10100000352E+00 0. -1.
       -3    1    3    3    0  502  0.17186943976E+03  0.13340284407E+03 -0.19744310706E+04  0.19863820090E+04  0.10100000352E+00 0.  1.
</event>
<event>
 5   0  0.1098949E-03  0.1398317E+04  0.7818609E-02  0.8955038E-01
        2   -1    0    0  501    0  0.00000000000E+00  0.00000000000E+00  0.18536994158E+04  0.18536994158E+04  0.25500000920E-02 0.  1.
       -2   -1    0    0    0  501  0.00000000000E+00  0.00000000000E+00 -0.26370102611E+03  0.26370102613E+03  0.25500000920E-02 0. -1.
    10030    2    1    2    0    0  0.00000000000E+00  0.00000000000E+00  0.15899983897E+04  0.21174004419E+04  0.13983167568E+04 0.  0.
        4    1    3    3  502    0  0.44152956217E+02 -0.49253898324E+03  0.46591141653E+02  0.49670562805E+03  0.12699999809E+01 0. -1.
       -4    1    3    3    0  502 -0.44152956217E+02  0.49253898324E+03  0.15434072480E+04  0.16206948139E+04  0.12699999809E+01 0.  1.
</event>
<event>
 5   0  0.6194742E-04  0.1403430E+04  0.7818609E-02  0.8951340E-01
       -1   -1    0    0    0  501  0.00000000000E+00  0.00000000000E+00  0.35456414549E+03  0.35456414552E+03  0.50400001928E-02 0. -1.
        1   -1    0    0  501    0  0.00000000000E+00  0.00000000000E+00 -0.13887582575E+04  0.13887582575E+04  0.50400001928E-02 0.  1.
    10030    2    1    2    0    0  0.00000000000E+00  0.00000000000E+00 -0.10341941120E+04  0.17433224031E+04  0.14034299197E+04 0.  0.
        4    1    3    3  502    0 -0.31079561842E+03 -0.62895851261E+03 -0.53550260384E+03  0.88257995594E+03  0.12699999809E+01 0. -1.
       -4    1    3    3    0  502  0.31079561842E+03  0.62895851261E+03 -0.49869150820E+03  0.86074244712E+03  0.12699999809E+01 0.  1.
</event>
<event>
 5   0  0.1120053E-03  0.1432130E+04  0.7818609E-02  0.8930884E-01
       -2   -1    0    0    0  501  0.00000000000E+00  0.00000000000E+00  0.81268667795E+03  0.81268667795E+03  0.25500000920E-02 0. -1.
        2   -1    0    0  501    0  0.00000000000E+00  0.00000000000E+00 -0.63093052156E+03  0.63093052156E+03  0.25500000920E-02 0.  1.
    10030    2    1    2    0    0  0.00000000000E+00  0.00000000000E+00  0.18175615639E+03  0.14436171995E+04  0.14321296444E+04 0.  0.
        2    1    3    3  502    0 -0.97767436958E+02  0.57862877006E+03  0.50450977412E+03  0.77388619154E+03  0.25500000920E-02 0. -1.
       -2    1    3    3    0  502  0.97767436958E+02 -0.57862877006E+03 -0.32275361773E+03  0.66973100797E+03  0.25500000920E-02 0.  1.
</event>
<event>
 5   0  0.6153318E-04  0.1394923E+04  0.7818609E-02  0.8957502E-01
        1   -1    0    0  501    0  0.00000000000E+00  0.00000000000E+00  0.36571535060E+03  0.36571535063E+03  0.50400001928E-02 0.  1.
       -1   -1    0    0    0  501  0.00000000000E+00  0.00000000000E+00 -0.13301402034E+04  0.13301402034E+04  0.50400001928E-02 0. -1.
    10030    2    1    2    0    0  0.00000000000E+00  0.00000000000E+00 -0.96442485276E+03  0.16958555540E+04  0.13949232106E+04 0.  0.
        5    1    3    3  502    0 -0.55974926072E+02 -0.53339612037E+03 -0.10242525566E+04  0.11561833778E+04  0.46999998093E+01 0. -1.
       -5    1    3    3    0  502  0.55974926072E+02  0.53339612037E+03  0.59827703805E+02  0.53967217615E+03  0.46999998093E+01 0.  1.
</event>
<event>
 5   0  0.1108819E-03  0.1387288E+04  0.7818609E-02  0.8963072E-01
       -2   -1    0    0    0  501  0.00000000000E+00  0.00000000000E+00  0.41328113579E+03  0.41328113580E+03  0.25500000920E-02 0.  1.
        2   -1    0    0  501    0  0.00000000000E+00  0.00000000000E+00 -0.11641998024E+04  0.11641998024E+04  0.25500000920E-02 0. -1.
    10030    2    1    2    0    0  0.00000000000E+00  0.00000000000E+00 -0.75091866661E+03  0.15774809382E+04  0.13872877375E+04 0.  0.
        3    1    3    3  502    0 -0.24029609642E+03  0.23121530367E+03  0.31615291548E+03  0.45951649239E+03  0.10100000352E+00 0.  1.
       -3    1    3    3    0  502  0.24029609642E+03 -0.23121530367E+03 -0.10670715821E+04  0.11179644458E+04  0.10100000352E+00 0. -1.
</event>
<event>
 5   0  0.6097538E-04  0.1392711E+04  0.7818609E-02  0.8959112E-01
        1   -1    0    0  501    0  0.00000000000E+00  0.00000000000E+00  0.13058827340E+04  0.13058827340E+04  0.50400001928E-02 0.  1.
       -1   -1    0    0    0  501  0.00000000000E+00  0.00000000000E+00 -0.37132810098E+03  0.37132810102E+03  0.50400001928E-02 0. -1.
    10030    2    1    2    0    0  0.00000000000E+00  0.00000000000E+00  0.93455463303E+03  0.16772108350E+04  0.13927109618E+04 0.  0.
        2    1    3    3  502    0 -0.50922164868E+03  0.28289900168E+03  0.77977305589E+01  0.58257989773E+03  0.25500000920E-02 0. -1.
       -2    1    3    3    0  502  0.50922164868E+03 -0.28289900168E+03  0.92675690247E+03  0.10946309373E+04  0.25500000920E-02 0.  1.
</event>
<event>
 5   0  0.1120053E-03  0.1388829E+04  0.7818609E-02  0.8961945E-01
       -2   -1    0    0    0  501  0.00000000000E+00  0.00000000000E+00  0.16508342764E+04  0.16508342764E+04  0.25500000920E-02 0. -1.
        2   -1    0    0  501    0  0.00000000000E+00  0.00000000000E+00 -0.29210170162E+03  0.29210170164E+03  0.25500000920E-02 0.  1.
    10030    2    1    2    0    0  0.00000000000E+00  0.00000000000E+00  0.13587325748E+04  0.19429359780E+04  0.13888290050E+04 0.  0.
        2    1    3    3  502    0  0.12340685488E+03 -0.69081299715E+02  0.16304733181E+04  0.16365954659E+04  0.25500000920E-02 0. -1.
       -2    1    3    3    0  502 -0.12340685488E+03  0.69081299715E+02 -0.27174074334E+03  0.30634051217E+03  0.25500000920E-02 0.  1.
</event>
<event>
 5   0  0.1175146E-03  0.1385932E+04  0.7818609E-02  0.8964065E-01
        2   -1    0    0  501    0  0.00000000000E+00  0.00000000000E+00  0.11269519675E+04  0.11269519675E+04  0.25500000920E-02 0. -1.
       -2   -1    0    0    0  501  0.00000000000E+00  0.00000000000E+00 -0.42610655453E+03  0.42610655454E+03  0.25500000920E-02 0.  1.
    10030    2    1    2    0    0  0.00000000000E+00  0.00000000000E+00  0.70084541296E+03  0.15530585220E+04  0.13859316289E+04 0.  0.
        1    1    3    3  502    0 -0.39970557622E+03  0.34453502673E+03  0.85373107591E+03  0.10036561574E+04  0.50400001928E-02 0. -1.
       -1    1    3    3    0  502  0.39970557622E+03 -0.34453502673E+03 -0.15288566295E+03  0.54940236463E+03  0.50400001928E-02 0.  1.
</event>
<event>
 5   0  0.6114266E-04  0.1413465E+04  0.7818609E-02  0.8944129E-01
        1   -1    0    0  501    0  0.00000000000E+00  0.00000000000E+00  0.75485250983E+03  0.75485250984E+03  0.50400001928E-02 0. -1.
       -1   -1    0    0    0  501  0.00000000000E+00  0.00000000000E+00 -0.66168004841E+03  0.66168004843E+03  0.50400001928E-02 0.  1.
    10030    2    1    2    0    0  0.00000000000E+00  0.00000000000E+00  0.93172461420E+02  0.14165325583E+04  0.14134650265E+04 0.  0.
        3    1    3    3  502    0  0.54278006883E+03 -0.31878891310E+03 -0.27541195161E+03  0.68708684133E+03  0.10100000352E+00 0.  1.
       -3    1    3    3    0  502 -0.54278006883E+03  0.31878891310E+03  0.36858441303E+03  0.72944571694E+03  0.10100000352E+00 0. -1.
</event>
<event>
 5   0  0.6194742E-04  0.1413985E+04  0.7818609E-02  0.8943757E-01
        1   -1    0    0  501    0  0.00000000000E+00  0.00000000000E+00  0.12018794183E+04  0.12018794184E+04  0.50400001928E-02 0. -1.
       -1   -1    0    0    0  501  0.00000000000E+00  0.00000000000E+00 -0.41588076045E+03  0.41588076048E+03  0.50400001928E-02 0.  1.
    10030    2    1    2    0    0  0.00000000000E+00  0.00000000000E+00  0.78599865789E+03  0.16177601788E+04  0.14139851859E+04 0.  0.
        4    1    3    3  502    0 -0.52646430288E+03 -0.43456848849E+03  0.60341205705E+03  0.91111039775E+03  0.12699999809E+01 0.  1.
       -4    1    3    3    0  502  0.52646430288E+03  0.43456848849E+03  0.18258660084E+03  0.70664978108E+03  0.12699999809E+01 0. -1.
</event>
<event>
 5   0  0.1120053E-03  0.1397300E+04  0.7818609E-02  0.8955776E-01
        2   -1    0    0  501    0  0.00000000000E+00  0.00000000000E+00  0.24236720424E+04  0.24236720424E+04  0.25500000920E-02 0. -1.
       -2   -1    0    0    0  501  0.00000000000E+00  0.00000000000E+00 -0.20139337407E+03  0.20139337408E+03  0.25500000920E-02 0.  1.
    10030    2    1    2    0    0  0.00000000000E+00  0.00000000000E+00  0.22222786683E+04  0.26250654164E+04  0.13972995245E+04 0.  0.
        2    1    3    3  502    0  0.29030059240E+02  0.29489164359E+03  0.22997717553E+04  0.23187828601E+04  0.25500000920E-02 0. -1.
       -2    1    3    3    0  502 -0.29030059240E+02 -0.29489164359E+03 -0.77493086984E+02  0.30628255637E+03  0.25500000920E-02 0.  1.
</event>
<event>
 5   0  0.1098949E-03  0.1520354E+04  0.7818609E-02  0.8871029E-01
        2   -1    0    0  501    0  0.00000000000E+00  0.00000000000E+00  0.26917427775E+04  0.26917427775E+04  0.25500000920E-02 0.  1.
       -2   -1    0    0    0  501  0.00000000000E+00  0.00000000000E+00 -0.21468211931E+03  0.21468211933E+03  0.25500000920E-02 0. -1.
    10030    2    1    2    0    0  0.00000000000E+00  0.00000000000E+00  0.24770606582E+04  0.29064248968E+04  0.15203539642E+04 0.  0.
        4    1    3    3  502    0 -0.22600490677E+03 -0.65033493991E+03  0.62246702914E+03  0.92815977461E+03  0.12699999809E+01 0. -1.
       -4    1    3    3    0  502  0.22600490677E+03  0.65033493991E+03  0.18545936291E+04  0.19782651222E+04  0.12699999809E+01 0.  1.
</event>
<event>
 5   0  0.1108819E-03  0.1394230E+04  0.7818609E-02  0.8958006E-01
       -2   -1    0    0    0  501  0.00000000000E+00  0.00000000000E+00  0.61586630865E+03  0.61586630865E+03  0.25500000920E-02 0.  1.
        2   -1    0    0  501    0  0.00000000000E+00  0.00000000000E+00 -0.78908291119E+03  0.78908291119E+03  0.25500000920E-02 0. -1.
    10030    2    1    2    0    0  0.00000000000E+00  0.00000000000E+00 -0.17321660254E+03  0.14049492198E+04  0.13942303680E+04 0.  0.
        3    1    3    3  502    0  0.67838109161E+03 -0.12500090975E+03 -0.18809722570E+03  0.71498720926E+03  0.10100000352E+00 0.  1.
       -3    1    3    3    0  502 -0.67838109161E+03  0.12500090975E+03  0.14880623157E+02  0.68996201058E+03  0.10100000352E+00 0. -1.
</event>
<event>
 5   0  0.1095119E-03  0.1366724E+04  0.7818609E-02  0.8978264E-01
       -2   -1    0    0    0  501  0.00000000000E+00  0.00000000000E+00  0.30770325329E+03  0.30770325330E+03  0.25500000920E-02 0. -1.
        2   -1    0    0  501    0  0.00000000000E+00  0.00000000000E+00 -0.15176435333E+04  0.15176435333E+04  0.25500000920E-02 0.  1.
    10030    2    1    2    0    0  0.00000000000E+00  0.00000000000E+00 -0.12099402800E+04  0.18253467866E+04  0.13667243358E+04 0.  0.
        5    1    3    3  502    0 -0.26083303584E+03 -0.75867753554E+02 -0.14424140613E+04  0.14677773002E+04  0.46999998093E+01 0.  1.
       -5    1    3    3    0  502  0.26083303584E+03  0.75867753554E+02  0.23247378133E+03  0.35756948642E+03  0.46999998093E+01 0. -1.
</event>
<event>
 5   0  0.6194742E-04  0.1417722E+04  0.7818609E-02  0.8941089E-01
        1   -1    0    0  501    0  0.00000000000E+00  0.00000000000E+00  0.14861051527E+04  0.14861051527E+04  0.50400001928E-02 0.  1.
       -1   -1    0    0    0  501  0.00000000000E+00  0.00000000000E+00 -0.33812135471E+03  0.33812135475E+03  0.50400001928E-02 0. -1.
    10030    2    1    2    0    0  0.00000000000E+00  0.00000000000E+00  0.11479837980E+04  0.18242265074E+04  0.14177219579E+04 0.  0.
        4    1    3    3  502    0 -0.37577864683E+03  0.57390570604E+03  0.80382710365E+03  0.10567483032E+04  0.12699999809E+01 0.  1.
       -4    1    3    3    0  502  0.37577864683E+03 -0.57390570604E+03  0.34415669431E+03  0.76747820424E+03  0.12699999809E+01 0. -1.
</event>
<event>
 5   0  0.6153318E-04  0.1392690E+04  0.7818609E-02  0.8959127E-01
        1   -1    0    0  501    0  0.00000000000E+00  0.00000000000E+00  0.12916725806E+04  0.12916725806E+04  0.50400001928E-02 0. -1.
       -1   -1    0    0    0  501  0.00000000000E+00  0.00000000000E+00 -0.37540173356E+03  0.37540173360E+03  0.50400001928E-02 0.  1.
    10030    2    1    2    0    0  0.00000000000E+00  0.00000000000E+00  0.91627084700E+03  0.16670743142E+04  0.13926896653E+04 0.  0.
        5    1    3    3  502    0 -0.52603709667E+03 -0.45621963565E+03  0.45243820370E+03  0.83040580513E+03  0.46999998093E+01 0. -1.
       -5    1    3    3    0  502  0.52603709667E+03  0.45621963565E+03  0.46383264330E+03  0.83666850904E+03  0.46999998093E+01 0.  1.
</event>
<event>
 5   0  0.5875298E-04  0.1415780E+04  0.7818609E-02  0.8942475E-01
       -1   -1    0    0    0  501  0.00000000000E+00  0.00000000000E+00  0.27090752831E+03  0.27090752835E+03  0.50400001928E-02 0. -1.
        1   -1    0    0  501    0  0.00000000000E+00  0.00000000000E+00 -0.18497385456E+04  0.18497385456E+04  0.50400001928E-02 0.  1.
    10030    2    1    2    0    0  0.00000000000E+00  0.00000000000E+00 -0.15788310173E+04  0.21206460740E+04  0.14157797815E+04 0.  0.
        1    1    3    3  502    0 -0.19163027120E+01  0.69739421834E+03 -0.60752685116E+03  0.92490607247E+03  0.50400001928E-02 0. -1.
       -1    1    3    3    0  502  0.19163027120E+01 -0.69739421834E+03 -0.97130416613E+03  0.11957400015E+04  0.50400001928E-02 0.  1.
</event>
<event>
 5   0  0.1098949E-03  0.1412213E+04  0.7818609E-02  0.8945026E-01
       -2   -1    0    0    0  501  0.00000000000E+00  0.00000000000E+00  0.11847265477E+04  0.11847265477E+04  0.25500000920E-02 0.  1.
        2   -1    0    0  501    0  0.00000000000E+00  0.00000000000E+00 -0.42084487056E+03  0.42084487057E+03  0.25500000920E-02 0. -1.
    10030    2    1    2    0    0  0.00000000000E+00  0.00000000000E+00  0.76388167717E+03  0.16055714183E+04  0.14122125770E+04 0.  0.
        4    1    3    3  502    0  0.33915472612E+03 -0.47159156014E+03 -0.74472276383E+02  0.58563833609E+03  0.12699999809E+01 0. -1.
       -4    1    3    3    0  502 -0.33915472612E+03  0.47159156014E+03  0.83835395355E+03  0.10199330822E+04  0.12699999809E+01 0.  1.
</event>
<event>
 5   0  0.1098949E-03  0.1409773E+04  0.7818609E-02  0.8946774E-01
       -2   -1    0    0    0  501  0.00000000000E+00  0.00000000000E+00  0.36474848288E+03  0.36474848289E+03  0.25500000920E-02 0.  1.
        2   -1    0    0  501    0  0.00000000000E+00  0.00000000000E+00 -0.13622132561E+04  0.13622132561E+04  0.25500000920E-02 0. -1.
    10030    2    1    2    0    0  0.00000000000E+00  0.00000000000E+00 -0.99746477320E+03  0.17269617390E+04  0.14097733414E+04 0.  0.
        4    1    3    3  502    0 -0.17872589506E+03  0.20900863161E+03  0.29632081140E+03  0.40427118352E+03  0.12699999809E+01 0.  1.
       -4    1    3    3    0  502  0.17872589506E+03 -0.20900863161E+03 -0.12937855846E+04  0.13226905555E+04  0.12699999809E+01 0. -1.
</event>
<event>
 5   0  0.4176125E-04  0.1398052E+04  0.7818609E-02  0.8955230E-01
       -3   -1    0    0    0  501  0.00000000000E+00  0.00000000000E+00  0.10906786207E+04  0.10906786254E+04  0.10100000352E+00 0.  1.
        3   -1    0    0  501    0  0.00000000000E+00  0.00000000000E+00 -0.44801247603E+03  0.44801248742E+03  0.10100000352E+00 0. -1.
    10030    2    1    2    0    0  0.00000000000E+00  0.00000000000E+00  0.64266614468E+03  0.15386911128E+04  0.13980524193E+04 0.  0.
        2    1    3    3  502    0  0.32023718654E+03 -0.52847206768E+03  0.68101601077E+03  0.91957456951E+03  0.25500000920E-02 0.  1.
       -2    1    3    3    0  502 -0.32023718654E+03  0.52847206768E+03 -0.38349866083E+02  0.61911654331E+03  0.25500000920E-02 0. -1.
</event>
<event>
 5   0  0.1120053E-03  0.1408590E+04  0.7818609E-02  0.8947624E-01
       -2   -1    0    0    0  501  0.00000000000E+00  0.00000000000E+00  0.44078211418E+03  0.44078211419E+03  0.25500000920E-02 0.  1.
        2   -1    0    0  501    0  0.00000000000E+00  0.00000000000E+00 -0.11253431889E+04  0.11253431889E+04  0.25500000920E-02 0. -1.
    10030    2    1    2    0    0  0.00000000000E+00  0.00000000000E+00 -0.68456107470E+03  0.15661253031E+04  0.14085895782E+04 0.  0.
        2    1    3    3  502    0  0.56168318674E+03 -0.34858128771E+03 -0.72137362193E+02  0.66498174068E+03  0.25500000920E-02 0.  1.
       -2    1    3    3    0  502 -0.56168318674E+03  0.34858128771E+03 -0.61242371250E+03  0.90114356240E+03  0.25500000920E-02 0. -1.
</event>
<event>
 5   0  0.6097538E-04  0.1326059E+04  0.7818609E-02  0.9009151E-01
        1   -1    0    0  501    0  0.00000000000E+00  0.00000000000E+00  0.13462572413E+04  0.13462572413E+04  0.50400001928E-02 0. -1.
       -1   -1    0    0    0  501  0.00000000000E+00  0.00000000000E+00 -0.32654104435E+03  0.32654104439E+03  0.50400001928E-02 0.  1.
    10030    2    1    2    0    0  0.00000000000E+00  0.00000000000E+00  0.10197161969E+04  0.16727982857E+04  0.13260591926E+04 0.  0.
        2    1    3    3  502    0 -0.21688746367E+03 -0.18602777095E+03 -0.24488468767E+03  0.37631770318E+03  0.25500000920E-02 0.  1.
       -2    1    3    3    0  502  0.21688746367E+03  0.18602777095E+03  0.12646008846E+04  0.12964805825E+04  0.25500000920E-02 0. -1.
</event>
<event>
 5   0  0.6114266E-04  0.1400161E+04  0.7818609E-02  0.8953702E-01
        1   -1    0    0  501    0  0.00000000000E+00  0.00000000000E+00  0.16334344270E+04  0.16334344270E+04  0.50400001928E-02 0. -1.
       -1   -1    0    0    0  501  0.00000000000E+00  0.00000000000E+00 -0.30005046993E+03  0.30005046997E+03  0.50400001928E-02 0.  1.
    10030    2    1    2    0    0  0.00000000000E+00  0.00000000000E+00  0.13333839571E+04  0.19334848970E+04  0.14001610871E+04 0.  0.
        3    1    3    3  502    0  0.20509933207E+03  0.66903317961E+03  0.63767247248E+03  0.94672980506E+03  0.10100000352E+00 0.  1.
       -3    1    3    3    0  502 -0.20509933207E+03 -0.66903317961E+03  0.69571148461E+03  0.98675509193E+03  0.10100000352E+00 0. -1.
</event>
<event>
 5   0  0.1095119E-03  0.1389255E+04  0.7818609E-02  0.8961633E-01
        2   -1    0    0  501    0  0.00000000000E+00  0.00000000000E+00  0.10054689491E+04  0.10054689491E+04  0.25500000920E-02 0. -1.
       -2   -1    0    0    0  501  0.00000000000E+00  0.00000000000E+00 -0.47988322765E+03  0.47988322766E+03  0.25500000920E-02 0.  1.
    10030    2    1    2    0    0  0.00000000000E+00  0.00000000000E+00  0.52558572145E+03  0.14853521768E+04  0.13892554619E+04 0.  0.
        5    1    3    3  502    0  0.20421587357E+03  0.54971387324E+03 -0.13524361717E+03  0.60183252773E+03  0.46999998093E+01 0.  1.
       -5    1    3    3    0  502 -0.20421587357E+03 -0.54971387324E+03  0.66082933861E+03  0.88351964903E+03  0.46999998093E+01 0. -1.
</event>
<event>
 5   0  0.1175146E-03  0.1391660E+04  0.7818609E-02  0.8959877E-01
        2   -1    0    0  501    0  0.00000000000E+00  0.00000000000E+00  0.12077314976E+04  0.12077314976E+04  0.25500000920E-02 0. -1.
       -2   -1    0    0    0  501  0.00000000000E+00  0.00000000000E+00 -0.40090007167E+03  0.40090007168E+03  0.25500000920E-02 0.  1.
    10030    2    1    2    0    0  0.00000000000E+00  0.00000000000E+00  0.80683142595E+03  0.16086315693E+04  0.13916603666E+04 0.  0.
        1    1    3    3  502    0 -0.15296841918E+03  0.52249337199E+03 -0.97482096453E+02  0.55308355625E+03  0.50400001928E-02 0.  1.
       -1    1    3    3    0  502  0.15296841918E+03 -0.52249337199E+03  0.90431352240E+03  0.10555480131E+04  0.50400001928E-02 0. -1.
</event>
<event>
 5   0  0.6194742E-04  0.1409307E+04  0.7818609E-02  0.8947109E-01
        1   -1    0    0  501    0  0.00000000000E+00  0.00000000000E+00  0.99409455865E+03  0.99409455866E+03  0.50400001928E-02 0. -1.
       -1   -1    0    0    0  501  0.00000000000E+00  0.00000000000E+00 -0.49948625134E+03  0.49948625137E+03  0.50400001928E-02 0.  1.
    10030    2    1    2    0    0  0.00000000000E+00  0.00000000000E+00  0.49460830730E+03  0.14935808100E+04  0.14093070135E+04 0.  0.
        4    1    3    3  502    0 -0.40616763692E+03 -0.27874024606E+03 -0.28667703962E+03  0.56995930732E+03  0.12699999809E+01 0.  1.
       -4    1    3    3    0  502  0.40616763692E+03  0.27874024606E+03  0.78128534692E+03  0.92362150271E+03  0.12699999809E+01 0. -1.
</event>
<event>
 5   0  0.6194742E-04  0.1388315E+04  0.7818609E-02  0.8962320E-01
       -1   -1    0    0    0  501  0.00000000000E+00  0.00000000000E+00  0.89585055098E+03  0.89585055100E+03  0.50400001928E-02 0.  1.
        1   -1    0    0  501    0  0.00000000000E+00  0.00000000000E+00 -0.53787428341E+03  0.53787428343E+03  0.50400001928E-02 0. -1.
    10030    2    1    2    0    0  0.00000000000E+00  0.00000000000E+00  0.35797626757E+03  0.14337248344E+04  0.13883154875E+04 0.  0.
        4    1    3    3  502    0  0.47099123372E+03 -0.16170129926E+02  0.70532411788E+03  0.84827939943E+03  0.12699999809E+01 0.  1.
       -4    1    3    3    0  502 -0.47099123372E+03  0.16170129926E+02 -0.34734785031E+03  0.58544543500E+03  0.12699999809E+01 0. -1.
</event>
<event>
 5   0  0.6153318E-04  0.1395974E+04  0.7818609E-02  0.8956738E-01
       -1   -1    0    0    0  501  0.00000000000E+00  0.00000000000E+00  0.30344869367E+03  0.30344869371E+03  0.50400001928E-02 0. -1.
        1   -1    0    0  501    0  0.00000000000E+00  0.00000000000E+00 -0.16054956828E+04  0.16054956828E+04  0.50400001928E-02 0.  1.
    10030    2    1    2    0    0  0.00000000000E+00  0.00000000000E+00 -0.13020469891E+04  0.19089443765E+04  0.13959735924E+04 0.  0.
        5    1    3    3  502    0 -0.66747519761E+03  0.16738334447E+03 -0.81063158734E+03  0.10633371920E+04  0.46999998093E+01 0.  1.
       -5    1    3    3    0  502  0.66747519761E+03 -0.16738334447E+03 -0.49141540175E+03  0.84560718452E+03  0.46999998093E+01 0. -1.
</event>
<event>
 5   0  0.1098949E-03  0.1400862E+04  0.7818609E-02  0.8953195E-01
        2   -1    0    0  501    0  0.00000000000E+00  0.00000000000E+00  0.18435603887E+04  0.18435603887E+04  0.25500000920E-02 0.  1.
       -2   -1    0    0    0  501  0.00000000000E+00  0.00000000000E+00 -0.26611735514E+03  0.26611735515E+03  0.25500000920E-02 0. -1.
    10030    2    1    2    0    0  0.00000000000E+00  0.00000000000E+00  0.15774430335E+04  0.21096777438E+04  0.14008617558E+04 0.  0.
        4    1    3    3  502    0 -0.51805722300E+03  0.46231106253E+03  0.64998273872E+03  0.95110145536E+03  0.12699999809E+01 0.  1.
       -4    1    3    3    0  502  0.51805722300E+03 -0.46231106253E+03  0.92746029481E+03  0.11585762885E+04  0.12699999809E+01 0. -1.
</event>
<event>
 5   0  0.6153318E-04  0.1374615E+04  0.7818609E-02  0.8972401E-01
        1   -1    0    0  501    0  0.00000000000E+00  0.00000000000E+00  0.10973455104E+04  0.10973455104E+04  0.50400001928E-02 0. -1.
       -1   -1    0    0    0  501  0.00000000000E+00  0.00000000000E+00 -0.43048556824E+03  0.43048556827E+03  0.50400001928E-02 0.  1.
    10030    2    1    2    0    0  0.00000000000E+00  0.00000000000E+00  0.66685994214E+03  0.15278310787E+04  0.13746147178E+04 0.  0.
        5    1    3    3  502    0  0.17229759352E+03  0.65021109086E+03  0.17660600081E+03  0.69546581004E+03  0.46999998093E+01 0.  1.
       -5    1    3    3    0  502 -0.17229759352E+03 -0.65021109086E+03  0.49025394133E+03  0.83236526862E+03  0.46999998093E+01 0. -1.
</event>
<event>
 5   0  0.1108819E-03  0.1386216E+04  0.7818609E-02  0.8963857E-01
        2   -1    0    0  501    0  0.00000000000E+00  0.00000000000E+00  0.56213764181E+03  0.56213764181E+03  0.25500000920E-02 0. -1.
       -2   -1    0    0    0  501  0.00000000000E+00  0.00000000000E+00 -0.85459240477E+03  0.85459240477E+03  0.25500000920E-02 0.  1.
    10030    2    1    2    0    0  0.00000000000E+00  0.00000000000E+00 -0.29245476296E+03  0.14167300466E+04  0.13862157972E+04 0.  0.
        3    1    3    3  502    0 -0.32033513209E+03 -0.32548526032E+03  0.38663563099E+03  0.59836642026E+03  0.10100000352E+00 0. -1.
       -3    1    3    3    0  502  0.32033513209E+03  0.32548526032E+03 -0.67909039395E+03  0.81836362633E+03  0.10100000352E+00 0.  1.
</event>
<event>
 5   0  0.1108819E-03  0.1396753E+04  0.7818609E-02  0.8956173E-01
        2   -1    0    0  501    0  0.00000000000E+00  0.00000000000E+00  0.14281840743E+04  0.14281840743E+04  0.25500000920E-02 0. -1.
       -2   -1    0    0    0  501  0.00000000000E+00  0.00000000000E+00 -0.34150320245E+03  0.34150320246E+03  0.25500000920E-02 0.  1.
    10030    2    1    2    0    0  0.00000000000E+00  0.00000000000E+00  0.10866808718E+04  0.17696872768E+04  0.13967525695E+04 0.  0.
        3    1    3    3  502    0  0.20430359422E+01 -0.67674448538E+03  0.32483449633E+03  0.75066952296E+03  0.10100000352E+00 0. -1.
       -3    1    3    3    0  502 -0.20430359422E+01  0.67674448538E+03  0.76184637552E+03  0.10190177538E+04  0.10100000352E+00 0.  1.
</event>
<event>
 5   0  0.4176125E-04  0.1347811E+04  0.7818609E-02  0.8992487E-01
        3   -1    0    0  501    0  0.00000000000E+00  0.00000000000E+00  0.58584850464E+03  0.58584851334E+03  0.10100000352E+00 0. -1.
       -3   -1    0    0    0  501  0.00000000000E+00  0.00000000000E+00 -0.77519749688E+03  0.77519750346E+03  0.10100000352E+00 0.  1.
    10030    2    1    2    0    0  0.00000000000E+00  0.00000000000E+00 -0.18934899225E+03  0.13610460168E+04  0.13478105279E+04 0.  0.
        4    1    3    3  502    0 -0.54332967108E+02  0.52599262984E+03 -0.51654046908E+03  0.73921308637E+03  0.12699999809E+01 0.  1.
       -4    1    3    3    0  502  0.54332967108E+02 -0.52599262984E+03  0.32719147684E+03  0.62183293044E+03  0.12699999809E+01 0. -1.
</event>
<event>
 5   0  0.6153318E-04  0.1189984E+04  0.7818609E-02  0.9121669E-01
       -1   -1    0    0    0  501  0.00000000000E+00  0.00000000000E+00  0.44392277269E+03  0.44392277272E+03  0.50400001928E-02 0. -1.
        1   -1    0    0  501    0  0.00000000000E+00  0.00000000000E+00 -0.79747038738E+03  0.79747038740E+03  0.50400001928E-02 0.  1.
    10030    2    1    2    0    0  0.00000000000E+00  0.00000000000E+00 -0.35354761469E+03  0.12413931601E+04  0.11899836394E+04 0.  0.
        5    1    3    3  502    0 -0.53349788712E+03  0.20301877540E+03 -0.35182220114E+03  0.67055019942E+03  0.46999998093E+01 0. -1.
       -5    1    3    3    0  502  0.53349788712E+03 -0.20301877540E+03 -0.17254135527E+01  0.57084296070E+03  0.46999998093E+01 0.  1.
</event>
<event>
 5   0  0.1108819E-03  0.1401833E+04  0.7818609E-02  0.8952493E-01
       -2   -1    0    0    0  501  0.00000000000E+00  0.00000000000E+00  0.23453441627E+03  0.23453441629E+03  0.25500000920E-02 0. -1.
        2   -1    0    0  501    0  0.00000000000E+00  0.00000000000E+00 -0.20947193008E+04  0.20947193008E+04  0.25500000920E-02 0.  1.
    10030    2    1    2    0    0  0.00000000000E+00  0.00000000000E+00 -0.18601848846E+04  0.23292537171E+04  0.14018327554E+04 0.  0.
        3    1    3    3  502    0  0.33723484577E+03 -0.39358856019E+02 -0.19489623384E+04  0.19783151082E+04  0.10100000352E+00 0.  1.
       -3    1    3    3    0  502 -0.33723484577E+03  0.39358856019E+02  0.88777453782E+02  0.35093860895E+03  0.10100000352E+00 0. -1.
</event>
<event>
 5   0  0.4176125E-04  0.1409769E+04  0.7818609E-02  0.8946778E-01
        3   -1    0    0  501    0  0.00000000000E+00  0.00000000000E+00  0.13033524025E+04  0.13033524064E+04  0.10100000352E+00 0. -1.
       -3   -1    0    0    0  501  0.00000000000E+00  0.00000000000E+00 -0.38121832625E+03  0.38121833963E+03  0.10100000352E+00 0.  1.
    10030    2    1    2    0    0  0.00000000000E+00  0.00000000000E+00  0.92213407627E+03  0.16845707461E+04  0.14097685427E+04 0.  0.
        3    1    3    3  502    0 -0.32070058333E+03  0.37407926615E+03 -0.14124935455E+03  0.51257736184E+03  0.10100000352E+00 0.  1.
       -3    1    3    3    0  502  0.32070058333E+03 -0.37407926615E+03  0.10633834308E+04  0.11719933842E+04  0.10100000352E+00 0. -1.
</event>
<event>
 5   0  0.1120053E-03  0.1374383E+04  0.7818609E-02  0.8972573E-01
        2   -1    0    0  501    0  0.00000000000E+00  0.00000000000E+00  0.15635646474E+04  0.15635646474E+04  0.25500000920E-02 0.  1.
       -2   -1    0    0    0  501  0.00000000000E+00  0.00000000000E+00 -0.30202266374E+03  0.30202266375E+03  0.25500000920E-02 0. -1.
    10030    2    1    2    0    0  0.00000000000E+00  0.00000000000E+00  0.12615419837E+04  0.18655873111E+04  0.13743827120E+04 0.  0.
        2    1    3    3  502    0  0.24822433817E+03 -0.39836530071E+03  0.13120746270E+04  0.13935028029E+04  0.25500000920E-02 0.  1.
       -2    1    3    3    0  502 -0.24822433817E+03  0.39836530071E+03 -0.50532643347E+02  0.47208450824E+03  0.25500000920E-02 0. -1.
</event>
<event>
 5   0  0.1175146E-03  0.1397931E+04  0.7818609E-02  0.8955317E-01
       -2   -1    0    0    0  501  0.00000000000E+00  0.00000000000E+00  0.16078866937E+04  0.16078866937E+04  0.25500000920E-02 0. -1.
        2   -1    0    0  501    0  0.00000000000E+00  0.00000000000E+00 -0.30384792266E+03  0.30384792268E+03  0.25500000920E-02 0.  1.
    10030    2    1    2    0    0  0.00000000000E+00  0.00000000000E+00  0.13040387711E+04  0.19117346164E+04  0.13979313743E+04 0.  0.
        1    1    3    3  502    0 -0.94239077454E+01 -0.64404414892E+03  0.10232049550E+04  0.12090616426E+04  0.50400001928E-02 0. -1.
       -1    1    3    3    0  502  0.94239077454E+01  0.64404414892E+03  0.28083381611E+03  0.70267297379E+03  0.50400001928E-02 0.  1.
</event>
<event>
 5   0  0.5875298E-04  0.1405333E+04  0.7818609E-02  0.8949968E-01
       -1   -1    0    0    0  501  0.00000000000E+00  0.00000000000E+00  0.43216814136E+03  0.43216814139E+03  0.50400001928E-02 0.  1.
        1   -1    0    0  501    0  0.00000000000E+00  0.00000000000E+00 -0.11424719797E+04  0.11424719797E+04  0.50400001928E-02 0. -1.
    10030    2    1    2    0    0  0.00000000000E+00  0.00000000000E+00 -0.71030383832E+03  0.15746401211E+04  0.14053326895E+04 0.  0.
        1    1    3    3  502    0 -0.38085732584E+02 -0.21249590014E+02 -0.11409539930E+04  0.11417872316E+04  0.50400001928E-02 0. -1.
       -1    1    3    3    0  502  0.38085732584E+02  0.21249590014E+02  0.43065015472E+03  0.43285288943E+03  0.50400001928E-02 0.  1.
</event>
<event>
 5   0  0.1098949E-03  0.1391850E+04  0.7818609E-02  0.8959739E-01
       -2   -1    0    0    0  501  0.00000000000E+00  0.00000000000E+00  0.24767296816E+03  0.24767296817E+03  0.25500000920E-02 0.  1.
        2   -1    0    0  501    0  0.00000000000E+00  0.00000000000E+00 -0.19554484779E+04  0.19554484779E+04  0.25500000920E-02 0. -1.
    10030    2    1    2    0    0  0.00000000000E+00  0.00000000000E+00 -0.17077755098E+04  0.22031214461E+04  0.13918501767E+04 0.  0.
        4    1    3    3  502    0 -0.11375916594E+03  0.68593528676E+03 -0.80742160774E+03  0.10655419424E+04  0.12699999809E+01 0. -1.
       -4    1    3    3    0  502  0.11375916594E+03 -0.68593528676E+03 -0.90035390204E+03  0.11375795037E+04  0.12699999809E+01 0.  1.
</event>
<event>
 5   0  0.1098949E-03  0.1424187E+04  0.7818609E-02  0.8936494E-01
        2   -1    0    0  501    0  0.00000000000E+00  0.00000000000E+00  0.14040089451E+04  0.14040089451E+04  0.25500000920E-02 0.  1.
       -2   -1    0    0    0  501  0.00000000000E+00  0.00000000000E+00 -0.36116396507E+03  0.36116396508E+03  0.25500000920E-02 0. -1.
    10030    2    1    2    0    0  0.00000000000E+00  0.00000000000E+00  0.10428449801E+04  0.17651729102E+04  0.14241874001E+04 0.  0.
        4    1    3    3  502    0  0.42865693409E+03  0.44036874904E+03  0.96727855013E+03  0.11459933720E+04  0.12699999809E+01 0.  1.
       -4    1    3    3    0  502 -0.42865693409E+03 -0.44036874904E+03  0.75566429921E+02  0.61917953818E+03  0.12699999809E+01 0. -1.
</event>
<event>
 5   0  0.1095119E-03  0.1403997E+04  0.7818609E-02  0.8950930E-01
       -2   -1    0    0    0  501  0.00000000000E+00  0.00000000000E+00  0.40165785551E+03  0.40165785551E+03  0.25500000920E-02 0.  1.
        2   -1    0    0  501    0  0.00000000000E+00  0.00000000000E+00 -0.12269193951E+04  0.12269193951E+04  0.25500000920E-02 0. -1.
    10030    2    1    2    0    0  0.00000000000E+00  0.00000000000E+00 -0.82526153963E+03  0.16285772507E+04  0.14039968848E+04 0.  0.
        5    1    3    3  502    0  0.44088801515E+03  0.54374311993E+03 -0.35190278413E+03  0.78351546369E+03  0.46999998093E+01 0.  1.
       -5    1    3    3    0  502 -0.44088801515E+03 -0.54374311993E+03 -0.47335875550E+03  0.84506178696E+03  0.46999998093E+01 0. -1.
</event>
<event>
 5   0  0.6194742E-04  0.1423623E+04  0.7818609E-02  0.8936895E-01
        1   -1    0    0  501    0  0.00000000000E+00  0.00000000000E+00  0.85793636793E+03  0.85793636795E+03  0.50400001928E-02 0. -1.
       -1   -1    0    0    0  501  0.00000000000E+00  0.00000000000E+00 -0.59057450227E+03  0.59057450230E+03  0.50400001928E-02 0.  1.
    10030    2    1    2    0    0  0.00000000000E+00  0.00000000000E+00  0.26736186566E+03  0.14485108702E+04  0.14236226235E+04 0.  0.
        4    1    3    3  502    0  0.15272768581E+03  0.15186992008E+03 -0.55662179055E+03  0.59684139372E+03  0.12699999809E+01 0.  1.
       -4    1    3    3    0  502 -0.15272768581E+03 -0.15186992008E+03  0.82398365621E+03  0.85166947652E+03  0.12699999809E+01 0. -1.
</event>
<event>
 5   0  0.6097538E-04  0.1400706E+04  0.7818609E-02  0.8953307E-01
       -1   -1    0    0    0  501  0.00000000000E+00  0.00000000000E+00  0.48342266156E+03  0.48342266158E+03  0.50400001928E-02 0. -1.
        1   -1    0    0  501    0  0.00000000000E+00  0.00000000000E+00 -0.10146288019E+04  0.10146288019E+04  0.50400001928E-02 0.  1.
    10030    2    1    2    0    0  0.00000000000E+00  0.00000000000E+00 -0.53120614038E+03  0.14980514635E+04  0.14007063303E+04 0.  0.
        2    1    3    3  502    0 -0.31301398266E+03 -0.49942729913E+03  0.13895701531E+03  0.60556951093E+03  0.25500000920E-02 0. -1.
       -2    1    3    3    0  502  0.31301398266E+03  0.49942729913E+03 -0.67016315569E+03  0.89248195260E+03  0.25500000920E-02 0.  1.
</event>
<event>
 5   0  0.1108819E-03  0.1395517E+04  0.7818609E-02  0.8957070E-01
        2   -1    0    0  501    0  0.00000000000E+00  0.00000000000E+00  0.61390443380E+03  0.61390443380E+03  0.25500000920E-02 0.  1.
       -2   -1    0    0    0  501  0.00000000000E+00  0.00000000000E+00 -0.79306594215E+03  0.79306594215E+03  0.25500000920E-02 0. -1.
    10030    2    1    2    0    0  0.00000000000E+00  0.00000000000E+00 -0.17916150835E+03  0.14069703760E+04  0.13955166759E+04 0.  0.
        3    1    3    3  502    0 -0.22522707312E+03 -0.25438805705E+03  0.52486871428E+03  0.62524210948E+03  0.10100000352E+00 0.  1.
       -3    1    3    3    0  502  0.22522707312E+03  0.25438805705E+03 -0.70403022262E+03  0.78172826647E+03  0.10100000352E+00 0. -1.
</event>
<event>
 5   0  0.1098949E-03  0.1433414E+04  0.7818609E-02  0.8929981E-01
        2   -1    0    0  501    0  0.00000000000E+00  0.00000000000E+00  0.91027076317E+03  0.91027076318E+03  0.25500000920E-02 0.  1.
       -2   -1    0    0    0  501  0.00000000000E+00  0.00000000000E+00 -0.56430358998E+03  0.56430358999E+03  0.25500000920E-02 0. -1.
    10030    2    1    2    0    0  0.00000000000E+00  0.00000000000E+00  0.34596717319E+03  0.14745743532E+04  0.14334141893E+04 0.  0.
        4    1    3    3  502    0 -0.10624180550E+03  0.28592710190E+03 -0.49419629175E+03  0.58075228499E+03  0.12699999809E+01 0. -1.
       -4    1    3    3    0  502  0.10624180550E+03 -0.28592710190E+03  0.84016346495E+03  0.89382206818E+03  0.12699999809E+01 0.  1.
</event>
<event>
 5   0  0.1098949E-03  0.1404770E+04  0.7818609E-02  0.8950373E-01
       -2   -1    0    0    0  501  0.00000000000E+00  0.00000000000E+00  0.35570738842E+03  0.35570738843E+03  0.25500000920E-02 0. -1.
        2   -1    0    0  501    0  0.00000000000E+00  0.00000000000E+00 -0.13869397781E+04  0.13869397781E+04  0.25500000920E-02 0.  1.
    10030    2    1    2    0    0  0.00000000000E+00  0.00000000000E+00 -0.10312323896E+04  0.17426471665E+04  0.14047700543E+04 0.  0.
        4    1    3    3  502    0  0.69320006853E+02  0.69894130056E+03 -0.51022192647E+03  0.86813146016E+03  0.12699999809E+01 0.  1.
       -4    1    3    3    0  502 -0.69320006853E+02 -0.69894130056E+03 -0.52101046317E+03  0.87451570633E+03  0.12699999809E+01 0. -1.
</event>
<event>
 5   0  0.6114266E-04  0.1409059E+04  0.7818609E-02  0.8947287E-01
        1   -1    0    0  501    0  0.00000000000E+00  0.00000000000E+00  0.13532566966E+04  0.13532566966E+04  0.50400001928E-02 0.  1.
       -1   -1    0    0    0  501  0.00000000000E+00  0.00000000000E+00 -0.36679081632E+03  0.36679081635E+03  0.50400001928E-02 0. -1.
    10030    2    1    2    0    0  0.00000000000E+00  0.00000000000E+00  0.98646588024E+03  0.17200475129E+04  0.14090594430E+04 0.  0.
        3    1    3    3  502    0 -0.13961161204E+03  0.57760471871E+03  0.95523998548E+03  0.11249898014E+04  0.10100000352E+00 0. -1.
       -3    1    3    3    0  502  0.13961161204E+03 -0.57760471871E+03  0.31225894763E+02  0.59505771148E+03  0.10100000352E+00 0.  1.
</event>
<event>
 5   0  0.5875298E-04  0.1393251E+04  0.7818609E-02  0.8958718E-01
       -1   -1    0    0    0  501  0.00000000000E+00  0.00000000000E+00  0.30726578530E+03  0.30726578534E+03  0.50400001928E-02 0. -1.
        1   -1    0    0  501    0  0.00000000000E+00  0.00000000000E+00 -0.15793724656E+04  0.15793724656E+04  0.50400001928E-02 0.  1.
    10030    2    1    2    0    0  0.00000000000E+00  0.00000000000E+00 -0.12721066803E+04  0.18866382509E+04  0.13932510484E+04 0.  0.
        1    1    3    3  502    0  0.22402301157E+03 -0.42712091780E+03  0.44613879856E+02  0.48436451815E+03  0.50400001928E-02 0. -1.
       -1    1    3    3    0  502 -0.22402301157E+03  0.42712091780E+03 -0.13167205601E+04  0.14022737328E+04  0.50400001928E-02 0.  1.
</event>
<event>
 5   0  0.6097538E-04  0.1389776E+04  0.7818609E-02  0.8961253E-01
        1   -1    0    0  501    0  0.00000000000E+00  0.00000000000E+00  0.61826018925E+03  0.61826018927E+03  0.50400001928E-02 0.  1.
       -1   -1    0    0    0  501  0.00000000000E+00  0.00000000000E+00 -0.78101299738E+03  0.78101299740E+03  0.50400001928E-02 0. -1.
    10030    2    1    2    0    0  0.00000000000E+00  0.00000000000E+00 -0.16275280813E+03  0.13992731867E+04  0.13897758720E+04 0.  0.
        2    1    3    3  502    0 -0.13299920361E+03 -0.54275085263E+03 -0.49723890605E+03  0.74800655471E+03  0.25500000920E-02 0. -1.
       -2    1    3    3    0  502  0.13299920361E+03  0.54275085263E+03  0.33448609792E+03  0.65126663196E+03  0.25500000920E-02 0.  1.
</event>
<event>
 5   0  0.1175146E-03  0.1371162E+04  0.7818609E-02  0.8974962E-01
        2   -1    0    0  501    0  0.00000000000E+00  0.00000000000E+00  0.33609086026E+04  0.33609086026E+04  0.25500000920E-02 0. -1.
       -2   -1    0    0    0  501  0.00000000000E+00  0.00000000000E+00 -0.13984943449E+03  0.13984943452E+03  0.25500000920E-02 0.  1.
    10030    2    1    2    0    0  0.00000000000E+00  0.00000000000E+00  0.32210591681E+04  0.35007580371E+04  0.13711617957E+04 0.  0.
        1    1    3    3  502    0  0.30693196297E+03 -0.51334446313E+03  0.75497713625E+03  0.96318235242E+03  0.50400001928E-02 0. -1.
       -1    1    3    3    0  502 -0.30693196297E+03  0.51334446313E+03  0.24660820319E+04  0.25375756847E+04  0.50400001928E-02 0.  1.
</event>
<event>
 5   0  0.1098949E-03  0.1381210E+04  0.7818609E-02  0.8967533E-01
        2   -1    0    0  501    0  0.00000000000E+00  0.00000000000E+00  0.43242865941E+03  0.43242865941E+03  0.25500000920E-02 0. -1.
       -2   -1    0    0    0  501  0.00000000000E+00  0.00000000000E+00 -0.11029222976E+04  0.11029222976E+04  0.25500000920E-02 0.  1.
    10030    2    1    2    0    0  0.00000000000E+00  0.00000000000E+00 -0.67049363821E+03  0.15353509570E+04  0.13812099197E+04 0.  0.
        4    1    3    3  502    0 -0.53360661670E+03  0.27542971428E+03 -0.71439164183E+03  0.93324947346E+03  0.12699999809E+01 0.  1.
       -4    1    3    3    0  502  0.53360661670E+03 -0.27542971428E+03  0.43898003620E+02  0.60210148357E+03  0.12699999809E+01 0. -1.
</event>
<event>
 5   0  0.6153318E-04  0.1391891E+04  0.7818609E-02  0.8959709E-01
       -1   -1    0    0    0  501  0.00000000000E+00  0.00000000000E+00  0.44598954880E+03  0.44598954883E+03  0.50400001928E-02 0. -1.
        1   -1    0    0  501    0  0.00000000000E+00  0.00000000000E+00 -0.10859899053E+04  0.10859899053E+04  0.50400001928E-02 0.  1.
    10030    2    1    2    0    0  0.00000000000E+00  0.00000000000E+00 -0.64000035653E+03  0.15319794542E+04  0.13918910128E+04 0.  0.
        5    1    3    3  502    0 -0.20210013091E+03 -0.64781004400E+03 -0.48985573834E+03  0.83694865458E+03  0.46999998093E+01 0.  1.
       -5    1    3    3    0  502  0.20210013091E+03  0.64781004400E+03 -0.15014461818E+03  0.69503079959E+03  0.46999998093E+01 0. -1.
</event>
<event>
 5   0  0.1175146E-03  0.1408349E+04  0.7818609E-02  0.8947797E-01
       -2   -1    0    0    0  501  0.00000000000E+00  0.00000000000E+00  0.63675049783E+03  0.63675049783E+03  0.25500000920E-02 0.  1.
        2   -1    0    0  501    0  0.00000000000E+00  0.00000000000E+00 -0.77873788132E+03  0.77873788133E+03  0.25500000920E-02 0. -1.
    10030    2    1    2    0    0  0.00000000000E+00  0.00000000000E+00 -0.14198738350E+03  0.14154883792E+04  0.14083490102E+04 0.  0.
        1    1    3    3  502    0  0.67435246395E+03 -0.14472853758E+03  0.71726641088E+02  0.69342793879E+03  0.50400001928E-02 0.  1.
       -1    1    3    3    0  502 -0.67435246395E+03  0.14472853758E+03 -0.21371402459E+03  0.72206044037E+03  0.50400001928E-02 0. -1.
</event>
<event>
 5   0  0.6114266E-04  0.1393948E+04  0.7818609E-02  0.8958211E-01
       -1   -1    0    0    0  501  0.00000000000E+00  0.00000000000E+00  0.36526195960E+03  0.36526195963E+03  0.50400001928E-02 0.  1.
        1   -1    0    0  501    0  0.00000000000E+00  0.00000000000E+00 -0.13299292069E+04  0.13299292069E+04  0.50400001928E-02 0. -1.
    10030    2    1    2    0    0  0.00000000000E+00  0.00000000000E+00 -0.96466724730E+03  0.16951911665E+04  0.13939477010E+04 0.  0.
        3    1    3    3  502    0  0.35106789304E+03 -0.47109400992E+03 -0.93832440995E+03  0.11070821741E+04  0.10100000352E+00 0. -1.
       -3    1    3    3    0  502 -0.35106789304E+03  0.47109400992E+03 -0.26342837349E+02  0.58810899244E+03  0.10100000352E+00 0.  1.
</event>
<event>
 5   0  0.6153318E-04  0.1403187E+04  0.7818609E-02  0.8951515E-01
        1   -1    0    0  501    0  0.00000000000E+00  0.00000000000E+00  0.17559352945E+04  0.17559352945E+04  0.50400001928E-02 0. -1.
       -1   -1    0    0    0  501  0.00000000000E+00  0.00000000000E+00 -0.28032540050E+03  0.28032540055E+03  0.50400001928E-02 0.  1.
    10030    2    1    2    0    0  0.00000000000E+00  0.00000000000E+00  0.14756098940E+04  0.20362606951E+04  0.14031867513E+04 0.  0.
        5    1    3    3  502    0  0.61398072598E+03  0.24747622996E+03  0.10750084641E+04  0.12624904372E+04  0.46999998093E+01 0. -1.
       -5    1    3    3    0  502 -0.61398072598E+03 -0.24747622996E+03  0.40060142997E+03  0.77377025787E+03  0.46999998093E+01 0.  1.
</event>
<event>
 5   0  0.6153318E-04  0.1416586E+04  0.7818609E-02  0.8941900E-01
       -1   -1    0    0    0  501  0.00000000000E+00  0.00000000000E+00  0.32264826566E+03  0.32264826570E+03  0.50400001928E-02 0.  1.
        1   -1    0    0  501    0  0.00000000000E+00  0.00000000000E+00 -0.15548782550E+04  0.15548782550E+04  0.50400001928E-02 0. -1.
    10030    2    1    2    0    0  0.00000000000E+00  0.00000000000E+00 -0.12322299893E+04  0.18775265207E+04  0.14165857155E+04 0.  0.
        5    1    3    3  502    0 -0.48203959104E+03 -0.46691101707E+03 -0.31595437247E+03  0.74176635180E+03  0.46999998093E+01 0.  1.
       -5    1    3    3    0  502  0.48203959104E+03  0.46691101707E+03 -0.91627561688E+03  0.11357601689E+04  0.46999998093E+01 0. -1.
</event>
<event>
 5   0  0.4176125E-04  0.1394386E+04  0.7818609E-02  0.8957892E-01
        4   -1    0    0  501    0  0.00000000000E+00  0.00000000000E+00  0.51965145618E+03  0.51965300809E+03  0.12699999809E+01 0.  1.
       -4   -1    0    0    0  501  0.00000000000E+00  0.00000000000E+00 -0.93538958125E+03  0.93539044340E+03  0.12699999809E+01 0. -1.
    10030    2    1    2    0    0  0.00000000000E+00  0.00000000000E+00 -0.41573812507E+03  0.14550434515E+04  0.13943863371E+04 0.  0.
        4    1    3    3  502    0 -0.56587478886E+02 -0.69484464836E+03 -0.21631260758E+03  0.72993423349E+03  0.12699999809E+01 0. -1.
       -4    1    3    3    0  502  0.56587478886E+02  0.69484464836E+03 -0.19942551748E+03  0.72510921801E+03  0.12699999809E+01 0.  1.
</event>
<event>
 5   0  0.1095119E-03  0.1354649E+04  0.7818609E-02  0.8987316E-01
       -2   -1    0    0    0  501  0.00000000000E+00  0.00000000000E+00  0.79317198744E+03  0.79317198744E+03  0.25500000920E-02 0. -1.
        2   -1    0    0  501    0  0.00000000000E+00  0.00000000000E+00 -0.57839740191E+03  0.57839740192E+03  0.25500000920E-02 0.  1.
    10030    2    1    2    0    0  0.00000000000E+00  0.00000000000E+00  0.21477458553E+03  0.13715693894E+04  0.13546492045E+04 0.  0.
        5    1    3    3  502    0  0.37300520310E+03 -0.55598632026E+03  0.21110139537E+03  0.70202532645E+03  0.46999998093E+01 0. -1.
       -5    1    3    3    0  502 -0.37300520310E+03  0.55598632026E+03  0.36731901606E+01  0.66954406291E+03  0.46999998093E+01 0.  1.
</event>
<event>
 5   0  0.1098949E-03  0.1425914E+04  0.7818609E-02  0.8935271E-01
        2   -1    0    0  501    0  0.00000000000E+00  0.00000000000E+00  0.89939590960E+03  0.89939590960E+03  0.25500000920E-02 0.  1.
       -2   -1    0    0    0  501  0.00000000000E+00  0.00000000000E+00 -0.56516564278E+03  0.56516564279E+03  0.25500000920E-02 0. -1.
    10030    2    1    2    0    0  0.00000000000E+00  0.00000000000E+00  0.33423026682E+03  0.14645615524E+04  0.14259139769E+04 0.  0.
        4    1    3    3  502    0  0.50453823747E+03  0.15065875125E+03 -0.32658870276E+03  0.61961172202E+03  0.12699999809E+01 0. -1.
       -4    1    3    3    0  502 -0.50453823747E+03 -0.15065875125E+03  0.66081896957E+03  0.84494983037E+03  0.12699999809E+01 0.  1.
</event>
<event>
 5   0  0.5875298E-04  0.1404289E+04  0.7818609E-02  0.8950720E-01
        1   -1    0    0  501    0  0.00000000000E+00  0.00000000000E+00  0.64375332541E+03  0.64375332543E+03  0.50400001928E-02 0.  1.
       -1   -1    0    0    0  501  0.00000000000E+00  0.00000000000E+00 -0.76583159782E+03  0.76583159784E+03  0.50400001928E-02 0. -1.
    10030    2    1    2    0    0  0.00000000000E+00  0.00000000000E+00 -0.12207827241E+03  0.14095849233E+04  0.14042886282E+04 0.  0.
        1    1    3    3  502    0 -0.30295765090E+03 -0.61136544796E+03 -0.22736134594E+03  0.71919693468E+03  0.50400001928E-02 0. -1.
       -1    1    3    3    0  502  0.30295765090E+03  0.61136544796E+03  0.10528307353E+03  0.69038798860E+03  0.50400001928E-02 0.  1.
</event>
<event>
 5   0  0.1095119E-03  0.1255259E+04  0.7818609E-02  0.9065817E-01
        2   -1    0    0  501    0  0.00000000000E+00  0.00000000000E+00  0.10221153301E+04  0.10221153301E+04  0.25500000920E-02 0.  1.
       -2   -1    0    0    0  501  0.00000000000E+00  0.00000000000E+00 -0.38539589854E+03  0.38539589855E+03  0.25500000920E-02 0. -1.
    10030    2    1    2    0    0  0.00000000000E+00  0.00000000000E+00  0.63671943160E+03  0.14075112287E+04  0.12552594251E+04 0.  0.
        5    1    3    3  502    0 -0.54776895802E+03 -0.43660791486E+02  0.65835298535E+03  0.85755923376E+03  0.46999998093E+01 0. -1.
       -5    1    3    3    0  502  0.54776895802E+03  0.43660791486E+02 -0.21633553752E+02  0.54995199494E+03  0.46999998093E+01 0.  1.
</event>
<event>
 5   0  0.6153318E-04  0.1396774E+04  0.7818609E-02  0.8956157E-01
       -1   -1    0    0    0  501  0.00000000000E+00  0.00000000000E+00  0.38586922437E+03  0.38586922440E+03  0.50400001928E-02 0.  1.
        1   -1    0    0  501    0  0.00000000000E+00  0.00000000000E+00 -0.12640145376E+04  0.12640145376E+04  0.50400001928E-02 0. -1.
    10030    2    1    2    0    0  0.00000000000E+00  0.00000000000E+00 -0.87814531325E+03  0.16498837620E+04  0.13967738675E+04 0.  0.
        5    1    3    3  502    0 -0.42582094572E+03 -0.58667184420E+02 -0.10892288041E+04  0.11709853945E+04  0.46999998093E+01 0. -1.
       -5    1    3    3    0  502  0.42582094572E+03  0.58667184420E+02  0.21108349086E+03  0.47889836756E+03  0.46999998093E+01 0.  1.
</event>
<event>
 5   0  0.1108819E-03  0.1410866E+04  0.7818609E-02  0.8945990E-01
       -2   -1    0    0    0  501  0.00000000000E+00  0.00000000000E+00  0.65922633239E+03  0.65922633239E+03  0.25500000920E-02 0.  1.
        2   -1    0    0  501    0  0.00000000000E+00  0.00000000000E+00 -0.75487889873E+03  0.75487889874E+03  0.25500000920E-02 0. -1.
    10030    2    1    2    0    0  0.00000000000E+00  0.00000000000E+00 -0.95652566346E+02  0.14141052311E+04  0.14108664683E+04 0.  0.
        3    1    3    3  502    0 -0.12516409911E+03 -0.56237887985E+03 -0.45582335563E+03  0.73465025553E+03  0.10100000352E+00 0. -1.
       -3    1    3    3    0  502  0.12516409911E+03  0.56237887985E+03  0.36017078929E+03  0.67945497560E+03  0.10100000352E+00 0.  1.
</event>
<event>
 5   0  0.1095119E-03  0.1382665E+04  0.7818609E-02  0.8966463E-01
       -2   -1    0    0    0  501  0.00000000000E+00  0.00000000000E+00  0.44421929769E+03  0.44421929770E+03  0.25500000920E-02 0.  1.
        2   -1    0    0  501    0  0.00000000000E+00  0.00000000000E+00 -0.10759115330E+04  0.10759115330E+04  0.25500000920E-02 0. -1.
    10030    2    1    2    0    0  0.00000000000E+00  0.00000000000E+00 -0.63169223535E+03  0.15201308307E+04  0.13826650579E+04 0.  0.
        5    1    3    3  502    0  0.26770709964E+03 -0.98773191559E+02  0.37643585715E+03  0.47238678974E+03  0.46999998093E+01 0.  1.
       -5    1    3    3    0  502 -0.26770709964E+03  0.98773191559E+02 -0.10081280925E+04  0.10477440410E+04  0.46999998093E+01 0. -1.
</event>
<event>
 5   0  0.6194742E-04  0.1343654E+04  0.7818609E-02  0.8995646E-01
        1   -1    0    0  501    0  0.00000000000E+00  0.00000000000E+00  0.34339312555E+03  0.34339312559E+03  0.50400001928E-02 0. -1.
       -1   -1    0    0    0  501  0.00000000000E+00  0.00000000000E+00 -0.13143875389E+04  0.13143875389E+04  0.50400001928E-02 0.  1.
    10030    2    1    2    0    0  0.00000000000E+00  0.00000000000E+00 -0.97099441330E+03  0.16577806645E+04  0.13436541894E+04 0.  0.
        4    1    3    3  502    0  0.34827196061E+03  0.59937273834E+02  0.21945120950E+03  0.41598831906E+03  0.12699999809E+01 0. -1.
       -4    1    3    3    0  502 -0.34827196061E+03 -0.59937273834E+02 -0.11904456228E+04  0.12417923454E+04  0.12699999809E+01 0.  1.
</event>
<event>
 5   0  0.1108819E-03  0.1410020E+04  0.7818609E-02  0.8946597E-01
        2   -1    0    0  501    0  0.00000000000E+00  0.00000000000E+00  0.20177798352E+04  0.20177798352E+04  0.25500000920E-02 0. -1.
       -2   -1    0    0    0  501  0.00000000000E+00  0.00000000000E+00 -0.24632967446E+03  0.24632967447E+03  0.25500000920E-02 0.  1.
    10030    2    1    2    0    0  0.00000000000E+00  0.00000000000E+00  0.17714501607E+04  0.22641095096E+04  0.14100199288E+04 0.  0.
        3    1    3    3  502    0 -0.27532143567E+03  0.63599923864E+03  0.67795771080E+03  0.96949656644E+03  0.10100000352E+00 0. -1.
       -3    1    3    3    0  502  0.27532143567E+03 -0.63599923864E+03  0.10934924499E+04  0.12946129432E+04  0.10100000352E+00 0.  1.
</event>
<event>
 5   0  0.1120053E-03  0.1429784E+04  0.7818609E-02  0.8932537E-01
       -2   -1    0    0    0  501  0.00000000000E+00  0.00000000000E+00  0.74555495420E+03  0.74555495420E+03  0.25500000920E-02 0. -1.
        2   -1    0    0  501    0  0.00000000000E+00  0.00000000000E+00 -0.68548984822E+03  0.68548984823E+03  0.25500000920E-02 0.  1.
    10030    2    1    2    0    0  0.00000000000E+00  0.00000000000E+00  0.60065105972E+02  0.14310448024E+04  0.14297836933E+04 0.  0.
        2    1    3    3  502    0 -0.49783384564E+03 -0.32147745715E+03 -0.37017517790E+03  0.69872452058E+03  0.25500000920E-02 0.  1.
       -2    1    3    3    0  502  0.49783384564E+03  0.32147745715E+03  0.43024028387E+03  0.73232028184E+03  0.25500000920E-02 0. -1.
</event>
<event>
 5   0  0.1098949E-03  0.1381369E+04  0.7818609E-02  0.8967416E-01
        2   -1    0    0  501    0  0.00000000000E+00  0.00000000000E+00  0.78460931147E+03  0.78460931148E+03  0.25500000920E-02 0.  1.
       -2   -1    0    0    0  501  0.00000000000E+00  0.00000000000E+00 -0.60800356211E+03  0.60800356212E+03  0.25500000920E-02 0. -1.
    10030    2    1    2    0    0  0.00000000000E+00  0.00000000000E+00  0.17660574936E+03  0.13926128736E+04  0.13813692573E+04 0.  0.
        4    1    3    3  502    0 -0.35925295513E+03  0.13800156635E+03 -0.48989523745E+03  0.62298160058E+03  0.12699999809E+01 0. -1.
       -4    1    3    3    0  502  0.35925295513E+03 -0.13800156635E+03  0.66650098681E+03  0.76963127301E+03  0.12699999809E+01 0.  1.
</event>
<event>
 5   0  0.1095119E-03  0.1399465E+04  0.7818609E-02  0.8954206E-01
        2   -1    0    0  501    0  0.00000000000E+00  0.00000000000E+00  0.11190506824E+04  0.11190506824E+04  0.25500000920E-02 0. -1.
       -2   -1    0    0    0  501  0.00000000000E+00  0.00000000000E+00 -0.43753640847E+03  0.43753640848E+03  0.25500000920E-02 0.  1.
    10030    2    1    2    0    0  0.00000000000E+00  0.00000000000E+00  0.68151427392E+03  0.15565870909E+04  0.13994647784E+04 0.  0.
        5    1    3    3  502    0 -0.40197008405E+03  0.31842952109E+03  0.87025758979E+03  0.10101226019E+04  0.46999998093E+01 0. -1.
       -5    1    3    3    0  502  0.40197008405E+03 -0.31842952109E+03 -0.18874331587E+03  0.54646448893E+03  0.46999998093E+01 0.  1.
</event>
<event>
 5   0  0.1175146E-03  0.1365796E+04  0.7818609E-02  0.8978956E-01
       -2   -1    0    0    0  501  0.00000000000E+00  0.00000000000E+00  0.25115505062E+03  0.25115505063E+03  0.25500000920E-02 0.  1.
        2   -1    0    0  501    0  0.00000000000E+00  0.00000000000E+00 -0.18568207451E+04  0.18568207451E+04  0.25500000920E-02 0. -1.
    10030    2    1    2    0    0  0.00000000000E+00  0.00000000000E+00 -0.16056656945E+04  0.21079757957E+04  0.13657963366E+04 0.  0.
        1    1    3    3  502    0 -0.28832988027E+03  0.60073289241E+03 -0.57216862290E+03  0.87828871161E+03  0.50400001928E-02 0. -1.
       -1    1    3    3    0  502  0.28832988027E+03 -0.60073289241E+03 -0.10334970715E+04  0.12296870841E+04  0.50400001928E-02 0.  1.
</event>
<event>
 5   0  0.1175146E-03  0.1386934E+04  0.7818609E-02  0.8963331E-01
       -2   -1    0    0    0  501  0.00000000000E+00  0.00000000000E+00  0.31109323301E+03  0.31109323302E+03  0.25500000920E-02 0.  1.
        2   -1    0    0  501    0  0.00000000000E+00  0.00000000000E+00 -0.15458275818E+04  0.15458275818E+04  0.25500000920E-02 0. -1.
    10030    2    1    2    0    0  0.00000000000E+00  0.00000000000E+00 -0.12347343488E+04  0.18569208148E+04  0.13869340289E+04 0.  0.
        1    1    3    3  502    0 -0.34276221140E+03 -0.41879824151E+03 -0.36819369644E+02  0.54243300661E+03  0.50400001928E-02 0.  1.
       -1    1    3    3    0  502  0.34276221140E+03  0.41879824151E+03 -0.11979149791E+04  0.13144878082E+04  0.50400001928E-02 0. -1.
</event>
<event>
 5   0  0.5875298E-04  0.1205366E+04  0.7818609E-02  0.9108173E-01
        1   -1    0    0  501    0  0.00000000000E+00  0.00000000000E+00  0.10101034674E+04  0.10101034674E+04  0.50400001928E-02 0.  1.
       -1   -1    0    0    0  501  0.00000000000E+00  0.00000000000E+00 -0.35959369949E+03  0.35959369953E+03  0.50400001928E-02 0. -1.
    10030    2    1    2    0    0  0.00000000000E+00  0.00000000000E+00  0.65050976794E+03  0.13696971670E+04  0.12053660735E+04 0.  0.
        1    1    3    3  502    0 -0.27592132075E+03  0.44182132105E+02 -0.28153222685E+03  0.39666740580E+03  0.50400001928E-02 0. -1.
       -1    1    3    3    0  502  0.27592132075E+03 -0.44182132105E+02  0.93204199479E+03  0.97302976117E+03  0.50400001928E-02 0.  1.
</event>
<event>
 5   0  0.6097538E-04  0.1311879E+04  0.7818609E-02  0.9020198E-01
        1   -1    0    0  501    0  0.00000000000E+00  0.00000000000E+00  0.16414651431E+04  0.16414651431E+04  0.50400001928E-02 0.  1.
       -1   -1    0    0    0  501  0.00000000000E+00  0.00000000000E+00 -0.26211725800E+03  0.26211725805E+03  0.50400001928E-02 0. -1.
    10030    2    1    2    0    0  0.00000000000E+00  0.00000000000E+00  0.13793478851E+04  0.19035824012E+04  0.13118785652E+04 0.  0.
        2    1    3    3  502    0  0.33566376411E+03 -0.65285750564E+02 -0.12254823160E+03  0.36324986006E+03  0.25500000920E-02 0. -1.
       -2    1    3    3    0  502 -0.33566376411E+03  0.65285750564E+02  0.15018961167E+04  0.15403325411E+04  0.25500000920E-02 0.  1.
</event>
<event>
 5   0  0.1175146E-03  0.1397244E+04  0.7818609E-02  0.8955816E-01
        2   -1    0    0  501    0  0.00000000000E+00  0.00000000000E+00  0.37845153157E+03  0.37845153157E+03  0.25500000920E-02 0.  1.
       -2   -1    0    0    0  501  0.00000000000E+00  0.00000000000E+00 -0.12896574365E+04  0.12896574365E+04  0.25500000920E-02 0. -1.
    10030    2    1    2    0    0  0.00000000000E+00  0.00000000000E+00 -0.91120590492E+03  0.16681089681E+04  0.13972441906E+04 0.  0.
        1    1    3    3  502    0 -0.10700103432E+03 -0.28251699350E+03 -0.12076451026E+04  0.12448581312E+04  0.50400001928E-02 0. -1.
       -1    1    3    3    0  502  0.10700103432E+03  0.28251699350E+03  0.29643919768E+03  0.42325083686E+03  0.50400001928E-02 0.  1.
</event>
<event>
 5   0  0.6153318E-04  0.1432174E+04  0.7818609E-02  0.8930853E-01
        1   -1    0    0  501    0  0.00000000000E+00  0.00000000000E+00  0.13203920786E+04  0.13203920786E+04  0.50400001928E-02 0. -1.
       -1   -1    0    0    0  501  0.00000000000E+00  0.00000000000E+00 -0.38835481875E+03  0.38835481878E+03  0.50400001928E-02 0.  1.
    10030    2    1    2    0    0  0.00000000000E+00  0.00000000000E+00  0.93203725982E+03  0.17087468974E+04  0.14321740486E+04 0.  0.
        5    1    3    3  502    0  0.25842476211E+03  0.17595190632E+03 -0.30260620780E+03  0.43512646208E+03  0.46999998093E+01 0.  1.
       -5    1    3    3    0  502 -0.25842476211E+03 -0.17595190632E+03  0.12346434676E+04  0.12736204353E+04  0.46999998093E+01 0. -1.
</event>
<event>
 5   0  0.1095119E-03  0.1395218E+04  0.7818609E-02  0.8957287E-01
        2   -1    0    0  501    0  0.00000000000E+00  0.00000000000E+00  0.15950364470E+04  0.15950364470E+04  0.25500000920E-02 0. -1.
       -2   -1    0    0    0  501  0.00000000000E+00  0.00000000000E+00 -0.30510801750E+03  0.30510801751E+03  0.25500000920E-02 0.  1.
    10030    2    1    2    0    0  0.00000000000E+00  0.00000000000E+00  0.12899284295E+04  0.19001444646E+04  0.13952181309E+04 0.  0.
        5    1    3    3  502    0 -0.62203667297E+03 -0.23421675806E+03  0.35654652845E+03  0.75427755450E+03  0.46999998093E+01 0.  1.
       -5    1    3    3    0  502  0.62203667297E+03  0.23421675806E+03  0.93338190110E+03  0.11458669101E+04  0.46999998093E+01 0. -1.
</event>
<event>
 5   0  0.6114266E-04  0.1384167E+04  0.7818609E-02  0.8965360E-01
        1   -1    0    0  501    0  0.00000000000E+00  0.00000000000E+00  0.10664888864E+04  0.10664888864E+04  0.50400001928E-02 0.  1.
       -1   -1    0    0    0  501  0.00000000000E+00  0.00000000000E+00 -0.44911813000E+03  0.44911813003E+03  0.50400001928E-02 0. -1.
    10030    2    1    2    0    0  0.00000000000E+00  0.00000000000E+00  0.61737075635E+03  0.15156070164E+04  0.13841668893E+04 0.  0.
        3    1    3    3  502    0 -0.17826811503E+03  0.66671014422E+02  0.10372697615E+04  0.10545867026E+04  0.10100000352E+00 0.  1.
       -3    1    3    3    0  502  0.17826811503E+03 -0.66671014422E+02 -0.41989900515E+03  0.46102031379E+03  0.10100000352E+00 0. -1.
</event>
<event>
 5   0  0.1120053E-03  0.1391001E+04  0.7818609E-02  0.8960358E-01
        2   -1    0    0  501    0  0.00000000000E+00  0.00000000000E+00  0.86656880215E+03  0.86656880215E+03  0.25500000920E-02 0. -1.
       -2   -1    0    0    0  501  0.00000000000E+00  0.00000000000E+00 -0.55820255167E+03  0.55820255168E+03  0.25500000920E-02 0.  1.
    10030    2    1    2    0    0  0.00000000000E+00  0.00000000000E+00  0.30836625047E+03  0.14247713538E+04  0.13910009584E+04 0.  0.
        2    1    3    3  502    0 -0.20975330459E+03 -0.31586869231E+03 -0.44302565773E+03  0.58313052825E+03  0.25500000920E-02 0.  1.
       -2    1    3    3    0  502  0.20975330459E+03  0.31586869231E+03  0.75139190820E+03  0.84164082558E+03  0.25500000920E-02 0. -1.
</event>
<event>
 5   0  0.6194742E-04  0.1391228E+04  0.7818609E-02  0.8960193E-01
        1   -1    0    0  501    0  0.00000000000E+00  0.00000000000E+00  0.14473415783E+04  0.14473415783E+04  0.50400001928E-02 0. -1.
       -1   -1    0    0    0  501  0.00000000000E+00  0.00000000000E+00 -0.33432260718E+03  0.33432260722E+03  0.50400001928E-02 0.  1.
    10030    2    1    2    0    0  0.00000000000E+00  0.00000000000E+00  0.11130189711E+04  0.17816641855E+04  0.13912282487E+04 0.  0.
        4    1    3    3  502    0 -0.32994897128E+03  0.60485863235E+03  0.67905760127E+03  0.96738881920E+03  0.12699999809E+01 0.  1.
       -4    1    3    3    0  502  0.32994897128E+03 -0.60485863235E+03  0.43396136983E+03  0.81427536631E+03  0.12699999809E+01 0. -1.
</event>
<event>
 5   0  0.6153318E-04  0.1406064E+04  0.7818609E-02  0.8949441E-01
       -1   -1    0    0    0  501  0.00000000000E+00  0.00000000000E+00  0.49926246658E+03  0.49926246661E+03  0.50400001928E-02 0. -1.
        1   -1    0    0  501    0  0.00000000000E+00  0.00000000000E+00 -0.98996759180E+03  0.98996759181E+03  0.50400001928E-02 0.  1.
    10030    2    1    2    0    0  0.00000000000E+00  0.00000000000E+00 -0.49070512522E+03  0.14892300584E+04  0.14060635288E+04 0.  0.
        5    1    3    3  502    0  0.11060671262E+03  0.72658166484E+02  0.48593445066E+03  0.50365408205E+03  0.46999998093E+01 0. -1.
       -5    1    3    3    0  502 -0.11060671262E+03 -0.72658166484E+02 -0.97663957587E+03  0.98557597637E+03  0.46999998093E+01 0.  1.
</event>
<event>
 5   0  0.5875298E-04  0.1397963E+04  0.7818609E-02  0.8955294E-01
        1   -1    0    0  501    0  0.00000000000E+00  0.00000000000E+00  0.15915696979E+04  0.15915696979E+04  0.50400001928E-02 0. -1.
       -1   -1    0    0    0  501  0.00000000000E+00  0.00000000000E+00 -0.30697709188E+03  0.30697709192E+03  0.50400001928E-02 0.  1.
    10030    2    1    2    0    0  0.00000000000E+00  0.00000000000E+00  0.12845926060E+04  0.18985467898E+04  0.13979634293E+04 0.  0.
        1    1    3    3  502    0  0.25157356912E+03 -0.65207168274E+03  0.65508660185E+03  0.95792755262E+03  0.50400001928E-02 0. -1.
       -1    1    3    3    0  502 -0.25157356912E+03  0.65207168274E+03  0.62950600417E+03  0.94061923722E+03  0.50400001928E-02 0.  1.
</event>
<event>
 5   0  0.6097538E-04  0.1390600E+04  0.7818609E-02  0.8960651E-01
        1   -1    0    0  501    0  0.00000000000E+00  0.00000000000E+00  0.56936200360E+03  0.56936200363E+03  0.50400001928E-02 0.  1.
       -1   -1    0    0    0  501  0.00000000000E+00  0.00000000000E+00 -0.84909425031E+03  0.84909425033E+03  0.50400001928E-02 0. -1.
    10030    2    1    2    0    0  0.00000000000E+00  0.00000000000E+00 -0.27973224671E+03  0.14184562540E+04  0.13905998758E+04 0.  0.
        2    1    3    3  502    0 -0.47900310909E+03  0.10609275281E+03 -0.64242452615E+03  0.80833713420E+03  0.25500000920E-02 0. -1.
       -2    1    3    3    0  502  0.47900310909E+03 -0.10609275281E+03  0.36269227944E+03  0.61011911976E+03  0.25500000920E-02 0.  1.
</event>
<event>
 5   0  0.1108819E-03  0.1403193E+04  0.7818609E-02  0.8951510E-01
        2   -1    0    0  501    0  0.00000000000E+00  0.00000000000E+00  0.61041340895E+03  0.61041340895E+03  0.25500000920E-02 0. -1.
       -2   -1    0    0    0  501  0.00000000000E+00  0.00000000000E+00 -0.80640101486E+03  0.80640101487E+03  0.25500000920E-02 0.  1.
    10030    2    1    2    0    0  0.00000000000E+00  0.00000000000E+00 -0.19598760592E+03  0.14168144238E+04  0.14031934898E+04 0.  0.
        3    1    3    3  502    0  0.11098687231E+03  0.10245149173E+03  0.59380190440E+03  0.61271127447E+03  0.10100000352E+00 0. -1.
       -3    1    3    3    0  502 -0.11098687231E+03 -0.10245149173E+03 -0.78978951032E+03  0.80410314935E+03  0.10100000352E+00 0.  1.
</event>
<event>
 5   0  0.1175146E-03  0.1336710E+04  0.7818609E-02  0.9000950E-01
       -2   -1    0    0    0  501  0.00000000000E+00  0.00000000000E+00  0.11182743965E+04  0.11182743965E+04  0.25500000920E-02 0.  1.
        2   -1    0    0  501    0  0.00000000000E+00  0.00000000000E+00 -0.39945311095E+03  0.39945311096E+03  0.25500000920E-02 0. -1.
    10030    2    1    2    0    0  0.00000000000E+00  0.00000000000E+00  0.71882128555E+03  0.15177275075E+04  0.13367096717E+04 0.  0.
        1    1    3    3  502    0  0.40061609467E+03 -0.10865797726E+03  0.95417848997E+03  0.10405558140E+04  0.50400001928E-02 0.  1.
       -1    1    3    3    0  502 -0.40061609467E+03  0.10865797726E+03 -0.23535720442E+03  0.47717169345E+03  0.50400001928E-02 0. -1.
</event>
<event>
 5   0  0.6097538E-04  0.1392775E+04  0.7818609E-02  0.8959065E-01
       -1   -1    0    0    0  501  0.00000000000E+00  0.00000000000E+00  0.20363652325E+03  0.20363652331E+03  0.50400001928E-02 0.  1.
        1   -1    0    0  501    0  0.00000000000E+00  0.00000000000E+00 -0.23814756710E+04  0.23814756710E+04  0.50400001928E-02 0. -1.
    10030    2    1    2    0    0  0.00000000000E+00  0.00000000000E+00 -0.21778391478E+04  0.25851121943E+04  0.13927748216E+04 0.  0.
        2    1    3    3  502    0  0.65839847876E+03 -0.10062830011E+03 -0.14663075010E+04  0.16104882176E+04  0.25500000920E-02 0. -1.
       -2    1    3    3    0  502 -0.65839847876E+03  0.10062830011E+03 -0.71153164683E+03  0.97462397675E+03  0.25500000920E-02 0.  1.
</event>
<event>
 5   0  0.6194742E-04  0.1278342E+04  0.7818609E-02  0.9046919E-01
        1   -1    0    0  501    0  0.00000000000E+00  0.00000000000E+00  0.16370667767E+04  0.16370667767E+04  0.50400001928E-02 0.  1.
       -1   -1    0    0    0  501  0.00000000000E+00  0.00000000000E+00 -0.24955584884E+03  0.24955584889E+03  0.50400001928E-02 0. -1.
    10030    2    1    2    0    0  0.00000000000E+00  0.00000000000E+00  0.13875109278E+04  0.18866226256E+04  0.12783420342E+04 0.  0.
        4    1    3    3  502    0  0.44635699343E+03  0.45644318831E+03  0.73955457862E+03  0.97699413376E+03  0.12699999809E+01 0.  1.
       -4    1    3    3    0  502 -0.44635699343E+03 -0.45644318831E+03  0.64795634920E+03  0.90962849181E+03  0.12699999809E+01 0. -1.
</event>
<event>
 5   0  0.6114266E-04  0.1395555E+04  0.7818609E-02  0.8957042E-01
       -1   -1    0    0    0  501  0.00000000000E+00  0.00000000000E+00  0.33029643353E+03  0.33029643357E+03  0.50400001928E-02 0.  1.
        1   -1    0    0  501    0  0.00000000000E+00  0.00000000000E+00 -0.14741109048E+04  0.14741109048E+04  0.50400001928E-02 0. -1.
    10030    2    1    2    0    0  0.00000000000E+00  0.00000000000E+00 -0.11438144713E+04  0.18044073384E+04  0.13955551935E+04 0.  0.
        3    1    3    3  502    0  0.38737879119E+03 -0.10935093821E+03  0.16505423635E+03  0.43504352275E+03  0.10100000352E+00 0.  1.
       -3    1    3    3    0  502 -0.38737879119E+03  0.10935093821E+03 -0.13088687076E+04  0.13693638156E+04  0.10100000352E+00 0. -1.
</event>
<event>
 5   0  0.6194742E-04  0.1398437E+04  0.7818609E-02  0.8954951E-01
        1   -1    0    0  501    0  0.00000000000E+00  0.00000000000E+00  0.11882094326E+04  0.11882094326E+04  0.50400001928E-02 0.  1.
       -1   -1    0    0    0  501  0.00000000000E+00  0.00000000000E+00 -0.41146502028E+03  0.41146502031E+03  0.50400001928E-02 0. -1.
    10030    2    1    2    0    0  0.00000000000E+00  0.00000000000E+00  0.77674441232E+03  0.15996744529E+04  0.13984371538E+04 0.  0.
        4    1    3    3  502    0  0.54787429313E+03  0.14879328957E+02 -0.10829369157E+03  0.55867411971E+03  0.12699999809E+01 0. -1.
       -4    1    3    3    0  502 -0.54787429313E+03 -0.14879328957E+02  0.88503810389E+03  0.10410003332E+04  0.12699999809E+01 0.  1.
</event>
<event>
 5   0  0.1120053E-03  0.1393065E+04  0.7818609E-02  0.8958853E-01
       -2   -1    0    0    0  501  0.00000000000E+00  0.00000000000E+00  0.47297628107E+03  0.47297628108E+03  0.25500000920E-02 0. -1.
        2   -1    0    0  501    0  0.00000000000E+00  0.00000000000E+00 -0.10257551234E+04  0.10257551234E+04  0.25500000920E-02 0.  1.
    10030    2    1    2    0    0  0.00000000000E+00  0.00000000000E+00 -0.55277884229E+03  0.14987314044E+04  0.13930654594E+04 0.  0.
        2    1    3    3  502    0  0.19971573207E+03  0.49079669875E+03  0.20999782674E+03  0.56997092942E+03  0.25500000920E-02 0. -1.
       -2    1    3    3    0  502 -0.19971573207E+03 -0.49079669875E+03 -0.76277666903E+03  0.92876047502E+03  0.25500000920E-02 0.  1.
</event>
<event>
 5   0  0.1175146E-03  0.1393514E+04  0.7818609E-02  0.8958527E-01
        2   -1    0    0  501    0  0.00000000000E+00  0.00000000000E+00  0.13763370950E+04  0.13763370951E+04  0.25500000920E-02 0. -1.
       -2   -1    0    0    0  501  0.00000000000E+00  0.00000000000E+00 -0.35272619495E+03  0.35272619496E+03  0.25500000920E-02 0.  1.
    10030    2    1    2    0    0  0.00000000000E+00  0.00000000000E+00  0.10236109001E+04  0.17290632900E+04  0.13935137552E+04 0.  0.
        1    1    3    3  502    0 -0.37486572469E+03 -0.44634099899E+03  0.38144612812E+02  0.58412294120E+03  0.50400001928E-02 0.  1.
       -1    1    3    3    0  502  0.37486572469E+03  0.44634099899E+03  0.98546628729E+03  0.11449403488E+04  0.50400001928E-02 0. -1.
</event>
<event>
 5   0  0.5875298E-04  0.1161239E+04  0.7818609E-02  0.9147477E-01
       -1   -1    0    0    0  501  0.00000000000E+00  0.00000000000E+00  0.15902352406E+03  0.15902352414E+03  0.50400001928E-02 0. -1.
        1   -1    0    0  501    0  0.00000000000E+00  0.00000000000E+00 -0.21199318383E+04  0.21199318383E+04  0.50400001928E-02 0.  1.
    10030    2    1    2    0    0  0.00000000000E+00  0.00000000000E+00 -0.19609083143E+04  0.22789553625E+04  0.11612390482E+04 0.  0.
        1    1    3    3  502    0 -0.24504639193E+03  0.46599079616E+03 -0.50004183951E+03  0.72611087141E+03  0.50400001928E-02 0. -1.
       -1    1    3    3    0  502  0.24504639193E+03 -0.46599079616E+03 -0.14608664748E+04  0.15528444911E+04  0.50400001928E-02 0.  1.
</event>
<event>
 5   0  0.1120053E-03  0.1364350E+04  0.7818609E-02  0.8980036E-01
       -2   -1    0    0    0  501  0.00000000000E+00  0.00000000000E+00  0.20083063450E+03  0.20083063451E+03  0.25500000920E-02 0. -1.
        2   -1    0    0  501    0  0.00000000000E+00  0.00000000000E+00 -0.23171893680E+04  0.23171893680E+04  0.25500000920E-02 0.  1.
    10030    2    1    2    0    0  0.00000000000E+00  0.00000000000E+00 -0.21163587335E+04  0.25180200025E+04  0.13643498247E+04 0.  0.
        2    1    3    3  502    0 -0.40215122296E+00 -0.24498229967E+03  0.11684384962E+03  0.27142029047E+03  0.25500000920E-02 0. -1.
       -2    1    3    3    0  502  0.40215122296E+00  0.24498229967E+03 -0.22332025831E+04  0.22465997120E+04  0.25500000920E-02 0.  1.
</event>
<event>
 5   0  0.6114266E-04  0.1395374E+04  0.7818609E-02  0.8957174E-01
       -1   -1    0    0    0  501  0.00000000000E+00  0.00000000000E+00  0.48071450383E+03  0.48071450386E+03  0.50400001928E-02 0. -1.
        1   -1    0    0  501    0  0.00000000000E+00  0.00000000000E+00 -0.10125911498E+04  0.10125911498E+04  0.50400001928E-02 0.  1.
    10030    2    1    2    0    0  0.00000000000E+00  0.00000000000E+00 -0.53187664598E+03  0.14933056537E+04  0.13953741465E+04 0.  0.
        3    1    3    3  502    0  0.28605030831E+03  0.18601119411E+03  0.38532961185E+03  0.51468812225E+03  0.10100000352E+00 0. -1.
       -3    1    3    3    0  502 -0.28605030831E+03 -0.18601119411E+03 -0.91720625782E+03  0.97861753142E+03  0.10100000352E+00 0.  1.
</event>
<event>
 5   0  0.1175146E-03  0.1393392E+04  0.7818609E-02  0.8958616E-01
       -2   -1    0    0    0  501  0.00000000000E+00  0.00000000000E+00  0.57415569010E+03  0.57415569011E+03  0.25500000920E-02 0.  1.
        2   -1    0    0  501    0  0.00000000000E+00  0.00000000000E+00 -0.84538928593E+03  0.84538928593E+03  0.25500000920E-02 0. -1.
    10030    2    1    2    0    0  0.00000000000E+00  0.00000000000E+00 -0.27123359583E+03  0.14195449760E+04  0.13933916447E+04 0.  0.
        1    1    3    3  502    0  0.60448918151E+03 -0.34606211492E+03 -0.12054345233E+03  0.70689241180E+03  0.50400001928E-02 0. -1.
       -1    1    3    3    0  502 -0.60448918151E+03  0.34606211492E+03 -0.15069014350E+03  0.71265256424E+03  0.50400001928E-02 0.  1.
</event>
<event>
 5   0  0.6114266E-04  0.1430339E+04  0.7818609E-02  0.8932146E-01
       -1   -1    0    0    0  501  0.00000000000E+00  0.00000000000E+00  0.69611576838E+03  0.69611576840E+03  0.50400001928E-02 0.  1.
        1   -1    0    0  501    0  0.00000000000E+00  0.00000000000E+00 -0.73474447753E+03  0.73474447755E+03  0.50400001928E-02 0. -1.
    10030    2    1    2    0    0  0.00000000000E+00  0.00000000000E+00 -0.38628709151E+02  0.14308602459E+04  0.14303387243E+04 0.  0.
        3    1    3    3  502    0  0.72642242045E+02  0.13523354114E+03  0.67944029283E+03  0.69656595359E+03  0.10100000352E+00 0.  1.
       -3    1    3    3    0  502 -0.72642242045E+02 -0.13523354114E+03 -0.71806900198E+03  0.73429429236E+03  0.10100000352E+00 0. -1.
</event>
<event>
 5   0  0.1095119E-03  0.1402471E+04  0.7818609E-02  0.8952032E-01
        2   -1    0    0  501    0  0.00000000000E+00  0.00000000000E+00  0.30835960652E+04  0.30835960652E+04  0.25500000920E-02 0.  1.
       -2   -1    0    0    0  501  0.00000000000E+00  0.00000000000E+00 -0.15946681158E+03  0.15946681160E+03  0.25500000920E-02 0. -1.
    10030    2    1    2    0    0  0.00000000000E+00  0.00000000000E+00  0.29241292536E+04  0.32430628768E+04  0.14024710090E+04 0.  0.
        5    1    3    3  502    0  0.64919522148E+03 -0.11519564224E+03  0.91006281954E+03  0.11238153305E+04  0.46999998093E+01 0. -1.
       -5    1    3    3    0  502 -0.64919522148E+03  0.11519564224E+03  0.20140664341E+04  0.21192475463E+04  0.46999998093E+01 0.  1.
</event>
<event>
 5   0  0.1175146E-03  0.1397465E+04  0.7818609E-02  0.8955656E-01
        2   -1    0    0  501    0  0.00000000000E+00  0.00000000000E+00  0.10246469916E+04  0.10246469916E+04  0.25500000920E-02 0.  1.
       -2   -1    0    0    0  501  0.00000000000E+00  0.00000000000E+00 -0.47648324477E+03  0.47648324478E+03  0.25500000920E-02 0. -1.
    10030    2    1    2    0    0  0.00000000000E+00  0.00000000000E+00  0.54816374681E+03  0.15011302364E+04  0.13974650240E+04 0.  0.
        1    1    3    3  502    0  0.50544573501E+03 -0.38037206786E+02  0.79070024379E+03  0.93921727821E+03  0.50400001928E-02 0.  1.
       -1    1    3    3    0  502 -0.50544573501E+03  0.38037206786E+02 -0.24253649698E+03  0.56191295814E+03  0.50400001928E-02 0. -1.
</event>
<event>
 5   0  0.6097538E-04  0.1395851E+04  0.7818609E-02  0.8956827E-01
        1   -1    0    0  501    0  0.00000000000E+00  0.00000000000E+00  0.31540859229E+04  0.31540859229E+04  0.50400001928E-02 0. -1.
       -1   -1    0    0    0  501  0.00000000000E+00  0.00000000000E+00 -0.15443466232E+03  0.15443466240E+03  0.50400001928E-02 0.  1.
    10030    2    1    2    0    0  0.00000000000E+00  0.00000000000E+00  0.29996512606E+04  0.33085205853E+04  0.13958512737E+04 0.  0.
        2    1    3    3  502    0  0.60334301769E+03 -0.33349663975E+03  0.12417249050E+04  0.14202547467E+04  0.25500000920E-02 0.  1.
       -2    1    3    3    0  502 -0.60334301769E+03  0.33349663975E+03  0.17579263556E+04  0.18882658387E+04  0.25500000920E-02 0. -1.
</event>
<event>
 5   0  0.1120053E-03  0.1381136E+04  0.7818609E-02  0.8967587E-01
       -2   -1    0    0    0  501  0.00000000000E+00  0.00000000000E+00  0.31427850978E+03  0.31427850979E+03  0.25500000920E-02 0.  1.
        2   -1    0    0  501    0  0.00000000000E+00  0.00000000000E+00 -0.15173938699E+04  0.15173938699E+04  0.25500000920E-02 0. -1.
    10030    2    1    2    0    0  0.00000000000E+00  0.00000000000E+00 -0.12031153601E+04  0.18316723797E+04  0.13811361760E+04 0.  0.
        2    1    3    3  502    0  0.30153028737E+03 -0.54102231216E+03 -0.10065584101E+04  0.11818567973E+04  0.25500000920E-02 0. -1.
       -2    1    3    3    0  502 -0.30153028737E+03  0.54102231216E+03 -0.19655695001E+03  0.64981558235E+03  0.25500000920E-02 0.  1.
</event>
<event>
 5   0  0.1175146E-03  0.1168568E+04  0.7818609E-02  0.9140823E-01
       -2   -1    0    0    0  501  0.00000000000E+00  0.00000000000E+00  0.21017344923E+03  0.21017344925E+03  0.25500000920E-02 0.  1.
        2   -1    0    0  501    0  0.00000000000E+00  0.00000000000E+00 -0.16243134038E+04  0.16243134038E+04  0.25500000920E-02 0. -1.
    10030    2    1    2    0    0  0.00000000000E+00  0.00000000000E+00 -0.14141399546E+04  0.18344868531E+04  0.11685675859E+04 0.  0.
        1    1    3    3  502    0  0.51073061603E+03  0.19228772860E+03 -0.10347429963E+04  0.11698347751E+04  0.50400001928E-02 0. -1.
       -1    1    3    3    0  502 -0.51073061603E+03 -0.19228772860E+03 -0.37939695833E+03  0.66465207797E+03  0.50400001928E-02 0.  1.
</event>
<event>
 5   0  0.6097538E-04  0.1380034E+04  0.7818609E-02  0.8968399E-01
       -1   -1    0    0    0  501  0.00000000000E+00  0.00000000000E+00  0.34386709608E+03  0.34386709612E+03  0.50400001928E-02 0. -1.
        1   -1    0    0  501    0  0.00000000000E+00  0.00000000000E+00 -0.13846153861E+04  0.13846153861E+04  0.50400001928E-02 0.  1.
    10030    2    1    2    0    0  0.00000000000E+00  0.00000000000E+00 -0.10407482900E+04  0.17284824822E+04  0.13800343069E+04 0.  0.
        2    1    3    3  502    0  0.60707578553E+03  0.22049241171E+03 -0.82451519867E+03  0.10473696701E+04  0.25500000920E-02 0.  1.
       -2    1    3    3    0  502 -0.60707578553E+03 -0.22049241171E+03 -0.21623309129E+03  0.68111281208E+03  0.25500000920E-02 0. -1.
</event>
<event>
 5   0  0.6194742E-04  0.1445082E+04  0.7818609E-02  0.8921817E-01
       -1   -1    0    0    0  501  0.00000000000E+00  0.00000000000E+00  0.10513486863E+04  0.10513486863E+04  0.50400001928E-02 0.  1.
        1   -1    0    0  501    0  0.00000000000E+00  0.00000000000E+00 -0.49656720564E+03  0.49656720566E+03  0.50400001928E-02 0. -1.
    10030    2    1    2    0    0  0.00000000000E+00  0.00000000000E+00  0.55478148064E+03  0.15479158920E+04  0.14450816992E+04 0.  0.
        4    1    3    3  502    0  0.33409876543E+03  0.57448110239E+03  0.58114227455E+03  0.88282414910E+03  0.12699999809E+01 0.  1.
       -4    1    3    3    0  502 -0.33409876543E+03 -0.57448110239E+03 -0.26360793908E+02  0.66509174286E+03  0.12699999809E+01 0. -1.
</event>
<event>
 5   0  0.1095119E-03  0.1447997E+04  0.7818609E-02  0.8919790E-01
       -2   -1    0    0    0  501  0.00000000000E+00  0.00000000000E+00  0.64638599490E+03  0.64638599491E+03  0.25500000920E-02 0.  1.
        2   -1    0    0  501    0  0.00000000000E+00  0.00000000000E+00 -0.81092988782E+03  0.81092988782E+03  0.25500000920E-02 0. -1.
    10030    2    1    2    0    0  0.00000000000E+00  0.00000000000E+00 -0.16454389291E+03  0.14573158827E+04  0.14479968541E+04 0.  0.
        5    1    3    3  502    0  0.38387083248E+03  0.11735902448E+03 -0.68866240398E+03  0.79712480410E+03  0.46999998093E+01 0. -1.
       -5    1    3    3    0  502 -0.38387083248E+03 -0.11735902448E+03  0.52411851107E+03  0.66019107863E+03  0.46999998093E+01 0.  1.
</event>
<event>
 5   0  0.6114266E-04  0.1387267E+04  0.7818609E-02  0.8963088E-01
        1   -1    0    0  501    0  0.00000000000E+00  0.00000000000E+00  0.11205719132E+04  0.11205719133E+04  0.50400001928E-02 0.  1.
       -1   -1    0    0    0  501  0.00000000000E+00  0.00000000000E+00 -0.42935856589E+03  0.42935856592E+03  0.50400001928E-02 0. -1.
    10030    2    1    2    0    0  0.00000000000E+00  0.00000000000E+00  0.69121334736E+03  0.15499304792E+04  0.13872665925E+04 0.  0.
        3    1    3    3  502    0 -0.49027283653E+02 -0.38494540967E+03 -0.29673282484E+03  0.48850488483E+03  0.10100000352E+00 0. -1.
       -3    1    3    3    0  502  0.49027283653E+02  0.38494540967E+03  0.98794617220E+03  0.10614255943E+04  0.10100000352E+00 0.  1.
</event>
<event>
 5   0  0.6114266E-04  0.1396826E+04  0.7818609E-02  0.8956120E-01
       -1   -1    0    0    0  501  0.00000000000E+00  0.00000000000E+00  0.12159096884E+04  0.12159096884E+04  0.50400001928E-02 0.  1.
        1   -1    0    0  501    0  0.00000000000E+00  0.00000000000E+00 -0.40116503916E+03  0.40116503919E+03  0.50400001928E-02 0. -1.
    10030    2    1    2    0    0  0.00000000000E+00  0.00000000000E+00  0.81474464927E+03  0.16170747276E+04  0.13968256266E+04 0.  0.
        3    1    3    3  502    0  0.24763925817E+03 -0.42306558069E+03 -0.16853133934E+03  0.51837487429E+03  0.10100000352E+00 0. -1.
       -3    1    3    3    0  502 -0.24763925817E+03  0.42306558069E+03  0.98327598861E+03  0.10986998533E+04  0.10100000352E+00 0.  1.
</event>
<event>
 5   0  0.1108819E-03  0.1397127E+04  0.7818609E-02  0.8955901E-01
        2   -1    0    0  501    0  0.00000000000E+00  0.00000000000E+00  0.95278474209E+03  0.95278474209E+03  0.25500000920E-02 0. -1.
       -2   -1    0    0    0  501  0.00000000000E+00  0.00000000000E+00 -0.51217325751E+03  0.51217325751E+03  0.25500000920E-02 0.  1.
    10030    2    1    2    0    0  0.00000000000E+00  0.00000000000E+00  0.44061148458E+03  0.14649579996E+04  0.13971268590E+04 0.  0.
        3    1    3    3  502    0  0.67586373713E+03 -0.14942071799E+03  0.12153856379E+03  0.70277306068E+03  0.10100000352E+00 0.  1.
       -3    1    3    3    0  502 -0.67586373713E+03  0.14942071799E+03  0.31907292079E+03  0.76218493892E+03  0.10100000352E+00 0. -1.
</event>
<event>
 5   0  0.1095119E-03  0.1400240E+04  0.7818609E-02  0.8953645E-01
       -2   -1    0    0    0  501  0.00000000000E+00  0.00000000000E+00  0.48705308963E+03  0.48705308963E+03  0.25500000920E-02 0. -1.
        2   -1    0    0  501    0  0.00000000000E+00  0.00000000000E+00 -0.10063956444E+04  0.10063956444E+04  0.25500000920E-02 0.  1.
    10030    2    1    2    0    0  0.00000000000E+00  0.00000000000E+00 -0.51934255473E+03  0.14934487340E+04  0.14002401337E+04 0.  0.
        5    1    3    3  502    0  0.61608364867E+03 -0.64610865666E+02 -0.60759488696E+03  0.86771381387E+03  0.46999998093E+01 0. -1.
       -5    1    3    3    0  502 -0.61608364867E+03  0.64610865666E+02  0.88252332229E+02  0.62573492013E+03  0.46999998093E+01 0.  1.
</event>
<event>
 5   0  0.6153318E-04  0.1413939E+04  0.7818609E-02  0.8943790E-01
       -1   -1    0    0    0  501  0.00000000000E+00  0.00000000000E+00  0.87316356638E+03  0.87316356640E+03  0.50400001928E-02 0.  1.
        1   -1    0    0  501    0  0.00000000000E+00  0.00000000000E+00 -0.57240802090E+03  0.57240802092E+03  0.50400001928E-02 0. -1.
    10030    2    1    2    0    0  0.00000000000E+00  0.00000000000E+00  0.30075554548E+03  0.14455715873E+04  0.14139389364E+04 0.  0.
        5    1    3    3  502    0 -0.10985472738E+03 -0.12282334633E+03  0.85323908576E+03  0.86901821788E+03  0.46999998093E+01 0.  1.
       -5    1    3    3    0  502  0.10985472738E+03  0.12282334633E+03 -0.55248354028E+03  0.57655336944E+03  0.46999998093E+01 0. -1.
</event>
<event>
 5   0  0.6097538E-04  0.1352043E+04  0.7818609E-02  0.8989283E-01
       -1   -1    0    0    0  501  0.00000000000E+00  0.00000000000E+00  0.25247457030E+03  0.25247457035E+03  0.50400001928E-02 0. -1.
        1   -1    0    0  501    0  0.00000000000E+00  0.00000000000E+00 -0.18101038061E+04  0.18101038061E+04  0.50400001928E-02 0.  1.
    10030    2    1    2    0    0  0.00000000000E+00  0.00000000000E+00 -0.15576292358E+04  0.20625783765E+04  0.13520431660E+04 0.  0.
        2    1    3    3  502    0  0.24268226727E+03  0.46095130823E+03 -0.12153658190E+03  0.53492236086E+03  0.25500000920E-02 0. -1.
       -2    1    3    3    0  502 -0.24268226727E+03 -0.46095130823E+03 -0.14360926539E+04  0.15276560156E+04  0.25500000920E-02 0.  1.
</event>
<event>
 5   0  0.1098949E-03  0.1395465E+04  0.7818609E-02  0.8957108E-01
       -2   -1    0    0    0  501  0.00000000000E+00  0.00000000000E+00  0.30694930236E+03  0.30694930237E+03  0.25500000920E-02 0.  1.
        2   -1    0    0  501    0  0.00000000000E+00  0.00000000000E+00 -0.15860290379E+04  0.15860290379E+04  0.25500000920E-02 0. -1.
    10030    2    1    2    0    0  0.00000000000E+00  0.00000000000E+00 -0.12790797356E+04  0.18929783403E+04  0.13954648068E+04 0.  0.
        4    1    3    3  502    0 -0.49330894397E+02 -0.31084680033E+03  0.20518182855E+03  0.37571327643E+03  0.12699999809E+01 0.  1.
       -4    1    3    3    0  502  0.49330894397E+02  0.31084680033E+03 -0.14842615641E+04  0.15172650639E+04  0.12699999809E+01 0. -1.
</event>
<event>
 5   0  0.1095119E-03  0.1398095E+04  0.7818609E-02  0.8955199E-01
        2   -1    0    0  501    0  0.00000000000E+00  0.00000000000E+00  0.10030529212E+04  0.10030529212E+04  0.25500000920E-02 0.  1.
       -2   -1    0    0    0  501  0.00000000000E+00  0.00000000000E+00 -0.48718016269E+03  0.48718016270E+03  0.25500000920E-02 0. -1.
    10030    2    1    2    0    0  0.00000000000E+00  0.00000000000E+00  0.51587275848E+03  0.14902330839E+04  0.13980951117E+04 0.  0.
        5    1    3    3  502    0  0.43152880520E+02 -0.93623276523E+01  0.10015480214E+04  0.10025319713E+04  0.46999998093E+01 0.  1.
       -5    1    3    3    0  502 -0.43152880520E+02  0.93623276523E+01 -0.48567526289E+03  0.48770111262E+03  0.46999998093E+01 0. -1.
</event>
<event>
 5   0  0.5875298E-04  0.1402337E+04  0.7818609E-02  0.8952129E-01
       -1   -1    0    0    0  501  0.00000000000E+00  0.00000000000E+00  0.95128811766E+03  0.95128811767E+03  0.50400001928E-02 0.  1.
        1   -1    0    0  501    0  0.00000000000E+00  0.00000000000E+00 -0.51681218296E+03  0.51681218299E+03  0.50400001928E-02 0. -1.
    10030    2    1    2    0    0  0.00000000000E+00  0.00000000000E+00  0.43447593470E+03  0.14681003007E+04  0.14023370333E+04 0.  0.
        1    1    3    3  502    0  0.13209786916E+03  0.62702579678E+03  0.51523762863E+03  0.82224145532E+03  0.50400001928E-02 0.  1.
       -1    1    3    3    0  502 -0.13209786916E+03 -0.62702579678E+03 -0.80761693935E+02  0.64585884534E+03  0.50400001928E-02 0. -1.
</event>
<event>
 5   0  0.1120053E-03  0.1399771E+04  0.7818609E-02  0.8953985E-01
        2   -1    0    0  501    0  0.00000000000E+00  0.00000000000E+00  0.17897558050E+04  0.17897558050E+04  0.25500000920E-02 0. -1.
       -2   -1    0    0    0  501  0.00000000000E+00  0.00000000000E+00 -0.27369062641E+03  0.27369062642E+03  0.25500000920E-02 0.  1.
    10030    2    1    2    0    0  0.00000000000E+00  0.00000000000E+00  0.15160651786E+04  0.20634464314E+04  0.13997705346E+04 0.  0.
        2    1    3    3  502    0 -0.13492641781E+03  0.60949253387E+03  0.29151443329E+03  0.68896077674E+03  0.25500000920E-02 0.  1.
       -2    1    3    3    0  502  0.13492641781E+03 -0.60949253387E+03  0.12245507453E+04  0.13744856547E+04  0.25500000920E-02 0. -1.
</event>
<event>
 5   0  0.6097538E-04  0.1300035E+04  0.7818609E-02  0.9029538E-01
       -1   -1    0    0    0  501  0.00000000000E+00  0.00000000000E+00  0.62633753826E+03  0.62633753828E+03  0.50400001928E-02 0.  1.
        1   -1    0    0  501    0  0.00000000000E+00  0.00000000000E+00 -0.67459247994E+03  0.67459247996E+03  0.50400001928E-02 0. -1.
    10030    2    1    2    0    0  0.00000000000E+00  0.00000000000E+00 -0.48254941675E+02  0.13009300182E+04  0.13000347584E+04 0.  0.
        2    1    3    3  502    0 -0.57063967780E+03  0.23424314459E+02  0.28647998582E+03  0.63894375548E+03  0.25500000920E-02 0.  1.
       -2    1    3    3    0  502  0.57063967780E+03 -0.23424314459E+02 -0.33473492749E+03  0.66198626276E+03  0.25500000920E-02 0. -1.
</event>
<event>
 5   0  0.1175146E-03  0.1383483E+04  0.7818609E-02  0.8965862E-01
       -2   -1    0    0    0  501  0.00000000000E+00  0.00000000000E+00  0.72491932422E+03  0.72491932422E+03  0.25500000920E-02 0.  1.
        2   -1    0    0  501    0  0.00000000000E+00  0.00000000000E+00 -0.66008168904E+03  0.66008168904E+03  0.25500000920E-02 0. -1.
    10030    2    1    2    0    0  0.00000000000E+00  0.00000000000E+00  0.64837635179E+02  0.13850010133E+04  0.13834825217E+04 0.  0.
        1    1    3    3  502    0 -0.26789671529E+03  0.39464523437E+03  0.53396017684E+03  0.71597973543E+03  0.50400001928E-02 0.  1.
       -1    1    3    3    0  502  0.26789671529E+03 -0.39464523437E+03 -0.46912254166E+03  0.66902127783E+03  0.50400001928E-02 0. -1.
</event>
<event>
 5   0  0.6114266E-04  0.1409568E+04  0.7818609E-02  0.8946921E-01
        1   -1    0    0  501    0  0.00000000000E+00  0.00000000000E+00  0.61123493194E+03  0.61123493196E+03  0.50400001928E-02 0. -1.
       -1   -1    0    0    0  501  0.00000000000E+00  0.00000000000E+00 -0.81265106618E+03  0.81265106619E+03  0.50400001928E-02 0.  1.
    10030    2    1    2    0    0  0.00000000000E+00  0.00000000000E+00 -0.20141613424E+03  0.14238859982E+04  0.14095683299E+04 0.  0.
        3    1    3    3  502    0  0.21091312623E+03  0.59763403845E+03 -0.41217406756E+03  0.75600149662E+03  0.10100000352E+00 0.  1.
       -3    1    3    3    0  502 -0.21091312623E+03 -0.59763403845E+03  0.21075793332E+03  0.66788450153E+03  0.10100000352E+00 0. -1.
</event>
<event>
 5   0  0.6114266E-04  0.1423859E+04  0.7818609E-02  0.8936727E-01
        1   -1    0    0  501    0  0.00000000000E+00  0.00000000000E+00  0.75114873190E+03  0.75114873192E+03  0.50400001928E-02 0. -1.
       -1   -1    0    0    0  501  0.00000000000E+00  0.00000000000E+00 -0.67475827673E+03  0.67475827675E+03  0.50400001928E-02 0.  1.
    10030    2    1    2    0    0  0.00000000000E+00  0.00000000000E+00  0.76390455170E+02  0.14259070087E+04  0.14238592963E+04 0.  0.
        3    1    3    3  502    0 -0.88568332918E+02  0.64935655454E+03 -0.24029737224E+03  0.69803375408E+03  0.10100000352E+00 0.  1.
       -3    1    3    3    0  502  0.88568332918E+02 -0.64935655454E+03  0.31668782741E+03  0.72787325459E+03  0.10100000352E+00 0. -1.
</event>
<event>
 5   0  0.1098949E-03  0.1409996E+04  0.7818609E-02  0.8946615E-01
       -2   -1    0    0    0  501  0.00000000000E+00  0.00000000000E+00  0.13084645063E+04  0.13084645063E+04  0.25500000920E-02 0. -1.
        2   -1    0    0  501    0  0.00000000000E+00  0.00000000000E+00 -0.37985152380E+03  0.37985152381E+03  0.25500000920E-02 0.  1.
    10030    2    1    2    0    0  0.00000000000E+00  0.00000000000E+00  0.92861298251E+03  0.16883160301E+04  0.14099960802E+04 0.  0.
        4    1    3    3  502    0  0.50796682469E+03 -0.36527663196E+03  0.85334477446E+03  0.10581380958E+04  0.12699999809E+01 0. -1.
       -4    1    3    3    0  502 -0.50796682469E+03  0.36527663196E+03  0.75268208048E+02  0.63017793430E+03  0.12699999809E+01 0.  1.
</event>
<event>
 5   0  0.1175146E-03  0.1399859E+04  0.7818609E-02  0.8953920E-01
       -2   -1    0    0    0  501  0.00000000000E+00  0.00000000000E+00  0.58952951836E+03  0.58952951837E+03  0.25500000920E-02 0.  1.
        2   -1    0    0  501    0  0.00000000000E+00  0.00000000000E+00 -0.83100416387E+03  0.83100416387E+03  0.25500000920E-02 0. -1.
    10030    2    1    2    0    0  0.00000000000E+00  0.00000000000E+00 -0.24147464551E+03  0.14205336822E+04  0.13998592565E+04 0.  0.
        1    1    3    3  502    0  0.23712644517E+03  0.60759316886E+03  0.13698816516E+03  0.66645642563E+03  0.50400001928E-02 0.  1.
       -1    1    3    3    0  502 -0.23712644517E+03 -0.60759316886E+03 -0.37846281067E+03  0.75407725661E+03  0.50400001928E-02 0. -1.
</event>
<event>
 5   0  0.4176125E-04  0.1396852E+04  0.7818609E-02  0.8956100E-01
        4   -1    0    0  501    0  0.00000000000E+00  0.00000000000E+00  0.65384724987E+03  0.65384848326E+03  0.12699999809E+01 0.  1.
       -4   -1    0    0    0  501  0.00000000000E+00  0.00000000000E+00 -0.74604169507E+03  0.74604277604E+03  0.12699999809E+01 0. -1.
    10030    2    1    2    0    0  0.00000000000E+00  0.00000000000E+00 -0.92194445204E+02  0.13998912593E+04  0.13968520760E+04 0.  0.
        3    1    3    3  502    0 -0.52842058050E+03  0.33280247698E+02 -0.50256933328E+03  0.73000810251E+03  0.10100000352E+00 0. -1.
       -3    1    3    3    0  502  0.52842058050E+03 -0.33280247698E+02  0.41037488807E+03  0.66988315679E+03  0.10100000352E+00 0.  1.
</event>
<event>
 5   0  0.6194742E-04  0.1381709E+04  0.7818609E-02  0.8967166E-01
        1   -1    0    0  501    0  0.00000000000E+00  0.00000000000E+00  0.17128803233E+04  0.17128803233E+04  0.50400001928E-02 0.  1.
       -1   -1    0    0    0  501  0.00000000000E+00  0.00000000000E+00 -0.27864181279E+03  0.27864181284E+03  0.50400001928E-02 0. -1.
    10030    2    1    2    0    0  0.00000000000E+00  0.00000000000E+00  0.14342385105E+04  0.19915221361E+04  0.13817092001E+04 0.  0.
        4    1    3    3  502    0 -0.15292047315E+03 -0.45722400428E+03  0.39219756660E+01  0.48213634585E+03  0.12699999809E+01 0. -1.
       -4    1    3    3    0  502  0.15292047315E+03  0.45722400428E+03  0.14303165348E+04  0.15093857902E+04  0.12699999809E+01 0.  1.
</event>
<event>
 5   0  0.6153318E-04  0.1399714E+04  0.7818609E-02  0.8954026E-01
        1   -1    0    0  501    0  0.00000000000E+00  0.00000000000E+00  0.71898896534E+03  0.71898896536E+03  0.50400001928E-02 0.  1.
       -1   -1    0    0    0  501  0.00000000000E+00  0.00000000000E+00 -0.68123395914E+03  0.68123395915E+03  0.50400001928E-02 0. -1.
    10030    2    1    2    0    0  0.00000000000E+00  0.00000000000E+00  0.37755006205E+02  0.14002229245E+04  0.13997138271E+04 0.  0.
        5    1    3    3  502    0 -0.68188219202E+03  0.13696486303E+03 -0.58964113584E+02  0.69801257452E+03  0.46999998093E+01 0. -1.
       -5    1    3    3    0  502  0.68188219202E+03 -0.13696486303E+03  0.96719119789E+02  0.70221034999E+03  0.46999998093E+01 0.  1.
</event>
<event>
 5   0  0.1120053E-03  0.1382957E+04  0.7818609E-02  0.8966249E-01
       -2   -1    0    0    0  501  0.00000000000E+00  0.00000000000E+00  0.17567367116E+03  0.17567367118E+03  0.25500000920E-02 0. -1.
        2   -1    0    0  501    0  0.00000000000E+00  0.00000000000E+00 -0.27217644751E+04  0.27217644751E+04  0.25500000920E-02 0.  1.
    10030    2    1    2    0    0  0.00000000000E+00  0.00000000000E+00 -0.25460908040E+04  0.28974381463E+04  0.13829567707E+04 0.  0.
        2    1    3    3  502    0  0.68264078540E+03 -0.76201215073E+02 -0.14398305485E+04  0.15952796230E+04  0.25500000920E-02 0. -1.
       -2    1    3    3    0  502 -0.68264078540E+03  0.76201215073E+02 -0.11062602554E+04  0.13021585233E+04  0.25500000920E-02 0.  1.
</event>
<event>
 5   0  0.6194742E-04  0.1406871E+04  0.7818609E-02  0.8948860E-01
       -1   -1    0    0    0  501  0.00000000000E+00  0.00000000000E+00  0.22997441901E+03  0.22997441906E+03  0.50400001928E-02 0. -1.
        1   -1    0    0  501    0  0.00000000000E+00  0.00000000000E+00 -0.21516356754E+04  0.21516356754E+04  0.50400001928E-02 0.  1.
    10030    2    1    2    0    0  0.00000000000E+00  0.00000000000E+00 -0.19216612563E+04  0.23816100944E+04  0.14068705192E+04 0.  0.
        4    1    3    3  502    0  0.83784895235E+01 -0.38477379961E+03 -0.19575949840E+04  0.19950691242E+04  0.12699999809E+01 0.  1.
       -4    1    3    3    0  502 -0.83784895235E+01  0.38477379961E+03  0.35933727703E+02  0.38654097020E+03  0.12699999809E+01 0. -1.
</event>
<event>
 5   0  0.1095119E-03  0.1369527E+04  0.7818609E-02  0.8976176E-01
        2   -1    0    0  501    0  0.00000000000E+00  0.00000000000E+00  0.14285738536E+04  0.14285738536E+04  0.25500000920E-02 0. -1.
       -2   -1    0    0    0  501  0.00000000000E+00  0.00000000000E+00 -0.32823038132E+03  0.32823038133E+03  0.25500000920E-02 0.  1.
    10030    2    1    2    0    0  0.00000000000E+00  0.00000000000E+00  0.11003434723E+04  0.17568042350E+04  0.13695274232E+04 0.  0.
        5    1    3    3  502    0 -0.40780517019E+03 -0.16718996666E+03  0.12224051096E+04  0.12994436824E+04  0.46999998093E+01 0. -1.
       -5    1    3    3    0  502  0.40780517019E+03  0.16718996666E+03 -0.12206163725E+03  0.45736055260E+03  0.46999998093E+01 0.  1.
</event>
<event>
 5   0  0.6153318E-04  0.1467959E+04  0.7818609E-02  0.8906044E-01
        1   -1    0    0  501    0  0.00000000000E+00  0.00000000000E+00  0.16107899635E+04  0.16107899635E+04  0.50400001928E-02 0. -1.
       -1   -1    0    0    0  501  0.00000000000E+00  0.00000000000E+00 -0.33444819849E+03  0.33444819853E+03  0.50400001928E-02 0.  1.
    10030    2    1    2    0    0  0.00000000000E+00  0.00000000000E+00  0.12763417650E+04  0.19452381621E+04  0.14679588570E+04 0.  0.
        5    1    3    3  502    0  0.40040296471E+03 -0.54721583308E+03  0.26586792963E+03  0.72833752349E+03  0.46999998093E+01 0. -1.
       -5    1    3    3    0  502 -0.40040296471E+03  0.54721583308E+03  0.10104738354E+04  0.12169006386E+04  0.46999998093E+01 0.  1.
</event>
<event>
 5   0  0.5875298E-04  0.1409816E+04  0.7818609E-02  0.8946744E-01
       -1   -1    0    0    0  501  0.00000000000E+00  0.00000000000E+00  0.61186282236E+03  0.61186282238E+03  0.50400001928E-02 0. -1.
        1   -1    0    0  501    0  0.00000000000E+00  0.00000000000E+00 -0.81210257037E+03  0.81210257039E+03  0.50400001928E-02 0.  1.
    10030    2    1    2    0    0  0.00000000000E+00  0.00000000000E+00 -0.20023974801E+03  0.14239653928E+04  0.14098161168E+04 0.  0.
        1    1    3    3  502    0 -0.38119718606E+03 -0.72922295494E+02  0.49422996416E+03  0.62840449818E+03  0.50400001928E-02 0. -1.
       -1    1    3    3    0  502  0.38119718606E+03  0.72922295494E+02 -0.69446971217E+03  0.79556089458E+03  0.50400001928E-02 0.  1.
</event>
<event>
 5   0  0.1120053E-03  0.1409356E+04  0.7818609E-02  0.8947074E-01
       -2   -1    0    0    0  501  0.00000000000E+00  0.00000000000E+00  0.38736818601E+03  0.38736818602E+03  0.25500000920E-02 0.  1.
        2   -1    0    0  501    0  0.00000000000E+00  0.00000000000E+00 -0.12819095154E+04  0.12819095154E+04  0.25500000920E-02 0. -1.
    10030    2    1    2    0    0  0.00000000000E+00  0.00000000000E+00 -0.89454132938E+03  0.16692777014E+04  0.14093558296E+04 0.  0.
        2    1    3    3  502    0  0.59510329003E+03 -0.15195931412E+02 -0.89389841411E+03  0.10739800822E+04  0.25500000920E-02 0. -1.
       -2    1    3    3    0  502 -0.59510329003E+03  0.15195931412E+02 -0.64291527547E+00  0.59529761925E+03  0.25500000920E-02 0.  1.
</event>
<event>
 5   0  0.6153318E-04  0.1405042E+04  0.7818609E-02  0.8950177E-01
       -1   -1    0    0    0  501  0.00000000000E+00  0.00000000000E+00  0.75381948914E+03  0.75381948915E+03  0.50400001928E-02 0.  1.
        1   -1    0    0  501    0  0.00000000000E+00  0.00000000000E+00 -0.65471346988E+03  0.65471346990E+03  0.50400001928E-02 0. -1.
    10030    2    1    2    0    0  0.00000000000E+00  0.00000000000E+00  0.99106019253E+02  0.14085329591E+04  0.14050420256E+04 0.  0.
        5    1    3    3  502    0 -0.26069595721E+02  0.42949166627E+03  0.60624431899E+03  0.74343592833E+03  0.46999998093E+01 0.  1.
       -5    1    3    3    0  502  0.26069595721E+02 -0.42949166627E+03 -0.50713829974E+03  0.66509703073E+03  0.46999998093E+01 0. -1.
</event>
<event>
 5   0  0.1175146E-03  0.1408763E+04  0.7818609E-02  0.8947500E-01
       -2   -1    0    0    0  501  0.00000000000E+00  0.00000000000E+00  0.94684528397E+03  0.94684528397E+03  0.25500000920E-02 0. -1.
        2   -1    0    0  501    0  0.00000000000E+00  0.00000000000E+00 -0.52400667991E+03  0.52400667991E+03  0.25500000920E-02 0.  1.
    10030    2    1    2    0    0  0.00000000000E+00  0.00000000000E+00  0.42283860406E+03  0.14708519639E+04  0.14087629377E+04 0.  0.
        1    1    3    3  502    0 -0.68536943849E+03  0.92688262575E+02  0.72001785218E+02  0.69534641606E+03  0.50400001928E-02 0.  1.
       -1    1    3    3    0  502  0.68536943849E+03 -0.92688262575E+02  0.35083681884E+03  0.77550554783E+03  0.50400001928E-02 0. -1.
</event>
<event>
 5   0  0.5875298E-04  0.1375980E+04  0.7818609E-02  0.8971391E-01
        1   -1    0    0  501    0  0.00000000000E+00  0.00000000000E+00  0.76461877028E+03  0.76461877030E+03  0.50400001928E-02 0. -1.
       -1   -1    0    0    0  501  0.00000000000E+00  0.00000000000E+00 -0.61904081079E+03  0.61904081081E+03  0.50400001928E-02 0.  1.
    10030    2    1    2    0    0  0.00000000000E+00  0.00000000000E+00  0.14557795950E+03  0.13836595811E+04  0.13759799759E+04 0.  0.
        1    1    3    3  502    0  0.66438420874E+03  0.10195325108E+02 -0.10658793911E+03  0.67295713850E+03  0.50400001928E-02 0.  1.
       -1    1    3    3    0  502 -0.66438420874E+03 -0.10195325108E+02  0.25216589861E+03  0.71070244260E+03  0.50400001928E-02 0. -1.
</event>
<event>
 5   0  0.6097538E-04  0.1414513E+04  0.7818609E-02  0.8943380E-01
       -1   -1    0    0    0  501  0.00000000000E+00  0.00000000000E+00  0.30825957689E+03  0.30825957693E+03  0.50400001928E-02 0. -1.
        1   -1    0    0  501    0  0.00000000000E+00  0.00000000000E+00 -0.16226957005E+04  0.16226957005E+04  0.50400001928E-02 0.  1.
    10030    2    1    2    0    0  0.00000000000E+00  0.00000000000E+00 -0.13144361236E+04  0.19309552775E+04  0.14145126229E+04 0.  0.
        2    1    3    3  502    0 -0.63493041058E+03  0.18098613830E+03 -0.31101203028E+03  0.72980894180E+03  0.25500000920E-02 0. -1.
       -2    1    3    3    0  502  0.63493041058E+03 -0.18098613830E+03 -0.10034240934E+04  0.12011463357E+04  0.25500000920E-02 0.  1.
</event>
<event>
 5   0  0.1098949E-03  0.1366828E+04  0.7818609E-02  0.8978187E-01
       -2   -1    0    0    0  501  0.00000000000E+00  0.00000000000E+00  0.40437268752E+03  0.40437268753E+03  0.25500000920E-02 0.  1.
        2   -1    0    0  501    0  0.00000000000E+00  0.00000000000E+00 -0.11550099998E+04  0.11550099998E+04  0.25500000920E-02 0. -1.
    10030    2    1    2    0    0  0.00000000000E+00  0.00000000000E+00 -0.75063731226E+03  0.15593826873E+04  0.13668277108E+04 0.  0.
        4    1    3    3  502    0 -0.54513426622E+03 -0.40995135664E+03 -0.32662842731E+03  0.75625341351E+03  0.12699999809E+01 0. -1.
       -4    1    3    3    0  502  0.54513426622E+03  0.40995135664E+03 -0.42400888495E+03  0.80312927380E+03  0.12699999809E+01 0.  1.
</event>
<event>
 5   0  0.1120053E-03  0.1392352E+04  0.7818609E-02  0.8959373E-01
       -2   -1    0    0    0  501  0.00000000000E+00  0.00000000000E+00  0.59478196244E+03  0.59478196244E+03  0.25500000920E-02 0. -1.
        2   -1    0    0  501    0  0.00000000000E+00  0.00000000000E+00 -0.81485469768E+03  0.81485469768E+03  0.25500000920E-02 0.  1.
    10030    2    1    2    0    0  0.00000000000E+00  0.00000000000E+00 -0.22007273524E+03  0.14096366601E+04  0.13923517892E+04 0.  0.
        2    1    3    3  502    0  0.30258029138E+03 -0.35900466710E+03 -0.63044254561E+03  0.78606423850E+03  0.25500000920E-02 0.  1.
       -2    1    3    3    0  502 -0.30258029138E+03  0.35900466710E+03  0.41036981037E+03  0.62357242162E+03  0.25500000920E-02 0. -1.
</event>
<event>
 5   0  0.1098949E-03  0.1384075E+04  0.7818609E-02  0.8965427E-01
        2   -1    0    0  501    0  0.00000000000E+00  0.00000000000E+00  0.23166626404E+04  0.23166626404E+04  0.25500000920E-02 0. -1.
       -2   -1    0    0    0  501  0.00000000000E+00  0.00000000000E+00 -0.20672666006E+03  0.20672666008E+03  0.25500000920E-02 0.  1.
    10030    2    1    2    0    0  0.00000000000E+00  0.00000000000E+00  0.21099359803E+04  0.25233893005E+04  0.13840750416E+04 0.  0.
        4    1    3    3  502    0  0.20485039060E+03  0.14456028950E+03  0.22309452580E+04  0.22449899147E+04  0.12699999809E+01 0. -1.
       -4    1    3    3    0  502 -0.20485039060E+03 -0.14456028950E+03 -0.12100927768E+03  0.27839938580E+03  0.12699999809E+01 0.  1.
</event>
<event>
 5   0  0.6097538E-04  0.1408479E+04  0.7818609E-02  0.8947704E-01
       -1   -1    0    0    0  501  0.00000000000E+00  0.00000000000E+00  0.56418909669E+03  0.56418909671E+03  0.50400001928E-02 0.  1.
        1   -1    0    0  501    0  0.00000000000E+00  0.00000000000E+00 -0.87905460464E+03  0.87905460466E+03  0.50400001928E-02 0. -1.
    10030    2    1    2    0    0  0.00000000000E+00  0.00000000000E+00 -0.31486550795E+03  0.14432437014E+04  0.14084786450E+04 0.  0.
        2    1    3    3  502    0  0.99545885484E+02  0.35552458671E+03 -0.77193994010E+03  0.85568591562E+03  0.25500000920E-02 0. -1.
       -2    1    3    3    0  502 -0.99545885484E+02 -0.35552458671E+03  0.45707443214E+03  0.58755778575E+03  0.25500000920E-02 0.  1.
</event>
<event>
 5   0  0.1175146E-03  0.1402603E+04  0.7818609E-02  0.8951936E-01
        2   -1    0    0  501    0  0.00000000000E+00  0.00000000000E+00  0.77003797131E+03  0.77003797131E+03  0.25500000920E-02 0.  1.
       -2   -1    0    0    0  501  0.00000000000E+00  0.00000000000E+00 -0.63870082830E+03  0.63870082831E+03  0.25500000920E-02 0. -1.
    10030    2    1    2    0    0  0.00000000000E+00  0.00000000000E+00  0.13133714300E+03  0.14087387996E+04  0.14026031372E+04 0.  0.
        1    1    3    3  502    0  0.41922686323E+03 -0.34293468968E+03  0.51311545976E+03  0.74608500810E+03  0.50400001928E-02 0.  1.
       -1    1    3    3    0  502 -0.41922686323E+03  0.34293468968E+03 -0.38177831676E+03  0.66265379152E+03  0.50400001928E-02 0. -1.
</event>
<event>
 5   0  0.6194742E-04  0.1398390E+04  0.7818609E-02  0.8954985E-01
       -1   -1    0    0    0  501  0.00000000000E+00  0.00000000000E+00  0.34698764713E+03  0.34698764716E+03  0.50400001928E-02 0. -1.
        1   -1    0    0  501    0  0.00000000000E+00  0.00000000000E+00 -0.14089080633E+04  0.14089080634E+04  0.50400001928E-02 0.  1.
    10030    2    1    2    0    0  0.00000000000E+00  0.00000000000E+00 -0.10619204162E+04  0.17558957105E+04  0.13983900657E+04 0.  0.
        4    1    3    3  502    0  0.19479600752E+02  0.13355618474E+03  0.33047357131E+03  0.35697493408E+03  0.12699999809E+01 0. -1.
       -4    1    3    3    0  502 -0.19479600752E+02 -0.13355618474E+03 -0.13923939875E+04  0.13989207764E+04  0.12699999809E+01 0.  1.
</event>
<event>
 5   0  0.6097538E-04  0.1412809E+04  0.7818609E-02  0.8944598E-01
        1   -1    0    0  501    0  0.00000000000E+00  0.00000000000E+00  0.45598114560E+03  0.45598114562E+03  0.50400001928E-02 0.  1.
       -1   -1    0    0    0  501  0.00000000000E+00  0.00000000000E+00 -0.10943600220E+04  0.10943600220E+04  0.50400001928E-02 0. -1.
    10030    2    1    2    0    0  0.00000000000E+00  0.00000000000E+00 -0.63837887639E+03  0.15503411676E+04  0.14128093099E+04 0.  0.
        2    1    3    3  502    0  0.11009767115E+01  0.92132607710E+02  0.44935885879E+03  0.45870798285E+03  0.25500000920E-02 0.  1.
       -2    1    3    3    0  502 -0.11009767115E+01 -0.92132607710E+02 -0.10877377352E+04  0.10916331848E+04  0.25500000920E-02 0. -1.
</event>
<event>
 5   0  0.5875298E-04  0.1404915E+04  0.7818609E-02  0.8950269E-01
        1   -1    0    0  501    0  0.00000000000E+00  0.00000000000E+00  0.73694916468E+03  0.73694916470E+03  0.50400001928E-02 0.  1.
       -1   -1    0    0    0  501  0.00000000000E+00  0.00000000000E+00 -0.66957992820E+03  0.66957992822E+03  0.50400001928E-02 0. -1.
    10030    2    1    2    0    0  0.00000000000E+00  0.00000000000E+00  0.67369236486E+02  0.14065290929E+04  0.14049147573E+04 0.  0.
        1    1    3    3  502    0 -0.10142569734E+03  0.72054566769E+02 -0.65846160648E+03  0.67011246811E+03  0.50400001928E-02 0. -1.
       -1    1    3    3    0  502  0.10142569734E+03 -0.72054566769E+02  0.72583084297E+03  0.73641662481E+03  0.50400001928E-02 0.  1.
</event>
<event>
 5   0  0.1175146E-03  0.1363783E+04  0.7818609E-02  0.8980460E-01
        2   -1    0    0  501    0  0.00000000000E+00  0.00000000000E+00  0.70972707404E+03  0.70972707404E+03  0.25500000920E-02 0. -1.
       -2   -1    0    0    0  501  0.00000000000E+00  0.00000000000E+00 -0.65514724156E+03  0.65514724157E+03  0.25500000920E-02 0.  1.
    10030    2    1    2    0    0  0.00000000000E+00  0.00000000000E+00  0.54579832478E+02  0.13648743156E+04  0.13637825851E+04 0.  0.
        1    1    3    3  502    0 -0.20367048620E+03 -0.50538365978E+02  0.67660813557E+03  0.70840268388E+03  0.50400001928E-02 0. -1.
       -1    1    3    3    0  502  0.20367048620E+03  0.50538365978E+02 -0.62202830309E+03  0.65647163173E+03  0.50400001928E-02 0.  1.
</event>
<event>
 5   0  0.6114266E-04  0.1388839E+04  0.7818609E-02  0.8961937E-01
        1   -1    0    0  501    0  0.00000000000E+00  0.00000000000E+00  0.18953182586E+04  0.18953182586E+04  0.50400001928E-02 0.  1.
       -1   -1    0    0    0  501  0.00000000000E+00  0.00000000000E+00 -0.25442627058E+03  0.25442627063E+03  0.50400001928E-02 0. -1.
    10030    2    1    2    0    0  0.00000000000E+00  0.00000000000E+00  0.16408919880E+04  0.21497445293E+04  0.13888394524E+04 0.  0.
        3    1    3    3  502    0 -0.29323576148E+03 -0.51327802017E+03  0.25642330617E+03  0.64435584885E+03  0.10100000352E+00 0. -1.
       -3    1    3    3    0  502  0.29323576148E+03  0.51327802017E+03  0.13844686819E+04  0.15053886804E+04  0.10100000352E+00 0.  1.
</event>
<event>
 5   0  0.6153318E-04  0.1405336E+04  0.7818609E-02  0.8949965E-01
       -1   -1    0    0    0  501  0.00000000000E+00  0.00000000000E+00  0.14998372555E+04  0.14998372555E+04  0.50400001928E-02 0.  1.
        1   -1    0    0  501    0  0.00000000000E+00  0.00000000000E+00 -0.32919748634E+03  0.32919748638E+03  0.50400001928E-02 0. -1.
    10030    2    1    2    0    0  0.00000000000E+00  0.00000000000E+00  0.11706397692E+04  0.18290347419E+04  0.14053364785E+04 0.  0.
        5    1    3    3  502    0  0.64837908264E+02  0.15695510233E+03  0.14727064787E+04  0.14824727049E+04  0.46999998093E+01 0.  1.
       -5    1    3    3    0  502 -0.64837908264E+02 -0.15695510233E+03 -0.30206670950E+03  0.34656203699E+03  0.46999998093E+01 0. -1.
</event>
<event>
 5   0  0.6114266E-04  0.1403832E+04  0.7818609E-02  0.8951049E-01
       -1   -1    0    0    0  501  0.00000000000E+00  0.00000000000E+00  0.87192974286E+03  0.87192974288E+03  0.50400001928E-02 0. -1.
        1   -1    0    0  501    0  0.00000000000E+00  0.00000000000E+00 -0.56505260057E+03  0.56505260059E+03  0.50400001928E-02 0.  1.
    10030    2    1    2    0    0  0.00000000000E+00  0.00000000000E+00  0.30687714229E+03  0.14369823435E+04  0.14038321392E+04 0.  0.
        3    1    3    3  502    0  0.64316771691E+03  0.17470926103E+03 -0.71984678163E+02  0.67035053670E+03  0.10100000352E+00 0. -1.
       -3    1    3    3    0  502 -0.64316771691E+03 -0.17470926103E+03  0.37886182046E+03  0.76663180678E+03  0.10100000352E+00 0.  1.
</event>
<event>
 5   0  0.1120053E-03  0.1404286E+04  0.7818609E-02  0.8950722E-01
       -2   -1    0    0    0  501  0.00000000000E+00  0.00000000000E+00  0.35250603376E+03  0.35250603377E+03  0.25500000920E-02 0.  1.
        2   -1    0    0  501    0  0.00000000000E+00  0.00000000000E+00 -0.13985716324E+04  0.13985716324E+04  0.25500000920E-02 0. -1.
    10030    2    1    2    0    0  0.00000000000E+00  0.00000000000E+00 -0.10460655987E+04  0.17510776662E+04  0.14042862088E+04 0.  0.
        2    1    3    3  502    0 -0.40902159051E+03 -0.50949470285E+03 -0.20239045024E+03  0.68399225733E+03  0.25500000920E-02 0. -1.
       -2    1    3    3    0  502  0.40902159051E+03  0.50949470285E+03 -0.84367514844E+03  0.10670854089E+04  0.25500000920E-02 0.  1.
</event>
<event>
 5   0  0.1120053E-03  0.1393856E+04  0.7818609E-02  0.8958278E-01
       -2   -1    0    0    0  501  0.00000000000E+00  0.00000000000E+00  0.19318513255E+03  0.19318513256E+03  0.25500000920E-02 0. -1.
        2   -1    0    0  501    0  0.00000000000E+00  0.00000000000E+00 -0.25142124609E+04  0.25142124609E+04  0.25500000920E-02 0.  1.
    10030    2    1    2    0    0  0.00000000000E+00  0.00000000000E+00 -0.23210273283E+04  0.27073975935E+04  0.13938557566E+04 0.  0.
        2    1    3    3  502    0  0.27122023482E+03 -0.53095113983E+03 -0.18614920549E+04  0.19546411945E+04  0.25500000920E-02 0.  1.
       -2    1    3    3    0  502 -0.27122023482E+03  0.53095113983E+03 -0.45953527343E+03  0.75275639898E+03  0.25500000920E-02 0. -1.
</event>
<event>
 5   0  0.1098949E-03  0.1427518E+04  0.7818609E-02  0.8934137E-01
       -2   -1    0    0    0  501  0.00000000000E+00  0.00000000000E+00  0.52730682045E+03  0.52730682045E+03  0.25500000920E-02 0.  1.
        2   -1    0    0  501    0  0.00000000000E+00  0.00000000000E+00 -0.96613915204E+03  0.96613915205E+03  0.25500000920E-02 0. -1.
    10030    2    1    2    0    0  0.00000000000E+00  0.00000000000E+00 -0.43883233160E+03  0.14934459725E+04  0.14275177959E+04 0.  0.
        4    1    3    3  502    0 -0.36100366700E+02 -0.28487544499E+02  0.52575416958E+03  0.52776304948E+03  0.12699999809E+01 0.  1.
       -4    1    3    3    0  502  0.36100366700E+02  0.28487544499E+02 -0.96458650117E+03  0.96568292302E+03  0.12699999809E+01 0. -1.
</event>
<event>
 5   0  0.4176125E-04  0.1407416E+04  0.7818609E-02  0.8948468E-01
        3   -1    0    0  501    0  0.00000000000E+00  0.00000000000E+00  0.18633785044E+04  0.18633785071E+04  0.10100000352E+00 0. -1.
       -3   -1    0    0    0  501  0.00000000000E+00  0.00000000000E+00 -0.26575636251E+03  0.26575638171E+03  0.10100000352E+00 0.  1.
    10030    2    1    2    0    0  0.00000000000E+00  0.00000000000E+00  0.15976221418E+04  0.21291348888E+04  0.14074156694E+04 0.  0.
        4    1    3    3  502    0  0.15939826677E+03 -0.18453676769E+03  0.17974195413E+04  0.18138854006E+04  0.12699999809E+01 0. -1.
       -4    1    3    3    0  502 -0.15939826677E+03  0.18453676769E+03 -0.19979739947E+03  0.31524948821E+03  0.12699999809E+01 0.  1.
</event>
<event>
 5   0  0.6114266E-04  0.1381955E+04  0.7818609E-02  0.8966985E-01
       -1   -1    0    0    0  501  0.00000000000E+00  0.00000000000E+00  0.27835225596E+03  0.27835225601E+03  0.50400001928E-02 0. -1.
        1   -1    0    0  501    0  0.00000000000E+00  0.00000000000E+00 -0.17152732933E+04  0.17152732933E+04  0.50400001928E-02 0.  1.
    10030    2    1    2    0    0  0.00000000000E+00  0.00000000000E+00 -0.14369210373E+04  0.19936255493E+04  0.13819554129E+04 0.  0.
        3    1    3    3  502    0  0.31050923139E+03  0.37671178442E+03 -0.13021111472E+02  0.48836186465E+03  0.10100000352E+00 0. -1.
       -3    1    3    3    0  502 -0.31050923139E+03 -0.37671178442E+03 -0.14238999258E+04  0.15052636846E+04  0.10100000352E+00 0.  1.
</event>
<event>
 5   0  0.6194742E-04  0.1404382E+04  0.7818609E-02  0.8950653E-01
       -1   -1    0    0    0  501  0.00000000000E+00  0.00000000000E+00  0.35962544165E+03  0.35962544168E+03  0.50400001928E-02 0. -1.
        1   -1    0    0  501    0  0.00000000000E+00  0.00000000000E+00 -0.13710713463E+04  0.13710713463E+04  0.50400001928E-02 0.  1.
    10030    2    1    2    0    0  0.00000000000E+00  0.00000000000E+00 -0.10114459046E+04  0.17306967880E+04  0.14043819117E+04 0.  0.
        4    1    3    3  502    0 -0.41265704342E+03  0.47953781077E+03 -0.88119332523E+03  0.10847790728E+04  0.12699999809E+01 0.  1.
       -4    1    3    3    0  502  0.41265704342E+03 -0.47953781077E+03 -0.13025257941E+03  0.64591771518E+03  0.12699999809E+01 0. -1.
</event>
<event>
 5   0  0.1095119E-03  0.1297843E+04  0.7818609E-02  0.9031277E-01
       -2   -1    0    0    0  501  0.00000000000E+00  0.00000000000E+00  0.64193956961E+03  0.64193956961E+03  0.25500000920E-02 0.  1.
        2   -1    0    0  501    0  0.00000000000E+00  0.00000000000E+00 -0.65597948025E+03  0.65597948026E+03  0.25500000920E-02 0. -1.
    10030    2    1    2    0    0  0.00000000000E+00  0.00000000000E+00 -0.14039910643E+02  0.12979190499E+04  0.12978431111E+04 0.  0.
        5    1    3    3  502    0 -0.26082953242E+03  0.25210935769E+03  0.53105048574E+03  0.64313908420E+03  0.46999998093E+01 0.  1.
       -5    1    3    3    0  502  0.26082953242E+03 -0.25210935769E+03 -0.54509039639E+03  0.65477996567E+03  0.46999998093E+01 0. -1.
</event>
<event>
 5   0  0.6114266E-04  0.1397733E+04  0.7818609E-02  0.8955461E-01
        1   -1    0    0  501    0  0.00000000000E+00  0.00000000000E+00  0.16192353479E+04  0.16192353479E+04  0.50400001928E-02 0.  1.
       -1   -1    0    0    0  501  0.00000000000E+00  0.00000000000E+00 -0.30163256172E+03  0.30163256176E+03  0.50400001928E-02 0. -1.
    10030    2    1    2    0    0  0.00000000000E+00  0.00000000000E+00  0.13176027862E+04  0.19208679097E+04  0.13977326011E+04 0.  0.
        3    1    3    3  502    0 -0.18461848315E+03  0.57705813884E+03  0.11375027873E+04  0.12887950502E+04  0.10100000352E+00 0.  1.
       -3    1    3    3    0  502  0.18461848315E+03 -0.57705813884E+03  0.18009999882E+03  0.63207285949E+03  0.10100000352E+00 0. -1.
</event>
<event>
 5   0  0.6097538E-04  0.1406101E+04  0.7818609E-02  0.8949414E-01
       -1   -1    0    0    0  501  0.00000000000E+00  0.00000000000E+00  0.57346128906E+03  0.57346128909E+03  0.50400001928E-02 0. -1.
        1   -1    0    0  501    0  0.00000000000E+00  0.00000000000E+00 -0.86192388477E+03  0.86192388478E+03  0.50400001928E-02 0.  1.
    10030    2    1    2    0    0  0.00000000000E+00  0.00000000000E+00 -0.28846259571E+03  0.14353851739E+04  0.14061009666E+04 0.  0.
        2    1    3    3  502    0 -0.49376364706E+03 -0.16875874789E+03  0.33674802845E+03  0.62103243782E+03  0.25500000920E-02 0. -1.
       -2    1    3    3    0  502  0.49376364706E+03  0.16875874789E+03 -0.62521062416E+03  0.81435273605E+03  0.25500000920E-02 0.  1.
</event>
<event>
 5   0  0.1095119E-03  0.1185232E+04  0.7818609E-02  0.9125882E-01
       -2   -1    0    0    0  501  0.00000000000E+00  0.00000000000E+00  0.10221323314E+04  0.10221323314E+04  0.25500000920E-02 0. -1.
        2   -1    0    0  501    0  0.00000000000E+00  0.00000000000E+00 -0.34358945799E+03  0.34358945800E+03  0.25500000920E-02 0.  1.
    10030    2    1    2    0    0  0.00000000000E+00  0.00000000000E+00  0.67854287340E+03  0.13657217894E+04  0.11852322873E+04 0.  0.
        5    1    3    3  502    0 -0.28759187654E+03  0.51420235287E+03  0.41268053984E+03  0.71933334770E+03  0.46999998093E+01 0.  1.
       -5    1    3    3    0  502  0.28759187654E+03 -0.51420235287E+03  0.26586233356E+03  0.64638844169E+03  0.46999998093E+01 0. -1.
</event>
<event>
 5   0  0.6114266E-04  0.1403023E+04  0.7818609E-02  0.8951633E-01
        1   -1    0    0  501    0  0.00000000000E+00  0.00000000000E+00  0.83983145362E+03  0.83983145363E+03  0.50400001928E-02 0.  1.
       -1   -1    0    0    0  501  0.00000000000E+00  0.00000000000E+00 -0.58597286077E+03  0.58597286080E+03  0.50400001928E-02 0. -1.
    10030    2    1    2    0    0  0.00000000000E+00  0.00000000000E+00  0.25385859284E+03  0.14258043144E+04  0.14030230782E+04 0.  0.
        3    1    3    3  502    0 -0.22340508278E+03 -0.45431270766E+03  0.62041536260E+03  0.80076532124E+03  0.10100000352E+00 0.  1.
       -3    1    3    3    0  502  0.22340508278E+03  0.45431270766E+03 -0.36655676975E+03  0.62503899319E+03  0.10100000352E+00 0. -1.
</event>
<event>
 5   0  0.6114266E-04  0.1372709E+04  0.7818609E-02  0.8973814E-01
        1   -1    0    0  501    0  0.00000000000E+00  0.00000000000E+00  0.96410689100E+03  0.96410689102E+03  0.50400001928E-02 0.  1.
       -1   -1    0    0    0  501  0.00000000000E+00  0.00000000000E+00 -0.48862039063E+03  0.48862039065E+03  0.50400001928E-02 0. -1.
    10030    2    1    2    0    0  0.00000000000E+00  0.00000000000E+00  0.47548650038E+03  0.14527272817E+04  0.13727086883E+04 0.  0.
        3    1    3    3  502    0  0.49428999164E+03 -0.10127136055E+03 -0.25467990085E+03  0.56519053990E+03  0.10100000352E+00 0. -1.
       -3    1    3    3    0  502 -0.49428999164E+03  0.10127136055E+03  0.73016640123E+03  0.88753674176E+03  0.10100000352E+00 0.  1.
</event>
<event>
 5   0  0.6114266E-04  0.1402602E+04  0.7818609E-02  0.8951937E-01
       -1   -1    0    0    0  501  0.00000000000E+00  0.00000000000E+00  0.50717803726E+03  0.50717803728E+03  0.50400001928E-02 0. -1.
        1   -1    0    0  501    0  0.00000000000E+00  0.00000000000E+00 -0.96972476718E+03  0.96972476720E+03  0.50400001928E-02 0.  1.
    10030    2    1    2    0    0  0.00000000000E+00  0.00000000000E+00 -0.46254672993E+03  0.14769028045E+04  0.14026020164E+04 0.  0.
        3    1    3    3  502    0  0.19013807918E+03 -0.31892490864E+03 -0.85773289496E+03  0.93465037089E+03  0.10100000352E+00 0.  1.
       -3    1    3    3    0  502 -0.19013807918E+03  0.31892490864E+03  0.39518616503E+03  0.54225243359E+03  0.10100000352E+00 0. -1.
</event>
<event>
 5   0  0.4176125E-04  0.1400540E+04  0.7818609E-02  0.8953427E-01
       -4   -1    0    0    0  501  0.00000000000E+00  0.00000000000E+00  0.71963644092E+03  0.71963756155E+03  0.12699999809E+01 0.  1.
        4   -1    0    0  501    0  0.00000000000E+00  0.00000000000E+00 -0.68142291094E+03  0.68142409442E+03  0.12699999809E+01 0. -1.
    10030    2    1    2    0    0  0.00000000000E+00  0.00000000000E+00  0.38213529976E+02  0.14010616560E+04  0.14005404278E+04 0.  0.
        5    1    3    3  502    0  0.67165624045E+03 -0.11812317169E+03  0.17816623282E+03  0.70486912653E+03  0.46999998093E+01 0. -1.
       -5    1    3    3    0  502 -0.67165624045E+03  0.11812317169E+03 -0.13995270284E+03  0.69619252944E+03  0.46999998093E+01 0.  1.
</event>
<event>
 5   0  0.6194742E-04  0.1387793E+04  0.7818609E-02  0.8962702E-01
        1   -1    0    0  501    0  0.00000000000E+00  0.00000000000E+00  0.10652308767E+04  0.10652308767E+04  0.50400001928E-02 0. -1.
       -1   -1    0    0    0  501  0.00000000000E+00  0.00000000000E+00 -0.45200735383E+03  0.45200735386E+03  0.50400001928E-02 0.  1.
    10030    2    1    2    0    0  0.00000000000E+00  0.00000000000E+00  0.61322352288E+03  0.15172382306E+04  0.13877927653E+04 0.  0.
        4    1    3    3  502    0  0.80866014937E+02 -0.24366656895E+03 -0.39817114676E+03  0.47376638147E+03  0.12699999809E+01 0.  1.
       -4    1    3    3    0  502 -0.80866014937E+02  0.24366656895E+03  0.10113946696E+04  0.10434718491E+04  0.12699999809E+01 0. -1.
</event>
<event>
 5   0  0.6194742E-04  0.1421057E+04  0.7818609E-02  0.8938716E-01
        1   -1    0    0  501    0  0.00000000000E+00  0.00000000000E+00  0.79769187952E+03  0.79769187953E+03  0.50400001928E-02 0.  1.
       -1   -1    0    0    0  501  0.00000000000E+00  0.00000000000E+00 -0.63288969730E+03  0.63288969732E+03  0.50400001928E-02 0. -1.
    10030    2    1    2    0    0  0.00000000000E+00  0.00000000000E+00  0.16480218222E+03  0.14305815769E+04  0.14210573137E+04 0.  0.
        4    1    3    3  502    0  0.56124835003E+03  0.41996761280E+03  0.19926900199E+03  0.72875390514E+03  0.12699999809E+01 0.  1.
       -4    1    3    3    0  502 -0.56124835003E+03 -0.41996761280E+03 -0.34466819766E+02  0.70182767171E+03  0.12699999809E+01 0. -1.
</event>
<event>
 5   0  0.1108819E-03  0.1418558E+04  0.7818609E-02  0.8940494E-01
       -2   -1    0    0    0  501  0.00000000000E+00  0.00000000000E+00  0.24141709975E+03  0.24141709976E+03  0.25500000920E-02 0. -1.
        2   -1    0    0  501    0  0.00000000000E+00  0.00000000000E+00 -0.20838493618E+04  0.20838493618E+04  0.25500000920E-02 0.  1.
    10030    2    1    2    0    0  0.00000000000E+00  0.00000000000E+00 -0.18424322621E+04  0.23252664616E+04  0.14185582389E+04 0.  0.
        3    1    3    3  502    0 -0.18165059727E+03 -0.41929692210E+03 -0.32017962151E+02  0.45807423904E+03  0.10100000352E+00 0. -1.
       -3    1    3    3    0  502  0.18165059727E+03  0.41929692210E+03 -0.18104142999E+04  0.18671922225E+04  0.10100000352E+00 0.  1.
</event>
<event>
 5   0  0.1098949E-03  0.1404191E+04  0.7818609E-02  0.8950790E-01
       -2   -1    0    0    0  501  0.00000000000E+00  0.00000000000E+00  0.36202288922E+03  0.36202288923E+03  0.25500000920E-02 0.  1.
        2   -1    0    0  501    0  0.00000000000E+00  0.00000000000E+00 -0.13616214022E+04  0.13616214022E+04  0.25500000920E-02 0. -1.
    10030    2    1    2    0    0  0.00000000000E+00  0.00000000000E+00 -0.99959851295E+03  0.17236442914E+04  0.14041910326E+04 0.  0.
        4    1    3    3  502    0 -0.27123336004E+03 -0.20159341297E+03  0.25561602475E+03  0.42373176038E+03  0.12699999809E+01 0.  1.
       -4    1    3    3    0  502  0.27123336004E+03  0.20159341297E+03 -0.12552145377E+04  0.12999125310E+04  0.12699999809E+01 0. -1.
</event>
<event>
 5   0  0.1098949E-03  0.1405117E+04  0.7818609E-02  0.8950123E-01
        2   -1    0    0  501    0  0.00000000000E+00  0.00000000000E+00  0.19574147367E+04  0.19574147367E+04  0.25500000920E-02 0.  1.
       -2   -1    0    0    0  501  0.00000000000E+00  0.00000000000E+00 -0.25216335119E+03  0.25216335121E+03  0.25500000920E-02 0. -1.
    10030    2    1    2    0    0  0.00000000000E+00  0.00000000000E+00  0.17052513855E+04  0.22095780879E+04  0.14051167349E+04 0.  0.
        4    1    3    3  502    0 -0.29926031138E+03  0.58490216912E+03  0.12439260068E+04  0.14067767430E+04  0.12699999809E+01 0.  1.
       -4    1    3    3    0  502  0.29926031138E+03 -0.58490216912E+03  0.46132537870E+03  0.80280134488E+03  0.12699999809E+01 0. -1.
</event>
<event>
 5   0  0.6153318E-04  0.1379367E+04  0.7818609E-02  0.8968891E-01
        1   -1    0    0  501    0  0.00000000000E+00  0.00000000000E+00  0.59610756098E+03  0.59610756100E+03  0.50400001928E-02 0.  1.
       -1   -1    0    0    0  501  0.00000000000E+00  0.00000000000E+00 -0.79794856046E+03  0.79794856048E+03  0.50400001928E-02 0. -1.
    10030    2    1    2    0    0  0.00000000000E+00  0.00000000000E+00 -0.20184099949E+03  0.13940561215E+04  0.13793667680E+04 0.  0.
        5    1    3    3  502    0 -0.14769652788E+03 -0.57332007005E+03 -0.45842606435E+03  0.74879016656E+03  0.46999998093E+01 0. -1.
       -5    1    3    3    0  502  0.14769652788E+03  0.57332007005E+03  0.25658506486E+03  0.64526595492E+03  0.46999998093E+01 0.  1.
</event>
<event>
 5   0  0.6114266E-04  0.1419807E+04  0.7818609E-02  0.8939605E-01
       -1   -1    0    0    0  501  0.00000000000E+00  0.00000000000E+00  0.72534343688E+03  0.72534343690E+03  0.50400001928E-02 0. -1.
        1   -1    0    0  501    0  0.00000000000E+00  0.00000000000E+00 -0.69479217709E+03  0.69479217711E+03  0.50400001928E-02 0.  1.
    10030    2    1    2    0    0  0.00000000000E+00  0.00000000000E+00  0.30551259786E+02  0.14201356140E+04  0.14198069526E+04 0.  0.
        3    1    3    3  502    0 -0.64636668560E+03  0.14860814175E+03  0.26849162022E+03  0.71551522162E+03  0.10100000352E+00 0. -1.
       -3    1    3    3    0  502  0.64636668560E+03 -0.14860814175E+03 -0.23794036044E+03  0.70462039239E+03  0.10100000352E+00 0.  1.
</event>
<event>
 5   0  0.1098949E-03  0.1400242E+04  0.7818609E-02  0.8953644E-01
       -2   -1    0    0    0  501  0.00000000000E+00  0.00000000000E+00  0.42842806695E+03  0.42842806696E+03  0.25500000920E-02 0. -1.
        2   -1    0    0  501    0  0.00000000000E+00  0.00000000000E+00 -0.11441110098E+04  0.11441110098E+04  0.25500000920E-02 0.  1.
    10030    2    1    2    0    0  0.00000000000E+00  0.00000000000E+00 -0.71568294289E+03  0.15725390768E+04  0.14002417910E+04 0.  0.
        4    1    3    3  502    0  0.68866674371E+03 -0.48939747190E+02 -0.48837945427E+03  0.84567906856E+03  0.12699999809E+01 0.  1.
       -4    1    3    3    0  502 -0.68866674371E+03  0.48939747190E+02 -0.22730348862E+03  0.72686000825E+03  0.12699999809E+01 0. -1.
</event>
<event>
 5   0  0.1095119E-03  0.1424368E+04  0.7818609E-02  0.8936366E-01
       -2   -1    0    0    0  501  0.00000000000E+00  0.00000000000E+00  0.18686038543E+03  0.18686038545E+03  0.25500000920E-02 0.  1.
        2   -1    0    0  501    0  0.00000000000E+00  0.00000000000E+00 -0.27143575382E+04  0.27143575382E+04  0.25500000920E-02 0. -1.
    10030    2    1    2    0    0  0.00000000000E+00  0.00000000000E+00 -0.25274971528E+04  0.29012179237E+04  0.14243677837E+04 0.  0.
        5    1    3    3  502    0  0.68783980691E+03  0.77658066470E+02 -0.92273996437E+03  0.11535274193E+04  0.46999998093E+01 0.  1.
       -5    1    3    3    0  502 -0.68783980691E+03 -0.77658066470E+02 -0.16047571884E+04  0.17476905044E+04  0.46999998093E+01 0. -1.
</event>
<event>
 5   0  0.6153318E-04  0.1408829E+04  0.7818609E-02  0.8947452E-01
       -1   -1    0    0    0  501  0.00000000000E+00  0.00000000000E+00  0.30666970288E+03  0.30666970292E+03  0.50400001928E-02 0. -1.
        1   -1    0    0  501    0  0.00000000000E+00  0.00000000000E+00 -0.16180277498E+04  0.16180277498E+04  0.50400001928E-02 0.  1.
    10030    2    1    2    0    0  0.00000000000E+00  0.00000000000E+00 -0.13113580470E+04  0.19246974528E+04  0.14088294281E+04 0.  0.
        5    1    3    3  502    0 -0.67491243934E+03 -0.14526552693E+03 -0.84679181813E+03  0.10925599971E+04  0.46999998093E+01 0. -1.
       -5    1    3    3    0  502  0.67491243934E+03  0.14526552693E+03 -0.46456622882E+03  0.83213745562E+03  0.46999998093E+01 0.  1.
</event>
<event>
 5   0  0.6114266E-04  0.1396344E+04  0.7818609E-02  0.8956469E-01
        1   -1    0    0  501    0  0.00000000000E+00  0.00000000000E+00  0.94639393831E+03  0.94639393832E+03  0.50400001928E-02 0.  1.
       -1   -1    0    0    0  501  0.00000000000E+00  0.00000000000E+00 -0.51505446578E+03  0.51505446581E+03  0.50400001928E-02 0. -1.
    10030    2    1    2    0    0  0.00000000000E+00  0.00000000000E+00  0.43133947253E+03  0.14614484041E+04  0.13963444050E+04 0.  0.
        3    1    3    3  502    0  0.58435213438E+03  0.13946235663E+02  0.61528644123E+03  0.84866915191E+03  0.10100000352E+00 0.  1.
       -3    1    3    3    0  502 -0.58435213438E+03 -0.13946235663E+02 -0.18394696870E+03  0.61277925221E+03  0.10100000352E+00 0. -1.
</event>
<event>
 5   0  0.1120053E-03  0.1195326E+04  0.7818609E-02  0.9116957E-01
       -2   -1    0    0    0  501  0.00000000000E+00  0.00000000000E+00  0.62013494910E+03  0.62013494911E+03  0.25500000920E-02 0.  1.
        2   -1    0    0  501    0  0.00000000000E+00  0.00000000000E+00 -0.57600553508E+03  0.57600553509E+03  0.25500000920E-02 0. -1.
    10030    2    1    2    0    0  0.00000000000E+00  0.00000000000E+00  0.44129414020E+02  0.11961404842E+04  0.11953261700E+04 0.  0.
        2    1    3    3  502    0  0.44394202095E+03  0.39126202690E+03 -0.61841514754E+02  0.59497467561E+03  0.25500000920E-02 0.  1.
       -2    1    3    3    0  502 -0.44394202095E+03 -0.39126202690E+03  0.10597092877E+03  0.60116580858E+03  0.25500000920E-02 0. -1.
</event>
<event>
 5   0  0.1095119E-03  0.1388947E+04  0.7818609E-02  0.8961858E-01
        2   -1    0    0  501    0  0.00000000000E+00  0.00000000000E+00  0.16736867249E+04  0.16736867249E+04  0.25500000920E-02 0.  1.
       -2   -1    0    0    0  501  0.00000000000E+00  0.00000000000E+00 -0.28816235105E+03  0.28816235106E+03  0.25500000920E-02 0. -1.
    10030    2    1    2    0    0  0.00000000000E+00  0.00000000000E+00  0.13855243738E+04  0.19618490760E+04  0.13889470855E+04 0.  0.
        5    1    3    3  502    0  0.65246776277E+03 -0.16666788572E+03  0.93237944272E+03  0.11501503731E+04  0.46999998093E+01 0.  1.
       -5    1    3    3    0  502 -0.65246776277E+03  0.16666788572E+03  0.45314493113E+03  0.81169870284E+03  0.46999998093E+01 0. -1.
</event>
<event>
 5   0  0.1175146E-03  0.1392505E+04  0.7818609E-02  0.8959261E-01
       -2   -1    0    0    0  501  0.00000000000E+00  0.00000000000E+00  0.19509892565E+03  0.19509892567E+03  0.25500000920E-02 0. -1.
        2   -1    0    0  501    0  0.00000000000E+00  0.00000000000E+00 -0.24847281292E+04  0.24847281292E+04  0.25500000920E-02 0.  1.
    10030    2    1    2    0    0  0.00000000000E+00  0.00000000000E+00 -0.22896292035E+04  0.26798270548E+04  0.13925053516E+04 0.  0.
        1    1    3    3  502    0  0.50254279317E+03 -0.48126277459E+03 -0.11921373106E+04  0.13803457844E+04  0.50400001928E-02 0.  1.
       -1    1    3    3    0  502 -0.50254279317E+03  0.48126277459E+03 -0.10974918929E+04  0.12994812704E+04  0.50400001928E-02 0. -1.
</event>
<event>
 5   0  0.1098949E-03  0.1369227E+04  0.7818609E-02  0.8976400E-01
       -2   -1    0    0    0  501  0.00000000000E+00  0.00000000000E+00  0.40753560700E+03  0.40753560701E+03  0.25500000920E-02 0.  1.
        2   -1    0    0  501    0  0.00000000000E+00  0.00000000000E+00 -0.11500731221E+04  0.11500731221E+04  0.25500000920E-02 0. -1.
    10030    2    1    2    0    0  0.00000000000E+00  0.00000000000E+00 -0.74253751506E+03  0.15576087291E+04  0.13692271512E+04 0.  0.
        4    1    3    3  502    0 -0.15773786863E+03 -0.39787729269E+03 -0.97911105179E+03  0.10685727116E+04  0.12699999809E+01 0. -1.
       -4    1    3    3    0  502  0.15773786863E+03  0.39787729269E+03  0.23657353674E+03  0.48903601751E+03  0.12699999809E+01 0.  1.
</event>
<event>
 5   0  0.1095119E-03  0.1411094E+04  0.7818609E-02  0.8945827E-01
       -2   -1    0    0    0  501  0.00000000000E+00  0.00000000000E+00  0.48926778326E+03  0.48926778327E+03  0.25500000920E-02 0.  1.
        2   -1    0    0  501    0  0.00000000000E+00  0.00000000000E+00 -0.10174321083E+04  0.10174321083E+04  0.25500000920E-02 0. -1.
    10030    2    1    2    0    0  0.00000000000E+00  0.00000000000E+00 -0.52816432508E+03  0.15066998916E+04  0.14110942595E+04 0.  0.
        5    1    3    3  502    0  0.10814133455E+03  0.58065687219E+03 -0.67612645969E+03  0.89778952486E+03  0.46999998093E+01 0. -1.
       -5    1    3    3    0  502 -0.10814133455E+03 -0.58065687219E+03  0.14796213461E+03  0.60891036675E+03  0.46999998093E+01 0.  1.
</event>
<event>
 5   0  0.1108819E-03  0.1404329E+04  0.7818609E-02  0.8950691E-01
       -2   -1    0    0    0  501  0.00000000000E+00  0.00000000000E+00  0.36377955946E+03  0.36377955946E+03  0.25500000920E-02 0.  1.
        2   -1    0    0  501    0  0.00000000000E+00  0.00000000000E+00 -0.13553131225E+04  0.13553131225E+04  0.25500000920E-02 0. -1.
    10030    2    1    2    0    0  0.00000000000E+00  0.00000000000E+00 -0.99153356303E+03  0.17190926819E+04  0.14043293212E+04 0.  0.
        3    1    3    3  502    0 -0.37741512571E+03  0.25432387093E+03 -0.11503227954E+04  0.12370793637E+04  0.10100000352E+00 0. -1.
       -3    1    3    3    0  502  0.37741512571E+03 -0.25432387093E+03  0.15878923233E+03  0.48201331822E+03  0.10100000352E+00 0.  1.
</event>
<event>
 5   0  0.6194742E-04  0.1389786E+04  0.7818609E-02  0.8961246E-01
        1   -1    0    0  501    0  0.00000000000E+00  0.00000000000E+00  0.13952739929E+04  0.13952739929E+04  0.50400001928E-02 0.  1.
       -1   -1    0    0    0  501  0.00000000000E+00  0.00000000000E+00 -0.34607965410E+03  0.34607965414E+03  0.50400001928E-02 0. -1.
    10030    2    1    2    0    0  0.00000000000E+00  0.00000000000E+00  0.10491943388E+04  0.17413536471E+04  0.13897855099E+04 0.  0.
        4    1    3    3  502    0 -0.20740593736E+03 -0.21838401939E+02  0.13551350329E+04  0.13710896064E+04  0.12699999809E+01 0.  1.
       -4    1    3    3    0  502  0.20740593736E+03  0.21838401939E+02 -0.30594069403E+03  0.37026404067E+03  0.12699999809E+01 0. -1.
</event>
<event>
 5   0  0.1095119E-03  0.1405605E+04  0.7818609E-02  0.8949771E-01
        2   -1    0    0  501    0  0.00000000000E+00  0.00000000000E+00  0.77486956180E+03  0.77486956181E+03  0.25500000920E-02 0.  1.
       -2   -1    0    0    0  501  0.00000000000E+00  0.00000000000E+00 -0.63743805982E+03  0.63743805983E+03  0.25500000920E-02 0. -1.
    10030    2    1    2    0    0  0.00000000000E+00  0.00000000000E+00  0.13743150198E+03  0.14123076216E+04  0.14056049944E+04 0.  0.
        5    1    3    3  502    0 -0.31945385547E+03 -0.32030725686E+03 -0.47167949529E+03  0.65356800782E+03  0.46999998093E+01 0. -1.
       -5    1    3    3    0  502  0.31945385547E+03  0.32030725686E+03  0.60911099727E+03  0.75873961381E+03  0.46999998093E+01 0.  1.
</event>
<event>
 5   0  0.6153318E-04  0.1388668E+04  0.7818609E-02  0.8962062E-01
        1   -1    0    0  501    0  0.00000000000E+00  0.00000000000E+00  0.48365024241E+03  0.48365024244E+03  0.50400001928E-02 0. -1.
       -1   -1    0    0    0  501  0.00000000000E+00  0.00000000000E+00 -0.99679438606E+03  0.99679438608E+03  0.50400001928E-02 0.  1.
    10030    2    1    2    0    0  0.00000000000E+00  0.00000000000E+00 -0.51314414365E+03  0.14804446285E+04  0.13886682059E+04 0.  0.
        5    1    3    3  502    0  0.27760804914E+03  0.10038677388E+03  0.41339884570E+03  0.50800042219E+03  0.46999998093E+01 0. -1.
       -5    1    3    3    0  502 -0.27760804914E+03 -0.10038677388E+03 -0.92654298935E+03  0.97244420633E+03  0.46999998093E+01 0.  1.
</event>
<event>
 5   0  0.6153318E-04  0.1401957E+04  0.7818609E-02  0.8952403E-01
        1   -1    0    0  501    0  0.00000000000E+00  0.00000000000E+00  0.47443228821E+03  0.47443228823E+03  0.50400001928E-02 0. -1.
       -1   -1    0    0    0  501  0.00000000000E+00  0.00000000000E+00 -0.10357027165E+04  0.10357027165E+04  0.50400001928E-02 0.  1.
    10030    2    1    2    0    0  0.00000000000E+00  0.00000000000E+00 -0.56127042832E+03  0.15101350048E+04  0.14019569319E+04 0.  0.
        5    1    3    3  502    0  0.20487993057E+03  0.61158442140E+03  0.15020652234E+02  0.64518137019E+03  0.46999998093E+01 0. -1.
       -5    1    3    3    0  502 -0.20487993057E+03 -0.61158442140E+03 -0.57629108055E+03  0.86495363458E+03  0.46999998093E+01 0.  1.
</event>
<event>
 5   0  0.6153318E-04  0.1416624E+04  0.7818609E-02  0.8941873E-01
        1   -1    0    0  501    0  0.00000000000E+00  0.00000000000E+00  0.93521021146E+03  0.93521021147E+03  0.50400001928E-02 0.  1.
       -1   -1    0    0    0  501  0.00000000000E+00  0.00000000000E+00 -0.53646286849E+03  0.53646286851E+03  0.50400001928E-02 0. -1.
    10030    2    1    2    0    0  0.00000000000E+00  0.00000000000E+00  0.39874734297E+03  0.14716730800E+04  0.14166235247E+04 0.  0.
        5    1    3    3  502    0  0.95679150116E+02  0.28232865005E+03  0.86685173313E+03  0.91668859687E+03  0.46999998093E+01 0.  1.
       -5    1    3    3    0  502 -0.95679150116E+02 -0.28232865005E+03 -0.46810439016E+03  0.55498448311E+03  0.46999998093E+01 0. -1.
</event>
<event>
 5   0  0.5875298E-04  0.1398045E+04  0.7818609E-02  0.8955235E-01
       -1   -1    0    0    0  501  0.00000000000E+00  0.00000000000E+00  0.42942069343E+03  0.42942069346E+03  0.50400001928E-02 0. -1.
        1   -1    0    0  501    0  0.00000000000E+00  0.00000000000E+00 -0.11378883138E+04  0.11378883139E+04  0.50400001928E-02 0.  1.
    10030    2    1    2    0    0  0.00000000000E+00  0.00000000000E+00 -0.70846762041E+03  0.15673090073E+04  0.13980454768E+04 0.  0.
        1    1    3    3  502    0  0.25937177723E+03 -0.62022447480E+03 -0.13952396170E+03  0.68659963143E+03  0.50400001928E-02 0. -1.
       -1    1    3    3    0  502 -0.25937177723E+03  0.62022447480E+03 -0.56894365871E+03  0.88070937589E+03  0.50400001928E-02 0.  1.
</event>
<event>
 5   0  0.1108819E-03  0.1409431E+04  0.7818609E-02  0.8947020E-01
        2   -1    0    0  501    0  0.00000000000E+00  0.00000000000E+00  0.12697538762E+04  0.12697538762E+04  0.25500000920E-02 0.  1.
       -2   -1    0    0    0  501  0.00000000000E+00  0.00000000000E+00 -0.39111835064E+03  0.39111835065E+03  0.25500000920E-02 0. -1.
    10030    2    1    2    0    0  0.00000000000E+00  0.00000000000E+00  0.87863552558E+03  0.16608722269E+04  0.14094311502E+04 0.  0.
        3    1    3    3  502    0  0.21409946120E+03  0.58602519959E+03  0.53205635728E+02  0.62617486672E+03  0.10100000352E+00 0. -1.
       -3    1    3    3    0  502 -0.21409946120E+03 -0.58602519959E+03  0.82542988985E+03  0.10346973602E+04  0.10100000352E+00 0.  1.
</event>
<event>
 5   0  0.4176125E-04  0.1400357E+04  0.7818609E-02  0.8953560E-01
        4   -1    0    0  501    0  0.00000000000E+00  0.00000000000E+00  0.84245036432E+03  0.84245132158E+03  0.12699999809E+01 0.  1.
       -4   -1    0    0    0  501  0.00000000000E+00  0.00000000000E+00 -0.58193168635E+03  0.58193307216E+03  0.12699999809E+01 0. -1.
    10030    2    1    2    0    0  0.00000000000E+00  0.00000000000E+00  0.26051867797E+03  0.14243843937E+04  0.14003574256E+04 0.  0.
        1    1    3    3  502    0  0.17454637085E+03  0.65844799530E+03  0.29499503546E+03  0.74232221378E+03  0.50400001928E-02 0.  1.
       -1    1    3    3    0  502 -0.17454637085E+03 -0.65844799530E+03 -0.34476357490E+02  0.68206217997E+03  0.50400001928E-02 0. -1.
</event>
<event>
 5   0  0.6194742E-04  0.1357193E+04  0.7818609E-02  0.8985401E-01
        1   -1    0    0  501    0  0.00000000000E+00  0.00000000000E+00  0.13752396742E+04  0.13752396742E+04  0.50400001928E-02 0. -1.
       -1   -1    0    0    0  501  0.00000000000E+00  0.00000000000E+00 -0.33484579949E+03  0.33484579952E+03  0.50400001928E-02 0.  1.
    10030    2    1    2    0    0  0.00000000000E+00  0.00000000000E+00  0.10403938747E+04  0.17100854738E+04  0.13571930272E+04 0.  0.
        4    1    3    3  502    0  0.52476447170E+03 -0.36575705806E+03  0.80568350859E+03  0.10287290728E+04  0.12699999809E+01 0. -1.
       -4    1    3    3    0  502 -0.52476447170E+03  0.36575705806E+03  0.23471036615E+03  0.68135640098E+03  0.12699999809E+01 0.  1.
</event>
<event>
 5   0  0.1120053E-03  0.1443398E+04  0.7818609E-02  0.8922990E-01
       -2   -1    0    0    0  501  0.00000000000E+00  0.00000000000E+00  0.48080347542E+03  0.48080347542E+03  0.25500000920E-02 0. -1.
        2   -1    0    0  501    0  0.00000000000E+00  0.00000000000E+00 -0.10832897194E+04  0.10832897194E+04  0.25500000920E-02 0.  1.
    10030    2    1    2    0    0  0.00000000000E+00  0.00000000000E+00 -0.60248624402E+03  0.15640931949E+04  0.14433980213E+04 0.  0.
        2    1    3    3  502    0 -0.34578104137E+02  0.46809143864E+03 -0.89530367096E+03  0.10108777886E+04  0.25500000920E-02 0.  1.
       -2    1    3    3    0  502  0.34578104137E+02 -0.46809143864E+03  0.29281742694E+03  0.55321540628E+03  0.25500000920E-02 0. -1.
</event>
<event>
 5   0  0.1120053E-03  0.1396685E+04  0.7818609E-02  0.8956222E-01
        2   -1    0    0  501    0  0.00000000000E+00  0.00000000000E+00  0.13398699992E+04  0.13398699992E+04  0.25500000920E-02 0.  1.
       -2   -1    0    0    0  501  0.00000000000E+00  0.00000000000E+00 -0.36397709125E+03  0.36397709126E+03  0.25500000920E-02 0. -1.
    10030    2    1    2    0    0  0.00000000000E+00  0.00000000000E+00  0.97589290790E+03  0.17038470904E+04  0.13966846243E+04 0.  0.
        2    1    3    3  502    0 -0.12348218577E+03  0.57395290156E+03  0.26608897530E+02  0.58768853727E+03  0.25500000920E-02 0. -1.
       -2    1    3    3    0  502  0.12348218577E+03 -0.57395290156E+03  0.94928401037E+03  0.11161585531E+04  0.25500000920E-02 0.  1.
</event>
<event>
 5   0  0.5875298E-04  0.1392643E+04  0.7818609E-02  0.8959161E-01
        1   -1    0    0  501    0  0.00000000000E+00  0.00000000000E+00  0.91687458690E+03  0.91687458692E+03  0.50400001928E-02 0. -1.
       -1   -1    0    0    0  501  0.00000000000E+00  0.00000000000E+00 -0.52882190515E+03  0.52882190517E+03  0.50400001928E-02 0.  1.
    10030    2    1    2    0    0  0.00000000000E+00  0.00000000000E+00  0.38805268176E+03  0.14456964921E+04  0.13926426187E+04 0.  0.
        1    1    3    3  502    0  0.39006742747E+01 -0.32107267714E+03  0.83543221554E+03  0.89501389154E+03  0.50400001928E-02 0. -1.
       -1    1    3    3    0  502 -0.39006742747E+01  0.32107267714E+03 -0.44737953379E+03  0.55068260054E+03  0.50400001928E-02 0.  1.
</event>
<event>
 5   0  0.1095119E-03  0.1392640E+04  0.7818609E-02  0.8959163E-01
        2   -1    0    0  501    0  0.00000000000E+00  0.00000000000E+00  0.14459178394E+04  0.14459178394E+04  0.25500000920E-02 0.  1.
       -2   -1    0    0    0  501  0.00000000000E+00  0.00000000000E+00 -0.33533144886E+03  0.33533144887E+03  0.25500000920E-02 0. -1.
    10030    2    1    2    0    0  0.00000000000E+00  0.00000000000E+00  0.11105863905E+04  0.17812492883E+04  0.13926402608E+04 0.  0.
        5    1    3    3  502    0  0.29123882170E+03  0.24862988300E+03  0.12991242975E+04  0.13543939236E+04  0.46999998093E+01 0.  1.
       -5    1    3    3    0  502 -0.29123882170E+03 -0.24862988300E+03 -0.18853790695E+03  0.42685536466E+03  0.46999998093E+01 0. -1.
</event>
<event>
 5   0  0.6114266E-04  0.1408505E+04  0.7818609E-02  0.8947685E-01
        1   -1    0    0  501    0  0.00000000000E+00  0.00000000000E+00  0.12491730633E+04  0.12491730633E+04  0.50400001928E-02 0.  1.
       -1   -1    0    0    0  501  0.00000000000E+00  0.00000000000E+00 -0.39703974411E+03  0.39703974414E+03  0.50400001928E-02 0. -1.
    10030    2    1    2    0    0  0.00000000000E+00  0.00000000000E+00  0.85213331915E+03  0.16462128074E+04  0.14085046729E+04 0.  0.
        3    1    3    3  502    0 -0.84977073184E+02 -0.30552096383E+03 -0.30887008290E+03  0.44267922994E+03  0.10100000352E+00 0. -1.
       -3    1    3    3    0  502  0.84977073184E+02  0.30552096383E+03  0.11610034020E+04  0.12035335775E+04  0.10100000352E+00 0.  1.
</event>
<event>
 5   0  0.1098949E-03  0.1399201E+04  0.7818609E-02  0.8954397E-01
       -2   -1    0    0    0  501  0.00000000000E+00  0.00000000000E+00  0.30720694372E+03  0.30720694373E+03  0.25500000920E-02 0. -1.
        2   -1    0    0  501    0  0.00000000000E+00  0.00000000000E+00 -0.15931948586E+04  0.15931948586E+04  0.25500000920E-02 0.  1.
    10030    2    1    2    0    0  0.00000000000E+00  0.00000000000E+00 -0.12859879149E+04  0.19004018024E+04  0.13992005193E+04 0.  0.
        4    1    3    3  502    0 -0.63892720694E+03 -0.12072051794E+03 -0.29238355690E+03  0.71294542321E+03  0.12699999809E+01 0. -1.
       -4    1    3    3    0  502  0.63892720694E+03  0.12072051794E+03 -0.99360435801E+03  0.11874563791E+04  0.12699999809E+01 0.  1.
</event>
<event>
 5   0  0.4176125E-04  0.1401275E+04  0.7818609E-02  0.8952896E-01
        3   -1    0    0  501    0  0.00000000000E+00  0.00000000000E+00  0.12390291901E+04  0.12390291942E+04  0.10100000352E+00 0. -1.
       -3   -1    0    0    0  501  0.00000000000E+00  0.00000000000E+00 -0.39619132820E+03  0.39619134108E+03  0.10100000352E+00 0.  1.
    10030    2    1    2    0    0  0.00000000000E+00  0.00000000000E+00  0.84283786185E+03  0.16352205353E+04  0.14012746117E+04 0.  0.
        5    1    3    3  502    0  0.49533079916E+03 -0.43836357716E+03  0.15186731780E+03  0.67867591573E+03  0.46999998093E+01 0.  1.
       -5    1    3    3    0  502 -0.49533079916E+03  0.43836357716E+03  0.69097054406E+03  0.95654461952E+03  0.46999998093E+01 0. -1.
</event>
<event>
 5   0  0.4176125E-04  0.1433035E+04  0.7818609E-02  0.8930247E-01
       -4   -1    0    0    0  501  0.00000000000E+00  0.00000000000E+00  0.82462343915E+03  0.82462441711E+03  0.12699999809E+01 0.  1.
        4   -1    0    0  501    0  0.00000000000E+00  0.00000000000E+00 -0.62258231929E+03  0.62258361462E+03  0.12699999809E+01 0. -1.
    10030    2    1    2    0    0  0.00000000000E+00  0.00000000000E+00  0.20204111986E+03  0.14472080317E+04  0.14330354053E+04 0.  0.
        1    1    3    3  502    0 -0.40186723019E+02 -0.70808890255E+03  0.20397363362E+03  0.73797703885E+03  0.50400001928E-02 0.  1.
       -1    1    3    3    0  502  0.40186723019E+02  0.70808890255E+03 -0.19325137636E+01  0.70923099288E+03  0.50400001928E-02 0. -1.
</event>
<event>
 5   0  0.5875298E-04  0.1401669E+04  0.7818609E-02  0.8952611E-01
       -1   -1    0    0    0  501  0.00000000000E+00  0.00000000000E+00  0.21831578453E+03  0.21831578459E+03  0.50400001928E-02 0. -1.
        1   -1    0    0  501    0  0.00000000000E+00  0.00000000000E+00 -0.22498113622E+04  0.22498113622E+04  0.50400001928E-02 0.  1.
    10030    2    1    2    0    0  0.00000000000E+00  0.00000000000E+00 -0.20314955777E+04  0.24681271468E+04  0.14016694798E+04 0.  0.
        1    1    3    3  502    0  0.20399700777E+03  0.25793037655E+02  0.16400639253E+03  0.26301740777E+03  0.50400001928E-02 0. -1.
       -1    1    3    3    0  502 -0.20399700777E+03 -0.25793037655E+02 -0.21955019702E+04  0.22051097390E+04  0.50400001928E-02 0.  1.
</event>
<event>
 5   0  0.5875298E-04  0.1400949E+04  0.7818609E-02  0.8953132E-01
       -1   -1    0    0    0  501  0.00000000000E+00  0.00000000000E+00  0.35722544955E+03  0.35722544959E+03  0.50400001928E-02 0. -1.
        1   -1    0    0  501    0  0.00000000000E+00  0.00000000000E+00 -0.13735424135E+04  0.13735424135E+04  0.50400001928E-02 0.  1.
    10030    2    1    2    0    0  0.00000000000E+00  0.00000000000E+00 -0.10163169640E+04  0.17307678631E+04  0.14009486874E+04 0.  0.
        1    1    3    3  502    0 -0.29813357356E+03  0.63029890118E+03 -0.59106993288E+03  0.91407001816E+03  0.50400001928E-02 0.  1.
       -1    1    3    3    0  502  0.29813357356E+03 -0.63029890118E+03 -0.42524703109E+03  0.81669784497E+03  0.50400001928E-02 0. -1.
</event>
<event>
 5   0  0.6114266E-04  0.1412929E+04  0.7818609E-02  0.8944513E-01
       -1   -1    0    0    0  501  0.00000000000E+00  0.00000000000E+00  0.97986697193E+03  0.97986697195E+03  0.50400001928E-02 0. -1.
        1   -1    0    0  501    0  0.00000000000E+00  0.00000000000E+00 -0.50934680732E+03  0.50934680735E+03  0.50400001928E-02 0.  1.
    10030    2    1    2    0    0  0.00000000000E+00  0.00000000000E+00  0.47052016461E+03  0.14892137793E+04  0.14129290340E+04 0.  0.
        3    1    3    3  502    0 -0.14264007202E+03  0.50114568525E+03 -0.26757062393E+03  0.58573649108E+03  0.10100000352E+00 0.  1.
       -3    1    3    3    0  502  0.14264007202E+03 -0.50114568525E+03  0.73809078854E+03  0.90347728821E+03  0.10100000352E+00 0. -1.
</event>
<event>
 5   0  0.1098949E-03  0.1485306E+04  0.7818609E-02  0.8894284E-01
        2   -1    0    0  501    0  0.00000000000E+00  0.00000000000E+00  0.86012565833E+03  0.86012565834E+03  0.25500000920E-02 0.  1.
       -2   -1    0    0    0  501  0.00000000000E+00  0.00000000000E+00 -0.64122395325E+03  0.64122395326E+03  0.25500000920E-02 0. -1.
    10030    2    1    2    0    0  0.00000000000E+00  0.00000000000E+00  0.21890170508E+03  0.15013496116E+04  0.14853055914E+04 0.  0.
        4    1    3    3  502    0 -0.18001178258E+03 -0.56714099443E+03  0.55863646145E+03  0.81616754308E+03  0.12699999809E+01 0.  1.
       -4    1    3    3    0  502  0.18001178258E+03  0.56714099443E+03 -0.33973475637E+03  0.68518206851E+03  0.12699999809E+01 0. -1.
</event>
<event>
 5   0  0.1175146E-03  0.1395682E+04  0.7818609E-02  0.8956950E-01
        2   -1    0    0  501    0  0.00000000000E+00  0.00000000000E+00  0.52289485277E+03  0.52289485278E+03  0.25500000920E-02 0. -1.
       -2   -1    0    0    0  501  0.00000000000E+00  0.00000000000E+00 -0.93131874589E+03  0.93131874589E+03  0.25500000920E-02 0.  1.
    10030    2    1    2    0    0  0.00000000000E+00  0.00000000000E+00 -0.40842389312E+03  0.14542135987E+04  0.13956815948E+04 0.  0.
        1    1    3    3  502    0  0.88193076851E+02 -0.30014366881E+03 -0.85416539557E+03  0.90964980281E+03  0.50400001928E-02 0.  1.
       -1    1    3    3    0  502 -0.88193076851E+02  0.30014366881E+03  0.44574150245E+03  0.54456379586E+03  0.50400001928E-02 0. -1.
</event>
<event>
 5   0  0.4176125E-04  0.1396256E+04  0.7818609E-02  0.8956533E-01
       -4   -1    0    0    0  501  0.00000000000E+00  0.00000000000E+00  0.46141064735E+03  0.46141239514E+03  0.12699999809E+01 0. -1.
        4   -1    0    0  501    0  0.00000000000E+00  0.00000000000E+00 -0.10562843088E+04  0.10562850723E+04  0.12699999809E+01 0.  1.
    10030    2    1    2    0    0  0.00000000000E+00  0.00000000000E+00 -0.59487366142E+03  0.15176974674E+04  0.13962560401E+04 0.  0.
        3    1    3    3  502    0  0.60470191124E+03 -0.30913649459E+03 -0.12165237312E+03  0.68994860956E+03  0.10100000352E+00 0.  1.
       -3    1    3    3    0  502 -0.60470191124E+03  0.30913649459E+03 -0.47322128830E+03  0.82774885783E+03  0.10100000352E+00 0. -1.
</event>
<event>
 5   0  0.6097538E-04  0.1377955E+04  0.7818609E-02  0.8969932E-01
       -1   -1    0    0    0  501  0.00000000000E+00  0.00000000000E+00  0.18831739600E+03  0.18831739607E+03  0.50400001928E-02 0. -1.
        1   -1    0    0  501    0  0.00000000000E+00  0.00000000000E+00 -0.25206913923E+04  0.25206913923E+04  0.50400001928E-02 0.  1.
    10030    2    1    2    0    0  0.00000000000E+00  0.00000000000E+00 -0.23323739963E+04  0.27090087883E+04  0.13779550634E+04 0.  0.
        2    1    3    3  502    0 -0.24819619878E+02  0.57620647344E+02  0.18268989823E+03  0.19316250012E+03  0.25500000920E-02 0. -1.
       -2    1    3    3    0  502  0.24819619878E+02 -0.57620647344E+02 -0.25150638945E+04  0.25158462882E+04  0.25500000920E-02 0.  1.
</event>
<event>
 5   0  0.6153318E-04  0.1380370E+04  0.7818609E-02  0.8968152E-01
       -1   -1    0    0    0  501  0.00000000000E+00  0.00000000000E+00  0.16672288112E+03  0.16672288119E+03  0.50400001928E-02 0.  1.
        1   -1    0    0  501    0  0.00000000000E+00  0.00000000000E+00 -0.28571668427E+04  0.28571668427E+04  0.50400001928E-02 0. -1.
    10030    2    1    2    0    0  0.00000000000E+00  0.00000000000E+00 -0.26904439616E+04  0.30238897239E+04  0.13803696432E+04 0.  0.
        5    1    3    3  502    0  0.30606589493E+03 -0.30736527705E+03 -0.25212154734E+04  0.25582609911E+04  0.46999998093E+01 0. -1.
       -5    1    3    3    0  502 -0.30606589493E+03  0.30736527705E+03 -0.16922848824E+03  0.46562873280E+03  0.46999998093E+01 0.  1.
</event>
<event>
 5   0  0.1098949E-03  0.1386906E+04  0.7818609E-02  0.8963351E-01
        2   -1    0    0  501    0  0.00000000000E+00  0.00000000000E+00  0.44311115037E+03  0.44311115038E+03  0.25500000920E-02 0.  1.
       -2   -1    0    0    0  501  0.00000000000E+00  0.00000000000E+00 -0.10852295366E+04  0.10852295366E+04  0.25500000920E-02 0. -1.
    10030    2    1    2    0    0  0.00000000000E+00  0.00000000000E+00 -0.64211838626E+03  0.15283406870E+04  0.13869063536E+04 0.  0.
        4    1    3    3  502    0 -0.35595571636E+02  0.40503854992E+03  0.29796667436E+03  0.50409227684E+03  0.12699999809E+01 0.  1.
       -4    1    3    3    0  502  0.35595571636E+02 -0.40503854992E+03 -0.94008506062E+03  0.10242484102E+04  0.12699999809E+01 0. -1.
</event>
<event>
 5   0  0.6114266E-04  0.1375848E+04  0.7818609E-02  0.8971489E-01
        1   -1    0    0  501    0  0.00000000000E+00  0.00000000000E+00  0.91230535167E+03  0.91230535169E+03  0.50400001928E-02 0.  1.
       -1   -1    0    0    0  501  0.00000000000E+00  0.00000000000E+00 -0.51872928832E+03  0.51872928834E+03  0.50400001928E-02 0. -1.
    10030    2    1    2    0    0  0.00000000000E+00  0.00000000000E+00  0.39357606335E+03  0.14310346400E+04  0.13758481106E+04 0.  0.
        3    1    3    3  502    0 -0.36028690584E+03  0.27257109828E+03 -0.34280587161E+03  0.56711333431E+03  0.10100000352E+00 0. -1.
       -3    1    3    3    0  502  0.36028690584E+03 -0.27257109828E+03  0.73638193496E+03  0.86392130572E+03  0.10100000352E+00 0.  1.
</event>
<event>
 5   0  0.1098949E-03  0.1406108E+04  0.7818609E-02  0.8949409E-01
        2   -1    0    0  501    0  0.00000000000E+00  0.00000000000E+00  0.58166182596E+03  0.58166182597E+03  0.25500000920E-02 0.  1.
       -2   -1    0    0    0  501  0.00000000000E+00  0.00000000000E+00 -0.84978100004E+03  0.84978100005E+03  0.25500000920E-02 0. -1.
    10030    2    1    2    0    0  0.00000000000E+00  0.00000000000E+00 -0.26811917408E+03  0.14314428260E+04  0.14061083431E+04 0.  0.
        4    1    3    3  502    0 -0.26296741768E+03 -0.14479298073E+03  0.51313589584E+03  0.59449720818E+03  0.12699999809E+01 0.  1.
       -4    1    3    3    0  502  0.26296741768E+03  0.14479298073E+03 -0.78125506992E+03  0.83694561783E+03  0.12699999809E+01 0. -1.
</event>
<event>
 5   0  0.6114266E-04  0.1388369E+04  0.7818609E-02  0.8962281E-01
       -1   -1    0    0    0  501  0.00000000000E+00  0.00000000000E+00  0.99017507473E+03  0.99017507475E+03  0.50400001928E-02 0.  1.
        1   -1    0    0  501    0  0.00000000000E+00  0.00000000000E+00 -0.48667362951E+03  0.48667362953E+03  0.50400001928E-02 0. -1.
    10030    2    1    2    0    0  0.00000000000E+00  0.00000000000E+00  0.50350144523E+03  0.14768487043E+04  0.13883689675E+04 0.  0.
        3    1    3    3  502    0  0.45307821245E+03  0.37532217400E+03 -0.14016601152E+03  0.60480833482E+03  0.10100000352E+00 0. -1.
       -3    1    3    3    0  502 -0.45307821245E+03 -0.37532217400E+03  0.64366745675E+03  0.87204036946E+03  0.10100000352E+00 0.  1.
</event>
<event>
 5   0  0.5875298E-04  0.1409858E+04  0.7818609E-02  0.8946714E-01
        1   -1    0    0  501    0  0.00000000000E+00  0.00000000000E+00  0.85334437393E+03  0.85334437394E+03  0.50400001928E-02 0. -1.
       -1   -1    0    0    0  501  0.00000000000E+00  0.00000000000E+00 -0.58232631398E+03  0.58232631400E+03  0.50400001928E-02 0.  1.
    10030    2    1    2    0    0  0.00000000000E+00  0.00000000000E+00  0.27101805995E+03  0.14356706879E+04  0.14098579841E+04 0.  0.
        1    1    3    3  502    0  0.37760433824E+03  0.42643441586E+03  0.55843648460E+03  0.79767327562E+03  0.50400001928E-02 0. -1.
       -1    1    3    3    0  502 -0.37760433824E+03 -0.42643441586E+03 -0.28741842465E+03  0.63799741233E+03  0.50400001928E-02 0.  1.
</event>
<event>
 5   0  0.1098949E-03  0.1399127E+04  0.7818609E-02  0.8954451E-01
       -2   -1    0    0    0  501  0.00000000000E+00  0.00000000000E+00  0.71108299651E+03  0.71108299652E+03  0.25500000920E-02 0.  1.
        2   -1    0    0  501    0  0.00000000000E+00  0.00000000000E+00 -0.68823041989E+03  0.68823041990E+03  0.25500000920E-02 0. -1.
    10030    2    1    2    0    0  0.00000000000E+00  0.00000000000E+00  0.22852576620E+02  0.13993134164E+04  0.13991267981E+04 0.  0.
        4    1    3    3  502    0  0.38870709259E+03  0.49115500840E+03 -0.30016123447E+03  0.69456808571E+03  0.12699999809E+01 0.  1.
       -4    1    3    3    0  502 -0.38870709259E+03 -0.49115500840E+03  0.32301381109E+03  0.70474533071E+03  0.12699999809E+01 0. -1.
</event>
<event>
 5   0  0.1175146E-03  0.1396504E+04  0.7818609E-02  0.8956353E-01
       -2   -1    0    0    0  501  0.00000000000E+00  0.00000000000E+00  0.41645554306E+03  0.41645554307E+03  0.25500000920E-02 0. -1.
        2   -1    0    0  501    0  0.00000000000E+00  0.00000000000E+00 -0.11707271505E+04  0.11707271505E+04  0.25500000920E-02 0.  1.
    10030    2    1    2    0    0  0.00000000000E+00  0.00000000000E+00 -0.75427160744E+03  0.15871826936E+04  0.13965039366E+04 0.  0.
        1    1    3    3  502    0  0.17574132554E+03  0.20982861973E+03 -0.11072181777E+04  0.11405459904E+04  0.50400001928E-02 0.  1.
       -1    1    3    3    0  502 -0.17574132554E+03 -0.20982861973E+03  0.35294657025E+03  0.44663670319E+03  0.50400001928E-02 0. -1.
</event>
<event>
 5   0  0.1098949E-03  0.1391195E+04  0.7818609E-02  0.8960217E-01
       -2   -1    0    0    0  501  0.00000000000E+00  0.00000000000E+00  0.51655587984E+03  0.51655587985E+03  0.25500000920E-02 0.  1.
        2   -1    0    0  501    0  0.00000000000E+00  0.00000000000E+00 -0.93669634679E+03  0.93669634680E+03  0.25500000920E-02 0. -1.
    10030    2    1    2    0    0  0.00000000000E+00  0.00000000000E+00 -0.42014046695E+03  0.14532522266E+04  0.13911951776E+04 0.  0.
        4    1    3    3  502    0 -0.56094572074E+03 -0.40134509303E+03 -0.30418003367E+03  0.75383359643E+03  0.12699999809E+01 0. -1.
       -4    1    3    3    0  502  0.56094572074E+03  0.40134509303E+03 -0.11596043327E+03  0.69941863022E+03  0.12699999809E+01 0.  1.
</event>
<event>
 5   0  0.1098949E-03  0.1401577E+04  0.7818609E-02  0.8952678E-01
       -2   -1    0    0    0  501  0.00000000000E+00  0.00000000000E+00  0.69546579320E+03  0.69546579320E+03  0.25500000920E-02 0.  1.
        2   -1    0    0  501    0  0.00000000000E+00  0.00000000000E+00 -0.70615195582E+03  0.70615195582E+03  0.25500000920E-02 0. -1.
    10030    2    1    2    0    0  0.00000000000E+00  0.00000000000E+00 -0.10686162620E+02  0.14016177490E+04  0.14015770119E+04 0.  0.
        4    1    3    3  502    0  0.34224683959E+03 -0.40515265632E+03 -0.46341899229E+03  0.70430132007E+03  0.12699999809E+01 0. -1.
       -4    1    3    3    0  502 -0.34224683959E+03  0.40515265632E+03  0.45273282967E+03  0.69731642896E+03  0.12699999809E+01 0.  1.
</event>
<event>
 5   0  0.5875298E-04  0.1379150E+04  0.7818609E-02  0.8969051E-01
       -1   -1    0    0    0  501  0.00000000000E+00  0.00000000000E+00  0.31632917053E+03  0.31632917057E+03  0.50400001928E-02 0.  1.
        1   -1    0    0  501    0  0.00000000000E+00  0.00000000000E+00 -0.15032243516E+04  0.15032243516E+04  0.50400001928E-02 0. -1.
    10030    2    1    2    0    0  0.00000000000E+00  0.00000000000E+00 -0.11868951811E+04  0.18195535222E+04  0.13791500459E+04 0.  0.
        1    1    3    3  502    0 -0.38103189999E+03  0.49545200395E+03 -0.20912681163E+03  0.65908422860E+03  0.50400001928E-02 0.  1.
       -1    1    3    3    0  502  0.38103189999E+03 -0.49545200395E+03 -0.97776836945E+03  0.11604692936E+04  0.50400001928E-02 0. -1.
</event>
<event>
 5   0  0.6114266E-04  0.1395915E+04  0.7818609E-02  0.8956781E-01
       -1   -1    0    0    0  501  0.00000000000E+00  0.00000000000E+00  0.77790565568E+03  0.77790565569E+03  0.50400001928E-02 0.  1.
        1   -1    0    0  501    0  0.00000000000E+00  0.00000000000E+00 -0.62622577234E+03  0.62622577236E+03  0.50400001928E-02 0. -1.
    10030    2    1    2    0    0  0.00000000000E+00  0.00000000000E+00  0.15167988334E+03  0.14041314280E+04  0.13959148542E+04 0.  0.
        3    1    3    3  502    0 -0.27438410561E+03 -0.52115824479E+03  0.45254666611E+03  0.74275907853E+03  0.10100000352E+00 0.  1.
       -3    1    3    3    0  502  0.27438410561E+03  0.52115824479E+03 -0.30086678277E+03  0.66137234952E+03  0.10100000352E+00 0. -1.
</event>
<event>
 5   0  0.1120053E-03  0.1393921E+04  0.7818609E-02  0.8958231E-01
        2   -1    0    0  501    0  0.00000000000E+00  0.00000000000E+00  0.17988578893E+04  0.17988578893E+04  0.25500000920E-02 0.  1.
       -2   -1    0    0    0  501  0.00000000000E+00  0.00000000000E+00 -0.27003456542E+03  0.27003456543E+03  0.25500000920E-02 0. -1.
    10030    2    1    2    0    0  0.00000000000E+00  0.00000000000E+00  0.15288233239E+04  0.20688924548E+04  0.13939208133E+04 0.  0.
        2    1    3    3  502    0  0.28308471175E+03  0.62782160777E+03  0.60554489569E+03  0.91705045985E+03  0.25500000920E-02 0. -1.
       -2    1    3    3    0  502 -0.28308471175E+03 -0.62782160777E+03  0.92327842824E+03  0.11518419949E+04  0.25500000920E-02 0.  1.
</event>
<event>
 5   0  0.6097538E-04  0.1401598E+04  0.7818609E-02  0.8952662E-01
       -1   -1    0    0    0  501  0.00000000000E+00  0.00000000000E+00  0.64862837013E+03  0.64862837015E+03  0.50400001928E-02 0.  1.
        1   -1    0    0  501    0  0.00000000000E+00  0.00000000000E+00 -0.75716631913E+03  0.75716631915E+03  0.50400001928E-02 0. -1.
    10030    2    1    2    0    0  0.00000000000E+00  0.00000000000E+00 -0.10853794900E+03  0.14057946893E+04  0.14015984525E+04 0.  0.
        2    1    3    3  502    0 -0.50854969000E+03 -0.43971080297E+03  0.14418998328E+03  0.68757481683E+03  0.25500000920E-02 0.  1.
       -2    1    3    3    0  502  0.50854969000E+03  0.43971080297E+03 -0.25272793228E+03  0.71821987247E+03  0.25500000920E-02 0. -1.
</event>
<event>
 5   0  0.6194742E-04  0.1405728E+04  0.7818609E-02  0.8949683E-01
        1   -1    0    0  501    0  0.00000000000E+00  0.00000000000E+00  0.10554711101E+04  0.10554711101E+04  0.50400001928E-02 0. -1.
       -1   -1    0    0    0  501  0.00000000000E+00  0.00000000000E+00 -0.46805410272E+03  0.46805410274E+03  0.50400001928E-02 0.  1.
    10030    2    1    2    0    0  0.00000000000E+00  0.00000000000E+00  0.58741700742E+03  0.15235252129E+04  0.14057276883E+04 0.  0.
        4    1    3    3  502    0 -0.39769926745E+01 -0.66572499125E+03  0.49407803797E+02  0.66756896604E+03  0.12699999809E+01 0.  1.
       -4    1    3    3    0  502  0.39769926745E+01  0.66572499125E+03  0.53800920362E+03  0.85595624685E+03  0.12699999809E+01 0. -1.
</event>
<event>
 5   0  0.6194742E-04  0.1461509E+04  0.7818609E-02  0.8910460E-01
        1   -1    0    0  501    0  0.00000000000E+00  0.00000000000E+00  0.19410789706E+04  0.19410789706E+04  0.50400001928E-02 0. -1.
       -1   -1    0    0    0  501  0.00000000000E+00  0.00000000000E+00 -0.27510591153E+03  0.27510591158E+03  0.50400001928E-02 0.  1.
    10030    2    1    2    0    0  0.00000000000E+00  0.00000000000E+00  0.16659730591E+04  0.22161848822E+04  0.14615092195E+04 0.  0.
        4    1    3    3  502    0 -0.55449082831E+03  0.47589329072E+03  0.82065035142E+03  0.10988189637E+04  0.12699999809E+01 0.  1.
       -4    1    3    3    0  502  0.55449082831E+03 -0.47589329072E+03  0.84532270769E+03  0.11173659185E+04  0.12699999809E+01 0. -1.
</event>
<event>
 5   0  0.1120053E-03  0.1380931E+04  0.7818609E-02  0.8967738E-01
        2   -1    0    0  501    0  0.00000000000E+00  0.00000000000E+00  0.82470887514E+03  0.82470887515E+03  0.25500000920E-02 0.  1.
       -2   -1    0    0    0  501  0.00000000000E+00  0.00000000000E+00 -0.57807418717E+03  0.57807418717E+03  0.25500000920E-02 0. -1.
    10030    2    1    2    0    0  0.00000000000E+00  0.00000000000E+00  0.24663468797E+03  0.14027830623E+04  0.13809314431E+04 0.  0.
        2    1    3    3  502    0  0.22458701613E+03 -0.53010170549E+03 -0.26389114987E+03  0.63331325974E+03  0.25500000920E-02 0. -1.
       -2    1    3    3    0  502 -0.22458701613E+03  0.53010170549E+03  0.51052583784E+03  0.76946980258E+03  0.25500000920E-02 0.  1.
</event>
<event>
 5   0  0.5875298E-04  0.1412169E+04  0.7818609E-02  0.8945057E-01
        1   -1    0    0  501    0  0.00000000000E+00  0.00000000000E+00  0.45132592541E+03  0.45132592544E+03  0.50400001928E-02 0. -1.
       -1   -1    0    0    0  501  0.00000000000E+00  0.00000000000E+00 -0.11046458291E+04  0.11046458291E+04  0.50400001928E-02 0.  1.
    10030    2    1    2    0    0  0.00000000000E+00  0.00000000000E+00 -0.65331990369E+03  0.15559717545E+04  0.14121689716E+04 0.  0.
        1    1    3    3  502    0 -0.39600247278E+02 -0.19762333292E+02  0.44979614175E+03  0.45196824951E+03  0.50400001928E-02 0. -1.
       -1    1    3    3    0  502  0.39600247278E+02  0.19762333292E+02 -0.11031160454E+04  0.11040035050E+04  0.50400001928E-02 0.  1.
</event>
<event>
 5   0  0.1120053E-03  0.1407958E+04  0.7818609E-02  0.8948078E-01
       -2   -1    0    0    0  501  0.00000000000E+00  0.00000000000E+00  0.76782676473E+03  0.76782676474E+03  0.25500000920E-02 0. -1.
        2   -1    0    0  501    0  0.00000000000E+00  0.00000000000E+00 -0.64544074227E+03  0.64544074228E+03  0.25500000920E-02 0.  1.
    10030    2    1    2    0    0  0.00000000000E+00  0.00000000000E+00  0.12238602246E+03  0.14132675070E+04  0.14079583474E+04 0.  0.
        2    1    3    3  502    0  0.82349429545E+02 -0.69913199000E+03  0.56736791228E+02  0.70624785414E+03  0.25500000920E-02 0.  1.
       -2    1    3    3    0  502 -0.82349429545E+02  0.69913199000E+03  0.65649231231E+02  0.70701965288E+03  0.25500000920E-02 0. -1.
</event>
<event>
 5   0  0.1120053E-03  0.1448595E+04  0.7818609E-02  0.8919375E-01
        2   -1    0    0  501    0  0.00000000000E+00  0.00000000000E+00  0.61006026546E+03  0.61006026547E+03  0.25500000920E-02 0.  1.
       -2   -1    0    0    0  501  0.00000000000E+00  0.00000000000E+00 -0.85992597918E+03  0.85992597919E+03  0.25500000920E-02 0. -1.
    10030    2    1    2    0    0  0.00000000000E+00  0.00000000000E+00 -0.24986571372E+03  0.14699862447E+04  0.14485947275E+04 0.  0.
        2    1    3    3  502    0  0.32316245176E+03 -0.80246604626E+01  0.53279616408E+03  0.62319348349E+03  0.25500000920E-02 0.  1.
       -2    1    3    3    0  502 -0.32316245176E+03  0.80246604626E+01 -0.78266187780E+03  0.84679276117E+03  0.25500000920E-02 0. -1.
</event>
<event>
 5   0  0.1120053E-03  0.1410267E+04  0.7818609E-02  0.8946420E-01
       -2   -1    0    0    0  501  0.00000000000E+00  0.00000000000E+00  0.43382146641E+03  0.43382146642E+03  0.25500000920E-02 0.  1.
        2   -1    0    0  501    0  0.00000000000E+00  0.00000000000E+00 -0.11461237383E+04  0.11461237383E+04  0.25500000920E-02 0. -1.
    10030    2    1    2    0    0  0.00000000000E+00  0.00000000000E+00 -0.71230227192E+03  0.15799452048E+04  0.14102667561E+04 0.  0.
        2    1    3    3  502    0  0.49409630544E+03  0.27443772937E+03 -0.82850223372E+03  0.10029273043E+04  0.25500000920E-02 0. -1.
       -2    1    3    3    0  502 -0.49409630544E+03 -0.27443772937E+03  0.11619996181E+03  0.57701790049E+03  0.25500000920E-02 0.  1.
</event>
<event>
 5   0  0.1175146E-03  0.1398641E+04  0.7818609E-02  0.8954803E-01
       -2   -1    0    0    0  501  0.00000000000E+00  0.00000000000E+00  0.49556973115E+03  0.49556973116E+03  0.25500000920E-02 0. -1.
        2   -1    0    0  501    0  0.00000000000E+00  0.00000000000E+00 -0.98684275947E+03  0.98684275947E+03  0.25500000920E-02 0.  1.
    10030    2    1    2    0    0  0.00000000000E+00  0.00000000000E+00 -0.49127302832E+03  0.14824124906E+04  0.13986413422E+04 0.  0.
        1    1    3    3  502    0  0.27330291974E+03 -0.39405879330E+03 -0.78511413237E+03  0.91998968439E+03  0.50400001928E-02 0.  1.
       -1    1    3    3    0  502 -0.27330291974E+03  0.39405879330E+03  0.29384110405E+03  0.56242280623E+03  0.50400001928E-02 0. -1.
</event>
<event>
 5   0  0.6097538E-04  0.1520394E+04  0.7818609E-02  0.8871003E-01
        1   -1    0    0  501    0  0.00000000000E+00  0.00000000000E+00  0.12565496217E+04  0.12565496218E+04  0.50400001928E-02 0.  1.
       -1   -1    0    0    0  501  0.00000000000E+00  0.00000000000E+00 -0.45990979802E+03  0.45990979805E+03  0.50400001928E-02 0. -1.
    10030    2    1    2    0    0  0.00000000000E+00  0.00000000000E+00  0.79663982372E+03  0.17164594198E+04  0.15203940052E+04 0.  0.
        2    1    3    3  502    0  0.33378389989E+03 -0.58798132426E+03  0.79064789809E+03  0.10403162155E+04  0.25500000920E-02 0. -1.
       -2    1    3    3    0  502 -0.33378389989E+03  0.58798132426E+03  0.59919256288E+01  0.67614320428E+03  0.25500000920E-02 0.  1.
</event>
<event>
 5   0  0.1098949E-03  0.1408578E+04  0.7818609E-02  0.8947633E-01
        2   -1    0    0  501    0  0.00000000000E+00  0.00000000000E+00  0.11629990152E+04  0.11629990152E+04  0.25500000920E-02 0. -1.
       -2   -1    0    0    0  501  0.00000000000E+00  0.00000000000E+00 -0.42650306643E+03  0.42650306644E+03  0.25500000920E-02 0.  1.
    10030    2    1    2    0    0  0.00000000000E+00  0.00000000000E+00  0.73649594874E+03  0.15895020816E+04  0.14085775041E+04 0.  0.
        4    1    3    3  502    0  0.39953944133E+02 -0.64924186442E+03  0.63547549616E+02  0.65356806847E+03  0.12699999809E+01 0.  1.
       -4    1    3    3    0  502 -0.39953944133E+02  0.64924186442E+03  0.67294839913E+03  0.93593401314E+03  0.12699999809E+01 0. -1.
</event>
<event>
 5   0  0.1095119E-03  0.1386701E+04  0.7818609E-02  0.8963502E-01
        2   -1    0    0  501    0  0.00000000000E+00  0.00000000000E+00  0.87818052433E+03  0.87818052433E+03  0.25500000920E-02 0. -1.
       -2   -1    0    0    0  501  0.00000000000E+00  0.00000000000E+00 -0.54742124838E+03  0.54742124839E+03  0.25500000920E-02 0.  1.
    10030    2    1    2    0    0  0.00000000000E+00  0.00000000000E+00  0.33075927594E+03  0.14256017727E+04  0.13867006583E+04 0.  0.
        5    1    3    3  502    0 -0.16217716440E+03 -0.38182141930E+03  0.73650315493E+03  0.84530942034E+03  0.46999998093E+01 0. -1.
       -5    1    3    3    0  502  0.16217716440E+03  0.38182141930E+03 -0.40574387899E+03  0.58029235238E+03  0.46999998093E+01 0.  1.
</event>
<event>
 5   0  0.6114266E-04  0.1457976E+04  0.7818609E-02  0.8912890E-01
        1   -1    0    0  501    0  0.00000000000E+00  0.00000000000E+00  0.60942599302E+03  0.60942599304E+03  0.50400001928E-02 0. -1.
       -1   -1    0    0    0  501  0.00000000000E+00  0.00000000000E+00 -0.87200632861E+03  0.87200632862E+03  0.50400001928E-02 0.  1.
    10030    2    1    2    0    0  0.00000000000E+00  0.00000000000E+00 -0.26258033558E+03  0.14814323217E+04  0.14579757512E+04 0.  0.
        3    1    3    3  502    0  0.46014433552E+03  0.54408141720E+03 -0.28760247032E+03  0.76842214257E+03  0.10100000352E+00 0. -1.
       -3    1    3    3    0  502 -0.46014433552E+03 -0.54408141720E+03  0.25022134737E+02  0.71301017909E+03  0.10100000352E+00 0.  1.
</event>
<event>
 5   0  0.1095119E-03  0.1400288E+04  0.7818609E-02  0.8953610E-01
        2   -1    0    0  501    0  0.00000000000E+00  0.00000000000E+00  0.87176576869E+03  0.87176576869E+03  0.25500000920E-02 0. -1.
       -2   -1    0    0    0  501  0.00000000000E+00  0.00000000000E+00 -0.56230909769E+03  0.56230909770E+03  0.25500000920E-02 0.  1.
    10030    2    1    2    0    0  0.00000000000E+00  0.00000000000E+00  0.30945667099E+03  0.14340748664E+04  0.14002882886E+04 0.  0.
        5    1    3    3  502    0  0.62988393670E+03  0.19499223231E+03 -0.86331514933E+02  0.66501952216E+03  0.46999998093E+01 0.  1.
       -5    1    3    3    0  502 -0.62988393670E+03 -0.19499223231E+03  0.39578818593E+03  0.76905534423E+03  0.46999998093E+01 0. -1.
</event>
<event>
 5   0  0.6153318E-04  0.1412337E+04  0.7818609E-02  0.8944936E-01
       -1   -1    0    0    0  501  0.00000000000E+00  0.00000000000E+00  0.52522221995E+03  0.52522221997E+03  0.50400001928E-02 0.  1.
        1   -1    0    0  501    0  0.00000000000E+00  0.00000000000E+00 -0.94945392464E+03  0.94945392466E+03  0.50400001928E-02 0. -1.
    10030    2    1    2    0    0  0.00000000000E+00  0.00000000000E+00 -0.42423170469E+03  0.14746761446E+04  0.14123374923E+04 0.  0.
        5    1    3    3  502    0  0.11351245287E+03  0.17052507073E+03  0.49349966732E+03  0.53434809661E+03  0.46999998093E+01 0.  1.
       -5    1    3    3    0  502 -0.11351245287E+03 -0.17052507073E+03 -0.91773137202E+03  0.94032804802E+03  0.46999998093E+01 0. -1.
</event>
<event>
 5   0  0.1095119E-03  0.1419221E+04  0.7818609E-02  0.8940022E-01
        2   -1    0    0  501    0  0.00000000000E+00  0.00000000000E+00  0.10863001505E+04  0.10863001505E+04  0.25500000920E-02 0.  1.
       -2   -1    0    0    0  501  0.00000000000E+00  0.00000000000E+00 -0.46354335388E+03  0.46354335388E+03  0.25500000920E-02 0. -1.
    10030    2    1    2    0    0  0.00000000000E+00  0.00000000000E+00  0.62275679659E+03  0.15498435044E+04  0.14192212161E+04 0.  0.
        5    1    3    3  502    0  0.27648549925E+03  0.46309705927E+03 -0.19217074300E+03  0.57258606520E+03  0.46999998093E+01 0. -1.
       -5    1    3    3    0  502 -0.27648549925E+03 -0.46309705927E+03  0.81492753959E+03  0.97725743915E+03  0.46999998093E+01 0.  1.
</event>
<event>
 5   0  0.1120053E-03  0.1400879E+04  0.7818609E-02  0.8953182E-01
        2   -1    0    0  501    0  0.00000000000E+00  0.00000000000E+00  0.80780324705E+03  0.80780324706E+03  0.25500000920E-02 0. -1.
       -2   -1    0    0    0  501  0.00000000000E+00  0.00000000000E+00 -0.60734561653E+03  0.60734561654E+03  0.25500000920E-02 0.  1.
    10030    2    1    2    0    0  0.00000000000E+00  0.00000000000E+00  0.20045763052E+03  0.14151488636E+04  0.14008793826E+04 0.  0.
        2    1    3    3  502    0 -0.91141868894E+02 -0.44592698435E+03 -0.43760211859E+03  0.63138999821E+03  0.25500000920E-02 0.  1.
       -2    1    3    3    0  502  0.91141868894E+02  0.44592698435E+03  0.63805974911E+03  0.78375886539E+03  0.25500000920E-02 0. -1.
</event>
<event>
 5   0  0.5875298E-04  0.1410916E+04  0.7818609E-02  0.8945955E-01
       -1   -1    0    0    0  501  0.00000000000E+00  0.00000000000E+00  0.37574469236E+03  0.37574469239E+03  0.50400001928E-02 0. -1.
        1   -1    0    0  501    0  0.00000000000E+00  0.00000000000E+00 -0.13244923756E+04  0.13244923756E+04  0.50400001928E-02 0.  1.
    10030    2    1    2    0    0  0.00000000000E+00  0.00000000000E+00 -0.94874768325E+03  0.17002370680E+04  0.14109159865E+04 0.  0.
        1    1    3    3  502    0  0.95395160428E+02  0.49027589346E+03  0.12598300794E+03  0.51511397443E+03  0.50400001928E-02 0. -1.
       -1    1    3    3    0  502 -0.95395160428E+02 -0.49027589346E+03 -0.10747306912E+04  0.11851230936E+04  0.50400001928E-02 0.  1.
</event>
<event>
 5   0  0.6114266E-04  0.1409658E+04  0.7818609E-02  0.8946857E-01
       -1   -1    0    0    0  501  0.00000000000E+00  0.00000000000E+00  0.42773998963E+03  0.42773998966E+03  0.50400001928E-02 0. -1.
        1   -1    0    0  501    0  0.00000000000E+00  0.00000000000E+00 -0.11614150117E+04  0.11614150117E+04  0.50400001928E-02 0.  1.
    10030    2    1    2    0    0  0.00000000000E+00  0.00000000000E+00 -0.73367502206E+03  0.15891550014E+04  0.14096576110E+04 0.  0.
        3    1    3    3  502    0 -0.15184735097E+03  0.64746169834E+03 -0.10361197595E+03  0.67305253924E+03  0.10100000352E+00 0. -1.
       -3    1    3    3    0  502  0.15184735097E+03 -0.64746169834E+03 -0.63006304611E+03  0.91610246212E+03  0.10100000352E+00 0.  1.
</event>
<event>
 5   0  0.1098949E-03  0.1379486E+04  0.7818609E-02  0.8968803E-01
        2   -1    0    0  501    0  0.00000000000E+00  0.00000000000E+00  0.80254722953E+03  0.80254722954E+03  0.25500000920E-02 0. -1.
       -2   -1    0    0    0  501  0.00000000000E+00  0.00000000000E+00 -0.59279387043E+03  0.59279387044E+03  0.25500000920E-02 0.  1.
    10030    2    1    2    0    0  0.00000000000E+00  0.00000000000E+00  0.20975335910E+03  0.13953411000E+04  0.13794855250E+04 0.  0.
        4    1    3    3  502    0  0.61290171364E+03  0.17782014677E+03 -0.15980818135E+03  0.65788204331E+03  0.12699999809E+01 0.  1.
       -4    1    3    3    0  502 -0.61290171364E+03 -0.17782014677E+03  0.36956154045E+03  0.73745905667E+03  0.12699999809E+01 0. -1.
</event>
<event>
 5   0  0.1098949E-03  0.1361659E+04  0.7818609E-02  0.8982049E-01
        2   -1    0    0  501    0  0.00000000000E+00  0.00000000000E+00  0.12819534763E+04  0.12819534763E+04  0.25500000920E-02 0.  1.
       -2   -1    0    0    0  501  0.00000000000E+00  0.00000000000E+00 -0.36158001724E+03  0.36158001725E+03  0.25500000920E-02 0. -1.
    10030    2    1    2    0    0  0.00000000000E+00  0.00000000000E+00  0.92037345903E+03  0.16435334935E+04  0.13616589295E+04 0.  0.
        4    1    3    3  502    0  0.84907936667E+02  0.30627006838E+03 -0.26654491374E+03  0.41479936890E+03  0.12699999809E+01 0. -1.
       -4    1    3    3    0  502 -0.84907936667E+02 -0.30627006838E+03  0.11869183728E+04  0.12287341246E+04  0.12699999809E+01 0.  1.
</event>
<event>
 5   0  0.1175146E-03  0.1423103E+04  0.7818609E-02  0.8937263E-01
        2   -1    0    0  501    0  0.00000000000E+00  0.00000000000E+00  0.98426737019E+03  0.98426737020E+03  0.25500000920E-02 0. -1.
       -2   -1    0    0    0  501  0.00000000000E+00  0.00000000000E+00 -0.51439814393E+03  0.51439814394E+03  0.25500000920E-02 0.  1.
    10030    2    1    2    0    0  0.00000000000E+00  0.00000000000E+00  0.46986922626E+03  0.14986655141E+04  0.14231026785E+04 0.  0.
        1    1    3    3  502    0 -0.67621728691E+03  0.16317877332E+03  0.39257654289E+03  0.79875745582E+03  0.50400001928E-02 0. -1.
       -1    1    3    3    0  502  0.67621728691E+03 -0.16317877332E+03  0.77292683371E+02  0.69990805832E+03  0.50400001928E-02 0.  1.
</event>
<event>
 5   0  0.4176125E-04  0.1205160E+04  0.7818609E-02  0.9108352E-01
       -4   -1    0    0    0  501  0.00000000000E+00  0.00000000000E+00  0.31128355877E+03  0.31128614948E+03  0.12699999809E+01 0. -1.
        4   -1    0    0  501    0  0.00000000000E+00  0.00000000000E+00 -0.11664603692E+04  0.11664610605E+04  0.12699999809E+01 0.  1.
    10030    2    1    2    0    0  0.00000000000E+00  0.00000000000E+00 -0.85517681042E+03  0.14777472100E+04  0.12051595080E+04 0.  0.
        2    1    3    3  502    0  0.29286832280E+03  0.39499232553E+03 -0.85466593791E+03  0.98602467371E+03  0.25500000920E-02 0.  1.
       -2    1    3    3    0  502 -0.29286832280E+03 -0.39499232553E+03 -0.51087250393E+00  0.49172253632E+03  0.25500000920E-02 0. -1.
</event>
<event>
 5   0  0.6114266E-04  0.1406641E+04  0.7818609E-02  0.8949025E-01
        1   -1    0    0  501    0  0.00000000000E+00  0.00000000000E+00  0.12353772985E+04  0.12353772985E+04  0.50400001928E-02 0. -1.
       -1   -1    0    0    0  501  0.00000000000E+00  0.00000000000E+00 -0.40041210683E+03  0.40041210687E+03  0.50400001928E-02 0.  1.
    10030    2    1    2    0    0  0.00000000000E+00  0.00000000000E+00  0.83496519162E+03  0.16357894053E+04  0.14066414281E+04 0.  0.
        3    1    3    3  502    0 -0.66231125377E+03 -0.33331617196E+02  0.14502321187E+03  0.67882172604E+03  0.10100000352E+00 0.  1.
       -3    1    3    3    0  502  0.66231125377E+03  0.33331617196E+02  0.68994197975E+03  0.95696767928E+03  0.10100000352E+00 0. -1.
</event>
<event>
 5   0  0.5875298E-04  0.1394218E+04  0.7818609E-02  0.8958014E-01
       -1   -1    0    0    0  501  0.00000000000E+00  0.00000000000E+00  0.64024355990E+03  0.64024355992E+03  0.50400001928E-02 0.  1.
        1   -1    0    0  501    0  0.00000000000E+00  0.00000000000E+00 -0.75902524287E+03  0.75902524288E+03  0.50400001928E-02 0. -1.
    10030    2    1    2    0    0  0.00000000000E+00  0.00000000000E+00 -0.11878168297E+03  0.13992688028E+04  0.13942180942E+04 0.  0.
        1    1    3    3  502    0  0.37778888429E+03 -0.55269085963E+03 -0.25443837258E+03  0.71619167328E+03  0.50400001928E-02 0. -1.
       -1    1    3    3    0  502 -0.37778888429E+03  0.55269085963E+03  0.13565668961E+03  0.68307712952E+03  0.50400001928E-02 0.  1.
</event>
<event>
 5   0  0.1120053E-03  0.1410996E+04  0.7818609E-02  0.8945897E-01
        2   -1    0    0  501    0  0.00000000000E+00  0.00000000000E+00  0.11466475887E+04  0.11466475887E+04  0.25500000920E-02 0. -1.
       -2   -1    0    0    0  501  0.00000000000E+00  0.00000000000E+00 -0.43407211774E+03  0.43407211775E+03  0.25500000920E-02 0.  1.
    10030    2    1    2    0    0  0.00000000000E+00  0.00000000000E+00  0.71257547091E+03  0.15807197064E+04  0.14109964523E+04 0.  0.
        2    1    3    3  502    0  0.10336074270E+03 -0.49338431393E+03  0.90923287938E+03  0.10396229861E+04  0.25500000920E-02 0. -1.
       -2    1    3    3    0  502 -0.10336074270E+03  0.49338431393E+03 -0.19665740847E+03  0.54109672026E+03  0.25500000920E-02 0.  1.
</event>
<event>
 5   0  0.6153318E-04  0.1395933E+04  0.7818609E-02  0.8956768E-01
       -1   -1    0    0    0  501  0.00000000000E+00  0.00000000000E+00  0.47365465093E+03  0.47365465095E+03  0.50400001928E-02 0.  1.
        1   -1    0    0  501    0  0.00000000000E+00  0.00000000000E+00 -0.10285073981E+04  0.10285073981E+04  0.50400001928E-02 0. -1.
    10030    2    1    2    0    0  0.00000000000E+00  0.00000000000E+00 -0.55485274720E+03  0.15021620491E+04  0.13959331111E+04 0.  0.
        5    1    3    3  502    0  0.15604448769E+02 -0.17857497562E+03  0.44844415670E+03  0.48296663696E+03  0.46999998093E+01 0.  1.
       -5    1    3    3    0  502 -0.15604448769E+02  0.17857497562E+03 -0.10032969039E+04  0.10191954121E+04  0.46999998093E+01 0. -1.
</event>
<event>
 5   0  0.6114266E-04  0.1361976E+04  0.7818609E-02  0.8981811E-01
       -1   -1    0    0    0  501  0.00000000000E+00  0.00000000000E+00  0.56461872797E+03  0.56461872799E+03  0.50400001928E-02 0. -1.
        1   -1    0    0  501    0  0.00000000000E+00  0.00000000000E+00 -0.82134179494E+03  0.82134179495E+03  0.50400001928E-02 0.  1.
    10030    2    1    2    0    0  0.00000000000E+00  0.00000000000E+00 -0.25672306697E+03  0.13859605229E+04  0.13619764455E+04 0.  0.
        3    1    3    3  502    0 -0.29029110276E+03  0.20483622148E+03 -0.71955527470E+03  0.80248776035E+03  0.10100000352E+00 0.  1.
       -3    1    3    3    0  502  0.29029110276E+03 -0.20483622148E+03  0.46283220772E+03  0.58347276259E+03  0.10100000352E+00 0. -1.
</event>
<event>
 5   0  0.6097538E-04  0.1393742E+04  0.7818609E-02  0.8958361E-01
       -1   -1    0    0    0  501  0.00000000000E+00  0.00000000000E+00  0.53645590509E+03  0.53645590512E+03  0.50400001928E-02 0.  1.
        1   -1    0    0  501    0  0.00000000000E+00  0.00000000000E+00 -0.90525399529E+03  0.90525399531E+03  0.50400001928E-02 0. -1.
    10030    2    1    2    0    0  0.00000000000E+00  0.00000000000E+00 -0.36879809020E+03  0.14417099004E+04  0.13937415132E+04 0.  0.
        2    1    3    3  502    0 -0.64387656836E+03  0.19613113455E+03  0.23250959583E+01  0.67308978844E+03  0.25500000920E-02 0.  1.
       -2    1    3    3    0  502  0.64387656836E+03 -0.19613113455E+03 -0.37112318616E+03  0.76862011198E+03  0.25500000920E-02 0. -1.
</event>
<event>
 5   0  0.1120053E-03  0.1394500E+04  0.7818609E-02  0.8957809E-01
       -2   -1    0    0    0  501  0.00000000000E+00  0.00000000000E+00  0.29253442864E+03  0.29253442866E+03  0.25500000920E-02 0.  1.
        2   -1    0    0  501    0  0.00000000000E+00  0.00000000000E+00 -0.16618824565E+04  0.16618824565E+04  0.25500000920E-02 0. -1.
    10030    2    1    2    0    0  0.00000000000E+00  0.00000000000E+00 -0.13693480279E+04  0.19544168852E+04  0.13945003907E+04 0.  0.
        2    1    3    3  502    0  0.18153186094E+03 -0.22959778896E+03  0.20226507071E+03  0.35578100015E+03  0.25500000920E-02 0.  1.
       -2    1    3    3    0  502 -0.18153186094E+03  0.22959778896E+03 -0.15716130986E+04  0.15986358850E+04  0.25500000920E-02 0. -1.
</event>
<event>
 5   0  0.1095119E-03  0.1399490E+04  0.7818609E-02  0.8954188E-01
       -2   -1    0    0    0  501  0.00000000000E+00  0.00000000000E+00  0.40921217714E+03  0.40921217715E+03  0.25500000920E-02 0.  1.
        2   -1    0    0  501    0  0.00000000000E+00  0.00000000000E+00 -0.11965512549E+04  0.11965512549E+04  0.25500000920E-02 0. -1.
    10030    2    1    2    0    0  0.00000000000E+00  0.00000000000E+00 -0.78733907777E+03  0.16057634321E+04  0.13994903988E+04 0.  0.
        5    1    3    3  502    0  0.63397402089E+03 -0.22387502785E+03 -0.61609240633E+03  0.91194025593E+03  0.46999998093E+01 0. -1.
       -5    1    3    3    0  502 -0.63397402089E+03  0.22387502785E+03 -0.17124667144E+03  0.69382317613E+03  0.46999998093E+01 0.  1.
</event>
<event>
 5   0  0.6153318E-04  0.1390942E+04  0.7818609E-02  0.8960401E-01
        1   -1    0    0  501    0  0.00000000000E+00  0.00000000000E+00  0.68429427410E+03  0.68429427412E+03  0.50400001928E-02 0. -1.
       -1   -1    0    0    0  501  0.00000000000E+00  0.00000000000E+00 -0.70683048729E+03  0.70683048731E+03  0.50400001928E-02 0.  1.
    10030    2    1    2    0    0  0.00000000000E+00  0.00000000000E+00 -0.22536213185E+02  0.13911247614E+04  0.13909422062E+04 0.  0.
        5    1    3    3  502    0 -0.49619242143E+03 -0.13150269781E+03  0.45800354185E+03  0.68796018269E+03  0.46999998093E+01 0. -1.
       -5    1    3    3    0  502  0.49619242143E+03  0.13150269781E+03 -0.48053975504E+03  0.70316457874E+03  0.46999998093E+01 0.  1.
</event>
<event>
 5   0  0.5875298E-04  0.1395896E+04  0.7818609E-02  0.8956795E-01
       -1   -1    0    0    0  501  0.00000000000E+00  0.00000000000E+00  0.67678694647E+03  0.67678694649E+03  0.50400001928E-02 0. -1.
        1   -1    0    0  501    0  0.00000000000E+00  0.00000000000E+00 -0.71977079819E+03  0.71977079821E+03  0.50400001928E-02 0.  1.
    10030    2    1    2    0    0  0.00000000000E+00  0.00000000000E+00 -0.42983851723E+02  0.13965577447E+04  0.13958961003E+04 0.  0.
        1    1    3    3  502    0  0.55936081737E+03 -0.38812490959E+03 -0.17520722979E+03  0.70300998773E+03  0.50400001928E-02 0.  1.
       -1    1    3    3    0  502 -0.55936081737E+03  0.38812490959E+03  0.13222337806E+03  0.69354775696E+03  0.50400001928E-02 0. -1.
</event>
<event>
 5   0  0.6114266E-04  0.1372168E+04  0.7818609E-02  0.8974215E-01
        1   -1    0    0  501    0  0.00000000000E+00  0.00000000000E+00  0.11494193960E+04  0.11494193960E+04  0.50400001928E-02 0. -1.
       -1   -1    0    0    0  501  0.00000000000E+00  0.00000000000E+00 -0.40952098592E+03  0.40952098595E+03  0.50400001928E-02 0.  1.
    10030    2    1    2    0    0  0.00000000000E+00  0.00000000000E+00  0.73989841010E+03  0.15589403820E+04  0.13721681593E+04 0.  0.
        3    1    3    3  502    0 -0.63885678387E+03  0.19855755090E+03  0.54280397629E+03  0.86150987121E+03  0.10100000352E+00 0.  1.
       -3    1    3    3    0  502  0.63885678387E+03 -0.19855755090E+03  0.19709443382E+03  0.69743051077E+03  0.10100000352E+00 0. -1.
</event>
<event>
 5   0  0.1095119E-03  0.1405111E+04  0.7818609E-02  0.8950128E-01
       -2   -1    0    0    0  501  0.00000000000E+00  0.00000000000E+00  0.39377772602E+03  0.39377772603E+03  0.25500000920E-02 0.  1.
        2   -1    0    0  501    0  0.00000000000E+00  0.00000000000E+00 -0.12534583193E+04  0.12534583193E+04  0.25500000920E-02 0. -1.
    10030    2    1    2    0    0  0.00000000000E+00  0.00000000000E+00 -0.85968059331E+03  0.16472360454E+04  0.14051106243E+04 0.  0.
        5    1    3    3  502    0  0.10959717862E+03 -0.30226484932E+03  0.30244670540E+03  0.44144272596E+03  0.46999998093E+01 0.  1.
       -5    1    3    3    0  502 -0.10959717862E+03  0.30226484932E+03 -0.11621272987E+04  0.12057933194E+04  0.46999998093E+01 0. -1.
</event>
<event>
 5   0  0.4176125E-04  0.1408342E+04  0.7818609E-02  0.8947803E-01
       -3   -1    0    0    0  501  0.00000000000E+00  0.00000000000E+00  0.42147159383E+03  0.42147160594E+03  0.10100000352E+00 0. -1.
        3   -1    0    0  501    0  0.00000000000E+00  0.00000000000E+00 -0.11764884890E+04  0.11764884934E+04  0.10100000352E+00 0.  1.
    10030    2    1    2    0    0  0.00000000000E+00  0.00000000000E+00 -0.75501689519E+03  0.15979600993E+04  0.14083415661E+04 0.  0.
        4    1    3    3  502    0 -0.64929600929E+03 -0.26555136692E+03 -0.30800732521E+03  0.76614160665E+03  0.12699999809E+01 0. -1.
       -4    1    3    3    0  502  0.64929600929E+03  0.26555136692E+03 -0.44700956998E+03  0.83181849264E+03  0.12699999809E+01 0.  1.
</event>
<event>
 5   0  0.1120053E-03  0.1403811E+04  0.7818609E-02  0.8951064E-01
        2   -1    0    0  501    0  0.00000000000E+00  0.00000000000E+00  0.13942662482E+04  0.13942662482E+04  0.25500000920E-02 0. -1.
       -2   -1    0    0    0  501  0.00000000000E+00  0.00000000000E+00 -0.35335542488E+03  0.35335542489E+03  0.25500000920E-02 0.  1.
    10030    2    1    2    0    0  0.00000000000E+00  0.00000000000E+00  0.10409108233E+04  0.17476216731E+04  0.14038113015E+04 0.  0.
        2    1    3    3  502    0 -0.25275050280E+03  0.46709092193E+03  0.10917802784E+04  0.12141008699E+04  0.25500000920E-02 0. -1.
       -2    1    3    3    0  502  0.25275050280E+03 -0.46709092193E+03 -0.50869455021E+02  0.53352080323E+03  0.25500000920E-02 0.  1.
</event>
<event>
 5   0  0.1120053E-03  0.1384137E+04  0.7818609E-02  0.8965382E-01
        2   -1    0    0  501    0  0.00000000000E+00  0.00000000000E+00  0.86855217396E+03  0.86855217397E+03  0.25500000920E-02 0. -1.
       -2   -1    0    0    0  501  0.00000000000E+00  0.00000000000E+00 -0.55144479037E+03  0.55144479037E+03  0.25500000920E-02 0.  1.
    10030    2    1    2    0    0  0.00000000000E+00  0.00000000000E+00  0.31710738359E+03  0.14199969643E+04  0.13841366573E+04 0.  0.
        2    1    3    3  502    0 -0.26576231189E+03  0.49474710317E+03 -0.25634244163E+03  0.61734572964E+03  0.25500000920E-02 0.  1.
       -2    1    3    3    0  502  0.26576231189E+03 -0.49474710317E+03  0.57344982523E+03  0.80265123470E+03  0.25500000920E-02 0. -1.
</event>
<event>
 5   0  0.1095119E-03  0.1400017E+04  0.7818609E-02  0.8953806E-01
       -2   -1    0    0    0  501  0.00000000000E+00  0.00000000000E+00  0.24856599147E+03  0.24856599148E+03  0.25500000920E-02 0.  1.
        2   -1    0    0  501    0  0.00000000000E+00  0.00000000000E+00 -0.19713560267E+04  0.19713560267E+04  0.25500000920E-02 0. -1.
    10030    2    1    2    0    0  0.00000000000E+00  0.00000000000E+00 -0.17227900352E+04  0.22199220182E+04  0.14000172361E+04 0.  0.
        5    1    3    3  502    0  0.40131929697E+03 -0.22311509859E+03 -0.23624528223E+02  0.45980184174E+03  0.46999998093E+01 0.  1.
       -5    1    3    3    0  502 -0.40131929697E+03  0.22311509859E+03 -0.16991655070E+04  0.17601201765E+04  0.46999998093E+01 0. -1.
</event>
<event>
 5   0  0.1175146E-03  0.1406368E+04  0.7818609E-02  0.8949222E-01
       -2   -1    0    0    0  501  0.00000000000E+00  0.00000000000E+00  0.17112356808E+04  0.17112356808E+04  0.25500000920E-02 0.  1.
        2   -1    0    0  501    0  0.00000000000E+00  0.00000000000E+00 -0.28895367662E+03  0.28895367663E+03  0.25500000920E-02 0. -1.
    10030    2    1    2    0    0  0.00000000000E+00  0.00000000000E+00  0.14222820042E+04  0.20001893574E+04  0.14063681475E+04 0.  0.
        1    1    3    3  502    0  0.31371440991E+03 -0.59668551993E+03  0.42663130588E+03  0.79778732245E+03  0.50400001928E-02 0.  1.
       -1    1    3    3    0  502 -0.31371440991E+03  0.59668551993E+03  0.99565069830E+03  0.12024020350E+04  0.50400001928E-02 0. -1.
</event>
<event>
 5   0  0.1120053E-03  0.1372785E+04  0.7818609E-02  0.8973757E-01
        2   -1    0    0  501    0  0.00000000000E+00  0.00000000000E+00  0.53598164061E+03  0.53598164062E+03  0.25500000920E-02 0.  1.
       -2   -1    0    0    0  501  0.00000000000E+00  0.00000000000E+00 -0.87901312199E+03  0.87901312200E+03  0.25500000920E-02 0. -1.
    10030    2    1    2    0    0  0.00000000000E+00  0.00000000000E+00 -0.34303148138E+03  0.14149947626E+04  0.13727853368E+04 0.  0.
        2    1    3    3  502    0  0.39347238654E+03 -0.49456646142E+03 -0.44755285019E+03  0.77441594602E+03  0.25500000920E-02 0. -1.
       -2    1    3    3    0  502 -0.39347238654E+03  0.49456646142E+03  0.10452136881E+03  0.64057881660E+03  0.25500000920E-02 0.  1.
</event>
<event>
 5   0  0.1175146E-03  0.1387483E+04  0.7818609E-02  0.8962929E-01
       -2   -1    0    0    0  501  0.00000000000E+00  0.00000000000E+00  0.40971004888E+03  0.40971004889E+03  0.25500000920E-02 0. -1.
        2   -1    0    0  501    0  0.00000000000E+00  0.00000000000E+00 -0.11746783930E+04  0.11746783930E+04  0.25500000920E-02 0.  1.
    10030    2    1    2    0    0  0.00000000000E+00  0.00000000000E+00 -0.76496834412E+03  0.15843884419E+04  0.13874833935E+04 0.  0.
        1    1    3    3  502    0  0.14487929714E+03 -0.38337710265E+03  0.25669214210E+03  0.48358956712E+03  0.50400001928E-02 0. -1.
       -1    1    3    3    0  502 -0.14487929714E+03  0.38337710265E+03 -0.10216604862E+04  0.11007988748E+04  0.50400001928E-02 0.  1.
</event>
<event>
 5   0  0.6194742E-04  0.1396175E+04  0.7818609E-02  0.8956592E-01
        1   -1    0    0  501    0  0.00000000000E+00  0.00000000000E+00  0.95251352475E+03  0.95251352477E+03  0.50400001928E-02 0.  1.
       -1   -1    0    0    0  501  0.00000000000E+00  0.00000000000E+00 -0.51162131898E+03  0.51162131900E+03  0.50400001928E-02 0. -1.
    10030    2    1    2    0    0  0.00000000000E+00  0.00000000000E+00  0.44089220578E+03  0.14641348438E+04  0.13961750978E+04 0.  0.
        4    1    3    3  502    0  0.18365889595E+03 -0.31674110243E+03 -0.40284942754E+03  0.54437559662E+03  0.12699999809E+01 0. -1.
       -4    1    3    3    0  502 -0.18365889595E+03  0.31674110243E+03  0.84374163332E+03  0.91975924715E+03  0.12699999809E+01 0.  1.
</event>
<event>
 5   0  0.6194742E-04  0.1409150E+04  0.7818609E-02  0.8947222E-01
       -1   -1    0    0    0  501  0.00000000000E+00  0.00000000000E+00  0.16658309440E+04  0.16658309440E+04  0.50400001928E-02 0.  1.
        1   -1    0    0  501    0  0.00000000000E+00  0.00000000000E+00 -0.29800492628E+03  0.29800492632E+03  0.50400001928E-02 0. -1.
    10030    2    1    2    0    0  0.00000000000E+00  0.00000000000E+00  0.13678260177E+04  0.19638358703E+04  0.14091498539E+04 0.  0.
        4    1    3    3  502    0  0.50905755519E+03 -0.15324006426E+03  0.39515289438E+02  0.53309022012E+03  0.12699999809E+01 0. -1.
       -4    1    3    3    0  502 -0.50905755519E+03  0.15324006426E+03  0.13283107283E+04  0.14307456502E+04  0.12699999809E+01 0.  1.
</event>
<event>
 5   0  0.6194742E-04  0.1416601E+04  0.7818609E-02  0.8941889E-01
       -1   -1    0    0    0  501  0.00000000000E+00  0.00000000000E+00  0.40084051247E+03  0.40084051251E+03  0.50400001928E-02 0. -1.
        1   -1    0    0  501    0  0.00000000000E+00  0.00000000000E+00 -0.12515940790E+04  0.12515940790E+04  0.50400001928E-02 0.  1.
    10030    2    1    2    0    0  0.00000000000E+00  0.00000000000E+00 -0.85075356655E+03  0.16524345915E+04  0.14166010195E+04 0.  0.
        4    1    3    3  502    0 -0.18685335926E+03 -0.37773487040E+03 -0.10894403746E+04  0.11681094782E+04  0.12699999809E+01 0.  1.
       -4    1    3    3    0  502  0.18685335926E+03  0.37773487040E+03  0.23868680810E+03  0.48432511337E+03  0.12699999809E+01 0. -1.
</event>
<event>
 5   0  0.1098949E-03  0.1413601E+04  0.7818609E-02  0.8944032E-01
        2   -1    0    0  501    0  0.00000000000E+00  0.00000000000E+00  0.15049802792E+04  0.15049802792E+04  0.25500000920E-02 0.  1.
       -2   -1    0    0    0  501  0.00000000000E+00  0.00000000000E+00 -0.33194259317E+03  0.33194259318E+03  0.25500000920E-02 0. -1.
    10030    2    1    2    0    0  0.00000000000E+00  0.00000000000E+00  0.11730376861E+04  0.18369228724E+04  0.14136011553E+04 0.  0.
        4    1    3    3  502    0 -0.63378661274E+03 -0.31280654053E+03  0.59387446948E+03  0.92315865413E+03  0.12699999809E+01 0.  1.
       -4    1    3    3    0  502  0.63378661274E+03  0.31280654053E+03  0.57916321659E+03  0.91376421830E+03  0.12699999809E+01 0. -1.
</event>
<event>
 5   0  0.6153318E-04  0.1381490E+04  0.7818609E-02  0.8967327E-01
        1   -1    0    0  501    0  0.00000000000E+00  0.00000000000E+00  0.63735791111E+03  0.63735791113E+03  0.50400001928E-02 0.  1.
       -1   -1    0    0    0  501  0.00000000000E+00  0.00000000000E+00 -0.74860400522E+03  0.74860400524E+03  0.50400001928E-02 0. -1.
    10030    2    1    2    0    0  0.00000000000E+00  0.00000000000E+00 -0.11124609411E+03  0.13859619164E+04  0.13814900435E+04 0.  0.
        5    1    3    3  502    0  0.18031290553E+02  0.59326895791E+03  0.29880996375E+03  0.66453191668E+03  0.46999998093E+01 0.  1.
       -5    1    3    3    0  502 -0.18031290553E+02 -0.59326895791E+03 -0.41005605786E+03  0.72142999968E+03  0.46999998093E+01 0. -1.
</event>
<event>
 5   0  0.6097538E-04  0.1418217E+04  0.7818609E-02  0.8940737E-01
       -1   -1    0    0    0  501  0.00000000000E+00  0.00000000000E+00  0.35390436726E+03  0.35390436729E+03  0.50400001928E-02 0.  1.
        1   -1    0    0  501    0  0.00000000000E+00  0.00000000000E+00 -0.14208210161E+04  0.14208210161E+04  0.50400001928E-02 0. -1.
    10030    2    1    2    0    0  0.00000000000E+00  0.00000000000E+00 -0.10669166489E+04  0.17747253834E+04  0.14182168561E+04 0.  0.
        2    1    3    3  502    0  0.56823282023E+03 -0.15115536362E+03 -0.10294498249E+04  0.11855392967E+04  0.25500000920E-02 0. -1.
       -2    1    3    3    0  502 -0.56823282023E+03  0.15115536362E+03 -0.37466823972E+02  0.58918608677E+03  0.25500000920E-02 0.  1.
</event>
<event>
 5   0  0.6194742E-04  0.1400529E+04  0.7818609E-02  0.8953436E-01
        1   -1    0    0  501    0  0.00000000000E+00  0.00000000000E+00  0.92586897731E+03  0.92586897733E+03  0.50400001928E-02 0. -1.
       -1   -1    0    0    0  501  0.00000000000E+00  0.00000000000E+00 -0.52963220108E+03  0.52963220111E+03  0.50400001928E-02 0.  1.
    10030    2    1    2    0    0  0.00000000000E+00  0.00000000000E+00  0.39623677623E+03  0.14555011784E+04  0.14005285065E+04 0.  0.
        4    1    3    3  502    0  0.31887194626E+02  0.48788666482E+03  0.71911223785E+03  0.86958278181E+03  0.12699999809E+01 0. -1.
       -4    1    3    3    0  502 -0.31887194626E+02 -0.48788666482E+03 -0.32287546162E+03  0.58591839663E+03  0.12699999809E+01 0.  1.
</event>
<event>
 5   0  0.6194742E-04  0.1432935E+04  0.7818609E-02  0.8930317E-01
        1   -1    0    0  501    0  0.00000000000E+00  0.00000000000E+00  0.78194994352E+03  0.78194994353E+03  0.50400001928E-02 0. -1.
       -1   -1    0    0    0  501  0.00000000000E+00  0.00000000000E+00 -0.65646887414E+03  0.65646887416E+03  0.50400001928E-02 0.  1.
    10030    2    1    2    0    0  0.00000000000E+00  0.00000000000E+00  0.12548106938E+03  0.14384188177E+04  0.14329351682E+04 0.  0.
        4    1    3    3  502    0  0.68635929365E+03 -0.18454043431E+03  0.15352963703E+03  0.72712943430E+03  0.12699999809E+01 0. -1.
       -4    1    3    3    0  502 -0.68635929365E+03  0.18454043431E+03 -0.28048567652E+02  0.71128938339E+03  0.12699999809E+01 0.  1.
</event>
<event>
 5   0  0.1108819E-03  0.1403469E+04  0.7818609E-02  0.8951311E-01
       -2   -1    0    0    0  501  0.00000000000E+00  0.00000000000E+00  0.52971915216E+03  0.52971915217E+03  0.25500000920E-02 0.  1.
        2   -1    0    0  501    0  0.00000000000E+00  0.00000000000E+00 -0.92960811834E+03  0.92960811835E+03  0.25500000920E-02 0. -1.
    10030    2    1    2    0    0  0.00000000000E+00  0.00000000000E+00 -0.39988896618E+03  0.14593272705E+04  0.14034688800E+04 0.  0.
        3    1    3    3  502    0  0.17284250274E+03  0.96874834787E+02 -0.89991769714E+03  0.92147226556E+03  0.10100000352E+00 0. -1.
       -3    1    3    3    0  502 -0.17284250274E+03 -0.96874834787E+02  0.50002873096E+03  0.53785500496E+03  0.10100000352E+00 0.  1.
</event>
<event>
 5   0  0.6097538E-04  0.1390360E+04  0.7818609E-02  0.8960826E-01
        1   -1    0    0  501    0  0.00000000000E+00  0.00000000000E+00  0.12835264810E+04  0.12835264810E+04  0.50400001928E-02 0. -1.
       -1   -1    0    0    0  501  0.00000000000E+00  0.00000000000E+00 -0.37652133541E+03  0.37652133545E+03  0.50400001928E-02 0.  1.
    10030    2    1    2    0    0  0.00000000000E+00  0.00000000000E+00  0.90700514557E+03  0.16600478164E+04  0.13903598163E+04 0.  0.
        2    1    3    3  502    0 -0.17962557221E+03  0.47006125564E+03 -0.11917023442E+03  0.51713100374E+03  0.25500000920E-02 0.  1.
       -2    1    3    3    0  502  0.17962557221E+03 -0.47006125564E+03  0.10261753800E+04  0.11429168127E+04  0.25500000920E-02 0. -1.
</event>
<event>
 5   0  0.1108819E-03  0.1400629E+04  0.7818609E-02  0.8953363E-01
       -2   -1    0    0    0  501  0.00000000000E+00  0.00000000000E+00  0.49030110083E+03  0.49030110083E+03  0.25500000920E-02 0.  1.
        2   -1    0    0  501    0  0.00000000000E+00  0.00000000000E+00 -0.10002846815E+04  0.10002846815E+04  0.25500000920E-02 0. -1.
    10030    2    1    2    0    0  0.00000000000E+00  0.00000000000E+00 -0.50998358064E+03  0.14905857823E+04  0.14006294021E+04 0.  0.
        3    1    3    3  502    0  0.66231695887E+03  0.56532783213E+02 -0.20424859706E+02  0.66503901741E+03  0.10100000352E+00 0.  1.
       -3    1    3    3    0  502 -0.66231695887E+03 -0.56532783213E+02 -0.48955872094E+03  0.82554676490E+03  0.10100000352E+00 0. -1.
</event>
<event>
 5   0  0.6153318E-04  0.1414970E+04  0.7818609E-02  0.8943053E-01
       -1   -1    0    0    0  501  0.00000000000E+00  0.00000000000E+00  0.13380504556E+04  0.13380504557E+04  0.50400001928E-02 0.  1.
        1   -1    0    0  501    0  0.00000000000E+00  0.00000000000E+00 -0.37407769150E+03  0.37407769153E+03  0.50400001928E-02 0. -1.
    10030    2    1    2    0    0  0.00000000000E+00  0.00000000000E+00  0.96397276415E+03  0.17121281472E+04  0.14149697178E+04 0.  0.
        5    1    3    3  502    0  0.21622659069E+03 -0.11716477861E+03  0.12846449812E+04  0.13079817818E+04  0.46999998093E+01 0.  1.
       -5    1    3    3    0  502 -0.21622659069E+03  0.11716477861E+03 -0.32067221704E+03  0.40414636537E+03  0.46999998093E+01 0. -1.
</event>
<event>
 5   0  0.1108819E-03  0.1405195E+04  0.7818609E-02  0.8950066E-01
        2   -1    0    0  501    0  0.00000000000E+00  0.00000000000E+00  0.72391807533E+03  0.72391807534E+03  0.25500000920E-02 0. -1.
       -2   -1    0    0    0  501  0.00000000000E+00  0.00000000000E+00 -0.68190514221E+03  0.68190514222E+03  0.25500000920E-02 0.  1.
    10030    2    1    2    0    0  0.00000000000E+00  0.00000000000E+00  0.42012933119E+02  0.14058232176E+04  0.14051953005E+04 0.  0.
        3    1    3    3  502    0 -0.14326506373E+03  0.35488390173E+03  0.61048617697E+03  0.72052817062E+03  0.10100000352E+00 0. -1.
       -3    1    3    3    0  502  0.14326506373E+03 -0.35488390173E+03 -0.56847324385E+03  0.68529504694E+03  0.10100000352E+00 0.  1.
</event>
<event>
 5   0  0.6114266E-04  0.1389942E+04  0.7818609E-02  0.8961131E-01
       -1   -1    0    0    0  501  0.00000000000E+00  0.00000000000E+00  0.83248965785E+03  0.83248965787E+03  0.50400001928E-02 0.  1.
        1   -1    0    0  501    0  0.00000000000E+00  0.00000000000E+00 -0.58016918186E+03  0.58016918188E+03  0.50400001928E-02 0. -1.
    10030    2    1    2    0    0  0.00000000000E+00  0.00000000000E+00  0.25232047600E+03  0.14126588397E+04  0.13899422200E+04 0.  0.
        3    1    3    3  502    0  0.14490670580E+03  0.31407613807E+03  0.73879125210E+03  0.81575382210E+03  0.10100000352E+00 0.  1.
       -3    1    3    3    0  502 -0.14490670580E+03 -0.31407613807E+03 -0.48647077610E+03  0.59690501765E+03  0.10100000352E+00 0. -1.
</event>
<event>
 5   0  0.6153318E-04  0.1386106E+04  0.7818609E-02  0.8963938E-01
        1   -1    0    0  501    0  0.00000000000E+00  0.00000000000E+00  0.11141803977E+04  0.11141803977E+04  0.50400001928E-02 0.  1.
       -1   -1    0    0    0  501  0.00000000000E+00  0.00000000000E+00 -0.43109919945E+03  0.43109919948E+03  0.50400001928E-02 0. -1.
    10030    2    1    2    0    0  0.00000000000E+00  0.00000000000E+00  0.68308119820E+03  0.15452795971E+04  0.13861057355E+04 0.  0.
        5    1    3    3  502    0 -0.48051539186E+03  0.30481502067E+02 -0.21417546894E+03  0.52698898023E+03  0.46999998093E+01 0. -1.
       -5    1    3    3    0  502  0.48051539186E+03 -0.30481502067E+02  0.89725666714E+03  0.10182906169E+04  0.46999998093E+01 0.  1.
</event>
<event>
 5   0  0.1095119E-03  0.1419830E+04  0.7818609E-02  0.8939588E-01
        2   -1    0    0  501    0  0.00000000000E+00  0.00000000000E+00  0.86409626953E+03  0.86409626954E+03  0.25500000920E-02 0. -1.
       -2   -1    0    0    0  501  0.00000000000E+00  0.00000000000E+00 -0.58324424493E+03  0.58324424494E+03  0.25500000920E-02 0.  1.
    10030    2    1    2    0    0  0.00000000000E+00  0.00000000000E+00  0.28085202460E+03  0.14473405145E+04  0.14198298155E+04 0.  0.
        5    1    3    3  502    0 -0.48222408701E+03  0.50548910566E+03  0.26895546912E+03  0.74861100740E+03  0.46999998093E+01 0. -1.
       -5    1    3    3    0  502  0.48222408701E+03 -0.50548910566E+03  0.11896555484E+02  0.69872950708E+03  0.46999998093E+01 0.  1.
</event>
<event>
 5   0  0.6114266E-04  0.1400972E+04  0.7818609E-02  0.8953115E-01
       -1   -1    0    0    0  501  0.00000000000E+00  0.00000000000E+00  0.55458194165E+03  0.55458194168E+03  0.50400001928E-02 0.  1.
        1   -1    0    0  501    0  0.00000000000E+00  0.00000000000E+00 -0.88477589507E+03  0.88477589508E+03  0.50400001928E-02 0. -1.
    10030    2    1    2    0    0  0.00000000000E+00  0.00000000000E+00 -0.33019395342E+03  0.14393578368E+04  0.14009721394E+04 0.  0.
        3    1    3    3  502    0  0.55936466011E+03  0.19220440775E+03  0.22048500110E+03  0.63122500208E+03  0.10100000352E+00 0.  1.
       -3    1    3    3    0  502 -0.55936466011E+03 -0.19220440775E+03 -0.55067895452E+03  0.80813283468E+03  0.10100000352E+00 0. -1.
</event>
<event>
 5   0  0.6097538E-04  0.1385353E+04  0.7818609E-02  0.8964490E-01
       -1   -1    0    0    0  501  0.00000000000E+00  0.00000000000E+00  0.35518597765E+03  0.35518597768E+03  0.50400001928E-02 0.  1.
        1   -1    0    0  501    0  0.00000000000E+00  0.00000000000E+00 -0.13508437778E+04  0.13508437778E+04  0.50400001928E-02 0. -1.
    10030    2    1    2    0    0  0.00000000000E+00  0.00000000000E+00 -0.99565780012E+03  0.17060297555E+04  0.13853530494E+04 0.  0.
        2    1    3    3  502    0 -0.23551898427E+03  0.55460443807E+03 -0.91860028621E+03  0.10985817041E+04  0.25500000920E-02 0. -1.
       -2    1    3    3    0  502  0.23551898427E+03 -0.55460443807E+03 -0.77057513906E+02  0.60744805139E+03  0.25500000920E-02 0.  1.
</event>
<event>
 5   0  0.1120053E-03  0.1400737E+04  0.7818609E-02  0.8953285E-01
       -2   -1    0    0    0  501  0.00000000000E+00  0.00000000000E+00  0.86731176860E+03  0.86731176860E+03  0.25500000920E-02 0.  1.
        2   -1    0    0  501    0  0.00000000000E+00  0.00000000000E+00 -0.56555904956E+03  0.56555904957E+03  0.25500000920E-02 0. -1.
    10030    2    1    2    0    0  0.00000000000E+00  0.00000000000E+00  0.30175271903E+03  0.14328708182E+04  0.14007369768E+04 0.  0.
        2    1    3    3  502    0 -0.45360498367E+03  0.14497532298E+03  0.67621460214E+03  0.82706802238E+03  0.25500000920E-02 0.  1.
       -2    1    3    3    0  502  0.45360498367E+03 -0.14497532298E+03 -0.37446188311E+03  0.60580279579E+03  0.25500000920E-02 0. -1.
</event>
<event>
 5   0  0.1120053E-03  0.1412054E+04  0.7818609E-02  0.8945139E-01
       -2   -1    0    0    0  501  0.00000000000E+00  0.00000000000E+00  0.38605067989E+03  0.38605067990E+03  0.25500000920E-02 0.  1.
        2   -1    0    0  501    0  0.00000000000E+00  0.00000000000E+00 -0.12912141814E+04  0.12912141814E+04  0.25500000920E-02 0. -1.
    10030    2    1    2    0    0  0.00000000000E+00  0.00000000000E+00 -0.90516350148E+03  0.16772648613E+04  0.14120539828E+04 0.  0.
        2    1    3    3  502    0 -0.12626839289E+02  0.11830486898E+03 -0.12792208394E+04  0.12847417776E+04  0.25500000920E-02 0. -1.
       -2    1    3    3    0  502  0.12626839289E+02 -0.11830486898E+03  0.37405733797E+03  0.39252308364E+03  0.25500000920E-02 0.  1.
</event>
<event>
 5   0  0.1098949E-03  0.1411802E+04  0.7818609E-02  0.8945320E-01
       -2   -1    0    0    0  501  0.00000000000E+00  0.00000000000E+00  0.27768386958E+03  0.27768386959E+03  0.25500000920E-02 0. -1.
        2   -1    0    0  501    0  0.00000000000E+00  0.00000000000E+00 -0.17944727114E+04  0.17944727114E+04  0.25500000920E-02 0.  1.
    10030    2    1    2    0    0  0.00000000000E+00  0.00000000000E+00 -0.15167888418E+04  0.20721565810E+04  0.14118018648E+04 0.  0.
        4    1    3    3  502    0  0.15409132156E+03  0.31578858086E+03 -0.16569910855E+04  0.16938381368E+04  0.12699999809E+01 0.  1.
       -4    1    3    3    0  502 -0.15409132156E+03 -0.31578858086E+03  0.14020224373E+03  0.37831844420E+03  0.12699999809E+01 0. -1.
</event>
<event>
 5   0  0.1175146E-03  0.1418159E+04  0.7818609E-02  0.8940778E-01
       -2   -1    0    0    0  501  0.00000000000E+00  0.00000000000E+00  0.56598539249E+03  0.56598539249E+03  0.25500000920E-02 0. -1.
        2   -1    0    0  501    0  0.00000000000E+00  0.00000000000E+00 -0.88835108137E+03  0.88835108137E+03  0.25500000920E-02 0.  1.
    10030    2    1    2    0    0  0.00000000000E+00  0.00000000000E+00 -0.32236568888E+03  0.14543364739E+04  0.14181589974E+04 0.  0.
        1    1    3    3  502    0 -0.23315173553E+02  0.16600101635E+03 -0.86773910920E+03  0.88378226753E+03  0.50400001928E-02 0.  1.
       -1    1    3    3    0  502  0.23315173553E+02 -0.16600101635E+03  0.54537342032E+03  0.57055420633E+03  0.50400001928E-02 0. -1.
</event>
<event>
 5   0  0.4176125E-04  0.1346263E+04  0.7818609E-02  0.8993662E-01
        4   -1    0    0  501    0  0.00000000000E+00  0.00000000000E+00  0.42538757367E+03  0.42538946947E+03  0.12699999809E+01 0.  1.
       -4   -1    0    0    0  501  0.00000000000E+00  0.00000000000E+00 -0.10651560713E+04  0.10651568284E+04  0.12699999809E+01 0. -1.
    10030    2    1    2    0    0  0.00000000000E+00  0.00000000000E+00 -0.63976849762E+03  0.14905462979E+04  0.13462631747E+04 0.  0.
        3    1    3    3  502    0  0.27640944357E+03 -0.22822147872E+03  0.31093132179E+03  0.47451609131E+03  0.10100000352E+00 0.  1.
       -3    1    3    3    0  502 -0.27640944357E+03  0.22822147872E+03 -0.95069981941E+03  0.10160302066E+04  0.10100000352E+00 0. -1.
</event>
<event>
 5   0  0.1098949E-03  0.1407309E+04  0.7818609E-02  0.8948545E-01
       -2   -1    0    0    0  501  0.00000000000E+00  0.00000000000E+00  0.40989361808E+03  0.40989361809E+03  0.25500000920E-02 0. -1.
        2   -1    0    0  501    0  0.00000000000E+00  0.00000000000E+00 -0.12079461675E+04  0.12079461675E+04  0.25500000920E-02 0.  1.
    10030    2    1    2    0    0  0.00000000000E+00  0.00000000000E+00 -0.79805254946E+03  0.16178397856E+04  0.14073086727E+04 0.  0.
        4    1    3    3  502    0 -0.10881075026E+03 -0.56842682803E+03 -0.85912274446E+03  0.10358775705E+04  0.12699999809E+01 0.  1.
       -4    1    3    3    0  502  0.10881075026E+03  0.56842682803E+03  0.61070194999E+02  0.58196221510E+03  0.12699999809E+01 0. -1.
</event>
<event>
 5   0  0.1108819E-03  0.1390554E+04  0.7818609E-02  0.8960685E-01
        2   -1    0    0  501    0  0.00000000000E+00  0.00000000000E+00  0.67819243733E+03  0.67819243734E+03  0.25500000920E-02 0. -1.
       -2   -1    0    0    0  501  0.00000000000E+00  0.00000000000E+00 -0.71279154780E+03  0.71279154781E+03  0.25500000920E-02 0.  1.
    10030    2    1    2    0    0  0.00000000000E+00  0.00000000000E+00 -0.34599110471E+02  0.13909839851E+04  0.13905536122E+04 0.  0.
        3    1    3    3  502    0  0.16878144202E+03 -0.46656801627E+03 -0.50452004861E+03  0.70761103625E+03  0.10100000352E+00 0.  1.
       -3    1    3    3    0  502 -0.16878144202E+03  0.46656801627E+03  0.46992093813E+03  0.68337294889E+03  0.10100000352E+00 0. -1.
</event>
<event>
 5   0  0.4176125E-04  0.1378714E+04  0.7818609E-02  0.8969372E-01
       -3   -1    0    0    0  501  0.00000000000E+00  0.00000000000E+00  0.48513437922E+03  0.48513438973E+03  0.10100000352E+00 0.  1.
        3   -1    0    0  501    0  0.00000000000E+00  0.00000000000E+00 -0.97954886773E+03  0.97954887294E+03  0.10100000352E+00 0. -1.
    10030    2    1    2    0    0  0.00000000000E+00  0.00000000000E+00 -0.49441448851E+03  0.14646832627E+04  0.13787136662E+04 0.  0.
        1    1    3    3  502    0 -0.56013649309E+03  0.38956538942E+03 -0.14258410654E+03  0.69702533023E+03  0.50400001928E-02 0.  1.
       -1    1    3    3    0  502  0.56013649309E+03 -0.38956538942E+03 -0.35183038198E+03  0.76765793243E+03  0.50400001928E-02 0. -1.
</event>
<event>
 5   0  0.4176125E-04  0.1408926E+04  0.7818609E-02  0.8947383E-01
        3   -1    0    0  501    0  0.00000000000E+00  0.00000000000E+00  0.48518869622E+03  0.48518870673E+03  0.10100000352E+00 0.  1.
       -3   -1    0    0    0  501  0.00000000000E+00  0.00000000000E+00 -0.10228345698E+04  0.10228345747E+04  0.10100000352E+00 0. -1.
    10030    2    1    2    0    0  0.00000000000E+00  0.00000000000E+00 -0.53764587353E+03  0.15080232815E+04  0.14089255240E+04 0.  0.
        1    1    3    3  502    0  0.83763651691E+02 -0.27413165268E+03 -0.95759312250E+03  0.99957445977E+03  0.50400001928E-02 0. -1.
       -1    1    3    3    0  502 -0.83763651691E+02  0.27413165268E+03  0.41994724896E+03  0.50844882170E+03  0.50400001928E-02 0.  1.
</event>
<event>
 5   0  0.6114266E-04  0.1397932E+04  0.7818609E-02  0.8955317E-01
       -1   -1    0    0    0  501  0.00000000000E+00  0.00000000000E+00  0.60336620446E+03  0.60336620448E+03  0.50400001928E-02 0.  1.
        1   -1    0    0  501    0  0.00000000000E+00  0.00000000000E+00 -0.80971250952E+03  0.80971250954E+03  0.50400001928E-02 0. -1.
    10030    2    1    2    0    0  0.00000000000E+00  0.00000000000E+00 -0.20634630506E+03  0.14130787140E+04  0.13979315628E+04 0.  0.
        3    1    3    3  502    0 -0.42057006452E+03  0.29492497021E+03 -0.58232751160E+03  0.77650837612E+03  0.10100000352E+00 0. -1.
       -3    1    3    3    0  502  0.42057006452E+03 -0.29492497021E+03  0.37598120654E+03  0.63657033790E+03  0.10100000352E+00 0.  1.
</event>
<event>
 5   0  0.1095119E-03  0.1398298E+04  0.7818609E-02  0.8955051E-01
        2   -1    0    0  501    0  0.00000000000E+00  0.00000000000E+00  0.54082102181E+03  0.54082102182E+03  0.25500000920E-02 0. -1.
       -2   -1    0    0    0  501  0.00000000000E+00  0.00000000000E+00 -0.90382840955E+03  0.90382840955E+03  0.25500000920E-02 0.  1.
    10030    2    1    2    0    0  0.00000000000E+00  0.00000000000E+00 -0.36300738774E+03  0.14446494314E+04  0.13982981141E+04 0.  0.
        5    1    3    3  502    0  0.28110246868E+03 -0.54855571090E+03  0.15936536741E+03  0.63667211042E+03  0.46999998093E+01 0. -1.
       -5    1    3    3    0  502 -0.28110246868E+03  0.54855571090E+03 -0.52237275515E+03  0.80797732095E+03  0.46999998093E+01 0.  1.
</event>
<event>
 5   0  0.6194742E-04  0.1393195E+04  0.7818609E-02  0.8958759E-01
        1   -1    0    0  501    0  0.00000000000E+00  0.00000000000E+00  0.45206802186E+03  0.45206802189E+03  0.50400001928E-02 0.  1.
       -1   -1    0    0    0  501  0.00000000000E+00  0.00000000000E+00 -0.10733965613E+04  0.10733965613E+04  0.50400001928E-02 0. -1.
    10030    2    1    2    0    0  0.00000000000E+00  0.00000000000E+00 -0.62132853946E+03  0.15254645832E+04  0.13931952630E+04 0.  0.
        4    1    3    3  502    0 -0.73666427150E+02 -0.22504157505E+03  0.40664749217E+03  0.47056800654E+03  0.12699999809E+01 0.  1.
       -4    1    3    3    0  502  0.73666427150E+02  0.22504157505E+03 -0.10279760316E+04  0.10548965767E+04  0.12699999809E+01 0. -1.
</event>
<event>
 5   0  0.1175146E-03  0.1277775E+04  0.7818609E-02  0.9047378E-01
       -2   -1    0    0    0  501  0.00000000000E+00  0.00000000000E+00  0.46461286990E+03  0.46461286991E+03  0.25500000920E-02 0. -1.
        2   -1    0    0  501    0  0.00000000000E+00  0.00000000000E+00 -0.87853231934E+03  0.87853231935E+03  0.25500000920E-02 0.  1.
    10030    2    1    2    0    0  0.00000000000E+00  0.00000000000E+00 -0.41391944944E+03  0.13431451893E+04  0.12777752888E+04 0.  0.
        1    1    3    3  502    0 -0.47562638866E+03  0.17062526690E+03  0.20399373721E+03  0.54492833303E+03  0.50400001928E-02 0. -1.
       -1    1    3    3    0  502  0.47562638866E+03 -0.17062526690E+03 -0.61791318665E+03  0.79821685622E+03  0.50400001928E-02 0.  1.
</event>
<event>
 5   0  0.1120053E-03  0.1407916E+04  0.7818609E-02  0.8948108E-01
       -2   -1    0    0    0  501  0.00000000000E+00  0.00000000000E+00  0.38512621344E+03  0.38512621345E+03  0.25500000920E-02 0. -1.
        2   -1    0    0  501    0  0.00000000000E+00  0.00000000000E+00 -0.12867396284E+04  0.12867396284E+04  0.25500000920E-02 0.  1.
    10030    2    1    2    0    0  0.00000000000E+00  0.00000000000E+00 -0.90161341493E+03  0.16718658418E+04  0.14079164191E+04 0.  0.
        2    1    3    3  502    0 -0.48459318913E+03  0.50695682244E+03 -0.52324641318E+03  0.87499862153E+03  0.25500000920E-02 0.  1.
       -2    1    3    3    0  502  0.48459318913E+03 -0.50695682244E+03 -0.37836700175E+03  0.79686722030E+03  0.25500000920E-02 0. -1.
</event>
<event>
 5   0  0.6153318E-04  0.1413419E+04  0.7818609E-02  0.8944162E-01
        1   -1    0    0  501    0  0.00000000000E+00  0.00000000000E+00  0.13135666153E+04  0.13135666153E+04  0.50400001928E-02 0.  1.
       -1   -1    0    0    0  501  0.00000000000E+00  0.00000000000E+00 -0.38021534924E+03  0.38021534927E+03  0.50400001928E-02 0. -1.
    10030    2    1    2    0    0  0.00000000000E+00  0.00000000000E+00  0.93335126601E+03  0.16937819645E+04  0.14134188189E+04 0.  0.
        5    1    3    3  502    0  0.10078209887E+03 -0.11149701861E+03  0.12941742453E+04  0.13028805332E+04  0.46999998093E+01 0.  1.
       -5    1    3    3    0  502 -0.10078209887E+03  0.11149701861E+03 -0.36082297930E+03  0.39090143131E+03  0.46999998093E+01 0. -1.
</event>
<event>
 5   0  0.1098949E-03  0.1377445E+04  0.7818609E-02  0.8970309E-01
        2   -1    0    0  501    0  0.00000000000E+00  0.00000000000E+00  0.17365476747E+04  0.17365476747E+04  0.25500000920E-02 0. -1.
       -2   -1    0    0    0  501  0.00000000000E+00  0.00000000000E+00 -0.27315050016E+03  0.27315050018E+03  0.25500000920E-02 0.  1.
    10030    2    1    2    0    0  0.00000000000E+00  0.00000000000E+00  0.14633971746E+04  0.20096981749E+04  0.13774452670E+04 0.  0.
        4    1    3    3  502    0 -0.37226394527E+03 -0.51343856289E+03  0.33983267843E+03  0.71950501391E+03  0.12699999809E+01 0.  1.
       -4    1    3    3    0  502  0.37226394527E+03  0.51343856289E+03  0.11235644962E+04  0.12901931610E+04  0.12699999809E+01 0. -1.
</event>
<event>
 5   0  0.1095119E-03  0.1522393E+04  0.7818609E-02  0.8869697E-01
        2   -1    0    0  501    0  0.00000000000E+00  0.00000000000E+00  0.80609752811E+03  0.80609752812E+03  0.25500000920E-02 0.  1.
       -2   -1    0    0    0  501  0.00000000000E+00  0.00000000000E+00 -0.71879614347E+03  0.71879614348E+03  0.25500000920E-02 0. -1.
    10030    2    1    2    0    0  0.00000000000E+00  0.00000000000E+00  0.87301384641E+02  0.15248936716E+04  0.15223925834E+04 0.  0.
        5    1    3    3  502    0 -0.54285840909E+03 -0.52159315486E+03  0.15627666058E+03  0.76889476273E+03  0.46999998093E+01 0. -1.
       -5    1    3    3    0  502  0.54285840909E+03  0.52159315486E+03 -0.68975275936E+02  0.75599890886E+03  0.46999998093E+01 0.  1.
</event>
<event>
 5   0  0.6194742E-04  0.1393861E+04  0.7818609E-02  0.8958274E-01
        1   -1    0    0  501    0  0.00000000000E+00  0.00000000000E+00  0.77194710746E+03  0.77194710748E+03  0.50400001928E-02 0. -1.
       -1   -1    0    0    0  501  0.00000000000E+00  0.00000000000E+00 -0.62920369666E+03  0.62920369668E+03  0.50400001928E-02 0.  1.
    10030    2    1    2    0    0  0.00000000000E+00  0.00000000000E+00  0.14274341080E+03  0.14011508042E+04  0.13938607874E+04 0.  0.
        4    1    3    3  502    0 -0.36682239679E+03  0.59232178049E+03  0.88973233902E+02  0.70236857253E+03  0.12699999809E+01 0.  1.
       -4    1    3    3    0  502  0.36682239679E+03 -0.59232178049E+03  0.53770176900E+02  0.69878223163E+03  0.12699999809E+01 0. -1.
</event>
<event>
 5   0  0.1108819E-03  0.1414839E+04  0.7818609E-02  0.8943147E-01
        2   -1    0    0  501    0  0.00000000000E+00  0.00000000000E+00  0.69116661897E+03  0.69116661898E+03  0.25500000920E-02 0.  1.
       -2   -1    0    0    0  501  0.00000000000E+00  0.00000000000E+00 -0.72405455240E+03  0.72405455241E+03  0.25500000920E-02 0. -1.
    10030    2    1    2    0    0  0.00000000000E+00  0.00000000000E+00 -0.32887933432E+02  0.14152211714E+04  0.14148389830E+04 0.  0.
        3    1    3    3  502    0  0.57328863676E+03 -0.34148392645E+03  0.21850497313E+03  0.70215067225E+03  0.10100000352E+00 0.  1.
       -3    1    3    3    0  502 -0.57328863676E+03  0.34148392645E+03 -0.25139290656E+03  0.71307049913E+03  0.10100000352E+00 0. -1.
</event>
<event>
 5   0  0.6153318E-04  0.1403490E+04  0.7818609E-02  0.8951296E-01
        1   -1    0    0  501    0  0.00000000000E+00  0.00000000000E+00  0.12529708402E+04  0.12529708402E+04  0.50400001928E-02 0. -1.
       -1   -1    0    0    0  501  0.00000000000E+00  0.00000000000E+00 -0.39302297285E+03  0.39302297288E+03  0.50400001928E-02 0.  1.
    10030    2    1    2    0    0  0.00000000000E+00  0.00000000000E+00  0.85994786730E+03  0.16459938130E+04  0.14034903983E+04 0.  0.
        5    1    3    3  502    0 -0.25208846257E+03 -0.21210607454E+03 -0.29666767057E+03  0.44336370688E+03  0.46999998093E+01 0.  1.
       -5    1    3    3    0  502  0.25208846257E+03  0.21210607454E+03  0.11566155379E+04  0.12026301062E+04  0.46999998093E+01 0. -1.
</event>
<event>
 5   0  0.6114266E-04  0.1329531E+04  0.7818609E-02  0.9006469E-01
       -1   -1    0    0    0  501  0.00000000000E+00  0.00000000000E+00  0.27579874116E+03  0.27579874121E+03  0.50400001928E-02 0.  1.
        1   -1    0    0  501    0  0.00000000000E+00  0.00000000000E+00 -0.16023032079E+04  0.16023032079E+04  0.50400001928E-02 0. -1.
    10030    2    1    2    0    0  0.00000000000E+00  0.00000000000E+00 -0.13265044667E+04  0.18781019491E+04  0.13295310568E+04 0.  0.
        3    1    3    3  502    0  0.62225056739E+03  0.19394160555E+03 -0.84799632971E+03  0.10695358341E+04  0.10100000352E+00 0.  1.
       -3    1    3    3    0  502 -0.62225056739E+03 -0.19394160555E+03 -0.47850813702E+03  0.80856611503E+03  0.10100000352E+00 0. -1.
</event>
<event>
 5   0  0.6114266E-04  0.1398509E+04  0.7818609E-02  0.8954898E-01
        1   -1    0    0  501    0  0.00000000000E+00  0.00000000000E+00  0.68868828450E+03  0.68868828452E+03  0.50400001928E-02 0. -1.
       -1   -1    0    0    0  501  0.00000000000E+00  0.00000000000E+00 -0.70998313344E+03  0.70998313345E+03  0.50400001928E-02 0.  1.
    10030    2    1    2    0    0  0.00000000000E+00  0.00000000000E+00 -0.21294848938E+02  0.13986714180E+04  0.13985093010E+04 0.  0.
        3    1    3    3  502    0 -0.47794705888E+03 -0.13297246580E+03 -0.50349455354E+03  0.70683933352E+03  0.10100000352E+00 0.  1.
       -3    1    3    3    0  502  0.47794705888E+03  0.13297246580E+03  0.48219970460E+03  0.69183208445E+03  0.10100000352E+00 0. -1.
</event>
<event>
 5   0  0.5875298E-04  0.1408233E+04  0.7818609E-02  0.8947881E-01
       -1   -1    0    0    0  501  0.00000000000E+00  0.00000000000E+00  0.56492685294E+03  0.56492685296E+03  0.50400001928E-02 0. -1.
        1   -1    0    0  501    0  0.00000000000E+00  0.00000000000E+00 -0.87759989185E+03  0.87759989187E+03  0.50400001928E-02 0.  1.
    10030    2    1    2    0    0  0.00000000000E+00  0.00000000000E+00 -0.31267303891E+03  0.14425267448E+04  0.14082325732E+04 0.  0.
        1    1    3    3  502    0 -0.32639100542E+03  0.34675879466E+03  0.37495303174E+03  0.60610438551E+03  0.50400001928E-02 0. -1.
       -1    1    3    3    0  502  0.32639100542E+03 -0.34675879466E+03 -0.68762607065E+03  0.83642235932E+03  0.50400001928E-02 0.  1.
</event>
<event>
 5   0  0.1108819E-03  0.1413049E+04  0.7818609E-02  0.8944427E-01
       -2   -1    0    0    0  501  0.00000000000E+00  0.00000000000E+00  0.40000115166E+03  0.40000115167E+03  0.25500000920E-02 0. -1.
        2   -1    0    0  501    0  0.00000000000E+00  0.00000000000E+00 -0.12479392262E+04  0.12479392262E+04  0.25500000920E-02 0.  1.
    10030    2    1    2    0    0  0.00000000000E+00  0.00000000000E+00 -0.84793807452E+03  0.16479403779E+04  0.14130493660E+04 0.  0.
        3    1    3    3  502    0 -0.37690187433E+03 -0.40184685585E+02 -0.11193269694E+04  0.11817625424E+04  0.10100000352E+00 0.  1.
       -3    1    3    3    0  502  0.37690187433E+03  0.40184685585E+02  0.27138889491E+03  0.46617783550E+03  0.10100000352E+00 0. -1.
</event>
<event>
 5   0  0.4176125E-04  0.1354661E+04  0.7818609E-02  0.8987307E-01
        3   -1    0    0  501    0  0.00000000000E+00  0.00000000000E+00  0.58192637994E+03  0.58192638870E+03  0.10100000352E+00 0. -1.
       -3   -1    0    0    0  501  0.00000000000E+00  0.00000000000E+00 -0.78837556587E+03  0.78837557234E+03  0.10100000352E+00 0.  1.
    10030    2    1    2    0    0  0.00000000000E+00  0.00000000000E+00 -0.20644918593E+03  0.13703019610E+04  0.13546609163E+04 0.  0.
        4    1    3    3  502    0 -0.12804358295E+03 -0.25790990817E+03  0.51693010314E+03  0.59171870369E+03  0.12699999809E+01 0. -1.
       -4    1    3    3    0  502  0.12804358295E+03  0.25790990817E+03 -0.72337928907E+03  0.77858325735E+03  0.12699999809E+01 0.  1.
</event>
<event>
 5   0  0.1108819E-03  0.1371854E+04  0.7818609E-02  0.8974447E-01
       -2   -1    0    0    0  501  0.00000000000E+00  0.00000000000E+00  0.27398649478E+03  0.27398649479E+03  0.25500000920E-02 0.  1.
        2   -1    0    0  501    0  0.00000000000E+00  0.00000000000E+00 -0.17172240156E+04  0.17172240156E+04  0.25500000920E-02 0. -1.
    10030    2    1    2    0    0  0.00000000000E+00  0.00000000000E+00 -0.14432375208E+04  0.19912105104E+04  0.13718544949E+04 0.  0.
        3    1    3    3  502    0  0.36484221995E+02  0.26756813731E+03  0.19358379456E+03  0.33226270070E+03  0.10100000352E+00 0.  1.
       -3    1    3    3    0  502 -0.36484221995E+02 -0.26756813731E+03 -0.16368213154E+04  0.16589478097E+04  0.10100000352E+00 0. -1.
</event>
<event>
 5   0  0.1095119E-03  0.1398405E+04  0.7818609E-02  0.8954974E-01
        2   -1    0    0  501    0  0.00000000000E+00  0.00000000000E+00  0.87333210508E+03  0.87333210509E+03  0.25500000920E-02 0. -1.
       -2   -1    0    0    0  501  0.00000000000E+00  0.00000000000E+00 -0.55979195385E+03  0.55979195386E+03  0.25500000920E-02 0.  1.
    10030    2    1    2    0    0  0.00000000000E+00  0.00000000000E+00  0.31354015123E+03  0.14331240589E+04  0.13984052138E+04 0.  0.
        5    1    3    3  502    0 -0.30837097529E+03  0.16631359275E+03  0.77686210404E+03  0.85222631279E+03  0.46999998093E+01 0. -1.
       -5    1    3    3    0  502  0.30837097529E+03 -0.16631359275E+03 -0.46332195281E+03  0.58089774615E+03  0.46999998093E+01 0.  1.
</event>
<event>
 5   0  0.6097538E-04  0.1399803E+04  0.7818609E-02  0.8953961E-01
       -1   -1    0    0    0  501  0.00000000000E+00  0.00000000000E+00  0.78684462452E+03  0.78684462453E+03  0.50400001928E-02 0. -1.
        1   -1    0    0  501    0  0.00000000000E+00  0.00000000000E+00 -0.62256559150E+03  0.62256559152E+03  0.50400001928E-02 0.  1.
    10030    2    1    2    0    0  0.00000000000E+00  0.00000000000E+00  0.16427903302E+03  0.14094102161E+04  0.13998033992E+04 0.  0.
        2    1    3    3  502    0 -0.56757774797E+03 -0.36874287564E+03  0.26153803399E+03  0.72561556734E+03  0.25500000920E-02 0. -1.
       -2    1    3    3    0  502  0.56757774797E+03  0.36874287564E+03 -0.97259000974E+02  0.68379464871E+03  0.25500000920E-02 0.  1.
</event>
<event>
 5   0  0.6194742E-04  0.1389256E+04  0.7818609E-02  0.8961632E-01
        1   -1    0    0  501    0  0.00000000000E+00  0.00000000000E+00  0.38634466852E+03  0.38634466855E+03  0.50400001928E-02 0. -1.
       -1   -1    0    0    0  501  0.00000000000E+00  0.00000000000E+00 -0.12489057736E+04  0.12489057736E+04  0.50400001928E-02 0.  1.
    10030    2    1    2    0    0  0.00000000000E+00  0.00000000000E+00 -0.86256110509E+03  0.16352504422E+04  0.13892560414E+04 0.  0.
        4    1    3    3  502    0  0.80165148167E+02 -0.33080596606E+03  0.28145152841E+03  0.44167365090E+03  0.12699999809E+01 0. -1.
       -4    1    3    3    0  502 -0.80165148167E+02  0.33080596606E+03 -0.11440126335E+04  0.11935767913E+04  0.12699999809E+01 0.  1.
</event>
<event>
 5   0  0.1120053E-03  0.1396540E+04  0.7818609E-02  0.8956327E-01
        2   -1    0    0  501    0  0.00000000000E+00  0.00000000000E+00  0.10015080117E+04  0.10015080117E+04  0.25500000920E-02 0. -1.
       -2   -1    0    0    0  501  0.00000000000E+00  0.00000000000E+00 -0.48684675983E+03  0.48684675984E+03  0.25500000920E-02 0.  1.
    10030    2    1    2    0    0  0.00000000000E+00  0.00000000000E+00  0.51466125189E+03  0.14883547716E+04  0.13965399106E+04 0.  0.
        2    1    3    3  502    0  0.62502988528E+03 -0.84816830613E+02 -0.61903320858E+02  0.63378882397E+03  0.25500000920E-02 0.  1.
       -2    1    3    3    0  502 -0.62502988528E+03  0.84816830613E+02  0.57656457275E+03  0.85456594760E+03  0.25500000920E-02 0. -1.
</event>
<event>
 5   0  0.1108819E-03  0.1394539E+04  0.7818609E-02  0.8957781E-01
        2   -1    0    0  501    0  0.00000000000E+00  0.00000000000E+00  0.75716156121E+03  0.75716156121E+03  0.25500000920E-02 0.  1.
       -2   -1    0    0    0  501  0.00000000000E+00  0.00000000000E+00 -0.64211463701E+03  0.64211463701E+03  0.25500000920E-02 0. -1.
    10030    2    1    2    0    0  0.00000000000E+00  0.00000000000E+00  0.11504692420E+03  0.13992761982E+04  0.13945386636E+04 0.  0.
        3    1    3    3  502    0  0.13698898358E+03 -0.46457422930E+03 -0.44576732817E+03  0.65825809317E+03  0.10100000352E+00 0. -1.
       -3    1    3    3    0  502 -0.13698898358E+03  0.46457422930E+03  0.56081425238E+03  0.74101810506E+03  0.10100000352E+00 0.  1.
</event>
<event>
 5   0  0.5875298E-04  0.1457356E+04  0.7818609E-02  0.8913317E-01
       -1   -1    0    0    0  501  0.00000000000E+00  0.00000000000E+00  0.16436497097E+04  0.16436497097E+04  0.50400001928E-02 0. -1.
        1   -1    0    0  501    0  0.00000000000E+00  0.00000000000E+00 -0.32304430219E+03  0.32304430223E+03  0.50400001928E-02 0.  1.
    10030    2    1    2    0    0  0.00000000000E+00  0.00000000000E+00  0.13206054075E+04  0.19666940120E+04  0.14573560630E+04 0.  0.
        1    1    3    3  502    0  0.32723032789E+03  0.63794204056E+03  0.83585082471E+03  0.11012249252E+04  0.50400001928E-02 0. -1.
       -1    1    3    3    0  502 -0.32723032789E+03 -0.63794204056E+03  0.48475458283E+03  0.86546908680E+03  0.50400001928E-02 0.  1.
</event>
<event>
 5   0  0.1095119E-03  0.1439620E+04  0.7818609E-02  0.8925628E-01
        2   -1    0    0  501    0  0.00000000000E+00  0.00000000000E+00  0.57154188741E+03  0.57154188742E+03  0.25500000920E-02 0.  1.
       -2   -1    0    0    0  501  0.00000000000E+00  0.00000000000E+00 -0.90654160754E+03  0.90654160754E+03  0.25500000920E-02 0. -1.
    10030    2    1    2    0    0  0.00000000000E+00  0.00000000000E+00 -0.33499972012E+03  0.14780834950E+04  0.14396200907E+04 0.  0.
        5    1    3    3  502    0 -0.48437651792E+03 -0.34596493834E+03  0.24802546070E+03  0.64486515554E+03  0.46999998093E+01 0.  1.
       -5    1    3    3    0  502  0.48437651792E+03  0.34596493834E+03 -0.58302518082E+03  0.83321833942E+03  0.46999998093E+01 0. -1.
</event>
<event>
 5   0  0.6194742E-04  0.1382783E+04  0.7818609E-02  0.8966376E-01
        1   -1    0    0  501    0  0.00000000000E+00  0.00000000000E+00  0.60391499849E+03  0.60391499851E+03  0.50400001928E-02 0.  1.
       -1   -1    0    0    0  501  0.00000000000E+00  0.00000000000E+00 -0.79153919952E+03  0.79153919954E+03  0.50400001928E-02 0. -1.
    10030    2    1    2    0    0  0.00000000000E+00  0.00000000000E+00 -0.18762420103E+03  0.13954541981E+04  0.13827832723E+04 0.  0.
        4    1    3    3  502    0  0.24916733346E+02 -0.51123872377E+03 -0.56286673658E+03  0.76079330461E+03  0.12699999809E+01 0. -1.
       -4    1    3    3    0  502 -0.24916733346E+02  0.51123872377E+03  0.37524253555E+03  0.63466089345E+03  0.12699999809E+01 0.  1.
</event>
<event>
 5   0  0.6153318E-04  0.1400280E+04  0.7818609E-02  0.8953616E-01
        1   -1    0    0  501    0  0.00000000000E+00  0.00000000000E+00  0.46321615727E+03  0.46321615729E+03  0.50400001928E-02 0.  1.
       -1   -1    0    0    0  501  0.00000000000E+00  0.00000000000E+00 -0.10582452084E+04  0.10582452085E+04  0.50400001928E-02 0. -1.
    10030    2    1    2    0    0  0.00000000000E+00  0.00000000000E+00 -0.59502905118E+03  0.15214613658E+04  0.14002803704E+04 0.  0.
        5    1    3    3  502    0 -0.30775920208E+03  0.46995461757E+03 -0.75152873004E+03  0.93829131464E+03  0.46999998093E+01 0. -1.
       -5    1    3    3    0  502  0.30775920208E+03 -0.46995461757E+03  0.15649967886E+03  0.58317005112E+03  0.46999998093E+01 0.  1.
</event>
<event>
 5   0  0.1120053E-03  0.1408830E+04  0.7818609E-02  0.8947452E-01
        2   -1    0    0  501    0  0.00000000000E+00  0.00000000000E+00  0.95560087410E+03  0.95560087410E+03  0.25500000920E-02 0.  1.
       -2   -1    0    0    0  501  0.00000000000E+00  0.00000000000E+00 -0.51925508211E+03  0.51925508212E+03  0.25500000920E-02 0. -1.
    10030    2    1    2    0    0  0.00000000000E+00  0.00000000000E+00  0.43634579199E+03  0.14748559562E+04  0.14088301677E+04 0.  0.
        2    1    3    3  502    0  0.33484978963E+03  0.17700540616E+02  0.86669154372E+03  0.92929646653E+03  0.25500000920E-02 0.  1.
       -2    1    3    3    0  502 -0.33484978963E+03 -0.17700540616E+02 -0.43034575173E+03  0.54555948969E+03  0.25500000920E-02 0. -1.
</event>
<event>
 5   0  0.5875298E-04  0.1364562E+04  0.7818609E-02  0.8979878E-01
       -1   -1    0    0    0  501  0.00000000000E+00  0.00000000000E+00  0.78836518915E+03  0.78836518916E+03  0.50400001928E-02 0. -1.
        1   -1    0    0  501    0  0.00000000000E+00  0.00000000000E+00 -0.59047132833E+03  0.59047132835E+03  0.50400001928E-02 0.  1.
    10030    2    1    2    0    0  0.00000000000E+00  0.00000000000E+00  0.19789386082E+03  0.13788365175E+04  0.13645615273E+04 0.  0.
        1    1    3    3  502    0  0.60941342746E+03  0.18264975421E+02 -0.21050623199E+03  0.64500481287E+03  0.50400001928E-02 0.  1.
       -1    1    3    3    0  502 -0.60941342746E+03 -0.18264975421E+02  0.40840009281E+03  0.73383170464E+03  0.50400001928E-02 0. -1.
</event>
<event>
 5   0  0.6097538E-04  0.1428275E+04  0.7818609E-02  0.8933602E-01
       -1   -1    0    0    0  501  0.00000000000E+00  0.00000000000E+00  0.59222178872E+03  0.59222178875E+03  0.50400001928E-02 0.  1.
        1   -1    0    0  501    0  0.00000000000E+00  0.00000000000E+00 -0.86115120127E+03  0.86115120129E+03  0.50400001928E-02 0. -1.
    10030    2    1    2    0    0  0.00000000000E+00  0.00000000000E+00 -0.26892941255E+03  0.14533729900E+04  0.14282751903E+04 0.  0.
        2    1    3    3  502    0  0.27259882530E+03  0.43477740420E+03  0.37090200051E+03  0.63317438731E+03  0.25500000920E-02 0.  1.
       -2    1    3    3    0  502 -0.27259882530E+03 -0.43477740420E+03 -0.63983141306E+03  0.82019860272E+03  0.25500000920E-02 0. -1.
</event>
<event>
 5   0  0.1095119E-03  0.1363172E+04  0.7818609E-02  0.8980917E-01
       -2   -1    0    0    0  501  0.00000000000E+00  0.00000000000E+00  0.28249883594E+03  0.28249883595E+03  0.25500000920E-02 0.  1.
        2   -1    0    0  501    0  0.00000000000E+00  0.00000000000E+00 -0.16444650250E+04  0.16444650250E+04  0.25500000920E-02 0. -1.
    10030    2    1    2    0    0  0.00000000000E+00  0.00000000000E+00 -0.13619661891E+04  0.19269638609E+04  0.13631719705E+04 0.  0.
        5    1    3    3  502    0 -0.49202545438E+03 -0.26252021421E+03 -0.12709554298E+03  0.57199762034E+03  0.46999998093E+01 0.  1.
       -5    1    3    3    0  502  0.49202545438E+03  0.26252021421E+03 -0.12348706461E+04  0.13549662406E+04  0.46999998093E+01 0. -1.
</event>
<event>
 5   0  0.1098949E-03  0.1387789E+04  0.7818609E-02  0.8962705E-01
       -2   -1    0    0    0  501  0.00000000000E+00  0.00000000000E+00  0.97881327320E+03  0.97881327320E+03  0.25500000920E-02 0.  1.
        2   -1    0    0  501    0  0.00000000000E+00  0.00000000000E+00 -0.49191192290E+03  0.49191192290E+03  0.25500000920E-02 0. -1.
    10030    2    1    2    0    0  0.00000000000E+00  0.00000000000E+00  0.48690135030E+03  0.14707251961E+04  0.13877894932E+04 0.  0.
        4    1    3    3  502    0 -0.26297435601E+02 -0.11242524990E+03 -0.48165924074E+03  0.49530619724E+03  0.12699999809E+01 0. -1.
       -4    1    3    3    0  502  0.26297435601E+02  0.11242524990E+03  0.96856059104E+03  0.97541899887E+03  0.12699999809E+01 0.  1.
</event>
<event>
 5   0  0.6097538E-04  0.1407621E+04  0.7818609E-02  0.8948320E-01
       -1   -1    0    0    0  501  0.00000000000E+00  0.00000000000E+00  0.32060403691E+03  0.32060403694E+03  0.50400001928E-02 0. -1.
        1   -1    0    0  501    0  0.00000000000E+00  0.00000000000E+00 -0.15450504071E+04  0.15450504072E+04  0.50400001928E-02 0.  1.
    10030    2    1    2    0    0  0.00000000000E+00  0.00000000000E+00 -0.12244463702E+04  0.18656544441E+04  0.14076212527E+04 0.  0.
        2    1    3    3  502    0 -0.23155416468E+03 -0.66558190016E+02  0.26424500783E+03  0.35759299211E+03  0.25500000920E-02 0. -1.
       -2    1    3    3    0  502  0.23155416468E+03  0.66558190016E+02 -0.14886913781E+04  0.15080614520E+04  0.25500000920E-02 0.  1.
</event>
<event>
 5   0  0.6114266E-04  0.1391120E+04  0.7818609E-02  0.8960272E-01
       -1   -1    0    0    0  501  0.00000000000E+00  0.00000000000E+00  0.37954416739E+03  0.37954416742E+03  0.50400001928E-02 0. -1.
        1   -1    0    0  501    0  0.00000000000E+00  0.00000000000E+00 -0.12746964021E+04  0.12746964021E+04  0.50400001928E-02 0.  1.
    10030    2    1    2    0    0  0.00000000000E+00  0.00000000000E+00 -0.89515223471E+03  0.16542405695E+04  0.13911198146E+04 0.  0.
        3    1    3    3  502    0 -0.45838245945E+03  0.51617319856E+03 -0.54885819865E+03  0.88192663100E+03  0.10100000352E+00 0.  1.
       -3    1    3    3    0  502  0.45838245945E+03 -0.51617319856E+03 -0.34629403606E+03  0.77231393853E+03  0.10100000352E+00 0. -1.
</event>
<event>
 5   0  0.6097538E-04  0.1368461E+04  0.7818609E-02  0.8976970E-01
        1   -1    0    0  501    0  0.00000000000E+00  0.00000000000E+00  0.96733767372E+03  0.96733767374E+03  0.50400001928E-02 0. -1.
       -1   -1    0    0    0  501  0.00000000000E+00  0.00000000000E+00 -0.48397957085E+03  0.48397957088E+03  0.50400001928E-02 0.  1.
    10030    2    1    2    0    0  0.00000000000E+00  0.00000000000E+00  0.48335810287E+03  0.14513172446E+04  0.13684614313E+04 0.  0.
        2    1    3    3  502    0 -0.34018642061E+03 -0.59355199657E+03  0.25426782664E+03  0.72985128695E+03  0.25500000920E-02 0. -1.
       -2    1    3    3    0  502  0.34018642061E+03  0.59355199657E+03  0.22909027623E+03  0.72146595766E+03  0.25500000920E-02 0.  1.
</event>
<event>
 5   0  0.1108819E-03  0.1394378E+04  0.7818609E-02  0.8957898E-01
        2   -1    0    0  501    0  0.00000000000E+00  0.00000000000E+00  0.48545244445E+03  0.48545244446E+03  0.25500000920E-02 0. -1.
       -2   -1    0    0    0  501  0.00000000000E+00  0.00000000000E+00 -0.10012778979E+04  0.10012778979E+04  0.25500000920E-02 0.  1.
    10030    2    1    2    0    0  0.00000000000E+00  0.00000000000E+00 -0.51582545341E+03  0.14867303423E+04  0.13943784323E+04 0.  0.
        3    1    3    3  502    0  0.52072593881E+03 -0.36800170421E+03 -0.55852960214E+03  0.84766507792E+03  0.10100000352E+00 0.  1.
       -3    1    3    3    0  502 -0.52072593881E+03  0.36800170421E+03  0.42704148734E+02  0.63906526441E+03  0.10100000352E+00 0. -1.
</event>
<event>
 5   0  0.6153318E-04  0.1411560E+04  0.7818609E-02  0.8945493E-01
        1   -1    0    0  501    0  0.00000000000E+00  0.00000000000E+00  0.16745932851E+04  0.16745932852E+04  0.50400001928E-02 0.  1.
       -1   -1    0    0    0  501  0.00000000000E+00  0.00000000000E+00 -0.29746046279E+03  0.29746046283E+03  0.50400001928E-02 0. -1.
    10030    2    1    2    0    0  0.00000000000E+00  0.00000000000E+00  0.13771328224E+04  0.19720537480E+04  0.14115598374E+04 0.  0.
        5    1    3    3  502    0  0.95944509645E+02  0.28155764349E+03 -0.20558630434E+03  0.36161840947E+03  0.46999998093E+01 0. -1.
       -5    1    3    3    0  502 -0.95944509645E+02 -0.28155764349E+03  0.15827191267E+04  0.16104353385E+04  0.46999998093E+01 0.  1.
</event>
<event>
 5   0  0.6194742E-04  0.1360436E+04  0.7818609E-02  0.8982965E-01
        1   -1    0    0  501    0  0.00000000000E+00  0.00000000000E+00  0.11566055420E+04  0.11566055421E+04  0.50400001928E-02 0. -1.
       -1   -1    0    0    0  501  0.00000000000E+00  0.00000000000E+00 -0.40004702419E+03  0.40004702422E+03  0.50400001928E-02 0.  1.
    10030    2    1    2    0    0  0.00000000000E+00  0.00000000000E+00  0.75655851785E+03  0.15566525663E+04  0.13604361143E+04 0.  0.
        4    1    3    3  502    0  0.59269621627E+03  0.29815868487E+03  0.54994277400E+03  0.86175754927E+03  0.12699999809E+01 0. -1.
       -4    1    3    3    0  502 -0.59269621627E+03 -0.29815868487E+03  0.20661574385E+03  0.69489501700E+03  0.12699999809E+01 0.  1.
</event>
<event>
 5   0  0.6114266E-04  0.1396012E+04  0.7818609E-02  0.8956710E-01
        1   -1    0    0  501    0  0.00000000000E+00  0.00000000000E+00  0.55817319443E+03  0.55817319446E+03  0.50400001928E-02 0.  1.
       -1   -1    0    0    0  501  0.00000000000E+00  0.00000000000E+00 -0.87286995721E+03  0.87286995723E+03  0.50400001928E-02 0. -1.
    10030    2    1    2    0    0  0.00000000000E+00  0.00000000000E+00 -0.31469676278E+03  0.14310431517E+04  0.13960123386E+04 0.  0.
        3    1    3    3  502    0 -0.43296624370E+03 -0.31281118790E+03  0.30326205905E+03  0.61423000099E+03  0.10100000352E+00 0.  1.
       -3    1    3    3    0  502  0.43296624370E+03  0.31281118790E+03 -0.61795882183E+03  0.81681315069E+03  0.10100000352E+00 0. -1.
</event>
<event>
 5   0  0.1175146E-03  0.1377728E+04  0.7818609E-02  0.8970100E-01
        2   -1    0    0  501    0  0.00000000000E+00  0.00000000000E+00  0.17979715691E+04  0.17979715691E+04  0.25500000920E-02 0.  1.
       -2   -1    0    0    0  501  0.00000000000E+00  0.00000000000E+00 -0.26392722538E+03  0.26392722539E+03  0.25500000920E-02 0. -1.
    10030    2    1    2    0    0  0.00000000000E+00  0.00000000000E+00  0.15340443438E+04  0.20618987945E+04  0.13777280538E+04 0.  0.
        1    1    3    3  502    0  0.11006172100E+02  0.59520542295E+03  0.12857661979E+04  0.14168928496E+04  0.50400001928E-02 0.  1.
       -1    1    3    3    0  502 -0.11006172100E+02 -0.59520542295E+03  0.24827814582E+03  0.64500594498E+03  0.50400001928E-02 0. -1.
</event>
<event>
 5   0  0.5875298E-04  0.1393935E+04  0.7818609E-02  0.8958220E-01
       -1   -1    0    0    0  501  0.00000000000E+00  0.00000000000E+00  0.53594970455E+03  0.53594970457E+03  0.50400001928E-02 0.  1.
        1   -1    0    0  501    0  0.00000000000E+00  0.00000000000E+00 -0.90636109514E+03  0.90636109515E+03  0.50400001928E-02 0. -1.
    10030    2    1    2    0    0  0.00000000000E+00  0.00000000000E+00 -0.37041139059E+03  0.14423107997E+04  0.13939353804E+04 0.  0.
        1    1    3    3  502    0 -0.29006783932E+03 -0.63104597908E+03 -0.12482308445E+03  0.70564805786E+03  0.50400001928E-02 0.  1.
       -1    1    3    3    0  502  0.29006783932E+03  0.63104597908E+03 -0.24558830614E+03  0.73666274187E+03  0.50400001928E-02 0. -1.
</event>
<event>
 5   0  0.1108819E-03  0.1412736E+04  0.7818609E-02  0.8944651E-01
        2   -1    0    0  501    0  0.00000000000E+00  0.00000000000E+00  0.22671810407E+04  0.22671810407E+04  0.25500000920E-02 0. -1.
       -2   -1    0    0    0  501  0.00000000000E+00  0.00000000000E+00 -0.22007744096E+03  0.22007744098E+03  0.25500000920E-02 0.  1.
    10030    2    1    2    0    0  0.00000000000E+00  0.00000000000E+00  0.20471035997E+04  0.24872584817E+04  0.14127355048E+04 0.  0.
        3    1    3    3  502    0 -0.24580343119E+03  0.30584126830E+03  0.20576644127E+04  0.20947412857E+04  0.10100000352E+00 0. -1.
       -3    1    3    3    0  502  0.24580343119E+03 -0.30584126830E+03 -0.10560813026E+02  0.39251719600E+03  0.10100000352E+00 0.  1.
</event>
<event>
 5   0  0.1108819E-03  0.1391669E+04  0.7818609E-02  0.8959871E-01
       -2   -1    0    0    0  501  0.00000000000E+00  0.00000000000E+00  0.29936594474E+03  0.29936594475E+03  0.25500000920E-02 0. -1.
        2   -1    0    0  501    0  0.00000000000E+00  0.00000000000E+00 -0.16173706027E+04  0.16173706027E+04  0.25500000920E-02 0.  1.
    10030    2    1    2    0    0  0.00000000000E+00  0.00000000000E+00 -0.13180046579E+04  0.19167365474E+04  0.13916690389E+04 0.  0.
        3    1    3    3  502    0  0.65752971437E+03 -0.14190538167E+03 -0.90423484130E+03  0.11269973918E+04  0.10100000352E+00 0. -1.
       -3    1    3    3    0  502 -0.65752971437E+03  0.14190538167E+03 -0.41376981663E+03  0.78973915566E+03  0.10100000352E+00 0.  1.
</event>
<event>
 5   0  0.1098949E-03  0.1402470E+04  0.7818609E-02  0.8952032E-01
       -2   -1    0    0    0  501  0.00000000000E+00  0.00000000000E+00  0.26874831111E+03  0.26874831112E+03  0.25500000920E-02 0.  1.
        2   -1    0    0  501    0  0.00000000000E+00  0.00000000000E+00 -0.18297074797E+04  0.18297074797E+04  0.25500000920E-02 0. -1.
    10030    2    1    2    0    0  0.00000000000E+00  0.00000000000E+00 -0.15609591686E+04  0.20984557909E+04  0.14024703847E+04 0.  0.
        4    1    3    3  502    0  0.63610732891E+03  0.27771720999E+03 -0.63108001780E+03  0.93809540260E+03  0.12699999809E+01 0.  1.
       -4    1    3    3    0  502 -0.63610732891E+03 -0.27771720999E+03 -0.92987915082E+03  0.11603603883E+04  0.12699999809E+01 0. -1.
</event>
<event>
 5   0  0.6114266E-04  0.1408840E+04  0.7818609E-02  0.8947445E-01
       -1   -1    0    0    0  501  0.00000000000E+00  0.00000000000E+00  0.44267006918E+03  0.44267006921E+03  0.50400001928E-02 0.  1.
        1   -1    0    0  501    0  0.00000000000E+00  0.00000000000E+00 -0.11209417834E+04  0.11209417834E+04  0.50400001928E-02 0. -1.
    10030    2    1    2    0    0  0.00000000000E+00  0.00000000000E+00 -0.67827171419E+03  0.15636118526E+04  0.14088397735E+04 0.  0.
        3    1    3    3  502    0  0.17233153580E+03  0.54227850262E+03 -0.80001858152E+03  0.98173004111E+03  0.10100000352E+00 0. -1.
       -3    1    3    3    0  502 -0.17233153580E+03 -0.54227850262E+03  0.12174686733E+03  0.58188181149E+03  0.10100000352E+00 0.  1.
</event>
<event>
 5   0  0.1098949E-03  0.1421971E+04  0.7818609E-02  0.8938067E-01
        2   -1    0    0  501    0  0.00000000000E+00  0.00000000000E+00  0.11762017518E+04  0.11762017518E+04  0.25500000920E-02 0. -1.
       -2   -1    0    0    0  501  0.00000000000E+00  0.00000000000E+00 -0.42977341603E+03  0.42977341604E+03  0.25500000920E-02 0.  1.
    10030    2    1    2    0    0  0.00000000000E+00  0.00000000000E+00  0.74642833573E+03  0.16059751678E+04  0.14219708081E+04 0.  0.
        4    1    3    3  502    0 -0.37382258429E+03 -0.56488531825E+03  0.61717492649E+03  0.91637615098E+03  0.12699999809E+01 0. -1.
       -4    1    3    3    0  502  0.37382258429E+03  0.56488531825E+03  0.12925340923E+03  0.68959901682E+03  0.12699999809E+01 0.  1.
</event>
<event>
 5   0  0.6153318E-04  0.1400380E+04  0.7818609E-02  0.8953544E-01
        1   -1    0    0  501    0  0.00000000000E+00  0.00000000000E+00  0.95511767279E+03  0.95511767280E+03  0.50400001928E-02 0.  1.
       -1   -1    0    0    0  501  0.00000000000E+00  0.00000000000E+00 -0.51330408465E+03  0.51330408468E+03  0.50400001928E-02 0. -1.
    10030    2    1    2    0    0  0.00000000000E+00  0.00000000000E+00  0.44181358813E+03  0.14684217575E+04  0.14003796668E+04 0.  0.
        5    1    3    3  502    0  0.48258860170E+03  0.17086719646E+03 -0.27995891557E+03  0.58351216073E+03  0.46999998093E+01 0. -1.
       -5    1    3    3    0  502 -0.48258860170E+03 -0.17086719646E+03  0.72177250370E+03  0.88490959675E+03  0.46999998093E+01 0.  1.
</event>
<event>
 5   0  0.1175146E-03  0.1390252E+04  0.7818609E-02  0.8960905E-01
        2   -1    0    0  501    0  0.00000000000E+00  0.00000000000E+00  0.41019540499E+03  0.41019540500E+03  0.25500000920E-02 0. -1.
       -2   -1    0    0    0  501  0.00000000000E+00  0.00000000000E+00 -0.11779757053E+04  0.11779757053E+04  0.25500000920E-02 0.  1.
    10030    2    1    2    0    0  0.00000000000E+00  0.00000000000E+00 -0.76778030030E+03  0.15881711103E+04  0.13902520944E+04 0.  0.
        1    1    3    3  502    0  0.20062583165E+03 -0.24933064639E+03 -0.10888151668E+04  0.11348722232E+04  0.50400001928E-02 0.  1.
       -1    1    3    3    0  502 -0.20062583165E+03  0.24933064639E+03  0.32103486646E+03  0.45329888712E+03  0.50400001928E-02 0. -1.
</event>
<event>
 5   0  0.6097538E-04  0.1412174E+04  0.7818609E-02  0.8945053E-01
       -1   -1    0    0    0  501  0.00000000000E+00  0.00000000000E+00  0.47757481084E+03  0.47757481086E+03  0.50400001928E-02 0.  1.
        1   -1    0    0  501    0  0.00000000000E+00  0.00000000000E+00 -0.10439386496E+04  0.10439386497E+04  0.50400001928E-02 0. -1.
    10030    2    1    2    0    0  0.00000000000E+00  0.00000000000E+00 -0.56636383881E+03  0.15215134605E+04  0.14121739314E+04 0.  0.
        2    1    3    3  502    0 -0.77359191938E+02 -0.46509666221E+03 -0.84948142529E+03  0.97155444608E+03  0.25500000920E-02 0. -1.
       -2    1    3    3    0  502  0.77359191938E+02  0.46509666221E+03  0.28311758649E+03  0.54995901444E+03  0.25500000920E-02 0.  1.
</event>
<event>
 5   0  0.1095119E-03  0.1402953E+04  0.7818609E-02  0.8951684E-01
       -2   -1    0    0    0  501  0.00000000000E+00  0.00000000000E+00  0.79194583932E+03  0.79194583932E+03  0.25500000920E-02 0.  1.
        2   -1    0    0  501    0  0.00000000000E+00  0.00000000000E+00 -0.62134228535E+03  0.62134228536E+03  0.25500000920E-02 0. -1.
    10030    2    1    2    0    0  0.00000000000E+00  0.00000000000E+00  0.17060355397E+03  0.14132881247E+04  0.14029532247E+04 0.  0.
        5    1    3    3  502    0  0.43221256742E+03 -0.39538205022E+03  0.47403651886E+03  0.75356975807E+03  0.46999998093E+01 0.  1.
       -5    1    3    3    0  502 -0.43221256742E+03  0.39538205022E+03 -0.30343296489E+03  0.65971836661E+03  0.46999998093E+01 0. -1.
</event>
<event>
 5   0  0.6114266E-04  0.1402826E+04  0.7818609E-02  0.8951776E-01
       -1   -1    0    0    0  501  0.00000000000E+00  0.00000000000E+00  0.67667853984E+03  0.67667853986E+03  0.50400001928E-02 0. -1.
        1   -1    0    0  501    0  0.00000000000E+00  0.00000000000E+00 -0.72705118282E+03  0.72705118283E+03  0.50400001928E-02 0.  1.
    10030    2    1    2    0    0  0.00000000000E+00  0.00000000000E+00 -0.50372642972E+02  0.14037297227E+04  0.14028256240E+04 0.  0.
        3    1    3    3  502    0 -0.41144144608E+03 -0.24416067435E+03  0.48805888014E+03  0.68344712973E+03  0.10100000352E+00 0. -1.
       -3    1    3    3    0  502  0.41144144608E+03  0.24416067435E+03 -0.53843152311E+03  0.72028259297E+03  0.10100000352E+00 0.  1.
</event>
<event>
 5   0  0.6114266E-04  0.1399782E+04  0.7818609E-02  0.8953977E-01
        1   -1    0    0  501    0  0.00000000000E+00  0.00000000000E+00  0.53714388523E+03  0.53714388525E+03  0.50400001928E-02 0.  1.
       -1   -1    0    0    0  501  0.00000000000E+00  0.00000000000E+00 -0.91194777088E+03  0.91194777090E+03  0.50400001928E-02 0. -1.
    10030    2    1    2    0    0  0.00000000000E+00  0.00000000000E+00 -0.37480388565E+03  0.14490916562E+04  0.13997816527E+04 0.  0.
        3    1    3    3  502    0 -0.36431953175E+03  0.59576971838E+03 -0.13910131138E+03  0.71205299212E+03  0.10100000352E+00 0.  1.
       -3    1    3    3    0  502  0.36431953175E+03 -0.59576971838E+03 -0.23570257427E+03  0.73703866403E+03  0.10100000352E+00 0. -1.
</event>
<event>
 5   0  0.4176125E-04  0.1407911E+04  0.7818609E-02  0.8948112E-01
        3   -1    0    0  501    0  0.00000000000E+00  0.00000000000E+00  0.23226778329E+04  0.23226778351E+04  0.10100000352E+00 0. -1.
       -3   -1    0    0    0  501  0.00000000000E+00  0.00000000000E+00 -0.21335438024E+03  0.21335440415E+03  0.10100000352E+00 0.  1.
    10030    2    1    2    0    0  0.00000000000E+00  0.00000000000E+00  0.21093234526E+04  0.25360322392E+04  0.14079112509E+04 0.  0.
        1    1    3    3  502    0 -0.44003522949E+03  0.54905124101E+03  0.10158087203E+04  0.12357004592E+04  0.50400001928E-02 0. -1.
       -1    1    3    3    0  502  0.44003522949E+03 -0.54905124101E+03  0.10935147323E+04  0.13003317800E+04  0.50400001928E-02 0.  1.
</event>
<event>
 5   0  0.5875298E-04  0.1400368E+04  0.7818609E-02  0.8953552E-01
        1   -1    0    0  501    0  0.00000000000E+00  0.00000000000E+00  0.18696615458E+04  0.18696615458E+04  0.50400001928E-02 0. -1.
       -1   -1    0    0    0  501  0.00000000000E+00  0.00000000000E+00 -0.26221729959E+03  0.26221729964E+03  0.50400001928E-02 0.  1.
    10030    2    1    2    0    0  0.00000000000E+00  0.00000000000E+00  0.16074442462E+04  0.21318788454E+04  0.14003679541E+04 0.  0.
        1    1    3    3  502    0 -0.54430923294E+03 -0.41534233015E+03  0.58062440554E+03  0.89772294870E+03  0.50400001928E-02 0. -1.
       -1    1    3    3    0  502  0.54430923294E+03  0.41534233015E+03  0.10268198406E+04  0.12341558967E+04  0.50400001928E-02 0.  1.
</event>
<event>
 5   0  0.6097538E-04  0.1390947E+04  0.7818609E-02  0.8960398E-01
        1   -1    0    0  501    0  0.00000000000E+00  0.00000000000E+00  0.13733750999E+04  0.13733750999E+04  0.50400001928E-02 0. -1.
       -1   -1    0    0    0  501  0.00000000000E+00  0.00000000000E+00 -0.35218607483E+03  0.35218607486E+03  0.50400001928E-02 0.  1.
    10030    2    1    2    0    0  0.00000000000E+00  0.00000000000E+00  0.10211890250E+04  0.17255611747E+04  0.13909472826E+04 0.  0.
        2    1    3    3  502    0  0.36732626657E+02 -0.66278593025E+03  0.25319851973E+03  0.71045335216E+03  0.25500000920E-02 0. -1.
       -2    1    3    3    0  502 -0.36732626657E+02  0.66278593025E+03  0.76799050529E+03  0.10151078226E+04  0.25500000920E-02 0.  1.
</event>
<event>
 5   0  0.6153318E-04  0.1366614E+04  0.7818609E-02  0.8978346E-01
       -1   -1    0    0    0  501  0.00000000000E+00  0.00000000000E+00  0.37841192277E+03  0.37841192280E+03  0.50400001928E-02 0. -1.
        1   -1    0    0  501    0  0.00000000000E+00  0.00000000000E+00 -0.12338630753E+04  0.12338630753E+04  0.50400001928E-02 0.  1.
    10030    2    1    2    0    0  0.00000000000E+00  0.00000000000E+00 -0.85545115256E+03  0.16122749981E+04  0.13666140623E+04 0.  0.
        5    1    3    3  502    0 -0.44887782084E+03 -0.51509602678E+03 -0.41777118262E+03  0.80085583339E+03  0.46999998093E+01 0. -1.
       -5    1    3    3    0  502  0.44887782084E+03  0.51509602678E+03 -0.43767996994E+03  0.81141916475E+03  0.46999998093E+01 0.  1.
</event>
<event>
 5   0  0.1095119E-03  0.1435691E+04  0.7818609E-02  0.8928381E-01
        2   -1    0    0  501    0  0.00000000000E+00  0.00000000000E+00  0.16507809638E+04  0.16507809638E+04  0.25500000920E-02 0.  1.
       -2   -1    0    0    0  501  0.00000000000E+00  0.00000000000E+00 -0.31215668149E+03  0.31215668151E+03  0.25500000920E-02 0. -1.
    10030    2    1    2    0    0  0.00000000000E+00  0.00000000000E+00  0.13386242823E+04  0.19629376453E+04  0.14356912029E+04 0.  0.
        5    1    3    3  502    0  0.57638819740E+03  0.29762306634E+03  0.10895637368E+04  0.12680591746E+04  0.46999998093E+01 0.  1.
       -5    1    3    3    0  502 -0.57638819740E+03 -0.29762306634E+03  0.24906054548E+03  0.69487847069E+03  0.46999998093E+01 0. -1.
</event>
<event>
 5   0  0.6153318E-04  0.1378755E+04  0.7818609E-02  0.8969342E-01
       -1   -1    0    0    0  501  0.00000000000E+00  0.00000000000E+00  0.37680833137E+03  0.37680833141E+03  0.50400001928E-02 0.  1.
        1   -1    0    0  501    0  0.00000000000E+00  0.00000000000E+00 -0.12612287416E+04  0.12612287416E+04  0.50400001928E-02 0. -1.
    10030    2    1    2    0    0  0.00000000000E+00  0.00000000000E+00 -0.88442041022E+03  0.16380370730E+04  0.13787552323E+04 0.  0.
        5    1    3    3  502    0 -0.61882084226E+03 -0.20890912335E+03 -0.70422186407E+03  0.96048570029E+03  0.46999998093E+01 0.  1.
       -5    1    3    3    0  502  0.61882084226E+03  0.20890912335E+03 -0.18019854615E+03  0.67755137272E+03  0.46999998093E+01 0. -1.
</event>
<event>
 5   0  0.1175146E-03  0.1392779E+04  0.7818609E-02  0.8959062E-01
        2   -1    0    0  501    0  0.00000000000E+00  0.00000000000E+00  0.25769504509E+04  0.25769504509E+04  0.25500000920E-02 0.  1.
       -2   -1    0    0    0  501  0.00000000000E+00  0.00000000000E+00 -0.18819068619E+03  0.18819068621E+03  0.25500000920E-02 0. -1.
    10030    2    1    2    0    0  0.00000000000E+00  0.00000000000E+00  0.23887597647E+04  0.27651411371E+04  0.13927786237E+04 0.  0.
        1    1    3    3  502    0 -0.60168269220E+03  0.32461615966E+03  0.93129134680E+03  0.11552927273E+04  0.50400001928E-02 0. -1.
       -1    1    3    3    0  502  0.60168269220E+03 -0.32461615966E+03  0.14574684179E+04  0.16098484098E+04  0.50400001928E-02 0.  1.
</event>
<event>
 5   0  0.5875298E-04  0.1390230E+04  0.7818609E-02  0.8960921E-01
        1   -1    0    0  501    0  0.00000000000E+00  0.00000000000E+00  0.56438899064E+03  0.56438899067E+03  0.50400001928E-02 0. -1.
       -1   -1    0    0    0  501  0.00000000000E+00  0.00000000000E+00 -0.85612042177E+03  0.85612042179E+03  0.50400001928E-02 0.  1.
    10030    2    1    2    0    0  0.00000000000E+00  0.00000000000E+00 -0.29173143113E+03  0.14205094125E+04  0.13902301115E+04 0.  0.
        1    1    3    3  502    0  0.26937624137E+03 -0.26970581903E+02  0.50830814874E+03  0.57590636896E+03  0.50400001928E-02 0. -1.
       -1    1    3    3    0  502 -0.26937624137E+03  0.26970581903E+02 -0.80003957987E+03  0.84460304350E+03  0.50400001928E-02 0.  1.
</event>
<event>
 5   0  0.1098949E-03  0.1399888E+04  0.7818609E-02  0.8953900E-01
        2   -1    0    0  501    0  0.00000000000E+00  0.00000000000E+00  0.10516533986E+04  0.10516533986E+04  0.25500000920E-02 0. -1.
       -2   -1    0    0    0  501  0.00000000000E+00  0.00000000000E+00 -0.46585830095E+03  0.46585830096E+03  0.25500000920E-02 0.  1.
    10030    2    1    2    0    0  0.00000000000E+00  0.00000000000E+00  0.58579509761E+03  0.15175116995E+04  0.13998878033E+04 0.  0.
        4    1    3    3  502    0  0.27090119720E+03 -0.52295716131E+03 -0.11709882821E+03  0.60048763491E+03  0.12699999809E+01 0.  1.
       -4    1    3    3    0  502 -0.27090119720E+03  0.52295716131E+03  0.70289392582E+03  0.91702406460E+03  0.12699999809E+01 0. -1.
</event>
<event>
 5   0  0.1108819E-03  0.1390789E+04  0.7818609E-02  0.8960513E-01
        2   -1    0    0  501    0  0.00000000000E+00  0.00000000000E+00  0.14226604979E+04  0.14226604979E+04  0.25500000920E-02 0.  1.
       -2   -1    0    0    0  501  0.00000000000E+00  0.00000000000E+00 -0.33990774683E+03  0.33990774684E+03  0.25500000920E-02 0. -1.
    10030    2    1    2    0    0  0.00000000000E+00  0.00000000000E+00  0.10827527510E+04  0.17625682447E+04  0.13907887321E+04 0.  0.
        3    1    3    3  502    0  0.46050212550E+02  0.31969840390E+03 -0.23907359094E+03  0.40185057374E+03  0.10100000352E+00 0. -1.
       -3    1    3    3    0  502 -0.46050212550E+02 -0.31969840390E+03  0.13218263420E+04  0.13607176710E+04  0.10100000352E+00 0.  1.
</event>
<event>
 5   0  0.6114266E-04  0.1399593E+04  0.7818609E-02  0.8954113E-01
       -1   -1    0    0    0  501  0.00000000000E+00  0.00000000000E+00  0.62193346501E+03  0.62193346504E+03  0.50400001928E-02 0. -1.
        1   -1    0    0  501    0  0.00000000000E+00  0.00000000000E+00 -0.78740737524E+03  0.78740737526E+03  0.50400001928E-02 0.  1.
    10030    2    1    2    0    0  0.00000000000E+00  0.00000000000E+00 -0.16547391023E+03  0.14093408403E+04  0.13995927940E+04 0.  0.
        3    1    3    3  502    0  0.63584894844E+03 -0.14684496919E+03 -0.33717779551E+03  0.73454489733E+03  0.10100000352E+00 0. -1.
       -3    1    3    3    0  502 -0.63584894844E+03  0.14684496919E+03  0.17170388528E+03  0.67479594296E+03  0.10100000352E+00 0.  1.
</event>
<event>
 5   0  0.6153318E-04  0.1407262E+04  0.7818609E-02  0.8948578E-01
       -1   -1    0    0    0  501  0.00000000000E+00  0.00000000000E+00  0.97188796256E+03  0.97188796258E+03  0.50400001928E-02 0.  1.
        1   -1    0    0  501    0  0.00000000000E+00  0.00000000000E+00 -0.50941755851E+03  0.50941755853E+03  0.50400001928E-02 0. -1.
    10030    2    1    2    0    0  0.00000000000E+00  0.00000000000E+00  0.46247040406E+03  0.14813055211E+04  0.14072622969E+04 0.  0.
        5    1    3    3  502    0  0.24978113614E+03 -0.51734424671E+03  0.65886002166E+03  0.87415919815E+03  0.46999998093E+01 0.  1.
       -5    1    3    3    0  502 -0.24978113614E+03  0.51734424671E+03 -0.19638961760E+03  0.60714632295E+03  0.46999998093E+01 0. -1.
</event>
<event>
 5   0  0.4176125E-04  0.1416328E+04  0.7818609E-02  0.8942084E-01
       -3   -1    0    0    0  501  0.00000000000E+00  0.00000000000E+00  0.56260336696E+03  0.56260337603E+03  0.10100000352E+00 0. -1.
        3   -1    0    0  501    0  0.00000000000E+00  0.00000000000E+00 -0.89138502859E+03  0.89138503431E+03  0.10100000352E+00 0.  1.
    10030    2    1    2    0    0  0.00000000000E+00  0.00000000000E+00 -0.32878166163E+03  0.14539884103E+04  0.14163279692E+04 0.  0.
        3    1    3    3  502    0  0.64524282093E+03 -0.20956963165E+03  0.44081533960E+02  0.67985360212E+03  0.10100000352E+00 0. -1.
       -3    1    3    3    0  502 -0.64524282093E+03  0.20956963165E+03 -0.37286319559E+03  0.77413480822E+03  0.10100000352E+00 0.  1.
</event>
<event>
 5   0  0.6194742E-04  0.1407448E+04  0.7818609E-02  0.8948445E-01
       -1   -1    0    0    0  501  0.00000000000E+00  0.00000000000E+00  0.33138918625E+03  0.33138918629E+03  0.50400001928E-02 0.  1.
        1   -1    0    0  501    0  0.00000000000E+00  0.00000000000E+00 -0.14943983323E+04  0.14943983323E+04  0.50400001928E-02 0. -1.
    10030    2    1    2    0    0  0.00000000000E+00  0.00000000000E+00 -0.11630091460E+04  0.18257875186E+04  0.14074479704E+04 0.  0.
        4    1    3    3  502    0  0.64777347021E+03 -0.90889558834E+02 -0.91817195674E+03  0.11273476552E+04  0.12699999809E+01 0. -1.
       -4    1    3    3    0  502 -0.64777347021E+03  0.90889558834E+02 -0.24483718929E+03  0.69843986339E+03  0.12699999809E+01 0.  1.
</event>
<event>
 5   0  0.1095119E-03  0.1396857E+04  0.7818609E-02  0.8956097E-01
       -2   -1    0    0    0  501  0.00000000000E+00  0.00000000000E+00  0.38446265345E+03  0.38446265346E+03  0.25500000920E-02 0.  1.
        2   -1    0    0  501    0  0.00000000000E+00  0.00000000000E+00 -0.12687901493E+04  0.12687901493E+04  0.25500000920E-02 0. -1.
    10030    2    1    2    0    0  0.00000000000E+00  0.00000000000E+00 -0.88432749582E+03  0.16532528027E+04  0.13968570828E+04 0.  0.
        5    1    3    3  502    0 -0.54519009934E+03  0.43641538010E+03 -0.45337374361E+03  0.83262264550E+03  0.46999998093E+01 0.  1.
       -5    1    3    3    0  502  0.54519009934E+03 -0.43641538010E+03 -0.43095375221E+03  0.82063015723E+03  0.46999998093E+01 0. -1.
</event>
<event>
 5   0  0.1120053E-03  0.1395543E+04  0.7818609E-02  0.8957051E-01
       -2   -1    0    0    0  501  0.00000000000E+00  0.00000000000E+00  0.36520542142E+03  0.36520542143E+03  0.25500000920E-02 0. -1.
        2   -1    0    0  501    0  0.00000000000E+00  0.00000000000E+00 -0.13331816424E+04  0.13331816424E+04  0.25500000920E-02 0.  1.
    10030    2    1    2    0    0  0.00000000000E+00  0.00000000000E+00 -0.96797622101E+03  0.16983870639E+04  0.13955431395E+04 0.  0.
        2    1    3    3  502    0 -0.32252842817E+03  0.25885021872E+03  0.19998457278E+03  0.45937114849E+03  0.25500000920E-02 0. -1.
       -2    1    3    3    0  502  0.32252842817E+03 -0.25885021872E+03 -0.11679607938E+04  0.12390159154E+04  0.25500000920E-02 0.  1.
</event>
<event>
 5   0  0.1108819E-03  0.1407274E+04  0.7818609E-02  0.8948570E-01
        2   -1    0    0  501    0  0.00000000000E+00  0.00000000000E+00  0.17774656454E+04  0.17774656454E+04  0.25500000920E-02 0. -1.
       -2   -1    0    0    0  501  0.00000000000E+00  0.00000000000E+00 -0.27854554499E+03  0.27854554501E+03  0.25500000920E-02 0.  1.
    10030    2    1    2    0    0  0.00000000000E+00  0.00000000000E+00  0.14989201004E+04  0.20560111904E+04  0.14072741551E+04 0.  0.
        3    1    3    3  502    0  0.38507664174E+03  0.16308866635E+03  0.15762080531E+04  0.16307402521E+04  0.10100000352E+00 0. -1.
       -3    1    3    3    0  502 -0.38507664174E+03 -0.16308866635E+03 -0.77287952686E+02  0.42527093827E+03  0.10100000352E+00 0.  1.
</event>
<event>
 5   0  0.1120053E-03  0.1381631E+04  0.7818609E-02  0.8967223E-01
       -2   -1    0    0    0  501  0.00000000000E+00  0.00000000000E+00  0.46323365765E+03  0.46323365765E+03  0.25500000920E-02 0.  1.
        2   -1    0    0  501    0  0.00000000000E+00  0.00000000000E+00 -0.10302058917E+04  0.10302058917E+04  0.25500000920E-02 0. -1.
    10030    2    1    2    0    0  0.00000000000E+00  0.00000000000E+00 -0.56697223405E+03  0.14934395494E+04  0.13816309831E+04 0.  0.
        2    1    3    3  502    0 -0.13831442863E+03 -0.36513527341E+03 -0.89949144618E+03  0.98058121072E+03  0.25500000920E-02 0. -1.
       -2    1    3    3    0  502  0.13831442863E+03  0.36513527341E+03  0.33251921213E+03  0.51285833863E+03  0.25500000920E-02 0.  1.
</event>
<event>
 5   0  0.1108819E-03  0.1379137E+04  0.7818609E-02  0.8969060E-01
        2   -1    0    0  501    0  0.00000000000E+00  0.00000000000E+00  0.53394381170E+03  0.53394381170E+03  0.25500000920E-02 0. -1.
       -2   -1    0    0    0  501  0.00000000000E+00  0.00000000000E+00 -0.89055251912E+03  0.89055251912E+03  0.25500000920E-02 0.  1.
    10030    2    1    2    0    0  0.00000000000E+00  0.00000000000E+00 -0.35660870742E+03  0.14244963308E+04  0.13791374211E+04 0.  0.
        3    1    3    3  502    0  0.48589262103E+03  0.46684062735E+03 -0.26947520025E+02  0.67435746422E+03  0.10100000352E+00 0. -1.
       -3    1    3    3    0  502 -0.48589262103E+03 -0.46684062735E+03 -0.32966118739E+03  0.75013886660E+03  0.10100000352E+00 0.  1.
</event>
<event>
 5   0  0.1095119E-03  0.1454880E+04  0.7818609E-02  0.8915024E-01
        2   -1    0    0  501    0  0.00000000000E+00  0.00000000000E+00  0.16404486927E+04  0.16404486927E+04  0.25500000920E-02 0. -1.
       -2   -1    0    0    0  501  0.00000000000E+00  0.00000000000E+00 -0.32257567068E+03  0.32257567069E+03  0.25500000920E-02 0.  1.
    10030    2    1    2    0    0  0.00000000000E+00  0.00000000000E+00  0.13178730220E+04  0.19630243634E+04  0.14548798401E+04 0.  0.
        5    1    3    3  502    0 -0.29402597763E+02  0.66835170684E+03  0.27353596930E+03  0.72277419246E+03  0.46999998093E+01 0.  1.
       -5    1    3    3    0  502  0.29402597763E+02 -0.66835170684E+03  0.10443370527E+04  0.12402501709E+04  0.46999998093E+01 0. -1.
</event>
<event>
 5   0  0.1098949E-03  0.1398207E+04  0.7818609E-02  0.8955118E-01
        2   -1    0    0  501    0  0.00000000000E+00  0.00000000000E+00  0.79207818488E+03  0.79207818488E+03  0.25500000920E-02 0. -1.
       -2   -1    0    0    0  501  0.00000000000E+00  0.00000000000E+00 -0.61704210311E+03  0.61704210311E+03  0.25500000920E-02 0.  1.
    10030    2    1    2    0    0  0.00000000000E+00  0.00000000000E+00  0.17503608177E+03  0.14091202880E+04  0.13982068360E+04 0.  0.
        4    1    3    3  502    0 -0.21111086974E+03 -0.63644992108E+03 -0.11178211759E+03  0.67980376292E+03  0.12699999809E+01 0.  1.
       -4    1    3    3    0  502  0.21111086974E+03  0.63644992108E+03  0.28681819936E+03  0.72931652508E+03  0.12699999809E+01 0. -1.
</event>
<event>
 5   0  0.1098949E-03  0.1397846E+04  0.7818609E-02  0.8955379E-01
       -2   -1    0    0    0  501  0.00000000000E+00  0.00000000000E+00  0.19912975716E+03  0.19912975717E+03  0.25500000920E-02 0.  1.
        2   -1    0    0  501    0  0.00000000000E+00  0.00000000000E+00 -0.24531402358E+04  0.24531402358E+04  0.25500000920E-02 0. -1.
    10030    2    1    2    0    0  0.00000000000E+00  0.00000000000E+00 -0.22540104787E+04  0.26522699930E+04  0.13978457990E+04 0.  0.
        4    1    3    3  502    0  0.13431379438E+01 -0.31816322636E+03 -0.23077632157E+04  0.23295927359E+04  0.12699999809E+01 0. -1.
       -4    1    3    3    0  502 -0.13431379438E+01  0.31816322636E+03  0.53752736992E+02  0.32267725711E+03  0.12699999809E+01 0.  1.
</event>
<event>
 5   0  0.5875298E-04  0.1390744E+04  0.7818609E-02  0.8960546E-01
       -1   -1    0    0    0  501  0.00000000000E+00  0.00000000000E+00  0.27353659927E+03  0.27353659932E+03  0.50400001928E-02 0.  1.
        1   -1    0    0  501    0  0.00000000000E+00  0.00000000000E+00 -0.17677424693E+04  0.17677424693E+04  0.50400001928E-02 0. -1.
    10030    2    1    2    0    0  0.00000000000E+00  0.00000000000E+00 -0.14942058700E+04  0.20412790686E+04  0.13907440649E+04 0.  0.
        1    1    3    3  502    0 -0.12331178286E+03  0.60468182525E+03 -0.12174654328E+04  0.13649424844E+04  0.50400001928E-02 0. -1.
       -1    1    3    3    0  502  0.12331178286E+03 -0.60468182525E+03 -0.27674043723E+03  0.67633658426E+03  0.50400001928E-02 0.  1.
</event>
<event>
 5   0  0.1120053E-03  0.1413952E+04  0.7818609E-02  0.8943781E-01
       -2   -1    0    0    0  501  0.00000000000E+00  0.00000000000E+00  0.39260196445E+03  0.39260196446E+03  0.25500000920E-02 0. -1.
        2   -1    0    0  501    0  0.00000000000E+00  0.00000000000E+00 -0.12730833238E+04  0.12730833238E+04  0.25500000920E-02 0.  1.
    10030    2    1    2    0    0  0.00000000000E+00  0.00000000000E+00 -0.88048135938E+03  0.16656852883E+04  0.14139519283E+04 0.  0.
        2    1    3    3  502    0  0.64102332271E+03 -0.11154535717E+03 -0.11449368816E+03  0.66065276174E+03  0.25500000920E-02 0. -1.
       -2    1    3    3    0  502 -0.64102332271E+03  0.11154535717E+03 -0.76598767122E+03  0.10050325266E+04  0.25500000920E-02 0.  1.
</event>
<event>
 5   0  0.6153318E-04  0.1415419E+04  0.7818609E-02  0.8942733E-01
       -1   -1    0    0    0  501  0.00000000000E+00  0.00000000000E+00  0.76295426764E+03  0.76295426766E+03  0.50400001928E-02 0. -1.
        1   -1    0    0  501    0  0.00000000000E+00  0.00000000000E+00 -0.65646464195E+03  0.65646464196E+03  0.50400001928E-02 0.  1.
    10030    2    1    2    0    0  0.00000000000E+00  0.00000000000E+00  0.10648962569E+03  0.14194189096E+04  0.14154186662E+04 0.  0.
        5    1    3    3  502    0  0.32667787094E+02  0.54936260049E+03  0.49943368332E+03  0.74318405874E+03  0.46999998093E+01 0. -1.
       -5    1    3    3    0  502 -0.32667787094E+02 -0.54936260049E+03 -0.39294405763E+03  0.67623485088E+03  0.46999998093E+01 0.  1.
</event>
<event>
 5   0  0.6194742E-04  0.1385095E+04  0.7818609E-02  0.8964679E-01
       -1   -1    0    0    0  501  0.00000000000E+00  0.00000000000E+00  0.66806703837E+03  0.66806703838E+03  0.50400001928E-02 0.  1.
        1   -1    0    0  501    0  0.00000000000E+00  0.00000000000E+00 -0.71792511466E+03  0.71792511468E+03  0.50400001928E-02 0. -1.
    10030    2    1    2    0    0  0.00000000000E+00  0.00000000000E+00 -0.49858076293E+02  0.13859921531E+04  0.13850950944E+04 0.  0.
        4    1    3    3  502    0  0.43291390607E+03  0.44502679322E+03  0.28212013877E+03  0.68195064510E+03  0.12699999809E+01 0.  1.
       -4    1    3    3    0  502 -0.43291390607E+03 -0.44502679322E+03 -0.33197821506E+03  0.70404150796E+03  0.12699999809E+01 0. -1.
</event>
<event>
 5   0  0.6153318E-04  0.1400800E+04  0.7818609E-02  0.8953240E-01
       -1   -1    0    0    0  501  0.00000000000E+00  0.00000000000E+00  0.99124928254E+03  0.99124928256E+03  0.50400001928E-02 0.  1.
        1   -1    0    0  501    0  0.00000000000E+00  0.00000000000E+00 -0.49489095569E+03  0.49489095572E+03  0.50400001928E-02 0. -1.
    10030    2    1    2    0    0  0.00000000000E+00  0.00000000000E+00  0.49635832685E+03  0.14861402383E+04  0.14008002067E+04 0.  0.
        5    1    3    3  502    0  0.12863530397E+03  0.68670993415E+03  0.30037653951E+03  0.76050360326E+03  0.46999998093E+01 0. -1.
       -5    1    3    3    0  502 -0.12863530397E+03 -0.68670993415E+03  0.19598178735E+03  0.72563663501E+03  0.46999998093E+01 0.  1.
</event>
<event>
 5   0  0.1175146E-03  0.1378682E+04  0.7818609E-02  0.8969396E-01
        2   -1    0    0  501    0  0.00000000000E+00  0.00000000000E+00  0.84854178948E+03  0.84854178948E+03  0.25500000920E-02 0. -1.
       -2   -1    0    0    0  501  0.00000000000E+00  0.00000000000E+00 -0.56000895450E+03  0.56000895450E+03  0.25500000920E-02 0.  1.
    10030    2    1    2    0    0  0.00000000000E+00  0.00000000000E+00  0.28853283498E+03  0.14085507440E+04  0.13786819798E+04 0.  0.
        1    1    3    3  502    0 -0.24432580640E+03  0.14943470442E+03  0.78487966699E+03  0.83550100074E+03  0.50400001928E-02 0. -1.
       -1    1    3    3    0  502  0.24432580640E+03 -0.14943470442E+03 -0.49634683201E+03  0.57304974324E+03  0.50400001928E-02 0.  1.
</event>
<event>
 5   0  0.1108819E-03  0.1391559E+04  0.7818609E-02  0.8959952E-01
       -2   -1    0    0    0  501  0.00000000000E+00  0.00000000000E+00  0.12274626150E+04  0.12274626150E+04  0.25500000920E-02 0.  1.
        2   -1    0    0  501    0  0.00000000000E+00  0.00000000000E+00 -0.39439803838E+03  0.39439803839E+03  0.25500000920E-02 0. -1.
    10030    2    1    2    0    0  0.00000000000E+00  0.00000000000E+00  0.83306457660E+03  0.16218606534E+04  0.13915586190E+04 0.  0.
        3    1    3    3  502    0 -0.20845488843E+03 -0.14743938536E+03 -0.33782317039E+03  0.42345757464E+03  0.10100000352E+00 0. -1.
       -3    1    3    3    0  502  0.20845488843E+03  0.14743938536E+03  0.11708877470E+04  0.11984030787E+04  0.10100000352E+00 0.  1.
</event>
<event>
 5   0  0.1095119E-03  0.1221699E+04  0.7818609E-02  0.9094073E-01
        2   -1    0    0  501    0  0.00000000000E+00  0.00000000000E+00  0.14894423305E+04  0.14894423305E+04  0.25500000920E-02 0.  1.
       -2   -1    0    0    0  501  0.00000000000E+00  0.00000000000E+00 -0.25052133115E+03  0.25052133117E+03  0.25500000920E-02 0. -1.
    10030    2    1    2    0    0  0.00000000000E+00  0.00000000000E+00  0.12389209993E+04  0.17399636617E+04  0.12216989405E+04 0.  0.
        5    1    3    3  502    0  0.30406984366E+03  0.43426692612E+03  0.10516081044E+04  0.11776875342E+04  0.46999998093E+01 0.  1.
       -5    1    3    3    0  502 -0.30406984366E+03 -0.43426692612E+03  0.18731289498E+03  0.56227612751E+03  0.46999998093E+01 0. -1.
</event>
<event>
 5   0  0.6153318E-04  0.1306795E+04  0.7818609E-02  0.9024194E-01
        1   -1    0    0  501    0  0.00000000000E+00  0.00000000000E+00  0.13961725674E+04  0.13961725674E+04  0.50400001928E-02 0. -1.
       -1   -1    0    0    0  501  0.00000000000E+00  0.00000000000E+00 -0.30578469751E+03  0.30578469755E+03  0.50400001928E-02 0.  1.
    10030    2    1    2    0    0  0.00000000000E+00  0.00000000000E+00  0.10903878699E+04  0.17019572649E+04  0.13067948672E+04 0.  0.
        5    1    3    3  502    0  0.22473572356E+03  0.55755734819E+02 -0.25053499365E+03  0.34118136006E+03  0.46999998093E+01 0.  1.
       -5    1    3    3    0  502 -0.22473572356E+03 -0.55755734819E+02  0.13409228635E+04  0.13607759049E+04  0.46999998093E+01 0. -1.
</event>
<event>
 5   0  0.1108819E-03  0.1393633E+04  0.7818609E-02  0.8958440E-01
       -2   -1    0    0    0  501  0.00000000000E+00  0.00000000000E+00  0.76148210814E+03  0.76148210815E+03  0.25500000920E-02 0. -1.
        2   -1    0    0  501    0  0.00000000000E+00  0.00000000000E+00 -0.63764228057E+03  0.63764228058E+03  0.25500000920E-02 0.  1.
    10030    2    1    2    0    0  0.00000000000E+00  0.00000000000E+00  0.12383982757E+03  0.13991243887E+04  0.13936329331E+04 0.  0.
        3    1    3    3  502    0  0.38506202727E+03  0.43460288256E+03 -0.32482621088E+03  0.66533037496E+03  0.10100000352E+00 0.  1.
       -3    1    3    3    0  502 -0.38506202727E+03 -0.43460288256E+03  0.44866603845E+03  0.73379401376E+03  0.10100000352E+00 0. -1.
</event>
<event>
 5   0  0.1098949E-03  0.1401214E+04  0.7818609E-02  0.8952940E-01
        2   -1    0    0  501    0  0.00000000000E+00  0.00000000000E+00  0.14917242711E+04  0.14917242711E+04  0.25500000920E-02 0. -1.
       -2   -1    0    0    0  501  0.00000000000E+00  0.00000000000E+00 -0.32904891150E+03  0.32904891151E+03  0.25500000920E-02 0.  1.
    10030    2    1    2    0    0  0.00000000000E+00  0.00000000000E+00  0.11626753596E+04  0.18207731826E+04  0.14012141131E+04 0.  0.
        4    1    3    3  502    0  0.10524873724E+03 -0.68725949575E+03  0.46921207468E+03  0.83878751488E+03  0.12699999809E+01 0.  1.
       -4    1    3    3    0  502 -0.10524873724E+03  0.68725949575E+03  0.69346328487E+03  0.98198566769E+03  0.12699999809E+01 0. -1.
</event>
<event>
 5   0  0.1095119E-03  0.1397837E+04  0.7818609E-02  0.8955385E-01
       -2   -1    0    0    0  501  0.00000000000E+00  0.00000000000E+00  0.40485485814E+03  0.40485485815E+03  0.25500000920E-02 0.  1.
        2   -1    0    0  501    0  0.00000000000E+00  0.00000000000E+00 -0.12065739674E+04  0.12065739674E+04  0.25500000920E-02 0. -1.
    10030    2    1    2    0    0  0.00000000000E+00  0.00000000000E+00 -0.80171910922E+03  0.16114288255E+04  0.13978373759E+04 0.  0.
        5    1    3    3  502    0  0.56189165635E+03  0.41530410855E+03 -0.38207538806E+03  0.79636890209E+03  0.46999998093E+01 0.  1.
       -5    1    3    3    0  502 -0.56189165635E+03 -0.41530410855E+03 -0.41964372116E+03  0.81505992342E+03  0.46999998093E+01 0. -1.
</event>
<event>
 5   0  0.6153318E-04  0.1410739E+04  0.7818609E-02  0.8946081E-01
        1   -1    0    0  501    0  0.00000000000E+00  0.00000000000E+00  0.53303752843E+03  0.53303752845E+03  0.50400001928E-02 0.  1.
       -1   -1    0    0    0  501  0.00000000000E+00  0.00000000000E+00 -0.93341721118E+03  0.93341721119E+03  0.50400001928E-02 0. -1.
    10030    2    1    2    0    0  0.00000000000E+00  0.00000000000E+00 -0.40037968275E+03  0.14664547396E+04  0.14107393852E+04 0.  0.
        5    1    3    3  502    0  0.15174523262E+03  0.68316774355E+03 -0.29187490760E+03  0.75825973989E+03  0.46999998093E+01 0.  1.
       -5    1    3    3    0  502 -0.15174523262E+03 -0.68316774355E+03 -0.10850477515E+03  0.70819499975E+03  0.46999998093E+01 0. -1.
</event>
<event>
 5   0  0.1108819E-03  0.1400469E+04  0.7818609E-02  0.8953479E-01
        2   -1    0    0  501    0  0.00000000000E+00  0.00000000000E+00  0.13419279685E+04  0.13419279685E+04  0.25500000920E-02 0. -1.
       -2   -1    0    0    0  501  0.00000000000E+00  0.00000000000E+00 -0.36539083811E+03  0.36539083811E+03  0.25500000920E-02 0.  1.
    10030    2    1    2    0    0  0.00000000000E+00  0.00000000000E+00  0.97653713039E+03  0.17073188066E+04  0.14004687574E+04 0.  0.
        3    1    3    3  502    0  0.93948120250E+02  0.66258963772E+03  0.23701189834E+03  0.70994783433E+03  0.10100000352E+00 0.  1.
       -3    1    3    3    0  502 -0.93948120250E+02 -0.66258963772E+03  0.73952523205E+03  0.99737097229E+03  0.10100000352E+00 0. -1.
</event>
<event>
 5   0  0.1175146E-03  0.1406415E+04  0.7818609E-02  0.8949188E-01
        2   -1    0    0  501    0  0.00000000000E+00  0.00000000000E+00  0.10356890283E+04  0.10356890283E+04  0.25500000920E-02 0. -1.
       -2   -1    0    0    0  501  0.00000000000E+00  0.00000000000E+00 -0.47746095714E+03  0.47746095715E+03  0.25500000920E-02 0.  1.
    10030    2    1    2    0    0  0.00000000000E+00  0.00000000000E+00  0.55822807119E+03  0.15131499855E+04  0.14064154077E+04 0.  0.
        1    1    3    3  502    0 -0.57694709404E+03 -0.32029134070E+03  0.17677821533E+02  0.66012650124E+03  0.50400001928E-02 0.  1.
       -1    1    3    3    0  502  0.57694709404E+03  0.32029134070E+03  0.54055024966E+03  0.85302348425E+03  0.50400001928E-02 0. -1.
</event>
<event>
 5   0  0.1098949E-03  0.1408696E+04  0.7818609E-02  0.8947548E-01
        2   -1    0    0  501    0  0.00000000000E+00  0.00000000000E+00  0.10354011872E+04  0.10354011872E+04  0.25500000920E-02 0.  1.
       -2   -1    0    0    0  501  0.00000000000E+00  0.00000000000E+00 -0.47914390040E+03  0.47914390041E+03  0.25500000920E-02 0. -1.
    10030    2    1    2    0    0  0.00000000000E+00  0.00000000000E+00  0.55625728683E+03  0.15145450876E+04  0.14086960827E+04 0.  0.
        4    1    3    3  502    0 -0.45299094478E+03 -0.53200404738E+03  0.37354054088E+03  0.79231512106E+03  0.12699999809E+01 0. -1.
       -4    1    3    3    0  502  0.45299094478E+03  0.53200404738E+03  0.18271674595E+03  0.72222996658E+03  0.12699999809E+01 0.  1.
</event>
<event>
 5   0  0.1175146E-03  0.1390819E+04  0.7818609E-02  0.8960491E-01
       -2   -1    0    0    0  501  0.00000000000E+00  0.00000000000E+00  0.40499487203E+03  0.40499487204E+03  0.25500000920E-02 0.  1.
        2   -1    0    0  501    0  0.00000000000E+00  0.00000000000E+00 -0.11940748408E+04  0.11940748409E+04  0.25500000920E-02 0. -1.
    10030    2    1    2    0    0  0.00000000000E+00  0.00000000000E+00 -0.78907996882E+03  0.15990697129E+04  0.13908187335E+04 0.  0.
        1    1    3    3  502    0  0.68024316931E+03  0.12539727141E+03 -0.31211977082E+03  0.75886362176E+03  0.50400001928E-02 0.  1.
       -1    1    3    3    0  502 -0.68024316931E+03 -0.12539727141E+03 -0.47696019800E+03  0.84020609113E+03  0.50400001928E-02 0. -1.
</event>
<event>
 5   0  0.1108819E-03  0.1445043E+04  0.7818609E-02  0.8921844E-01
       -2   -1    0    0    0  501  0.00000000000E+00  0.00000000000E+00  0.12734452796E+04  0.12734452796E+04  0.25500000920E-02 0.  1.
        2   -1    0    0  501    0  0.00000000000E+00  0.00000000000E+00 -0.40994104500E+03  0.40994104500E+03  0.25500000920E-02 0. -1.
    10030    2    1    2    0    0  0.00000000000E+00  0.00000000000E+00  0.86350423464E+03  0.16833863246E+04  0.14450432363E+04 0.  0.
        3    1    3    3  502    0  0.49114174450E+03  0.32665044643E+03 -0.54345207198E+02  0.59234629997E+03  0.10100000352E+00 0. -1.
       -3    1    3    3    0  502 -0.49114174450E+03 -0.32665044643E+03  0.91784944183E+03  0.10910400247E+04  0.10100000352E+00 0.  1.
</event>
<event>
 5   0  0.1120053E-03  0.1432759E+04  0.7818609E-02  0.8930442E-01
       -2   -1    0    0    0  501  0.00000000000E+00  0.00000000000E+00  0.44656211247E+03  0.44656211248E+03  0.25500000920E-02 0. -1.
        2   -1    0    0  501    0  0.00000000000E+00  0.00000000000E+00 -0.11492225792E+04  0.11492225792E+04  0.25500000920E-02 0.  1.
    10030    2    1    2    0    0  0.00000000000E+00  0.00000000000E+00 -0.70266046668E+03  0.15957846916E+04  0.14327585458E+04 0.  0.
        2    1    3    3  502    0  0.28134753556E+03 -0.60300718194E+03 -0.55756916663E+02  0.66774466003E+03  0.25500000920E-02 0. -1.
       -2    1    3    3    0  502 -0.28134753556E+03  0.60300718194E+03 -0.64690355002E+03  0.92804003161E+03  0.25500000920E-02 0.  1.
</event>
<event>
 5   0  0.1175146E-03  0.1398641E+04  0.7818609E-02  0.8954803E-01
        2   -1    0    0  501    0  0.00000000000E+00  0.00000000000E+00  0.14464177543E+04  0.14464177543E+04  0.25500000920E-02 0. -1.
       -2   -1    0    0    0  501  0.00000000000E+00  0.00000000000E+00 -0.33811076057E+03  0.33811076058E+03  0.25500000920E-02 0.  1.
    10030    2    1    2    0    0  0.00000000000E+00  0.00000000000E+00  0.11083069937E+04  0.17845285149E+04  0.13986413508E+04 0.  0.
        1    1    3    3  502    0  0.48503105622E+03 -0.42684243825E+03  0.21274598208E+03  0.68022823045E+03  0.50400001928E-02 0.  1.
       -1    1    3    3    0  502 -0.48503105622E+03  0.42684243825E+03  0.89556101164E+03  0.11043002844E+04  0.50400001928E-02 0. -1.
</event>
<event>
 5   0  0.1120053E-03  0.1399497E+04  0.7818609E-02  0.8954183E-01
        2   -1    0    0  501    0  0.00000000000E+00  0.00000000000E+00  0.11680237759E+04  0.11680237759E+04  0.25500000920E-02 0. -1.
       -2   -1    0    0    0  501  0.00000000000E+00  0.00000000000E+00 -0.41921048234E+03  0.41921048235E+03  0.25500000920E-02 0.  1.
    10030    2    1    2    0    0  0.00000000000E+00  0.00000000000E+00  0.74881329356E+03  0.15872342582E+04  0.13994967817E+04 0.  0.
        2    1    3    3  502    0 -0.67192848040E+02  0.89043058762E+02  0.11578746829E+04  0.11632357141E+04  0.25500000920E-02 0. -1.
       -2    1    3    3    0  502  0.67192848040E+02 -0.89043058762E+02 -0.40906138939E+03  0.42399854415E+03  0.25500000920E-02 0.  1.
</event>
<event>
 5   0  0.5875298E-04  0.1392831E+04  0.7818609E-02  0.8959024E-01
        1   -1    0    0  501    0  0.00000000000E+00  0.00000000000E+00  0.16660819124E+04  0.16660819124E+04  0.50400001928E-02 0. -1.
       -1   -1    0    0    0  501  0.00000000000E+00  0.00000000000E+00 -0.29109891741E+03  0.29109891745E+03  0.50400001928E-02 0.  1.
    10030    2    1    2    0    0  0.00000000000E+00  0.00000000000E+00  0.13749829950E+04  0.19571808299E+04  0.13928311327E+04 0.  0.
        1    1    3    3  502    0 -0.26625063969E+03  0.21163461433E+03 -0.16645677768E+03  0.37866406216E+03  0.50400001928E-02 0.  1.
       -1    1    3    3    0  502  0.26625063969E+03 -0.21163461433E+03  0.15414397727E+04  0.15785167677E+04  0.50400001928E-02 0. -1.
</event>
<event>
 5   0  0.6097538E-04  0.1404127E+04  0.7818609E-02  0.8950836E-01
        1   -1    0    0  501    0  0.00000000000E+00  0.00000000000E+00  0.67367757562E+03  0.67367757564E+03  0.50400001928E-02 0. -1.
       -1   -1    0    0    0  501  0.00000000000E+00  0.00000000000E+00 -0.73164576448E+03  0.73164576450E+03  0.50400001928E-02 0.  1.
    10030    2    1    2    0    0  0.00000000000E+00  0.00000000000E+00 -0.57968188862E+02  0.14053233401E+04  0.14041272661E+04 0.  0.
        2    1    3    3  502    0  0.13246345166E+03  0.81332597121E+02 -0.71420718563E+03  0.73092644048E+03  0.25500000920E-02 0.  1.
       -2    1    3    3    0  502 -0.13246345166E+03 -0.81332597121E+02  0.65623899677E+03  0.67439689965E+03  0.25500000920E-02 0. -1.
</event>
<event>
 5   0  0.6194742E-04  0.1398349E+04  0.7818609E-02  0.8955014E-01
        1   -1    0    0  501    0  0.00000000000E+00  0.00000000000E+00  0.56096378542E+03  0.56096378544E+03  0.50400001928E-02 0.  1.
       -1   -1    0    0    0  501  0.00000000000E+00  0.00000000000E+00 -0.87143824131E+03  0.87143824132E+03  0.50400001928E-02 0. -1.
    10030    2    1    2    0    0  0.00000000000E+00  0.00000000000E+00 -0.31047445588E+03  0.14324020268E+04  0.13983494479E+04 0.  0.
        4    1    3    3  502    0  0.69450323538E+03  0.80464241825E+02 -0.14922544493E+03  0.71489795389E+03  0.12699999809E+01 0.  1.
       -4    1    3    3    0  502 -0.69450323538E+03 -0.80464241825E+02 -0.16124901095E+03  0.71750407287E+03  0.12699999809E+01 0. -1.
</event>
<event>
 5   0  0.6153318E-04  0.1406707E+04  0.7818609E-02  0.8948978E-01
       -1   -1    0    0    0  501  0.00000000000E+00  0.00000000000E+00  0.52263584789E+03  0.52263584792E+03  0.50400001928E-02 0.  1.
        1   -1    0    0  501    0  0.00000000000E+00  0.00000000000E+00 -0.94656045654E+03  0.94656045655E+03  0.50400001928E-02 0. -1.
    10030    2    1    2    0    0  0.00000000000E+00  0.00000000000E+00 -0.42392460865E+03  0.14691963045E+04  0.14067073993E+04 0.  0.
        5    1    3    3  502    0 -0.16010189267E+03  0.56724933158E+03 -0.61278086134E+03  0.85025107718E+03  0.46999998093E+01 0. -1.
       -5    1    3    3    0  502  0.16010189267E+03 -0.56724933158E+03  0.18885625270E+03  0.61894522730E+03  0.46999998093E+01 0.  1.
</event>
<event>
 5   0  0.1108819E-03  0.1391214E+04  0.7818609E-02  0.8960203E-01
       -2   -1    0    0    0  501  0.00000000000E+00  0.00000000000E+00  0.28641267482E+03  0.28641267483E+03  0.25500000920E-02 0. -1.
        2   -1    0    0  501    0  0.00000000000E+00  0.00000000000E+00 -0.16894121553E+04  0.16894121553E+04  0.25500000920E-02 0.  1.
    10030    2    1    2    0    0  0.00000000000E+00  0.00000000000E+00 -0.14029994805E+04  0.19758248301E+04  0.13912139365E+04 0.  0.
        3    1    3    3  502    0  0.68462143397E+03  0.51764325342E+02 -0.54282278967E+03  0.87523862141E+03  0.10100000352E+00 0. -1.
       -3    1    3    3    0  502 -0.68462143397E+03 -0.51764325342E+02 -0.86017669080E+03  0.11005862087E+04  0.10100000352E+00 0.  1.
</event>
<event>
 5   0  0.4176125E-04  0.1411411E+04  0.7818609E-02  0.8945600E-01
        3   -1    0    0  501    0  0.00000000000E+00  0.00000000000E+00  0.56059683311E+03  0.56059684221E+03  0.10100000352E+00 0.  1.
       -3   -1    0    0    0  501  0.00000000000E+00  0.00000000000E+00 -0.88837568076E+03  0.88837568650E+03  0.10100000352E+00 0. -1.
    10030    2    1    2    0    0  0.00000000000E+00  0.00000000000E+00 -0.32777884765E+03  0.14489725287E+04  0.14114114978E+04 0.  0.
        5    1    3    3  502    0 -0.49177702189E+02  0.24731258256E+03 -0.84053256491E+03  0.87755287166E+03  0.46999998093E+01 0. -1.
       -5    1    3    3    0  502  0.49177702189E+02 -0.24731258256E+03  0.51275371727E+03  0.57141965704E+03  0.46999998093E+01 0.  1.
</event>
<event>
 5   0  0.1108819E-03  0.1389648E+04  0.7818609E-02  0.8961346E-01
        2   -1    0    0  501    0  0.00000000000E+00  0.00000000000E+00  0.89464973054E+03  0.89464973054E+03  0.25500000920E-02 0. -1.
       -2   -1    0    0    0  501  0.00000000000E+00  0.00000000000E+00 -0.53963068012E+03  0.53963068013E+03  0.25500000920E-02 0.  1.
    10030    2    1    2    0    0  0.00000000000E+00  0.00000000000E+00  0.35501905042E+03  0.14342804107E+04  0.13896480743E+04 0.  0.
        3    1    3    3  502    0 -0.62291578793E+03  0.19836439083E+03 -0.65439504123E+02  0.65700445151E+03  0.10100000352E+00 0.  1.
       -3    1    3    3    0  502  0.62291578793E+03 -0.19836439083E+03  0.42045855454E+03  0.77727595916E+03  0.10100000352E+00 0. -1.
</event>
<event>
 5   0  0.6114266E-04  0.1384722E+04  0.7818609E-02  0.8964953E-01
       -1   -1    0    0    0  501  0.00000000000E+00  0.00000000000E+00  0.18779773800E+03  0.18779773807E+03  0.50400001928E-02 0. -1.
        1   -1    0    0  501    0  0.00000000000E+00  0.00000000000E+00 -0.25525519179E+04  0.25525519180E+04  0.50400001928E-02 0.  1.
    10030    2    1    2    0    0  0.00000000000E+00  0.00000000000E+00 -0.23647541799E+04  0.27403496560E+04  0.13847215986E+04 0.  0.
        3    1    3    3  502    0  0.60927917869E+03 -0.32884860143E+03 -0.11843018789E+04  0.13718358032E+04  0.10100000352E+00 0. -1.
       -3    1    3    3    0  502 -0.60927917869E+03  0.32884860143E+03 -0.11804523010E+04  0.13685138529E+04  0.10100000352E+00 0.  1.
</event>
<event>
 5   0  0.6194742E-04  0.1394734E+04  0.7818609E-02  0.8957639E-01
       -1   -1    0    0    0  501  0.00000000000E+00  0.00000000000E+00  0.39760501571E+03  0.39760501574E+03  0.50400001928E-02 0.  1.
        1   -1    0    0  501    0  0.00000000000E+00  0.00000000000E+00 -0.12231260986E+04  0.12231260986E+04  0.50400001928E-02 0. -1.
    10030    2    1    2    0    0  0.00000000000E+00  0.00000000000E+00 -0.82552108291E+03  0.16207311144E+04  0.13947344861E+04 0.  0.
        4    1    3    3  502    0 -0.70727305368E+02 -0.14008455565E+03  0.37681970530E+03  0.40819203527E+03  0.12699999809E+01 0.  1.
       -4    1    3    3    0  502  0.70727305368E+02  0.14008455565E+03 -0.12023407882E+04  0.12125390791E+04  0.12699999809E+01 0. -1.
</event>
<event>
 5   0  0.6153318E-04  0.1205877E+04  0.7818609E-02  0.9107728E-01
       -1   -1    0    0    0  501  0.00000000000E+00  0.00000000000E+00  0.33046903309E+03  0.33046903313E+03  0.50400001928E-02 0. -1.
        1   -1    0    0  501    0  0.00000000000E+00  0.00000000000E+00 -0.11000578343E+04  0.11000578343E+04  0.50400001928E-02 0.  1.
    10030    2    1    2    0    0  0.00000000000E+00  0.00000000000E+00 -0.76958880124E+03  0.14305268675E+04  0.12058773551E+04 0.  0.
        5    1    3    3  502    0 -0.99247741262E+02  0.19995201453E+03  0.27961796049E+03  0.35782567836E+03  0.46999998093E+01 0. -1.
       -5    1    3    3    0  502  0.99247741262E+02 -0.19995201453E+03 -0.10492067617E+04  0.10727011891E+04  0.46999998093E+01 0.  1.
</event>
<event>
 5   0  0.1098949E-03  0.1402622E+04  0.7818609E-02  0.8951923E-01
       -2   -1    0    0    0  501  0.00000000000E+00  0.00000000000E+00  0.62369424762E+03  0.62369424763E+03  0.25500000920E-02 0. -1.
        2   -1    0    0  501    0  0.00000000000E+00  0.00000000000E+00 -0.78858702374E+03  0.78858702374E+03  0.25500000920E-02 0.  1.
    10030    2    1    2    0    0  0.00000000000E+00  0.00000000000E+00 -0.16489277611E+03  0.14122812714E+04  0.14026221023E+04 0.  0.
        4    1    3    3  502    0 -0.36391534874E+02  0.56740901986E+03 -0.49583214873E+03  0.75440603937E+03  0.12699999809E+01 0.  1.
       -4    1    3    3    0  502  0.36391534874E+02 -0.56740901986E+03  0.33093937262E+03  0.65787523200E+03  0.12699999809E+01 0. -1.
</event>
<event>
 5   0  0.1098949E-03  0.1392040E+04  0.7818609E-02  0.8959600E-01
        2   -1    0    0  501    0  0.00000000000E+00  0.00000000000E+00  0.88351410668E+03  0.88351410669E+03  0.25500000920E-02 0.  1.
       -2   -1    0    0    0  501  0.00000000000E+00  0.00000000000E+00 -0.54831511703E+03  0.54831511704E+03  0.25500000920E-02 0. -1.
    10030    2    1    2    0    0  0.00000000000E+00  0.00000000000E+00  0.33519898965E+03  0.14318292237E+04  0.13920404316E+04 0.  0.
        4    1    3    3  502    0  0.16279043870E+02 -0.21361610507E+03 -0.51355682664E+03  0.55645222140E+03  0.12699999809E+01 0. -1.
       -4    1    3    3    0  502 -0.16279043870E+02  0.21361610507E+03  0.84875581629E+03  0.87537700232E+03  0.12699999809E+01 0.  1.
</event>
<event>
 5   0  0.1108819E-03  0.1406574E+04  0.7818609E-02  0.8949074E-01
        2   -1    0    0  501    0  0.00000000000E+00  0.00000000000E+00  0.20491995849E+04  0.20491995849E+04  0.25500000920E-02 0. -1.
       -2   -1    0    0    0  501  0.00000000000E+00  0.00000000000E+00 -0.24136873862E+03  0.24136873863E+03  0.25500000920E-02 0.  1.
    10030    2    1    2    0    0  0.00000000000E+00  0.00000000000E+00  0.18078308463E+04  0.22905683236E+04  0.14065741630E+04 0.  0.
        3    1    3    3  502    0  0.13158808856E+03  0.68687540205E+03  0.10246803626E+04  0.12405978796E+04  0.10100000352E+00 0. -1.
       -3    1    3    3    0  502 -0.13158808856E+03 -0.68687540205E+03  0.78315048370E+03  0.10499704440E+04  0.10100000352E+00 0.  1.
</event>
<event>
 5   0  0.5875298E-04  0.1395197E+04  0.7818609E-02  0.8957303E-01
       -1   -1    0    0    0  501  0.00000000000E+00  0.00000000000E+00  0.26813361299E+03  0.26813361304E+03  0.50400001928E-02 0.  1.
        1   -1    0    0  501    0  0.00000000000E+00  0.00000000000E+00 -0.18149297561E+04  0.18149297561E+04  0.50400001928E-02 0. -1.
    10030    2    1    2    0    0  0.00000000000E+00  0.00000000000E+00 -0.15467961431E+04  0.20830633691E+04  0.13951970081E+04 0.  0.
        1    1    3    3  502    0  0.18444369369E+03  0.62853337804E+03 -0.11316306017E+04  0.13075402487E+04  0.50400001928E-02 0.  1.
       -1    1    3    3    0  502 -0.18444369369E+03 -0.62853337804E+03 -0.41516554145E+03  0.77552312041E+03  0.50400001928E-02 0. -1.
</event>
<event>
 5   0  0.1098949E-03  0.1398566E+04  0.7818609E-02  0.8954857E-01
       -2   -1    0    0    0  501  0.00000000000E+00  0.00000000000E+00  0.12350447078E+04  0.12350447078E+04  0.25500000920E-02 0. -1.
        2   -1    0    0  501    0  0.00000000000E+00  0.00000000000E+00 -0.39593429694E+03  0.39593429695E+03  0.25500000920E-02 0.  1.
    10030    2    1    2    0    0  0.00000000000E+00  0.00000000000E+00  0.83911041082E+03  0.16309790047E+04  0.13985657769E+04 0.  0.
        4    1    3    3  502    0  0.33944121967E+03  0.51175005934E+02 -0.29091121151E+03  0.44996685292E+03  0.12699999809E+01 0.  1.
       -4    1    3    3    0  502 -0.33944121967E+03 -0.51175005934E+02  0.11300216223E+04  0.11810121518E+04  0.12699999809E+01 0. -1.
</event>
<event>
 5   0  0.6194742E-04  0.1386217E+04  0.7818609E-02  0.8963856E-01
        1   -1    0    0  501    0  0.00000000000E+00  0.00000000000E+00  0.54603420596E+03  0.54603420599E+03  0.50400001928E-02 0. -1.
       -1   -1    0    0    0  501  0.00000000000E+00  0.00000000000E+00 -0.87979712240E+03  0.87979712241E+03  0.50400001928E-02 0.  1.
    10030    2    1    2    0    0  0.00000000000E+00  0.00000000000E+00 -0.33376291643E+03  0.14258313284E+04  0.13862168996E+04 0.  0.
        4    1    3    3  502    0  0.64873302027E+03 -0.24069037009E+03 -0.12559301969E+03  0.70325074144E+03  0.12699999809E+01 0.  1.
       -4    1    3    3    0  502 -0.64873302027E+03  0.24069037009E+03 -0.20816989674E+03  0.72258058696E+03  0.12699999809E+01 0. -1.
</event>
<event>
 5   0  0.1175146E-03  0.1394041E+04  0.7818609E-02  0.8958144E-01
       -2   -1    0    0    0  501  0.00000000000E+00  0.00000000000E+00  0.20136198717E+03  0.20136198719E+03  0.25500000920E-02 0.  1.
        2   -1    0    0  501    0  0.00000000000E+00  0.00000000000E+00 -0.24127561163E+04  0.24127561163E+04  0.25500000920E-02 0. -1.
    10030    2    1    2    0    0  0.00000000000E+00  0.00000000000E+00 -0.22113941292E+04  0.26141181035E+04  0.13940406969E+04 0.  0.
        1    1    3    3  502    0 -0.15972480692E+03 -0.11015818069E+03 -0.23610940716E+04  0.23690529867E+04  0.50400001928E-02 0. -1.
       -1    1    3    3    0  502  0.15972480692E+03  0.11015818069E+03  0.14969994241E+03  0.24506511687E+03  0.50400001928E-02 0.  1.
</event>
<event>
 5   0  0.1095119E-03  0.1384426E+04  0.7818609E-02  0.8965170E-01
       -2   -1    0    0    0  501  0.00000000000E+00  0.00000000000E+00  0.34267599789E+03  0.34267599790E+03  0.25500000920E-02 0.  1.
        2   -1    0    0  501    0  0.00000000000E+00  0.00000000000E+00 -0.13982844540E+04  0.13982844540E+04  0.25500000920E-02 0. -1.
    10030    2    1    2    0    0  0.00000000000E+00  0.00000000000E+00 -0.10556084561E+04  0.17409604519E+04  0.13844255424E+04 0.  0.
        5    1    3    3  502    0 -0.22839226184E+03 -0.11506570572E+03 -0.13366757306E+04  0.13609288155E+04  0.46999998093E+01 0. -1.
       -5    1    3    3    0  502  0.22839226184E+03  0.11506570572E+03  0.28106727452E+03  0.38003163645E+03  0.46999998093E+01 0.  1.
</event>
<event>
 5   0  0.5875298E-04  0.1397506E+04  0.7818609E-02  0.8955625E-01
        1   -1    0    0  501    0  0.00000000000E+00  0.00000000000E+00  0.17026087402E+04  0.17026087402E+04  0.50400001928E-02 0.  1.
       -1   -1    0    0    0  501  0.00000000000E+00  0.00000000000E+00 -0.28676939392E+03  0.28676939397E+03  0.50400001928E-02 0. -1.
    10030    2    1    2    0    0  0.00000000000E+00  0.00000000000E+00  0.14158393463E+04  0.19893781342E+04  0.13975064602E+04 0.  0.
        1    1    3    3  502    0  0.17024499128E+03  0.88924155692E+02 -0.24845388200E+03  0.31403852316E+03  0.50400001928E-02 0. -1.
       -1    1    3    3    0  502 -0.17024499128E+03 -0.88924155692E+02  0.16642932283E+04  0.16753396110E+04  0.50400001928E-02 0.  1.
</event>
<event>
 5   0  0.5875298E-04  0.1411191E+04  0.7818609E-02  0.8945758E-01
        1   -1    0    0  501    0  0.00000000000E+00  0.00000000000E+00  0.15286179940E+04  0.15286179941E+04  0.50400001928E-02 0.  1.
       -1   -1    0    0    0  501  0.00000000000E+00  0.00000000000E+00 -0.32569596383E+03  0.32569596387E+03  0.50400001928E-02 0. -1.
    10030    2    1    2    0    0  0.00000000000E+00  0.00000000000E+00  0.12029220302E+04  0.18543139579E+04  0.14111905767E+04 0.  0.
        1    1    3    3  502    0  0.52922160951E+02  0.69463907072E+03  0.45431268961E+03  0.83169959340E+03  0.50400001928E-02 0. -1.
       -1    1    3    3    0  502 -0.52922160951E+02 -0.69463907072E+03  0.74860934060E+03  0.10226143645E+04  0.50400001928E-02 0.  1.
</event>
<event>
 5   0  0.6194742E-04  0.1413760E+04  0.7818609E-02  0.8943918E-01
       -1   -1    0    0    0  501  0.00000000000E+00  0.00000000000E+00  0.62653508997E+03  0.62653508999E+03  0.50400001928E-02 0.  1.
        1   -1    0    0  501    0  0.00000000000E+00  0.00000000000E+00 -0.79752830963E+03  0.79752830965E+03  0.50400001928E-02 0. -1.
    10030    2    1    2    0    0  0.00000000000E+00  0.00000000000E+00 -0.17099321966E+03  0.14240633996E+04  0.14137601936E+04 0.  0.
        4    1    3    3  502    0 -0.30842390670E+03 -0.28411222657E+03 -0.65870691471E+03  0.78085944696E+03  0.12699999809E+01 0. -1.
       -4    1    3    3    0  502  0.30842390670E+03  0.28411222657E+03  0.48771369505E+03  0.64320395268E+03  0.12699999809E+01 0.  1.
</event>
<event>
 5   0  0.1098949E-03  0.1402849E+04  0.7818609E-02  0.8951759E-01
        2   -1    0    0  501    0  0.00000000000E+00  0.00000000000E+00  0.13964511800E+04  0.13964511800E+04  0.25500000920E-02 0.  1.
       -2   -1    0    0    0  501  0.00000000000E+00  0.00000000000E+00 -0.35231887661E+03  0.35231887662E+03  0.25500000920E-02 0. -1.
    10030    2    1    2    0    0  0.00000000000E+00  0.00000000000E+00  0.10441323034E+04  0.17487700567E+04  0.14028486889E+04 0.  0.
        4    1    3    3  502    0 -0.32347834349E+02  0.49750344850E+03  0.11371246890E+04  0.12416159772E+04  0.12699999809E+01 0.  1.
       -4    1    3    3    0  502  0.32347834349E+02 -0.49750344850E+03 -0.92992385546E+02  0.50715407947E+03  0.12699999809E+01 0. -1.
</event>
<event>
 5   0  0.5875298E-04  0.1392337E+04  0.7818609E-02  0.8959384E-01
       -1   -1    0    0    0  501  0.00000000000E+00  0.00000000000E+00  0.26045617840E+03  0.26045617845E+03  0.50400001928E-02 0.  1.
        1   -1    0    0  501    0  0.00000000000E+00  0.00000000000E+00 -0.18607768776E+04  0.18607768776E+04  0.50400001928E-02 0. -1.
    10030    2    1    2    0    0  0.00000000000E+00  0.00000000000E+00 -0.16003206992E+04  0.21212330560E+04  0.13923373649E+04 0.  0.
        1    1    3    3  502    0  0.52037672635E+03  0.25238376113E+03 -0.20979213450E+03  0.61522535703E+03  0.50400001928E-02 0.  1.
       -1    1    3    3    0  502 -0.52037672635E+03 -0.25238376113E+03 -0.13905285647E+04  0.15060076990E+04  0.50400001928E-02 0. -1.
</event>
<event>
 5   0  0.1175146E-03  0.1396849E+04  0.7818609E-02  0.8956102E-01
       -2   -1    0    0    0  501  0.00000000000E+00  0.00000000000E+00  0.42419480133E+03  0.42419480134E+03  0.25500000920E-02 0.  1.
        2   -1    0    0  501    0  0.00000000000E+00  0.00000000000E+00 -0.11499361621E+04  0.11499361621E+04  0.25500000920E-02 0. -1.
    10030    2    1    2    0    0  0.00000000000E+00  0.00000000000E+00 -0.72574136076E+03  0.15741309634E+04  0.13968492286E+04 0.  0.
        1    1    3    3  502    0 -0.27079632133E+02 -0.69281251065E+03 -0.45765532585E+03  0.83076523681E+03  0.50400001928E-02 0.  1.
       -1    1    3    3    0  502  0.27079632133E+02  0.69281251065E+03 -0.26808603491E+03  0.74336572663E+03  0.50400001928E-02 0. -1.
</event>
<event>
 5   0  0.4176125E-04  0.1392673E+04  0.7818609E-02  0.8959139E-01
       -3   -1    0    0    0  501  0.00000000000E+00  0.00000000000E+00  0.88054397125E+03  0.88054397704E+03  0.10100000352E+00 0.  1.
        3   -1    0    0  501    0  0.00000000000E+00  0.00000000000E+00 -0.55066472817E+03  0.55066473743E+03  0.10100000352E+00 0. -1.
    10030    2    1    2    0    0  0.00000000000E+00  0.00000000000E+00  0.32987924307E+03  0.14312087145E+04  0.13926729944E+04 0.  0.
        1    1    3    3  502    0 -0.13064707496E+03 -0.45939213653E+03  0.68569043053E+03  0.83563219172E+03  0.50400001928E-02 0.  1.
       -1    1    3    3    0  502  0.13064707496E+03  0.45939213653E+03 -0.35581118745E+03  0.59557652275E+03  0.50400001928E-02 0. -1.
</event>
<event>
 5   0  0.6153318E-04  0.1405448E+04  0.7818609E-02  0.8949884E-01
        1   -1    0    0  501    0  0.00000000000E+00  0.00000000000E+00  0.16315562216E+04  0.16315562216E+04  0.50400001928E-02 0. -1.
       -1   -1    0    0    0  501  0.00000000000E+00  0.00000000000E+00 -0.30266877020E+03  0.30266877024E+03  0.50400001928E-02 0.  1.
    10030    2    1    2    0    0  0.00000000000E+00  0.00000000000E+00  0.13288874514E+04  0.19342249918E+04  0.14054481351E+04 0.  0.
        5    1    3    3  502    0 -0.44954608042E+03 -0.21337871330E+03  0.13472787529E+04  0.14362465950E+04  0.46999998093E+01 0.  1.
       -5    1    3    3    0  502  0.44954608042E+03  0.21337871330E+03 -0.18391301529E+02  0.49797839680E+03  0.46999998093E+01 0. -1.
</event>
<event>
 5   0  0.1108819E-03  0.1396142E+04  0.7818609E-02  0.8956616E-01
       -2   -1    0    0    0  501  0.00000000000E+00  0.00000000000E+00  0.90864451093E+03  0.90864451093E+03  0.25500000920E-02 0. -1.
        2   -1    0    0  501    0  0.00000000000E+00  0.00000000000E+00 -0.53629676690E+03  0.53629676690E+03  0.25500000920E-02 0.  1.
    10030    2    1    2    0    0  0.00000000000E+00  0.00000000000E+00  0.37234774403E+03  0.14449412778E+04  0.13961419892E+04 0.  0.
        3    1    3    3  502    0 -0.52988757315E+03  0.41038538320E+02 -0.28223593583E+03  0.60176584772E+03  0.10100000352E+00 0.  1.
       -3    1    3    3    0  502  0.52988757315E+03 -0.41038538320E+02  0.65458367986E+03  0.84317543012E+03  0.10100000352E+00 0. -1.
</event>
<event>
 5   0  0.5875298E-04  0.1405805E+04  0.7818609E-02  0.8949627E-01
       -1   -1    0    0    0  501  0.00000000000E+00  0.00000000000E+00  0.72613572044E+03  0.72613572046E+03  0.50400001928E-02 0.  1.
        1   -1    0    0  501    0  0.00000000000E+00  0.00000000000E+00 -0.68041248905E+03  0.68041248907E+03  0.50400001928E-02 0. -1.
    10030    2    1    2    0    0  0.00000000000E+00  0.00000000000E+00  0.45723231391E+02  0.14065482095E+04  0.14058048413E+04 0.  0.
        1    1    3    3  502    0  0.33990272814E+03  0.56193713590E+03  0.27352273976E+03  0.71142244728E+03  0.50400001928E-02 0. -1.
       -1    1    3    3    0  502 -0.33990272814E+03 -0.56193713590E+03 -0.22779950837E+03  0.69512576225E+03  0.50400001928E-02 0.  1.
</event>
<event>
 5   0  0.6153318E-04  0.1298313E+04  0.7818609E-02  0.9030904E-01
        1   -1    0    0  501    0  0.00000000000E+00  0.00000000000E+00  0.66691784913E+03  0.66691784915E+03  0.50400001928E-02 0.  1.
       -1   -1    0    0    0  501  0.00000000000E+00  0.00000000000E+00 -0.63186772352E+03  0.63186772354E+03  0.50400001928E-02 0. -1.
    10030    2    1    2    0    0  0.00000000000E+00  0.00000000000E+00  0.35050125605E+02  0.12987855727E+04  0.12983125404E+04 0.  0.
        5    1    3    3  502    0 -0.10567698839E+03  0.10616692451E+03  0.64937432417E+03  0.66644440475E+03  0.46999998093E+01 0.  1.
       -5    1    3    3    0  502  0.10567698839E+03 -0.10616692451E+03 -0.61432419856E+03  0.63234116794E+03  0.46999998093E+01 0. -1.
</event>
<event>
 5   0  0.1095119E-03  0.1389296E+04  0.7818609E-02  0.8961603E-01
        2   -1    0    0  501    0  0.00000000000E+00  0.00000000000E+00  0.15147387117E+04  0.15147387117E+04  0.25500000920E-02 0.  1.
       -2   -1    0    0    0  501  0.00000000000E+00  0.00000000000E+00 -0.31856062669E+03  0.31856062670E+03  0.25500000920E-02 0. -1.
    10030    2    1    2    0    0  0.00000000000E+00  0.00000000000E+00  0.11961780851E+04  0.18332993384E+04  0.13892963878E+04 0.  0.
        5    1    3    3  502    0 -0.18192088052E+03 -0.46587921644E+03  0.12342009487E+04  0.13316954317E+04  0.46999998093E+01 0. -1.
       -5    1    3    3    0  502  0.18192088052E+03  0.46587921644E+03 -0.38022863650E+02  0.50160390672E+03  0.46999998093E+01 0.  1.
</event>
<event>
 5   0  0.5875298E-04  0.1463280E+04  0.7818609E-02  0.8909245E-01
       -1   -1    0    0    0  501  0.00000000000E+00  0.00000000000E+00  0.50598166631E+03  0.50598166633E+03  0.50400001928E-02 0.  1.
        1   -1    0    0  501    0  0.00000000000E+00  0.00000000000E+00 -0.10579384180E+04  0.10579384180E+04  0.50400001928E-02 0. -1.
    10030    2    1    2    0    0  0.00000000000E+00  0.00000000000E+00 -0.55195675168E+03  0.15639200843E+04  0.14632804839E+04 0.  0.
        1    1    3    3  502    0 -0.40483327450E+03  0.44244372771E+03 -0.72391059719E+03  0.94004945885E+03  0.50400001928E-02 0. -1.
       -1    1    3    3    0  502  0.40483327450E+03 -0.44244372771E+03  0.17195384551E+03  0.62387062548E+03  0.50400001928E-02 0.  1.
</event>
<event>
 5   0  0.6153318E-04  0.1318864E+04  0.7818609E-02  0.9014739E-01
       -1   -1    0    0    0  501  0.00000000000E+00  0.00000000000E+00  0.35120205087E+03  0.35120205091E+03  0.50400001928E-02 0. -1.
        1   -1    0    0  501    0  0.00000000000E+00  0.00000000000E+00 -0.12381769323E+04  0.12381769323E+04  0.50400001928E-02 0.  1.
    10030    2    1    2    0    0  0.00000000000E+00  0.00000000000E+00 -0.88697488145E+03  0.15893789832E+04  0.13188635684E+04 0.  0.
        5    1    3    3  502    0 -0.30915123022E+03 -0.48735938410E+03 -0.82786833929E+03  0.10091985581E+04  0.46999998093E+01 0.  1.
       -5    1    3    3    0  502  0.30915123022E+03  0.48735938410E+03 -0.59106542156E+02  0.58018042516E+03  0.46999998093E+01 0. -1.
</event>
<event>
 5   0  0.6114266E-04  0.1397309E+04  0.7818609E-02  0.8955769E-01
       -1   -1    0    0    0  501  0.00000000000E+00  0.00000000000E+00  0.27381556889E+03  0.27381556894E+03  0.50400001928E-02 0.  1.
        1   -1    0    0  501    0  0.00000000000E+00  0.00000000000E+00 -0.17826531441E+04  0.17826531442E+04  0.50400001928E-02 0. -1.
    10030    2    1    2    0    0  0.00000000000E+00  0.00000000000E+00 -0.15088375752E+04  0.20564687131E+04  0.13973091066E+04 0.  0.
        3    1    3    3  502    0 -0.61550691330E+03 -0.10907396299E+03 -0.12136668131E+04  0.13651860800E+04  0.10100000352E+00 0. -1.
       -3    1    3    3    0  502  0.61550691330E+03  0.10907396299E+03 -0.29517076215E+03  0.69128263305E+03  0.10100000352E+00 0.  1.
</event>
<event>
 5   0  0.1098949E-03  0.1392246E+04  0.7818609E-02  0.8959451E-01
        2   -1    0    0  501    0  0.00000000000E+00  0.00000000000E+00  0.59737330748E+03  0.59737330749E+03  0.25500000920E-02 0.  1.
       -2   -1    0    0    0  501  0.00000000000E+00  0.00000000000E+00 -0.81119629836E+03  0.81119629836E+03  0.25500000920E-02 0. -1.
    10030    2    1    2    0    0  0.00000000000E+00  0.00000000000E+00 -0.21382299087E+03  0.14085696058E+04  0.13922456906E+04 0.  0.
        4    1    3    3  502    0  0.14695034332E+03 -0.98480316614E+02  0.57425261581E+03  0.60088306336E+03  0.12699999809E+01 0.  1.
       -4    1    3    3    0  502 -0.14695034332E+03  0.98480316614E+02 -0.78807560669E+03  0.80768654249E+03  0.12699999809E+01 0. -1.
</event>
<event>
 5   0  0.6097538E-04  0.1407680E+04  0.7818609E-02  0.8948278E-01
       -1   -1    0    0    0  501  0.00000000000E+00  0.00000000000E+00  0.58328968085E+03  0.58328968087E+03  0.50400001928E-02 0.  1.
        1   -1    0    0  501    0  0.00000000000E+00  0.00000000000E+00 -0.84930499856E+03  0.84930499858E+03  0.50400001928E-02 0. -1.
    10030    2    1    2    0    0  0.00000000000E+00  0.00000000000E+00 -0.26601531771E+03  0.14325946794E+04  0.14076801364E+04 0.  0.
        2    1    3    3  502    0  0.36404315476E+03 -0.80707379043E+02 -0.74052345679E+03  0.82910559618E+03  0.25500000920E-02 0. -1.
       -2    1    3    3    0  502 -0.36404315476E+03  0.80707379043E+02  0.47450813908E+03  0.60348908326E+03  0.25500000920E-02 0.  1.
</event>
<event>
 5   0  0.4176125E-04  0.1410924E+04  0.7818609E-02  0.8945949E-01
       -3   -1    0    0    0  501  0.00000000000E+00  0.00000000000E+00  0.12399684465E+04  0.12399684506E+04  0.10100000352E+00 0.  1.
        3   -1    0    0  501    0  0.00000000000E+00  0.00000000000E+00 -0.40136237406E+03  0.40136238677E+03  0.10100000352E+00 0. -1.
    10030    2    1    2    0    0  0.00000000000E+00  0.00000000000E+00  0.83860607243E+03  0.16413308374E+04  0.14109240848E+04 0.  0.
        4    1    3    3  502    0 -0.47138760736E+03  0.26394484155E+03  0.94703961586E+03  0.10903021612E+04  0.12699999809E+01 0.  1.
       -4    1    3    3    0  502  0.47138760736E+03 -0.26394484155E+03 -0.10843354343E+03  0.55102867620E+03  0.12699999809E+01 0. -1.
</event>
<event>
 5   0  0.1175146E-03  0.1397944E+04  0.7818609E-02  0.8955308E-01
        2   -1    0    0  501    0  0.00000000000E+00  0.00000000000E+00  0.11800657183E+04  0.11800657183E+04  0.25500000920E-02 0.  1.
       -2   -1    0    0    0  501  0.00000000000E+00  0.00000000000E+00 -0.41401245430E+03  0.41401245431E+03  0.25500000920E-02 0. -1.
    10030    2    1    2    0    0  0.00000000000E+00  0.00000000000E+00  0.76605326404E+03  0.15940781727E+04  0.13979440680E+04 0.  0.
        1    1    3    3  502    0 -0.65372761220E+03 -0.15897617354E+03  0.16688396386E+03  0.69316915117E+03  0.50400001928E-02 0. -1.
       -1    1    3    3    0  502  0.65372761220E+03  0.15897617354E+03  0.59916930018E+03  0.90090902149E+03  0.50400001928E-02 0.  1.
</event>
<event>
 5   0  0.1098949E-03  0.1395362E+04  0.7818609E-02  0.8957183E-01
       -2   -1    0    0    0  501  0.00000000000E+00  0.00000000000E+00  0.58587608148E+03  0.58587608148E+03  0.25500000920E-02 0. -1.
        2   -1    0    0  501    0  0.00000000000E+00  0.00000000000E+00 -0.83082151213E+03  0.83082151214E+03  0.25500000920E-02 0.  1.
    10030    2    1    2    0    0  0.00000000000E+00  0.00000000000E+00 -0.24494543066E+03  0.14166975936E+04  0.13953615330E+04 0.  0.
        4    1    3    3  502    0  0.45441607632E+03  0.51870960067E+03 -0.15009008053E+02  0.68976844192E+03  0.12699999809E+01 0.  1.
       -4    1    3    3    0  502 -0.45441607632E+03 -0.51870960067E+03 -0.22993642260E+03  0.72692915170E+03  0.12699999809E+01 0. -1.
</event>
<event>
 5   0  0.1098949E-03  0.1543216E+04  0.7818609E-02  0.8856213E-01
       -2   -1    0    0    0  501  0.00000000000E+00  0.00000000000E+00  0.30260824702E+03  0.30260824703E+03  0.25500000920E-02 0. -1.
        2   -1    0    0  501    0  0.00000000000E+00  0.00000000000E+00 -0.19674899487E+04  0.19674899487E+04  0.25500000920E-02 0.  1.
    10030    2    1    2    0    0  0.00000000000E+00  0.00000000000E+00 -0.16648817016E+04  0.22700981957E+04  0.15432157133E+04 0.  0.
        4    1    3    3  502    0 -0.14618954376E+03  0.74353224184E+03 -0.10464499373E+04  0.12920025780E+04  0.12699999809E+01 0. -1.
       -4    1    3    3    0  502  0.14618954376E+03 -0.74353224184E+03 -0.61843176438E+03  0.97809561775E+03  0.12699999809E+01 0.  1.
</event>
<event>
 5   0  0.1120053E-03  0.1364802E+04  0.7818609E-02  0.8979698E-01
        2   -1    0    0  501    0  0.00000000000E+00  0.00000000000E+00  0.13005650472E+04  0.13005650472E+04  0.25500000920E-02 0.  1.
       -2   -1    0    0    0  501  0.00000000000E+00  0.00000000000E+00 -0.35805286881E+03  0.35805286881E+03  0.25500000920E-02 0. -1.
    10030    2    1    2    0    0  0.00000000000E+00  0.00000000000E+00  0.94251217835E+03  0.16586179160E+04  0.13648018848E+04 0.  0.
        2    1    3    3  502    0  0.16204573895E+03 -0.39159828101E+03  0.11212474605E+04  0.11986675531E+04  0.25500000920E-02 0.  1.
       -2    1    3    3    0  502 -0.16204573895E+03  0.39159828101E+03 -0.17873528215E+03  0.45995036286E+03  0.25500000920E-02 0. -1.
</event>
<event>
 5   0  0.1108819E-03  0.1415953E+04  0.7818609E-02  0.8942351E-01
       -2   -1    0    0    0  501  0.00000000000E+00  0.00000000000E+00  0.83781577870E+03  0.83781577871E+03  0.25500000920E-02 0. -1.
        2   -1    0    0  501    0  0.00000000000E+00  0.00000000000E+00 -0.59825914483E+03  0.59825914483E+03  0.25500000920E-02 0.  1.
    10030    2    1    2    0    0  0.00000000000E+00  0.00000000000E+00  0.23955663388E+03  0.14360749235E+04  0.14159533203E+04 0.  0.
        3    1    3    3  502    0 -0.20679872486E+03 -0.36930142346E+03 -0.45580895101E+03  0.62202175524E+03  0.10100000352E+00 0.  1.
       -3    1    3    3    0  502  0.20679872486E+03  0.36930142346E+03  0.69536558488E+03  0.81405316830E+03  0.10100000352E+00 0. -1.
</event>
<event>
 5   0  0.6114266E-04  0.1400180E+04  0.7818609E-02  0.8953688E-01
        1   -1    0    0  501    0  0.00000000000E+00  0.00000000000E+00  0.49590942851E+03  0.49590942853E+03  0.50400001928E-02 0.  1.
       -1   -1    0    0    0  501  0.00000000000E+00  0.00000000000E+00 -0.98833757194E+03  0.98833757195E+03  0.50400001928E-02 0. -1.
    10030    2    1    2    0    0  0.00000000000E+00  0.00000000000E+00 -0.49242814343E+03  0.14842470005E+04  0.14001798749E+04 0.  0.
        3    1    3    3  502    0 -0.15727906866E+03  0.45562401410E+03 -0.78443478141E+03  0.92068880962E+03  0.10100000352E+00 0. -1.
       -3    1    3    3    0  502  0.15727906866E+03 -0.45562401410E+03  0.29200663798E+03  0.56355819086E+03  0.10100000352E+00 0.  1.
</event>
<event>
 5   0  0.6194742E-04  0.1401600E+04  0.7818609E-02  0.8952661E-01
        1   -1    0    0  501    0  0.00000000000E+00  0.00000000000E+00  0.91214567958E+03  0.91214567960E+03  0.50400001928E-02 0. -1.
       -1   -1    0    0    0  501  0.00000000000E+00  0.00000000000E+00 -0.53842348758E+03  0.53842348761E+03  0.50400001928E-02 0.  1.
    10030    2    1    2    0    0  0.00000000000E+00  0.00000000000E+00  0.37372219200E+03  0.14505691672E+04  0.14016000257E+04 0.  0.
        4    1    3    3  502    0 -0.52344689290E+03 -0.25868573348E+03 -0.21424126626E+03  0.62194524796E+03  0.12699999809E+01 0.  1.
       -4    1    3    3    0  502  0.52344689290E+03  0.25868573348E+03  0.58796345826E+03  0.82862391924E+03  0.12699999809E+01 0. -1.
</event>
<event>
 5   0  0.1108819E-03  0.1392224E+04  0.7818609E-02  0.8959467E-01
       -2   -1    0    0    0  501  0.00000000000E+00  0.00000000000E+00  0.27744039950E+03  0.27744039952E+03  0.25500000920E-02 0. -1.
        2   -1    0    0  501    0  0.00000000000E+00  0.00000000000E+00 -0.17465800583E+04  0.17465800583E+04  0.25500000920E-02 0.  1.
    10030    2    1    2    0    0  0.00000000000E+00  0.00000000000E+00 -0.14691396588E+04  0.20240204578E+04  0.13922239319E+04 0.  0.
        3    1    3    3  502    0 -0.26678424467E+03 -0.33092721283E+03 -0.15359905772E+04  0.15937232246E+04  0.10100000352E+00 0.  1.
       -3    1    3    3    0  502  0.26678424467E+03  0.33092721283E+03  0.66850918370E+02  0.43029723318E+03  0.10100000352E+00 0. -1.
</event>
<event>
 5   0  0.1120053E-03  0.1362689E+04  0.7818609E-02  0.8981278E-01
       -2   -1    0    0    0  501  0.00000000000E+00  0.00000000000E+00  0.46741233537E+03  0.46741233538E+03  0.25500000920E-02 0. -1.
        2   -1    0    0  501    0  0.00000000000E+00  0.00000000000E+00 -0.99319210137E+03  0.99319210137E+03  0.25500000920E-02 0.  1.
    10030    2    1    2    0    0  0.00000000000E+00  0.00000000000E+00 -0.52577976600E+03  0.14606044368E+04  0.13626888707E+04 0.  0.
        2    1    3    3  502    0  0.42755729743E+03  0.52552473130E+03 -0.18523585162E+03  0.70234877840E+03  0.25500000920E-02 0.  1.
       -2    1    3    3    0  502 -0.42755729743E+03 -0.52552473130E+03 -0.34054391438E+03  0.75825565835E+03  0.25500000920E-02 0. -1.
</event>
<event>
 5   0  0.5875298E-04  0.1400427E+04  0.7818609E-02  0.8953509E-01
        1   -1    0    0  501    0  0.00000000000E+00  0.00000000000E+00  0.95135141606E+03  0.95135141607E+03  0.50400001928E-02 0. -1.
       -1   -1    0    0    0  501  0.00000000000E+00  0.00000000000E+00 -0.51537107442E+03  0.51537107444E+03  0.50400001928E-02 0.  1.
    10030    2    1    2    0    0  0.00000000000E+00  0.00000000000E+00  0.43598034164E+03  0.14667224905E+04  0.14004270798E+04 0.  0.
        1    1    3    3  502    0 -0.99270722587E+01  0.36506917131E+02  0.95028020399E+03  0.95103300042E+03  0.50400001928E-02 0. -1.
       -1    1    3    3    0  502  0.99270722587E+01 -0.36506917131E+02 -0.51429986235E+03  0.51568949010E+03  0.50400001928E-02 0.  1.
</event>
<event>
 5   0  0.1175146E-03  0.1407339E+04  0.7818609E-02  0.8948523E-01
        2   -1    0    0  501    0  0.00000000000E+00  0.00000000000E+00  0.15565203306E+04  0.15565203306E+04  0.25500000920E-02 0.  1.
       -2   -1    0    0    0  501  0.00000000000E+00  0.00000000000E+00 -0.31811381979E+03  0.31811381980E+03  0.25500000920E-02 0. -1.
    10030    2    1    2    0    0  0.00000000000E+00  0.00000000000E+00  0.12384065108E+04  0.18746341504E+04  0.14073388049E+04 0.  0.
        1    1    3    3  502    0 -0.25926741643E+03  0.62183145568E+03  0.34864239216E+03  0.75858122184E+03  0.50400001928E-02 0. -1.
       -1    1    3    3    0  502  0.25926741643E+03 -0.62183145568E+03  0.88976411867E+03  0.11160529286E+04  0.50400001928E-02 0.  1.
</event>
<event>
 5   0  0.6097538E-04  0.1428498E+04  0.7818609E-02  0.8933445E-01
       -1   -1    0    0    0  501  0.00000000000E+00  0.00000000000E+00  0.38220033047E+03  0.38220033050E+03  0.50400001928E-02 0.  1.
        1   -1    0    0  501    0  0.00000000000E+00  0.00000000000E+00 -0.13347751160E+04  0.13347751161E+04  0.50400001928E-02 0. -1.
    10030    2    1    2    0    0  0.00000000000E+00  0.00000000000E+00 -0.95257478557E+03  0.17169754466E+04  0.14284977991E+04 0.  0.
        2    1    3    3  502    0  0.33972254242E+03 -0.34311710610E+03  0.15631788333E+03  0.50751949222E+03  0.25500000920E-02 0.  1.
       -2    1    3    3    0  502 -0.33972254242E+03  0.34311710610E+03 -0.11088926689E+04  0.12094559543E+04  0.25500000920E-02 0. -1.
</event>
<event>
 5   0  0.1095119E-03  0.1365123E+04  0.7818609E-02  0.8979458E-01
       -2   -1    0    0    0  501  0.00000000000E+00  0.00000000000E+00  0.42549403578E+03  0.42549403579E+03  0.25500000920E-02 0. -1.
        2   -1    0    0  501    0  0.00000000000E+00  0.00000000000E+00 -0.10949401944E+04  0.10949401944E+04  0.25500000920E-02 0.  1.
    10030    2    1    2    0    0  0.00000000000E+00  0.00000000000E+00 -0.66944615865E+03  0.15204342302E+04  0.13651234703E+04 0.  0.
        5    1    3    3  502    0 -0.52197809280E+03 -0.94323919278E+02 -0.81313942995E+03  0.97086350927E+03  0.46999998093E+01 0.  1.
       -5    1    3    3    0  502  0.52197809280E+03  0.94323919278E+02  0.14369327129E+03  0.54957072095E+03  0.46999998093E+01 0. -1.
</event>
<event>
 5   0  0.6097538E-04  0.1384296E+04  0.7818609E-02  0.8965265E-01
        1   -1    0    0  501    0  0.00000000000E+00  0.00000000000E+00  0.73045242157E+03  0.73045242159E+03  0.50400001928E-02 0.  1.
       -1   -1    0    0    0  501  0.00000000000E+00  0.00000000000E+00 -0.65585198176E+03  0.65585198178E+03  0.50400001928E-02 0. -1.
    10030    2    1    2    0    0  0.00000000000E+00  0.00000000000E+00  0.74600439811E+02  0.13863044034E+04  0.13842957318E+04 0.  0.
        2    1    3    3  502    0 -0.53466900113E+03 -0.36944754751E+03  0.27577647208E+03  0.70598519367E+03  0.25500000920E-02 0. -1.
       -2    1    3    3    0  502  0.53466900113E+03  0.36944754751E+03 -0.20117603227E+03  0.68031920970E+03  0.25500000920E-02 0.  1.
</event>
<event>
 5   0  0.6114266E-04  0.1382578E+04  0.7818609E-02  0.8966527E-01
       -1   -1    0    0    0  501  0.00000000000E+00  0.00000000000E+00  0.29314478351E+03  0.29314478355E+03  0.50400001928E-02 0.  1.
        1   -1    0    0  501    0  0.00000000000E+00  0.00000000000E+00 -0.16301855467E+04  0.16301855467E+04  0.50400001928E-02 0. -1.
    10030    2    1    2    0    0  0.00000000000E+00  0.00000000000E+00 -0.13370407632E+04  0.19233303302E+04  0.13825778665E+04 0.  0.
        3    1    3    3  502    0  0.13120894272E+03  0.47493541732E+03 -0.13430351527E+04  0.14305673241E+04  0.10100000352E+00 0. -1.
       -3    1    3    3    0  502 -0.13120894272E+03 -0.47493541732E+03  0.59943895431E+01  0.49276300610E+03  0.10100000352E+00 0.  1.
</event>
<event>
 5   0  0.6153318E-04  0.1383987E+04  0.7818609E-02  0.8965492E-01
        1   -1    0    0  501    0  0.00000000000E+00  0.00000000000E+00  0.11656551314E+04  0.11656551314E+04  0.50400001928E-02 0. -1.
       -1   -1    0    0    0  501  0.00000000000E+00  0.00000000000E+00 -0.41080325909E+03  0.41080325912E+03  0.50400001928E-02 0.  1.
    10030    2    1    2    0    0  0.00000000000E+00  0.00000000000E+00  0.75485187233E+03  0.15764583906E+04  0.13839868887E+04 0.  0.
        5    1    3    3  502    0 -0.37301972932E+03  0.14751961864E+03 -0.26483912550E+03  0.48069492273E+03  0.46999998093E+01 0.  1.
       -5    1    3    3    0  502  0.37301972932E+03 -0.14751961864E+03  0.10196909978E+04  0.10957634678E+04  0.46999998093E+01 0. -1.
</event>
<event>
 5   0  0.1175146E-03  0.1400920E+04  0.7818609E-02  0.8953153E-01
       -2   -1    0    0    0  501  0.00000000000E+00  0.00000000000E+00  0.87219795445E+03  0.87219795446E+03  0.25500000920E-02 0.  1.
        2   -1    0    0  501    0  0.00000000000E+00  0.00000000000E+00 -0.56253728846E+03  0.56253728847E+03  0.25500000920E-02 0. -1.
    10030    2    1    2    0    0  0.00000000000E+00  0.00000000000E+00  0.30966066599E+03  0.14347352429E+04  0.14009195156E+04 0.  0.
        1    1    3    3  502    0 -0.42367372451E+03 -0.55770690351E+03  0.14421395513E+03  0.71507627562E+03  0.50400001928E-02 0. -1.
       -1    1    3    3    0  502  0.42367372451E+03  0.55770690351E+03  0.16544671086E+03  0.71965896731E+03  0.50400001928E-02 0.  1.
</event>
<event>
 5   0  0.6114266E-04  0.1384835E+04  0.7818609E-02  0.8964869E-01
        1   -1    0    0  501    0  0.00000000000E+00  0.00000000000E+00  0.35576679224E+03  0.35576679227E+03  0.50400001928E-02 0. -1.
       -1   -1    0    0    0  501  0.00000000000E+00  0.00000000000E+00 -0.13476299153E+04  0.13476299154E+04  0.50400001928E-02 0.  1.
    10030    2    1    2    0    0  0.00000000000E+00  0.00000000000E+00 -0.99186312310E+03  0.17033967076E+04  0.13848349680E+04 0.  0.
        3    1    3    3  502    0 -0.21903841173E+03 -0.60033552587E+03 -0.16803667871E+03  0.66076993350E+03  0.10100000352E+00 0. -1.
       -3    1    3    3    0  502  0.21903841173E+03  0.60033552587E+03 -0.82382644439E+03  0.10426267741E+04  0.10100000352E+00 0.  1.
</event>
<event>
 5   0  0.1120053E-03  0.1402945E+04  0.7818609E-02  0.8951690E-01
       -2   -1    0    0    0  501  0.00000000000E+00  0.00000000000E+00  0.51993216757E+03  0.51993216758E+03  0.25500000920E-02 0.  1.
        2   -1    0    0  501    0  0.00000000000E+00  0.00000000000E+00 -0.94639951973E+03  0.94639951973E+03  0.25500000920E-02 0. -1.
    10030    2    1    2    0    0  0.00000000000E+00  0.00000000000E+00 -0.42646735216E+03  0.14663316873E+04  0.14029448367E+04 0.  0.
        2    1    3    3  502    0  0.37375887974E+03  0.46459274745E+03  0.17294833783E+03  0.62084881310E+03  0.25500000920E-02 0.  1.
       -2    1    3    3    0  502 -0.37375887974E+03 -0.46459274745E+03 -0.59941568998E+03  0.84548287421E+03  0.25500000920E-02 0. -1.
</event>
<event>
 5   0  0.6194742E-04  0.1405940E+04  0.7818609E-02  0.8949530E-01
       -1   -1    0    0    0  501  0.00000000000E+00  0.00000000000E+00  0.35201288130E+03  0.35201288134E+03  0.50400001928E-02 0. -1.
        1   -1    0    0  501    0  0.00000000000E+00  0.00000000000E+00 -0.14038307742E+04  0.14038307742E+04  0.50400001928E-02 0.  1.
    10030    2    1    2    0    0  0.00000000000E+00  0.00000000000E+00 -0.10518178928E+04  0.17558436555E+04  0.14059395659E+04 0.  0.
        4    1    3    3  502    0  0.66084211055E+03  0.65471852070E+02 -0.23794616208E+03  0.70542104267E+03  0.12699999809E+01 0. -1.
       -4    1    3    3    0  502 -0.66084211055E+03 -0.65471852070E+02 -0.81387173077E+03  0.10504226128E+04  0.12699999809E+01 0.  1.
</event>
<event>
 5   0  0.6153318E-04  0.1536749E+04  0.7818609E-02  0.8860376E-01
        1   -1    0    0  501    0  0.00000000000E+00  0.00000000000E+00  0.68701895920E+03  0.68701895922E+03  0.50400001928E-02 0. -1.
       -1   -1    0    0    0  501  0.00000000000E+00  0.00000000000E+00 -0.85936421767E+03  0.85936421768E+03  0.50400001928E-02 0.  1.
    10030    2    1    2    0    0  0.00000000000E+00  0.00000000000E+00 -0.17234525846E+03  0.15463831769E+04  0.15367491798E+04 0.  0.
        5    1    3    3  502    0  0.76561475358E+03  0.13606041038E+02 -0.15002391225E+03  0.78030784918E+03  0.46999998093E+01 0.  1.
       -5    1    3    3    0  502 -0.76561475358E+03 -0.13606041038E+02 -0.22321346214E+02  0.76607532772E+03  0.46999998093E+01 0. -1.
</event>
<event>
 5   0  0.1095119E-03  0.1379983E+04  0.7818609E-02  0.8968437E-01
       -2   -1    0    0    0  501  0.00000000000E+00  0.00000000000E+00  0.26499804075E+03  0.26499804076E+03  0.25500000920E-02 0. -1.
        2   -1    0    0  501    0  0.00000000000E+00  0.00000000000E+00 -0.17965733550E+04  0.17965733550E+04  0.25500000920E-02 0.  1.
    10030    2    1    2    0    0  0.00000000000E+00  0.00000000000E+00 -0.15315753142E+04  0.20615713957E+04  0.13799832160E+04 0.  0.
        5    1    3    3  502    0  0.31052017339E+03 -0.19118758649E+03  0.10925484587E+03  0.38070222308E+03  0.46999998093E+01 0. -1.
       -5    1    3    3    0  502 -0.31052017339E+03  0.19118758649E+03 -0.16408301601E+04  0.16808691726E+04  0.46999998093E+01 0.  1.
</event>
<event>
 5   0  0.6153318E-04  0.1413600E+04  0.7818609E-02  0.8944032E-01
       -1   -1    0    0    0  501  0.00000000000E+00  0.00000000000E+00  0.24211648522E+03  0.24211648527E+03  0.50400001928E-02 0.  1.
        1   -1    0    0  501    0  0.00000000000E+00  0.00000000000E+00 -0.20633307780E+04  0.20633307780E+04  0.50400001928E-02 0. -1.
    10030    2    1    2    0    0  0.00000000000E+00  0.00000000000E+00 -0.18212142928E+04  0.23054472633E+04  0.14136002206E+04 0.  0.
        5    1    3    3  502    0  0.81676159922E+02 -0.39280819008E+03  0.38370658419E+02  0.40306781900E+03  0.46999998093E+01 0.  1.
       -5    1    3    3    0  502 -0.81676159922E+02  0.39280819008E+03 -0.18595849512E+04  0.19023794443E+04  0.46999998093E+01 0. -1.
</event>
<event>
 5   0  0.6097538E-04  0.1406510E+04  0.7818609E-02  0.8949120E-01
        1   -1    0    0  501    0  0.00000000000E+00  0.00000000000E+00  0.85807240951E+03  0.85807240953E+03  0.50400001928E-02 0. -1.
       -1   -1    0    0    0  501  0.00000000000E+00  0.00000000000E+00 -0.57637044302E+03  0.57637044305E+03  0.50400001928E-02 0.  1.
    10030    2    1    2    0    0  0.00000000000E+00  0.00000000000E+00  0.28170196649E+03  0.14344428526E+04  0.14065099713E+04 0.  0.
        2    1    3    3  502    0 -0.10706171514E+03 -0.17335669176E+02 -0.56778996226E+03  0.57805551422E+03  0.25500000920E-02 0.  1.
       -2    1    3    3    0  502  0.10706171514E+03  0.17335669176E+02  0.84949192875E+03  0.85638733835E+03  0.25500000920E-02 0. -1.
</event>
<event>
 5   0  0.1175146E-03  0.1401056E+04  0.7818609E-02  0.8953055E-01
        2   -1    0    0  501    0  0.00000000000E+00  0.00000000000E+00  0.53509067004E+03  0.53509067005E+03  0.25500000920E-02 0. -1.
       -2   -1    0    0    0  501  0.00000000000E+00  0.00000000000E+00 -0.91711414321E+03  0.91711414321E+03  0.25500000920E-02 0.  1.
    10030    2    1    2    0    0  0.00000000000E+00  0.00000000000E+00 -0.38202347316E+03  0.14522048133E+04  0.14010556326E+04 0.  0.
        1    1    3    3  502    0  0.11771765122E+03 -0.58997679572E+02  0.52214846615E+03  0.53849530391E+03  0.50400001928E-02 0. -1.
       -1    1    3    3    0  502 -0.11771765122E+03  0.58997679572E+02 -0.90417193932E+03  0.91370950935E+03  0.50400001928E-02 0.  1.
</event>
<event>
 5   0  0.6194742E-04  0.1389586E+04  0.7818609E-02  0.8961391E-01
       -1   -1    0    0    0  501  0.00000000000E+00  0.00000000000E+00  0.90760153669E+03  0.90760153670E+03  0.50400001928E-02 0. -1.
        1   -1    0    0  501    0  0.00000000000E+00  0.00000000000E+00 -0.53188251148E+03  0.53188251150E+03  0.50400001928E-02 0.  1.
    10030    2    1    2    0    0  0.00000000000E+00  0.00000000000E+00  0.37571902521E+03  0.14394840482E+04  0.13895861035E+04 0.  0.
        4    1    3    3  502    0  0.13071960600E+03 -0.28252725764E+03  0.83131339230E+03  0.88768960556E+03  0.12699999809E+01 0. -1.
       -4    1    3    3    0  502 -0.13071960600E+03  0.28252725764E+03 -0.45559436709E+03  0.55179444264E+03  0.12699999809E+01 0.  1.
</event>
<event>
 5   0  0.1175146E-03  0.1398774E+04  0.7818609E-02  0.8954707E-01
       -2   -1    0    0    0  501  0.00000000000E+00  0.00000000000E+00  0.62637221217E+03  0.62637221218E+03  0.25500000920E-02 0.  1.
        2   -1    0    0  501    0  0.00000000000E+00  0.00000000000E+00 -0.78091242616E+03  0.78091242617E+03  0.25500000920E-02 0. -1.
    10030    2    1    2    0    0  0.00000000000E+00  0.00000000000E+00 -0.15454021399E+03  0.14072846383E+04  0.13987735255E+04 0.  0.
        1    1    3    3  502    0  0.35577722923E+03 -0.37385145649E+03 -0.55215859825E+03  0.75579194624E+03  0.50400001928E-02 0. -1.
       -1    1    3    3    0  502 -0.35577722923E+03  0.37385145649E+03  0.39761838425E+03  0.65149269211E+03  0.50400001928E-02 0.  1.
</event>
<event>
 5   0  0.1175146E-03  0.1396835E+04  0.7818609E-02  0.8956113E-01
        2   -1    0    0  501    0  0.00000000000E+00  0.00000000000E+00  0.87783513196E+03  0.87783513197E+03  0.25500000920E-02 0. -1.
       -2   -1    0    0    0  501  0.00000000000E+00  0.00000000000E+00 -0.55567002312E+03  0.55567002313E+03  0.25500000920E-02 0.  1.
    10030    2    1    2    0    0  0.00000000000E+00  0.00000000000E+00  0.32216510884E+03  0.14335051551E+04  0.13968345186E+04 0.  0.
        1    1    3    3  502    0 -0.56590351177E+03 -0.50650329719E+02  0.57791605469E+03  0.81043149423E+03  0.50400001928E-02 0. -1.
       -1    1    3    3    0  502  0.56590351177E+03  0.50650329719E+02 -0.25575094585E+03  0.62307366087E+03  0.50400001928E-02 0.  1.
</event>
<event>
 5   0  0.6194742E-04  0.1420948E+04  0.7818609E-02  0.8938793E-01
       -1   -1    0    0    0  501  0.00000000000E+00  0.00000000000E+00  0.56948140264E+03  0.56948140266E+03  0.50400001928E-02 0.  1.
        1   -1    0    0  501    0  0.00000000000E+00  0.00000000000E+00 -0.88637400510E+03  0.88637400512E+03  0.50400001928E-02 0. -1.
    10030    2    1    2    0    0  0.00000000000E+00  0.00000000000E+00 -0.31689260247E+03  0.14558554078E+04  0.14209482914E+04 0.  0.
        4    1    3    3  502    0  0.30565664787E+03  0.43426170297E+03 -0.64201835280E+03  0.83318568836E+03  0.12699999809E+01 0. -1.
       -4    1    3    3    0  502 -0.30565664787E+03 -0.43426170297E+03  0.32512575034E+03  0.62266971942E+03  0.12699999809E+01 0.  1.
</event>
<event>
 5   0  0.6114266E-04  0.1415967E+04  0.7818609E-02  0.8942341E-01
       -1   -1    0    0    0  501  0.00000000000E+00  0.00000000000E+00  0.55739568601E+03  0.55739568603E+03  0.50400001928E-02 0.  1.
        1   -1    0    0  501    0  0.00000000000E+00  0.00000000000E+00 -0.89925479465E+03  0.89925479466E+03  0.50400001928E-02 0. -1.
    10030    2    1    2    0    0  0.00000000000E+00  0.00000000000E+00 -0.34185910864E+03  0.14566504807E+04  0.14159671510E+04 0.  0.
        3    1    3    3  502    0 -0.10672369402E+03  0.12347193773E+03  0.53778042219E+03  0.56199916277E+03  0.10100000352E+00 0.  1.
       -3    1    3    3    0  502  0.10672369402E+03 -0.12347193773E+03 -0.87963953082E+03  0.89465131792E+03  0.10100000352E+00 0. -1.
</event>
<event>
 5   0  0.1098949E-03  0.1406779E+04  0.7818609E-02  0.8948926E-01
       -2   -1    0    0    0  501  0.00000000000E+00  0.00000000000E+00  0.47562805285E+03  0.47562805285E+03  0.25500000920E-02 0. -1.
        2   -1    0    0  501    0  0.00000000000E+00  0.00000000000E+00 -0.10402178609E+04  0.10402178609E+04  0.25500000920E-02 0.  1.
    10030    2    1    2    0    0  0.00000000000E+00  0.00000000000E+00 -0.56458980805E+03  0.15158459137E+04  0.14067790100E+04 0.  0.
        4    1    3    3  502    0  0.16347829662E+03  0.67010433198E+03 -0.43078384251E+03  0.81322893522E+03  0.12699999809E+01 0.  1.
       -4    1    3    3    0  502 -0.16347829662E+03 -0.67010433198E+03 -0.13380596554E+03  0.70261697853E+03  0.12699999809E+01 0. -1.
</event>
<event>
 5   0  0.6194742E-04  0.1444361E+04  0.7818609E-02  0.8922320E-01
        1   -1    0    0  501    0  0.00000000000E+00  0.00000000000E+00  0.59658355497E+03  0.59658355499E+03  0.50400001928E-02 0. -1.
       -1   -1    0    0    0  501  0.00000000000E+00  0.00000000000E+00 -0.87421853403E+03  0.87421853404E+03  0.50400001928E-02 0.  1.
    10030    2    1    2    0    0  0.00000000000E+00  0.00000000000E+00 -0.27763497906E+03  0.14708020890E+04  0.14443606210E+04 0.  0.
        4    1    3    3  502    0  0.10020957652E+03 -0.34000232730E+03 -0.77954140719E+03  0.85634686911E+03  0.12699999809E+01 0.  1.
       -4    1    3    3    0  502 -0.10020957652E+03  0.34000232730E+03  0.50190642813E+03  0.61445521993E+03  0.12699999809E+01 0. -1.
</event>
<event>
 5   0  0.5875298E-04  0.1398094E+04  0.7818609E-02  0.8955199E-01
        1   -1    0    0  501    0  0.00000000000E+00  0.00000000000E+00  0.22865078183E+03  0.22865078188E+03  0.50400001928E-02 0. -1.
       -1   -1    0    0    0  501  0.00000000000E+00  0.00000000000E+00 -0.21371751144E+04  0.21371751144E+04  0.50400001928E-02 0.  1.
    10030    2    1    2    0    0  0.00000000000E+00  0.00000000000E+00 -0.19085243325E+04  0.23658258962E+04  0.13980940753E+04 0.  0.
        1    1    3    3  502    0 -0.15149815367E+03 -0.25861749482E+03 -0.20229267521E+04  0.20450103529E+04  0.50400001928E-02 0.  1.
       -1    1    3    3    0  502  0.15149815367E+03  0.25861749482E+03  0.11440241958E+03  0.32081554330E+03  0.50400001928E-02 0. -1.
</event>
<event>
 5   0  0.6153318E-04  0.1380240E+04  0.7818609E-02  0.8968247E-01
        1   -1    0    0  501    0  0.00000000000E+00  0.00000000000E+00  0.74086985301E+03  0.74086985302E+03  0.50400001928E-02 0.  1.
       -1   -1    0    0    0  501  0.00000000000E+00  0.00000000000E+00 -0.64284673616E+03  0.64284673618E+03  0.50400001928E-02 0. -1.
    10030    2    1    2    0    0  0.00000000000E+00  0.00000000000E+00  0.98023116850E+02  0.13837165892E+04  0.13802402210E+04 0.  0.
        5    1    3    3  502    0 -0.46930169512E+03 -0.50495435740E+03  0.81040309668E+02  0.69412722600E+03  0.46999998093E+01 0.  1.
       -5    1    3    3    0  502  0.46930169512E+03  0.50495435740E+03  0.16982807182E+02  0.68958936319E+03  0.46999998093E+01 0. -1.
</event>
<event>
 5   0  0.1098949E-03  0.1396332E+04  0.7818609E-02  0.8956478E-01
       -2   -1    0    0    0  501  0.00000000000E+00  0.00000000000E+00  0.26331775790E+03  0.26331775791E+03  0.25500000920E-02 0. -1.
        2   -1    0    0  501    0  0.00000000000E+00  0.00000000000E+00 -0.18511315720E+04  0.18511315720E+04  0.25500000920E-02 0.  1.
    10030    2    1    2    0    0  0.00000000000E+00  0.00000000000E+00 -0.15878138141E+04  0.21144493299E+04  0.13963320739E+04 0.  0.
        4    1    3    3  502    0 -0.20245178503E+03 -0.43943761299E+03 -0.15560951025E+04  0.16295783878E+04  0.12699999809E+01 0.  1.
       -4    1    3    3    0  502  0.20245178503E+03  0.43943761299E+03 -0.31718711610E+02  0.48487094215E+03  0.12699999809E+01 0. -1.
</event>
<event>
 5   0  0.1120053E-03  0.1414654E+04  0.7818609E-02  0.8943279E-01
       -2   -1    0    0    0  501  0.00000000000E+00  0.00000000000E+00  0.65661559596E+03  0.65661559596E+03  0.25500000920E-02 0. -1.
        2   -1    0    0  501    0  0.00000000000E+00  0.00000000000E+00 -0.76195463150E+03  0.76195463150E+03  0.25500000920E-02 0.  1.
    10030    2    1    2    0    0  0.00000000000E+00  0.00000000000E+00 -0.10533903554E+03  0.14185702275E+04  0.14146537307E+04 0.  0.
        2    1    3    3  502    0  0.31685156455E+03  0.11343687102E+03 -0.67652408894E+03  0.75561079967E+03  0.25500000920E-02 0.  1.
       -2    1    3    3    0  502 -0.31685156455E+03 -0.11343687102E+03  0.57118505340E+03  0.66295942779E+03  0.25500000920E-02 0. -1.
</event>
<event>
 5   0  0.6153318E-04  0.1400142E+04  0.7818609E-02  0.8953716E-01
        1   -1    0    0  501    0  0.00000000000E+00  0.00000000000E+00  0.69825766217E+03  0.69825766219E+03  0.50400001928E-02 0.  1.
       -1   -1    0    0    0  501  0.00000000000E+00  0.00000000000E+00 -0.70188921682E+03  0.70188921684E+03  0.50400001928E-02 0. -1.
    10030    2    1    2    0    0  0.00000000000E+00  0.00000000000E+00 -0.36315546562E+01  0.14001468790E+04  0.14001421694E+04 0.  0.
        5    1    3    3  502    0 -0.24907397335E+03  0.30761725716E+03  0.57560387554E+03  0.69857578876E+03  0.46999998093E+01 0.  1.
       -5    1    3    3    0  502  0.24907397335E+03 -0.30761725716E+03 -0.57923543020E+03  0.70157109027E+03  0.46999998093E+01 0. -1.
</event>
<event>
 5   0  0.5875298E-04  0.1384759E+04  0.7818609E-02  0.8964925E-01
        1   -1    0    0  501    0  0.00000000000E+00  0.00000000000E+00  0.15761906996E+04  0.15761906996E+04  0.50400001928E-02 0. -1.
       -1   -1    0    0    0  501  0.00000000000E+00  0.00000000000E+00 -0.30414421094E+03  0.30414421098E+03  0.50400001928E-02 0.  1.
    10030    2    1    2    0    0  0.00000000000E+00  0.00000000000E+00  0.12720464886E+04  0.18803349105E+04  0.13847588623E+04 0.  0.
        1    1    3    3  502    0  0.63077301787E+03  0.28092797473E+03  0.56686267460E+03  0.89338033275E+03  0.50400001928E-02 0. -1.
       -1    1    3    3    0  502 -0.63077301787E+03 -0.28092797473E+03  0.70518381402E+03  0.98695457780E+03  0.50400001928E-02 0.  1.
</event>
<event>
 5   0  0.1108819E-03  0.1355572E+04  0.7818609E-02  0.8986621E-01
        2   -1    0    0  501    0  0.00000000000E+00  0.00000000000E+00  0.11280696434E+04  0.11280696434E+04  0.25500000920E-02 0. -1.
       -2   -1    0    0    0  501  0.00000000000E+00  0.00000000000E+00 -0.40723866367E+03  0.40723866368E+03  0.25500000920E-02 0.  1.
    10030    2    1    2    0    0  0.00000000000E+00  0.00000000000E+00  0.72083097971E+03  0.15353083071E+04  0.13555715755E+04 0.  0.
        3    1    3    3  502    0 -0.53880703766E+03  0.35754263258E+03  0.13040242040E+03  0.65966245868E+03  0.10100000352E+00 0.  1.
       -3    1    3    3    0  502  0.53880703766E+03 -0.35754263258E+03  0.59042855931E+03  0.87564584838E+03  0.10100000352E+00 0. -1.
</event>
<event>
 5   0  0.1098949E-03  0.1377366E+04  0.7818609E-02  0.8970367E-01
       -2   -1    0    0    0  501  0.00000000000E+00  0.00000000000E+00  0.45549616141E+03  0.45549616142E+03  0.25500000920E-02 0.  1.
        2   -1    0    0  501    0  0.00000000000E+00  0.00000000000E+00 -0.10412481894E+04  0.10412481894E+04  0.25500000920E-02 0. -1.
    10030    2    1    2    0    0  0.00000000000E+00  0.00000000000E+00 -0.58575202801E+03  0.14967443508E+04  0.13773664049E+04 0.  0.
        4    1    3    3  502    0  0.61432675300E+03  0.68176660644E+01  0.45284982744E+02  0.61603261487E+03  0.12699999809E+01 0.  1.
       -4    1    3    3    0  502 -0.61432675300E+03 -0.68176660644E+01 -0.63103701075E+03  0.88071173596E+03  0.12699999809E+01 0. -1.
</event>
<event>
 5   0  0.1098949E-03  0.1361051E+04  0.7818609E-02  0.8982504E-01
       -2   -1    0    0    0  501  0.00000000000E+00  0.00000000000E+00  0.86371712304E+03  0.86371712304E+03  0.25500000920E-02 0. -1.
        2   -1    0    0  501    0  0.00000000000E+00  0.00000000000E+00 -0.53618837532E+03  0.53618837533E+03  0.25500000920E-02 0.  1.
    10030    2    1    2    0    0  0.00000000000E+00  0.00000000000E+00  0.32752874772E+03  0.13999054984E+04  0.13610511834E+04 0.  0.
        4    1    3    3  502    0  0.51613101427E+03  0.13606158862E+03  0.59796422813E+03  0.80154027398E+03  0.12699999809E+01 0. -1.
       -4    1    3    3    0  502 -0.51613101427E+03 -0.13606158862E+03 -0.27043548041E+03  0.59836522439E+03  0.12699999809E+01 0.  1.
</event>
<event>
 5   0  0.6114266E-04  0.1402999E+04  0.7818609E-02  0.8951651E-01
       -1   -1    0    0    0  501  0.00000000000E+00  0.00000000000E+00  0.49061259927E+03  0.49061259930E+03  0.50400001928E-02 0. -1.
        1   -1    0    0  501    0  0.00000000000E+00  0.00000000000E+00 -0.10030345293E+04  0.10030345293E+04  0.50400001928E-02 0.  1.
    10030    2    1    2    0    0  0.00000000000E+00  0.00000000000E+00 -0.51242192999E+03  0.14936471286E+04  0.14029987564E+04 0.  0.
        3    1    3    3  502    0 -0.63978681271E+03  0.13448880224E+03  0.14558137654E+02  0.65393145911E+03  0.10100000352E+00 0. -1.
       -3    1    3    3    0  502  0.63978681271E+03 -0.13448880224E+03 -0.52698006765E+03  0.83971566946E+03  0.10100000352E+00 0.  1.
</event>
<event>
 5   0  0.6114266E-04  0.1401904E+04  0.7818609E-02  0.8952442E-01
        1   -1    0    0  501    0  0.00000000000E+00  0.00000000000E+00  0.55282260105E+03  0.55282260107E+03  0.50400001928E-02 0. -1.
       -1   -1    0    0    0  501  0.00000000000E+00  0.00000000000E+00 -0.88877256010E+03  0.88877256012E+03  0.50400001928E-02 0.  1.
    10030    2    1    2    0    0  0.00000000000E+00  0.00000000000E+00 -0.33594995906E+03  0.14415951612E+04  0.14019037891E+04 0.  0.
        3    1    3    3  502    0 -0.11491290715E+03  0.35294914389E+03  0.44346508033E+03  0.57830732493E+03  0.10100000352E+00 0. -1.
       -3    1    3    3    0  502  0.11491290715E+03 -0.35294914389E+03 -0.77941503938E+03  0.86328783625E+03  0.10100000352E+00 0.  1.
</event>
<event>
 5   0  0.5875298E-04  0.1404848E+04  0.7818609E-02  0.8950317E-01
        1   -1    0    0  501    0  0.00000000000E+00  0.00000000000E+00  0.80038964105E+03  0.80038964107E+03  0.50400001928E-02 0. -1.
       -1   -1    0    0    0  501  0.00000000000E+00  0.00000000000E+00 -0.61644905948E+03  0.61644905950E+03  0.50400001928E-02 0.  1.
    10030    2    1    2    0    0  0.00000000000E+00  0.00000000000E+00  0.18394058157E+03  0.14168387006E+04  0.14048479512E+04 0.  0.
        1    1    3    3  502    0  0.48249126614E+03  0.35906360685E+03  0.45793791159E+03  0.75593096680E+03  0.50400001928E-02 0. -1.
       -1    1    3    3    0  502 -0.48249126614E+03 -0.35906360685E+03 -0.27399733003E+03  0.66090773377E+03  0.50400001928E-02 0.  1.
</event>
<event>
 5   0  0.6097538E-04  0.1412825E+04  0.7818609E-02  0.8944587E-01
        1   -1    0    0  501    0  0.00000000000E+00  0.00000000000E+00  0.10074947227E+04  0.10074947227E+04  0.50400001928E-02 0. -1.
       -1   -1    0    0    0  501  0.00000000000E+00  0.00000000000E+00 -0.49530610967E+03  0.49530610970E+03  0.50400001928E-02 0.  1.
    10030    2    1    2    0    0  0.00000000000E+00  0.00000000000E+00  0.51218861305E+03  0.15028008324E+04  0.14128245350E+04 0.  0.
        2    1    3    3  502    0  0.24499745723E+03 -0.60572308460E+03 -0.29508853262E+02  0.65406038077E+03  0.25500000920E-02 0.  1.
       -2    1    3    3    0  502 -0.24499745723E+03  0.60572308460E+03  0.54169746632E+03  0.84874045166E+03  0.25500000920E-02 0. -1.
</event>
<event>
 5   0  0.1108819E-03  0.1401937E+04  0.7818609E-02  0.8952418E-01
        2   -1    0    0  501    0  0.00000000000E+00  0.00000000000E+00  0.16745889552E+04  0.16745889552E+04  0.25500000920E-02 0. -1.
       -2   -1    0    0    0  501  0.00000000000E+00  0.00000000000E+00 -0.29341942268E+03  0.29341942269E+03  0.25500000920E-02 0.  1.
    10030    2    1    2    0    0  0.00000000000E+00  0.00000000000E+00  0.13811695325E+04  0.19680083779E+04  0.14019371234E+04 0.  0.
        3    1    3    3  502    0  0.47313795797E+03 -0.23585759465E+03  0.44437238687E+02  0.53053087621E+03  0.10100000352E+00 0.  1.
       -3    1    3    3    0  502 -0.47313795797E+03  0.23585759465E+03  0.13367322938E+04  0.14374775016E+04  0.10100000352E+00 0. -1.
</event>
<event>
 5   0  0.1108819E-03  0.1390463E+04  0.7818609E-02  0.8960751E-01
        2   -1    0    0  501    0  0.00000000000E+00  0.00000000000E+00  0.24403110330E+04  0.24403110330E+04  0.25500000920E-02 0.  1.
       -2   -1    0    0    0  501  0.00000000000E+00  0.00000000000E+00 -0.19806773919E+03  0.19806773921E+03  0.25500000920E-02 0. -1.
    10030    2    1    2    0    0  0.00000000000E+00  0.00000000000E+00  0.22422432938E+04  0.26383787722E+04  0.13904630729E+04 0.  0.
        3    1    3    3  502    0  0.66704105589E+02  0.15579527858E+03  0.24005161241E+04  0.24064910719E+04  0.10100000352E+00 0.  1.
       -3    1    3    3    0  502 -0.66704105589E+02 -0.15579527858E+03 -0.15827283036E+03  0.23188770032E+03  0.10100000352E+00 0. -1.
</event>
<event>
 5   0  0.6114266E-04  0.1398303E+04  0.7818609E-02  0.8955048E-01
       -1   -1    0    0    0  501  0.00000000000E+00  0.00000000000E+00  0.11513311602E+04  0.11513311602E+04  0.50400001928E-02 0. -1.
        1   -1    0    0  501    0  0.00000000000E+00  0.00000000000E+00 -0.42456317049E+03  0.42456317052E+03  0.50400001928E-02 0.  1.
    10030    2    1    2    0    0  0.00000000000E+00  0.00000000000E+00  0.72676798968E+03  0.15758943307E+04  0.13983029824E+04 0.  0.
        3    1    3    3  502    0 -0.56809302161E+03  0.47521496515E+02 -0.92774391586E+02  0.57757689685E+03  0.10100000352E+00 0.  1.
       -3    1    3    3    0  502  0.56809302161E+03 -0.47521496515E+02  0.81954238127E+03  0.99831743385E+03  0.10100000352E+00 0. -1.
</event>
<event>
 5   0  0.1120053E-03  0.1392956E+04  0.7818609E-02  0.8958933E-01
        2   -1    0    0  501    0  0.00000000000E+00  0.00000000000E+00  0.34410042056E+03  0.34410042057E+03  0.25500000920E-02 0. -1.
       -2   -1    0    0    0  501  0.00000000000E+00  0.00000000000E+00 -0.14097096510E+04  0.14097096510E+04  0.25500000920E-02 0.  1.
    10030    2    1    2    0    0  0.00000000000E+00  0.00000000000E+00 -0.10656092305E+04  0.17538100716E+04  0.13929561139E+04 0.  0.
        2    1    3    3  502    0  0.46553087065E+03 -0.45911273738E+03 -0.23068834294E+03  0.69334018255E+03  0.25500000920E-02 0. -1.
       -2    1    3    3    0  502 -0.46553087065E+03  0.45911273738E+03 -0.83492088754E+03  0.10604698891E+04  0.25500000920E-02 0.  1.
</event>
<event>
 5   0  0.1175146E-03  0.1404601E+04  0.7818609E-02  0.8950495E-01
       -2   -1    0    0    0  501  0.00000000000E+00  0.00000000000E+00  0.55849101365E+03  0.55849101366E+03  0.25500000920E-02 0.  1.
        2   -1    0    0  501    0  0.00000000000E+00  0.00000000000E+00 -0.88314024736E+03  0.88314024736E+03  0.25500000920E-02 0. -1.
    10030    2    1    2    0    0  0.00000000000E+00  0.00000000000E+00 -0.32464923371E+03  0.14416312610E+04  0.14046008571E+04 0.  0.
        1    1    3    3  502    0 -0.42906718537E+02  0.62232929917E+03  0.16881272860E+03  0.64624490750E+03  0.50400001928E-02 0.  1.
       -1    1    3    3    0  502  0.42906718537E+02 -0.62232929917E+03 -0.49346196231E+03  0.79538635353E+03  0.50400001928E-02 0. -1.
</event>
<event>
 5   0  0.1098949E-03  0.1404491E+04  0.7818609E-02  0.8950574E-01
        2   -1    0    0  501    0  0.00000000000E+00  0.00000000000E+00  0.93783157401E+03  0.93783157401E+03  0.25500000920E-02 0. -1.
       -2   -1    0    0    0  501  0.00000000000E+00  0.00000000000E+00 -0.52583940945E+03  0.52583940946E+03  0.25500000920E-02 0.  1.
    10030    2    1    2    0    0  0.00000000000E+00  0.00000000000E+00  0.41199216455E+03  0.14636709835E+04  0.14044910837E+04 0.  0.
        4    1    3    3  502    0  0.58833983357E+03 -0.13507194573E+03 -0.16795368797E+03  0.62657660704E+03  0.12699999809E+01 0.  1.
       -4    1    3    3    0  502 -0.58833983357E+03  0.13507194573E+03  0.57994585252E+03  0.83709437643E+03  0.12699999809E+01 0. -1.
</event>
<event>
 5   0  0.6153318E-04  0.1385772E+04  0.7818609E-02  0.8964182E-01
        1   -1    0    0  501    0  0.00000000000E+00  0.00000000000E+00  0.11019352800E+04  0.11019352800E+04  0.50400001928E-02 0. -1.
       -1   -1    0    0    0  501  0.00000000000E+00  0.00000000000E+00 -0.43568017181E+03  0.43568017184E+03  0.50400001928E-02 0.  1.
    10030    2    1    2    0    0  0.00000000000E+00  0.00000000000E+00  0.66625510819E+03  0.15376154519E+04  0.13857724953E+04 0.  0.
        5    1    3    3  502    0 -0.22164477556E+03 -0.62571435389E+03  0.11281544911E+03  0.67334558345E+03  0.46999998093E+01 0.  1.
       -5    1    3    3    0  502  0.22164477556E+03  0.62571435389E+03  0.55343965909E+03  0.86426986841E+03  0.46999998093E+01 0. -1.
</event>
<event>
 5   0  0.1175146E-03  0.1359345E+04  0.7818609E-02  0.8983784E-01
        2   -1    0    0  501    0  0.00000000000E+00  0.00000000000E+00  0.84367600224E+03  0.84367600224E+03  0.25500000920E-02 0. -1.
       -2   -1    0    0    0  501  0.00000000000E+00  0.00000000000E+00 -0.54755012450E+03  0.54755012450E+03  0.25500000920E-02 0.  1.
    10030    2    1    2    0    0  0.00000000000E+00  0.00000000000E+00  0.29612587774E+03  0.13912261267E+04  0.13593452837E+04 0.  0.
        1    1    3    3  502    0 -0.59651041373E+03 -0.14972394722E+03  0.44418059624E+03  0.75864242971E+03  0.50400001928E-02 0. -1.
       -1    1    3    3    0  502  0.59651041373E+03  0.14972394722E+03 -0.14805471850E+03  0.63258369703E+03  0.50400001928E-02 0.  1.
</event>
<event>
 5   0  0.1108819E-03  0.1312224E+04  0.7818609E-02  0.9019928E-01
       -2   -1    0    0    0  501  0.00000000000E+00  0.00000000000E+00  0.30328365564E+03  0.30328365566E+03  0.25500000920E-02 0.  1.
        2   -1    0    0  501    0  0.00000000000E+00  0.00000000000E+00 -0.14194061075E+04  0.14194061075E+04  0.25500000920E-02 0. -1.
    10030    2    1    2    0    0  0.00000000000E+00  0.00000000000E+00 -0.11161224518E+04  0.17226897631E+04  0.13122235680E+04 0.  0.
        3    1    3    3  502    0 -0.37848948409E+03  0.26340101608E+03 -0.11708013288E+04  0.12583362613E+04  0.10100000352E+00 0. -1.
       -3    1    3    3    0  502  0.37848948409E+03 -0.26340101608E+03  0.54678876983E+02  0.46435350180E+03  0.10100000352E+00 0.  1.
</event>
<event>
 5   0  0.6194742E-04  0.1413925E+04  0.7818609E-02  0.8943800E-01
       -1   -1    0    0    0  501  0.00000000000E+00  0.00000000000E+00  0.29118852484E+03  0.29118852488E+03  0.50400001928E-02 0.  1.
        1   -1    0    0  501    0  0.00000000000E+00  0.00000000000E+00 -0.17164011587E+04  0.17164011587E+04  0.50400001928E-02 0. -1.
    10030    2    1    2    0    0  0.00000000000E+00  0.00000000000E+00 -0.14252126338E+04  0.20075896836E+04  0.14139254881E+04 0.  0.
        4    1    3    3  502    0  0.89595555878E+02 -0.54868264453E+03 -0.92536606575E+02  0.56359972010E+03  0.12699999809E+01 0.  1.
       -4    1    3    3    0  502 -0.89595555878E+02  0.54868264453E+03 -0.13326760273E+04  0.14439899635E+04  0.12699999809E+01 0. -1.
</event>
<event>
 5   0  0.1095119E-03  0.1343317E+04  0.7818609E-02  0.8995903E-01
       -2   -1    0    0    0  501  0.00000000000E+00  0.00000000000E+00  0.29068201642E+03  0.29068201643E+03  0.25500000920E-02 0.  1.
        2   -1    0    0  501    0  0.00000000000E+00  0.00000000000E+00 -0.15519531192E+04  0.15519531192E+04  0.25500000920E-02 0. -1.
    10030    2    1    2    0    0  0.00000000000E+00  0.00000000000E+00 -0.12612711028E+04  0.18426351356E+04  0.13433165853E+04 0.  0.
        5    1    3    3  502    0 -0.60784858124E+02  0.33951386041E+03 -0.14211693784E+04  0.14624325463E+04  0.46999998093E+01 0. -1.
       -5    1    3    3    0  502  0.60784858124E+02 -0.33951386041E+03  0.15989827562E+03  0.38020258933E+03  0.46999998093E+01 0.  1.
</event>
<event>
 5   0  0.1120053E-03  0.1388951E+04  0.7818609E-02  0.8961855E-01
       -2   -1    0    0    0  501  0.00000000000E+00  0.00000000000E+00  0.55667567567E+03  0.55667567567E+03  0.25500000920E-02 0.  1.
        2   -1    0    0  501    0  0.00000000000E+00  0.00000000000E+00 -0.86638693207E+03  0.86638693208E+03  0.25500000920E-02 0. -1.
    10030    2    1    2    0    0  0.00000000000E+00  0.00000000000E+00 -0.30971125641E+03  0.14230626078E+04  0.13889514474E+04 0.  0.
        2    1    3    3  502    0  0.10722250886E+03  0.59389523070E+03  0.19722360807E+03  0.63490579068E+03  0.25500000920E-02 0.  1.
       -2    1    3    3    0  502 -0.10722250886E+03 -0.59389523070E+03 -0.50693486448E+03  0.78815681707E+03  0.25500000920E-02 0. -1.
</event>
<event>
 5   0  0.1120053E-03  0.1412393E+04  0.7818609E-02  0.8944896E-01
        2   -1    0    0  501    0  0.00000000000E+00  0.00000000000E+00  0.11570503778E+04  0.11570503778E+04  0.25500000920E-02 0. -1.
       -2   -1    0    0    0  501  0.00000000000E+00  0.00000000000E+00 -0.43102135192E+03  0.43102135193E+03  0.25500000920E-02 0.  1.
    10030    2    1    2    0    0  0.00000000000E+00  0.00000000000E+00  0.72602902584E+03  0.15880717297E+04  0.14123928888E+04 0.  0.
        2    1    3    3  502    0  0.22782648910E+03  0.28097326144E+03  0.10449721106E+04  0.11058108313E+04  0.25500000920E-02 0. -1.
       -2    1    3    3    0  502 -0.22782648910E+03 -0.28097326144E+03 -0.31894308474E+03  0.48226089837E+03  0.25500000920E-02 0.  1.
</event>
<event>
 5   0  0.6114266E-04  0.1396750E+04  0.7818609E-02  0.8956174E-01
        1   -1    0    0  501    0  0.00000000000E+00  0.00000000000E+00  0.14477094999E+04  0.14477094999E+04  0.50400001928E-02 0.  1.
       -1   -1    0    0    0  501  0.00000000000E+00  0.00000000000E+00 -0.33689613119E+03  0.33689613123E+03  0.50400001928E-02 0. -1.
    10030    2    1    2    0    0  0.00000000000E+00  0.00000000000E+00  0.11108133687E+04  0.17846056311E+04  0.13967501275E+04 0.  0.
        3    1    3    3  502    0 -0.19859132524E+03 -0.53032652753E+03  0.33205740050E+02  0.56726305330E+03  0.10100000352E+00 0. -1.
       -3    1    3    3    0  502  0.19859132524E+03  0.53032652753E+03  0.10776076287E+04  0.12173425779E+04  0.10100000352E+00 0.  1.
</event>
<event>
 5   0  0.6097538E-04  0.1421800E+04  0.7818609E-02  0.8938188E-01
       -1   -1    0    0    0  501  0.00000000000E+00  0.00000000000E+00  0.51163402876E+03  0.51163402879E+03  0.50400001928E-02 0. -1.
        1   -1    0    0  501    0  0.00000000000E+00  0.00000000000E+00 -0.98777410558E+03  0.98777410559E+03  0.50400001928E-02 0.  1.
    10030    2    1    2    0    0  0.00000000000E+00  0.00000000000E+00 -0.47614007682E+03  0.14994081344E+04  0.14218000495E+04 0.  0.
        2    1    3    3  502    0 -0.57949745181E+03 -0.31842198038E+03 -0.51341350143E+03  0.83713993914E+03  0.25500000920E-02 0. -1.
       -2    1    3    3    0  502  0.57949745181E+03  0.31842198038E+03  0.37273424610E+02  0.66226819524E+03  0.25500000920E-02 0.  1.
</event>
<event>
 5   0  0.1175146E-03  0.1127810E+04  0.7818609E-02  0.9178502E-01
        2   -1    0    0  501    0  0.00000000000E+00  0.00000000000E+00  0.10764345052E+04  0.10764345052E+04  0.25500000920E-02 0.  1.
       -2   -1    0    0    0  501  0.00000000000E+00  0.00000000000E+00 -0.29540959229E+03  0.29540959230E+03  0.25500000920E-02 0. -1.
    10030    2    1    2    0    0  0.00000000000E+00  0.00000000000E+00  0.78102491292E+03  0.13718440975E+04  0.11278104066E+04 0.  0.
        1    1    3    3  502    0  0.14889704369E+03  0.45639162419E+03  0.75037429790E+03  0.89080033185E+03  0.50400001928E-02 0.  1.
       -1    1    3    3    0  502 -0.14889704369E+03 -0.45639162419E+03  0.30650615019E+02  0.48104376566E+03  0.50400001928E-02 0. -1.
</event>
<event>
 5   0  0.6097538E-04  0.1406871E+04  0.7818609E-02  0.8948860E-01
        1   -1    0    0  501    0  0.00000000000E+00  0.00000000000E+00  0.13562540263E+04  0.13562540263E+04  0.50400001928E-02 0. -1.
       -1   -1    0    0    0  501  0.00000000000E+00  0.00000000000E+00 -0.36484430359E+03  0.36484430363E+03  0.50400001928E-02 0.  1.
    10030    2    1    2    0    0  0.00000000000E+00  0.00000000000E+00  0.99140972271E+03  0.17210983299E+04  0.14068710755E+04 0.  0.
        2    1    3    3  502    0  0.16309422395E+03 -0.90661279579E+02 -0.33401486086E+03  0.38260308518E+03  0.25500000920E-02 0.  1.
       -2    1    3    3    0  502 -0.16309422395E+03  0.90661279579E+02  0.13254245836E+04  0.13384952448E+04  0.25500000920E-02 0. -1.
</event>
<event>
 5   0  0.6153318E-04  0.1402137E+04  0.7818609E-02  0.8952273E-01
        1   -1    0    0  501    0  0.00000000000E+00  0.00000000000E+00  0.50582618015E+03  0.50582618017E+03  0.50400001928E-02 0.  1.
       -1   -1    0    0    0  501  0.00000000000E+00  0.00000000000E+00 -0.97167216320E+03  0.97167216321E+03  0.50400001928E-02 0. -1.
    10030    2    1    2    0    0  0.00000000000E+00  0.00000000000E+00 -0.46584598305E+03  0.14774983434E+04  0.14021372525E+04 0.  0.
        5    1    3    3  502    0 -0.35400448412E+03  0.59777250752E+03 -0.13393812306E+03  0.70753986201E+03  0.46999998093E+01 0.  1.
       -5    1    3    3    0  502  0.35400448412E+03 -0.59777250752E+03 -0.33190785998E+03  0.76995848138E+03  0.46999998093E+01 0. -1.
</event>
<event>
 5   0  0.1095119E-03  0.1393738E+04  0.7818609E-02  0.8958364E-01
       -2   -1    0    0    0  501  0.00000000000E+00  0.00000000000E+00  0.48154149699E+03  0.48154149700E+03  0.25500000920E-02 0.  1.
        2   -1    0    0  501    0  0.00000000000E+00  0.00000000000E+00 -0.10084835715E+04  0.10084835715E+04  0.25500000920E-02 0. -1.
    10030    2    1    2    0    0  0.00000000000E+00  0.00000000000E+00 -0.52694207453E+03  0.14900250685E+04  0.13937384098E+04 0.  0.
        5    1    3    3  502    0 -0.29847114207E+03  0.45342388403E+03 -0.73060909408E+03  0.91021424929E+03  0.46999998093E+01 0. -1.
       -5    1    3    3    0  502  0.29847114207E+03 -0.45342388403E+03  0.20366701955E+03  0.57981081924E+03  0.46999998093E+01 0.  1.
</event>
<event>
 5   0  0.6097538E-04  0.1386109E+04  0.7818609E-02  0.8963935E-01
        1   -1    0    0  501    0  0.00000000000E+00  0.00000000000E+00  0.94840150885E+03  0.94840150886E+03  0.50400001928E-02 0.  1.
       -1   -1    0    0    0  501  0.00000000000E+00  0.00000000000E+00 -0.50645703978E+03  0.50645703980E+03  0.50400001928E-02 0. -1.
    10030    2    1    2    0    0  0.00000000000E+00  0.00000000000E+00  0.44194446907E+03  0.14548585487E+04  0.13861091165E+04 0.  0.
        2    1    3    3  502    0 -0.70217791629E+02  0.38133432424E+03 -0.38195650438E+03  0.54427674610E+03  0.25500000920E-02 0.  1.
       -2    1    3    3    0  502  0.70217791629E+02 -0.38133432424E+03  0.82390097345E+03  0.91058180256E+03  0.25500000920E-02 0. -1.
</event>
<event>
 5   0  0.6114266E-04  0.1385668E+04  0.7818609E-02  0.8964258E-01
       -1   -1    0    0    0  501  0.00000000000E+00  0.00000000000E+00  0.30508199524E+03  0.30508199528E+03  0.50400001928E-02 0.  1.
        1   -1    0    0  501    0  0.00000000000E+00  0.00000000000E+00 -0.15734102159E+04  0.15734102159E+04  0.50400001928E-02 0. -1.
    10030    2    1    2    0    0  0.00000000000E+00  0.00000000000E+00 -0.12683282207E+04  0.18784922112E+04  0.13856682547E+04 0.  0.
        3    1    3    3  502    0  0.24022947311E+03  0.63863402580E+03 -0.79715625636E+03  0.10492958238E+04  0.10100000352E+00 0.  1.
       -3    1    3    3    0  502 -0.24022947311E+03 -0.63863402580E+03 -0.47117196431E+03  0.82919638736E+03  0.10100000352E+00 0. -1.
</event>
<event>
 5   0  0.6153318E-04  0.1397963E+04  0.7818609E-02  0.8955294E-01
        1   -1    0    0  501    0  0.00000000000E+00  0.00000000000E+00  0.14532170563E+04  0.14532170563E+04  0.50400001928E-02 0.  1.
       -1   -1    0    0    0  501  0.00000000000E+00  0.00000000000E+00 -0.33620251071E+03  0.33620251075E+03  0.50400001928E-02 0. -1.
    10030    2    1    2    0    0  0.00000000000E+00  0.00000000000E+00  0.11170145456E+04  0.17894195671E+04  0.13979631225E+04 0.  0.
        5    1    3    3  502    0  0.14802459218E+03 -0.40985201709E+03 -0.14102427821E+03  0.45803918265E+03  0.46999998093E+01 0. -1.
       -5    1    3    3    0  502 -0.14802459218E+03  0.40985201709E+03  0.12580388238E+04  0.13313803844E+04  0.46999998093E+01 0.  1.
</event>
<event>
 5   0  0.1120053E-03  0.1225917E+04  0.7818609E-02  0.9090469E-01
        2   -1    0    0  501    0  0.00000000000E+00  0.00000000000E+00  0.98442905005E+03  0.98442905005E+03  0.25500000920E-02 0. -1.
       -2   -1    0    0    0  501  0.00000000000E+00  0.00000000000E+00 -0.38166088750E+03  0.38166088751E+03  0.25500000920E-02 0.  1.
    10030    2    1    2    0    0  0.00000000000E+00  0.00000000000E+00  0.60276816255E+03  0.13660899376E+04  0.12259169057E+04 0.  0.
        2    1    3    3  502    0 -0.29244695635E+03  0.53869462665E+03  0.30030261739E+03  0.68256778790E+03  0.25500000920E-02 0.  1.
       -2    1    3    3    0  502  0.29244695635E+03 -0.53869462665E+03  0.30246554516E+03  0.68352214966E+03  0.25500000920E-02 0. -1.
</event>
<event>
 5   0  0.1108819E-03  0.1423959E+04  0.7818609E-02  0.8936656E-01
       -2   -1    0    0    0  501  0.00000000000E+00  0.00000000000E+00  0.76836207532E+03  0.76836207533E+03  0.25500000920E-02 0.  1.
        2   -1    0    0  501    0  0.00000000000E+00  0.00000000000E+00 -0.65973393654E+03  0.65973393654E+03  0.25500000920E-02 0. -1.
    10030    2    1    2    0    0  0.00000000000E+00  0.00000000000E+00  0.10862813878E+03  0.14280960119E+04  0.14239586183E+04 0.  0.
        3    1    3    3  502    0  0.54511097726E+03  0.52438017358E+02  0.51062926858E+03  0.74875762656E+03  0.10100000352E+00 0. -1.
       -3    1    3    3    0  502 -0.54511097726E+03 -0.52438017358E+02 -0.40200112980E+03  0.67933838531E+03  0.10100000352E+00 0.  1.
</event>
<event>
 5   0  0.6114266E-04  0.1453342E+04  0.7818609E-02  0.8916087E-01
       -1   -1    0    0    0  501  0.00000000000E+00  0.00000000000E+00  0.12864015969E+04  0.12864015969E+04  0.50400001928E-02 0.  1.
        1   -1    0    0  501    0  0.00000000000E+00  0.00000000000E+00 -0.41048665159E+03  0.41048665162E+03  0.50400001928E-02 0. -1.
    10030    2    1    2    0    0  0.00000000000E+00  0.00000000000E+00  0.87591494532E+03  0.16968882485E+04  0.14533419201E+04 0.  0.
        3    1    3    3  502    0 -0.55750140505E+03 -0.45262441543E+03  0.56783691796E+03  0.91548645739E+03  0.10100000352E+00 0.  1.
       -3    1    3    3    0  502  0.55750140505E+03  0.45262441543E+03  0.30807802737E+03  0.78140179115E+03  0.10100000352E+00 0. -1.
</event>
<event>
 5   0  0.1175146E-03  0.1396245E+04  0.7818609E-02  0.8956541E-01
        2   -1    0    0  501    0  0.00000000000E+00  0.00000000000E+00  0.12150899446E+04  0.12150899446E+04  0.25500000920E-02 0. -1.
       -2   -1    0    0    0  501  0.00000000000E+00  0.00000000000E+00 -0.40110216827E+03  0.40110216828E+03  0.25500000920E-02 0.  1.
    10030    2    1    2    0    0  0.00000000000E+00  0.00000000000E+00  0.81398777637E+03  0.16161921129E+04  0.13962452671E+04 0.  0.
        1    1    3    3  502    0 -0.23118273241E+03  0.44605530526E+03  0.96808362000E+03  0.10906863373E+04  0.50400001928E-02 0. -1.
       -1    1    3    3    0  502  0.23118273241E+03 -0.44605530526E+03 -0.15409584363E+03  0.52550577558E+03  0.50400001928E-02 0.  1.
</event>
<event>
 5   0  0.1175146E-03  0.1421134E+04  0.7818609E-02  0.8938661E-01
        2   -1    0    0  501    0  0.00000000000E+00  0.00000000000E+00  0.11858461016E+04  0.11858461016E+04  0.25500000920E-02 0.  1.
       -2   -1    0    0    0  501  0.00000000000E+00  0.00000000000E+00 -0.42577643745E+03  0.42577643746E+03  0.25500000920E-02 0. -1.
    10030    2    1    2    0    0  0.00000000000E+00  0.00000000000E+00  0.76006966419E+03  0.16116225391E+04  0.14211338129E+04 0.  0.
        1    1    3    3  502    0 -0.56753369986E+03 -0.48429207245E+02 -0.10171922648E+03  0.57860754372E+03  0.50400001928E-02 0. -1.
       -1    1    3    3    0  502  0.56753369986E+03  0.48429207245E+02  0.86178889067E+03  0.10330149954E+04  0.50400001928E-02 0.  1.
</event>
<event>
 5   0  0.1095119E-03  0.1402188E+04  0.7818609E-02  0.8952236E-01
        2   -1    0    0  501    0  0.00000000000E+00  0.00000000000E+00  0.97801285500E+03  0.97801285501E+03  0.25500000920E-02 0. -1.
       -2   -1    0    0    0  501  0.00000000000E+00  0.00000000000E+00 -0.50258309891E+03  0.50258309892E+03  0.25500000920E-02 0.  1.
    10030    2    1    2    0    0  0.00000000000E+00  0.00000000000E+00  0.47542975610E+03  0.14805959539E+04  0.14021879067E+04 0.  0.
        5    1    3    3  502    0  0.58580209252E+03 -0.16107694227E+02 -0.16862452998E+03  0.60981954013E+03  0.46999998093E+01 0.  1.
       -5    1    3    3    0  502 -0.58580209252E+03  0.16107694227E+02  0.64405428608E+03  0.87077641380E+03  0.46999998093E+01 0. -1.
</event>
<event>
 5   0  0.1108819E-03  0.1413592E+04  0.7818609E-02  0.8944039E-01
       -2   -1    0    0    0  501  0.00000000000E+00  0.00000000000E+00  0.30383345079E+03  0.30383345080E+03  0.25500000920E-02 0.  1.
        2   -1    0    0  501    0  0.00000000000E+00  0.00000000000E+00 -0.16441912497E+04  0.16441912498E+04  0.25500000920E-02 0. -1.
    10030    2    1    2    0    0  0.00000000000E+00  0.00000000000E+00 -0.13403577990E+04  0.19480247005E+04  0.14135915976E+04 0.  0.
        3    1    3    3  502    0 -0.35985061627E+03 -0.60606381205E+03 -0.74250422025E+03  0.10237765076E+04  0.10100000352E+00 0.  1.
       -3    1    3    3    0  502  0.35985061627E+03  0.60606381205E+03 -0.59785357872E+03  0.92424819291E+03  0.10100000352E+00 0. -1.
</event>
<event>
 5   0  0.5875298E-04  0.1407379E+04  0.7818609E-02  0.8948495E-01
        1   -1    0    0  501    0  0.00000000000E+00  0.00000000000E+00  0.10735862952E+04  0.10735862952E+04  0.50400001928E-02 0. -1.
       -1   -1    0    0    0  501  0.00000000000E+00  0.00000000000E+00 -0.46123786067E+03  0.46123786070E+03  0.50400001928E-02 0.  1.
    10030    2    1    2    0    0  0.00000000000E+00  0.00000000000E+00  0.61234843457E+03  0.15348241559E+04  0.14073786215E+04 0.  0.
        1    1    3    3  502    0  0.47190978623E+03 -0.21804418853E+03 -0.21104859719E+03  0.56105581264E+03  0.50400001928E-02 0. -1.
       -1    1    3    3    0  502 -0.47190978623E+03  0.21804418853E+03  0.82339703176E+03  0.97376834331E+03  0.50400001928E-02 0.  1.
</event>
<event>
 5   0  0.5875298E-04  0.1408219E+04  0.7818609E-02  0.8947890E-01
        1   -1    0    0  501    0  0.00000000000E+00  0.00000000000E+00  0.22313693798E+04  0.22313693798E+04  0.50400001928E-02 0. -1.
       -1   -1    0    0    0  501  0.00000000000E+00  0.00000000000E+00 -0.22218212443E+03  0.22218212449E+03  0.50400001928E-02 0.  1.
    10030    2    1    2    0    0  0.00000000000E+00  0.00000000000E+00  0.20091872553E+04  0.24535515043E+04  0.14082192859E+04 0.  0.
        1    1    3    3  502    0 -0.13775745131E+03  0.69016260093E+03  0.96686720552E+03  0.11958819859E+04  0.50400001928E-02 0. -1.
       -1    1    3    3    0  502  0.13775745131E+03 -0.69016260093E+03  0.10423200498E+04  0.12576695184E+04  0.50400001928E-02 0.  1.
</event>
<event>
 5   0  0.5875298E-04  0.1440049E+04  0.7818609E-02  0.8925329E-01
       -1   -1    0    0    0  501  0.00000000000E+00  0.00000000000E+00  0.11692655971E+04  0.11692655972E+04  0.50400001928E-02 0. -1.
        1   -1    0    0  501    0  0.00000000000E+00  0.00000000000E+00 -0.44338536557E+03  0.44338536560E+03  0.50400001928E-02 0.  1.
    10030    2    1    2    0    0  0.00000000000E+00  0.00000000000E+00  0.72588023157E+03  0.16126509628E+04  0.14400489634E+04 0.  0.
        1    1    3    3  502    0 -0.11478054438E+02  0.20501117903E+03 -0.40990332259E+03  0.45845617365E+03  0.50400001928E-02 0.  1.
       -1    1    3    3    0  502  0.11478054438E+02 -0.20501117903E+03  0.11357835542E+04  0.11541947891E+04  0.50400001928E-02 0. -1.
</event>
<event>
 5   0  0.1095119E-03  0.1405092E+04  0.7818609E-02  0.8950141E-01
        2   -1    0    0  501    0  0.00000000000E+00  0.00000000000E+00  0.60484432320E+03  0.60484432321E+03  0.25500000920E-02 0.  1.
       -2   -1    0    0    0  501  0.00000000000E+00  0.00000000000E+00 -0.81602958802E+03  0.81602958802E+03  0.25500000920E-02 0. -1.
    10030    2    1    2    0    0  0.00000000000E+00  0.00000000000E+00 -0.21118526482E+03  0.14208739112E+04  0.14050919740E+04 0.  0.
        5    1    3    3  502    0  0.27807342800E+02 -0.22595779155E+03 -0.77767674874E+03  0.81032918459E+03  0.46999998093E+01 0. -1.
       -5    1    3    3    0  502 -0.27807342800E+02  0.22595779155E+03  0.56649148392E+03  0.61054472664E+03  0.46999998093E+01 0.  1.
</event>
<event>
 5   0  0.1175146E-03  0.1403148E+04  0.7818609E-02  0.8951543E-01
       -2   -1    0    0    0  501  0.00000000000E+00  0.00000000000E+00  0.32942110597E+03  0.32942110598E+03  0.25500000920E-02 0. -1.
        2   -1    0    0  501    0  0.00000000000E+00  0.00000000000E+00 -0.14941543888E+04  0.14941543888E+04  0.25500000920E-02 0.  1.
    10030    2    1    2    0    0  0.00000000000E+00  0.00000000000E+00 -0.11647332828E+04  0.18235754948E+04  0.14031478771E+04 0.  0.
        1    1    3    3  502    0  0.10234970502E+03  0.24484663917E+03  0.26167452911E+03  0.37269142470E+03  0.50400001928E-02 0. -1.
       -1    1    3    3    0  502 -0.10234970502E+03 -0.24484663917E+03 -0.14264078119E+04  0.14508840701E+04  0.50400001928E-02 0.  1.
</event>
<event>
 5   0  0.6153318E-04  0.1378523E+04  0.7818609E-02  0.8969513E-01
       -1   -1    0    0    0  501  0.00000000000E+00  0.00000000000E+00  0.62396651454E+03  0.62396651456E+03  0.50400001928E-02 0.  1.
        1   -1    0    0  501    0  0.00000000000E+00  0.00000000000E+00 -0.76138887046E+03  0.76138887048E+03  0.50400001928E-02 0. -1.
    10030    2    1    2    0    0  0.00000000000E+00  0.00000000000E+00 -0.13742235592E+03  0.13853553850E+04  0.13785226291E+04 0.  0.
        5    1    3    3  502    0  0.10120846276E+02  0.28304948605E+03  0.56276600637E+03  0.63003738858E+03  0.46999998093E+01 0.  1.
       -5    1    3    3    0  502 -0.10120846276E+02 -0.28304948605E+03 -0.70018836229E+03  0.75531799646E+03  0.46999998093E+01 0. -1.
</event>
<event>
 5   0  0.6114266E-04  0.1395000E+04  0.7818609E-02  0.8957446E-01
        1   -1    0    0  501    0  0.00000000000E+00  0.00000000000E+00  0.54453370418E+03  0.54453370421E+03  0.50400001928E-02 0.  1.
       -1   -1    0    0    0  501  0.00000000000E+00  0.00000000000E+00 -0.89343623918E+03  0.89343623919E+03  0.50400001928E-02 0. -1.
    10030    2    1    2    0    0  0.00000000000E+00  0.00000000000E+00 -0.34890253500E+03  0.14379699434E+04  0.13949998492E+04 0.  0.
        3    1    3    3  502    0 -0.25894916127E+03 -0.35081321007E+03 -0.73563004190E+03  0.85514685594E+03  0.10100000352E+00 0. -1.
       -3    1    3    3    0  502  0.25894916127E+03  0.35081321007E+03  0.38672750690E+03  0.58282308746E+03  0.10100000352E+00 0.  1.
</event>
<event>
 5   0  0.1175146E-03  0.1392708E+04  0.7818609E-02  0.8959114E-01
        2   -1    0    0  501    0  0.00000000000E+00  0.00000000000E+00  0.10336369363E+04  0.10336369363E+04  0.25500000920E-02 0.  1.
       -2   -1    0    0    0  501  0.00000000000E+00  0.00000000000E+00 -0.46912854937E+03  0.46912854938E+03  0.25500000920E-02 0. -1.
    10030    2    1    2    0    0  0.00000000000E+00  0.00000000000E+00  0.56450838697E+03  0.15027654857E+04  0.13927075738E+04 0.  0.
        1    1    3    3  502    0  0.22463475429E+03  0.52495217459E+03  0.71234125217E+03  0.91294338160E+03  0.50400001928E-02 0.  1.
       -1    1    3    3    0  502 -0.22463475429E+03 -0.52495217459E+03 -0.14783286520E+03  0.58982210411E+03  0.50400001928E-02 0. -1.
</event>
<event>
 5   0  0.5875298E-04  0.1393117E+04  0.7818609E-02  0.8958816E-01
       -1   -1    0    0    0  501  0.00000000000E+00  0.00000000000E+00  0.20560889984E+03  0.20560889990E+03  0.50400001928E-02 0.  1.
        1   -1    0    0  501    0  0.00000000000E+00  0.00000000000E+00 -0.23597910876E+04  0.23597910876E+04  0.50400001928E-02 0. -1.
    10030    2    1    2    0    0  0.00000000000E+00  0.00000000000E+00 -0.21541821877E+04  0.25653999875E+04  0.13931174386E+04 0.  0.
        1    1    3    3  502    0 -0.43830669980E+03 -0.53297957433E+03 -0.90225641737E+03  0.11358902379E+04  0.50400001928E-02 0.  1.
       -1    1    3    3    0  502  0.43830669980E+03  0.53297957433E+03 -0.12519257704E+04  0.14295097496E+04  0.50400001928E-02 0. -1.
</event>
<event>
 5   0  0.6097538E-04  0.1397940E+04  0.7818609E-02  0.8955311E-01
       -1   -1    0    0    0  501  0.00000000000E+00  0.00000000000E+00  0.27575821679E+03  0.27575821684E+03  0.50400001928E-02 0.  1.
        1   -1    0    0  501    0  0.00000000000E+00  0.00000000000E+00 -0.17716946824E+04  0.17716946824E+04  0.50400001928E-02 0. -1.
    10030    2    1    2    0    0  0.00000000000E+00  0.00000000000E+00 -0.14959364656E+04  0.20474528992E+04  0.13979404370E+04 0.  0.
        2    1    3    3  502    0  0.58698269026E+03 -0.24725029937E+03 -0.32632530191E+03  0.71566024891E+03  0.25500000920E-02 0.  1.
       -2    1    3    3    0  502 -0.58698269026E+03  0.24725029937E+03 -0.11696111637E+04  0.13317926503E+04  0.25500000920E-02 0. -1.
</event>
<event>
 5   0  0.6194742E-04  0.1407489E+04  0.7818609E-02  0.8948415E-01
       -1   -1    0    0    0  501  0.00000000000E+00  0.00000000000E+00  0.76628813400E+03  0.76628813402E+03  0.50400001928E-02 0.  1.
        1   -1    0    0  501    0  0.00000000000E+00  0.00000000000E+00 -0.64630581464E+03  0.64630581466E+03  0.50400001928E-02 0. -1.
    10030    2    1    2    0    0  0.00000000000E+00  0.00000000000E+00  0.11998231936E+03  0.14125939487E+04  0.14074892209E+04 0.  0.
        4    1    3    3  502    0 -0.54531485608E+03 -0.31129504827E+03 -0.25893795807E+03  0.67920790512E+03  0.12699999809E+01 0. -1.
       -4    1    3    3    0  502  0.54531485608E+03  0.31129504827E+03  0.37892027743E+03  0.73338604356E+03  0.12699999809E+01 0.  1.
</event>
<event>
 5   0  0.6194742E-04  0.1395910E+04  0.7818609E-02  0.8956784E-01
        1   -1    0    0  501    0  0.00000000000E+00  0.00000000000E+00  0.12398143893E+04  0.12398143893E+04  0.50400001928E-02 0.  1.
       -1   -1    0    0    0  501  0.00000000000E+00  0.00000000000E+00 -0.39291455365E+03  0.39291455368E+03  0.50400001928E-02 0. -1.
    10030    2    1    2    0    0  0.00000000000E+00  0.00000000000E+00  0.84689983563E+03  0.16327289430E+04  0.13959099074E+04 0.  0.
        4    1    3    3  502    0  0.29423036774E+03 -0.20819947358E+03 -0.27562734510E+03  0.45375166817E+03  0.12699999809E+01 0. -1.
       -4    1    3    3    0  502 -0.29423036774E+03  0.20819947358E+03  0.11225271807E+04  0.11789772748E+04  0.12699999809E+01 0.  1.
</event>
<event>
 5   0  0.5875298E-04  0.1401257E+04  0.7818609E-02  0.8952909E-01
       -1   -1    0    0    0  501  0.00000000000E+00  0.00000000000E+00  0.41218246355E+03  0.41218246358E+03  0.50400001928E-02 0.  1.
        1   -1    0    0  501    0  0.00000000000E+00  0.00000000000E+00 -0.11909293633E+04  0.11909293633E+04  0.50400001928E-02 0. -1.
    10030    2    1    2    0    0  0.00000000000E+00  0.00000000000E+00 -0.77874689977E+03  0.16031118269E+04  0.14012568628E+04 0.  0.
        1    1    3    3  502    0 -0.10080374915E+03 -0.56068802449E+03 -0.85598396441E+03  0.10282222542E+04  0.50400001928E-02 0. -1.
       -1    1    3    3    0  502  0.10080374915E+03  0.56068802449E+03  0.77237064638E+02  0.57488957272E+03  0.50400001928E-02 0.  1.
</event>
<event>
 5   0  0.6114266E-04  0.1394605E+04  0.7818609E-02  0.8957733E-01
       -1   -1    0    0    0  501  0.00000000000E+00  0.00000000000E+00  0.11699484091E+04  0.11699484091E+04  0.50400001928E-02 0. -1.
        1   -1    0    0  501    0  0.00000000000E+00  0.00000000000E+00 -0.41559995639E+03  0.41559995642E+03  0.50400001928E-02 0.  1.
    10030    2    1    2    0    0  0.00000000000E+00  0.00000000000E+00  0.75434845272E+03  0.15855483655E+04  0.13946046147E+04 0.  0.
        3    1    3    3  502    0  0.45001489445E+03  0.77340168660E+02  0.97633609222E+03  0.10778344409E+04  0.10100000352E+00 0. -1.
       -3    1    3    3    0  502 -0.45001489445E+03 -0.77340168660E+02 -0.22198763951E+03  0.50771392458E+03  0.10100000352E+00 0.  1.
</event>
<event>
 5   0  0.6194742E-04  0.1411257E+04  0.7818609E-02  0.8945710E-01
        1   -1    0    0  501    0  0.00000000000E+00  0.00000000000E+00  0.15174439331E+04  0.15174439331E+04  0.50400001928E-02 0.  1.
       -1   -1    0    0    0  501  0.00000000000E+00  0.00000000000E+00 -0.32812503859E+03  0.32812503863E+03  0.50400001928E-02 0. -1.
    10030    2    1    2    0    0  0.00000000000E+00  0.00000000000E+00  0.11893188945E+04  0.18455689717E+04  0.14112566728E+04 0.  0.
        4    1    3    3  502    0  0.22742171106E+03  0.23498128352E+03  0.14123662266E+04  0.14497299091E+04  0.12699999809E+01 0.  1.
       -4    1    3    3    0  502 -0.22742171106E+03 -0.23498128352E+03 -0.22304733211E+03  0.39583906266E+03  0.12699999809E+01 0. -1.
</event>
<event>
 5   0  0.1095119E-03  0.1400203E+04  0.7818609E-02  0.8953672E-01
        2   -1    0    0  501    0  0.00000000000E+00  0.00000000000E+00  0.16168692713E+04  0.16168692713E+04  0.25500000920E-02 0. -1.
       -2   -1    0    0    0  501  0.00000000000E+00  0.00000000000E+00 -0.30314265006E+03  0.30314265007E+03  0.25500000920E-02 0.  1.
    10030    2    1    2    0    0  0.00000000000E+00  0.00000000000E+00  0.13137266212E+04  0.19200119213E+04  0.14002028934E+04 0.  0.
        5    1    3    3  502    0 -0.44726226441E+03  0.52996827059E+03  0.52526696665E+03  0.86996400917E+03  0.46999998093E+01 0.  1.
       -5    1    3    3    0  502  0.44726226441E+03 -0.52996827059E+03  0.78845965455E+03  0.10500479122E+04  0.46999998093E+01 0. -1.
</event>
<event>
 5   0  0.6097538E-04  0.1392977E+04  0.7818609E-02  0.8958918E-01
        1   -1    0    0  501    0  0.00000000000E+00  0.00000000000E+00  0.16422889482E+04  0.16422889482E+04  0.50400001928E-02 0. -1.
       -1   -1    0    0    0  501  0.00000000000E+00  0.00000000000E+00 -0.29537825312E+03  0.29537825316E+03  0.50400001928E-02 0.  1.
    10030    2    1    2    0    0  0.00000000000E+00  0.00000000000E+00  0.13469106951E+04  0.19376672013E+04  0.13929773016E+04 0.  0.
        2    1    3    3  502    0 -0.44165480607E+03  0.53572112398E+03  0.75015562922E+03  0.10221494795E+04  0.25500000920E-02 0.  1.
       -2    1    3    3    0  502  0.44165480607E+03 -0.53572112398E+03  0.59675506584E+03  0.91551772184E+03  0.25500000920E-02 0. -1.
</event>
<event>
 5   0  0.6114266E-04  0.1428951E+04  0.7818609E-02  0.8933125E-01
       -1   -1    0    0    0  501  0.00000000000E+00  0.00000000000E+00  0.13719661020E+04  0.13719661020E+04  0.50400001928E-02 0.  1.
        1   -1    0    0  501    0  0.00000000000E+00  0.00000000000E+00 -0.37207567132E+03  0.37207567135E+03  0.50400001928E-02 0. -1.
    10030    2    1    2    0    0  0.00000000000E+00  0.00000000000E+00  0.99989043063E+03  0.17440417733E+04  0.14289509557E+04 0.  0.
        3    1    3    3  502    0 -0.58011854570E+03 -0.17447331147E+03  0.96228425774E+03  0.11370881524E+04  0.10100000352E+00 0.  1.
       -3    1    3    3    0  502  0.58011854570E+03  0.17447331147E+03  0.37606172892E+02  0.60695362090E+03  0.10100000352E+00 0. -1.
</event>
<event>
 5   0  0.6097538E-04  0.1397377E+04  0.7818609E-02  0.8955719E-01
        1   -1    0    0  501    0  0.00000000000E+00  0.00000000000E+00  0.14993210647E+04  0.14993210647E+04  0.50400001928E-02 0. -1.
       -1   -1    0    0    0  501  0.00000000000E+00  0.00000000000E+00 -0.32559129494E+03  0.32559129498E+03  0.50400001928E-02 0.  1.
    10030    2    1    2    0    0  0.00000000000E+00  0.00000000000E+00  0.11737297698E+04  0.18249123597E+04  0.13973773822E+04 0.  0.
        2    1    3    3  502    0  0.38430168236E+03  0.39099076507E+03  0.21212364062E+02  0.54864517298E+03  0.25500000920E-02 0.  1.
       -2    1    3    3    0  502 -0.38430168236E+03 -0.39099076507E+03  0.11525174057E+04  0.12762671867E+04  0.25500000920E-02 0. -1.
</event>
<event>
 5   0  0.1175146E-03  0.1398071E+04  0.7818609E-02  0.8955216E-01
        2   -1    0    0  501    0  0.00000000000E+00  0.00000000000E+00  0.15006512836E+04  0.15006512836E+04  0.25500000920E-02 0.  1.
       -2   -1    0    0    0  501  0.00000000000E+00  0.00000000000E+00 -0.32562565869E+03  0.32562565870E+03  0.25500000920E-02 0. -1.
    10030    2    1    2    0    0  0.00000000000E+00  0.00000000000E+00  0.11750256249E+04  0.18262769423E+04  0.13980709034E+04 0.  0.
        1    1    3    3  502    0 -0.24371850020E+03 -0.94315156943E+02 -0.25941486488E+03  0.36822564864E+03  0.50400001928E-02 0. -1.
       -1    1    3    3    0  502  0.24371850020E+03  0.94315156943E+02  0.14344404898E+04  0.14580512937E+04  0.50400001928E-02 0.  1.
</event>
<event>
 5   0  0.5875298E-04  0.1393563E+04  0.7818609E-02  0.8958491E-01
        1   -1    0    0  501    0  0.00000000000E+00  0.00000000000E+00  0.91008871319E+03  0.91008871320E+03  0.50400001928E-02 0.  1.
       -1   -1    0    0    0  501  0.00000000000E+00  0.00000000000E+00 -0.53346913703E+03  0.53346913706E+03  0.50400001928E-02 0. -1.
    10030    2    1    2    0    0  0.00000000000E+00  0.00000000000E+00  0.37661957615E+03  0.14435578503E+04  0.13935626867E+04 0.  0.
        1    1    3    3  502    0  0.16103565058E+03  0.58077584285E+03  0.55052754368E+03  0.81628036653E+03  0.50400001928E-02 0.  1.
       -1    1    3    3    0  502 -0.16103565058E+03 -0.58077584285E+03 -0.17390796753E+03  0.62727748373E+03  0.50400001928E-02 0. -1.
</event>
<event>
 5   0  0.1120053E-03  0.1400104E+04  0.7818609E-02  0.8953743E-01
        2   -1    0    0  501    0  0.00000000000E+00  0.00000000000E+00  0.93786390313E+03  0.93786390313E+03  0.25500000920E-02 0. -1.
       -2   -1    0    0    0  501  0.00000000000E+00  0.00000000000E+00 -0.52254159564E+03  0.52254159564E+03  0.25500000920E-02 0.  1.
    10030    2    1    2    0    0  0.00000000000E+00  0.00000000000E+00  0.41532230749E+03  0.14604054988E+04  0.14001041396E+04 0.  0.
        2    1    3    3  502    0 -0.49797579056E+03 -0.13003847548E+03  0.70263349019E+03  0.87096711455E+03  0.25500000920E-02 0. -1.
       -2    1    3    3    0  502  0.49797579056E+03  0.13003847548E+03 -0.28731118270E+03  0.58943838422E+03  0.25500000920E-02 0.  1.
</event>
<event>
 5   0  0.4176125E-04  0.1371214E+04  0.7818609E-02  0.8974923E-01
       -3   -1    0    0    0  501  0.00000000000E+00  0.00000000000E+00  0.17769979165E+04  0.17769979194E+04  0.10100000352E+00 0. -1.
        3   -1    0    0  501    0  0.00000000000E+00  0.00000000000E+00 -0.26452313570E+03  0.26452315499E+03  0.10100000352E+00 0.  1.
    10030    2    1    2    0    0  0.00000000000E+00  0.00000000000E+00  0.15124747808E+04  0.20415210744E+04  0.13712141826E+04 0.  0.
        2    1    3    3  502    0  0.51509125092E+03 -0.43813951404E+03  0.58797946569E+03  0.89610550864E+03  0.25500000920E-02 0.  1.
       -2    1    3    3    0  502 -0.51509125092E+03  0.43813951404E+03  0.92449531514E+03  0.11454155657E+04  0.25500000920E-02 0. -1.
</event>
<event>
 5   0  0.5875298E-04  0.1377135E+04  0.7818609E-02  0.8970538E-01
       -1   -1    0    0    0  501  0.00000000000E+00  0.00000000000E+00  0.37985474762E+03  0.37985474766E+03  0.50400001928E-02 0. -1.
        1   -1    0    0  501    0  0.00000000000E+00  0.00000000000E+00 -0.12481743590E+04  0.12481743590E+04  0.50400001928E-02 0.  1.
    10030    2    1    2    0    0  0.00000000000E+00  0.00000000000E+00 -0.86831961133E+03  0.16280291066E+04  0.13771346429E+04 0.  0.
        1    1    3    3  502    0 -0.66871973023E+02 -0.27871513329E+03 -0.11742978247E+04  0.12087718426E+04  0.50400001928E-02 0.  1.
       -1    1    3    3    0  502  0.66871973023E+02  0.27871513329E+03  0.30597821342E+03  0.41925726399E+03  0.50400001928E-02 0. -1.
</event>
<event>
 5   0  0.6114266E-04  0.1404944E+04  0.7818609E-02  0.8950248E-01
        1   -1    0    0  501    0  0.00000000000E+00  0.00000000000E+00  0.79977265025E+03  0.79977265026E+03  0.50400001928E-02 0.  1.
       -1   -1    0    0    0  501  0.00000000000E+00  0.00000000000E+00 -0.61700904803E+03  0.61700904805E+03  0.50400001928E-02 0. -1.
    10030    2    1    2    0    0  0.00000000000E+00  0.00000000000E+00  0.18276360222E+03  0.14167816983E+04  0.14049440723E+04 0.  0.
        3    1    3    3  502    0 -0.19334894453E+03  0.67145908155E+03  0.18482744459E+02  0.69898693449E+03  0.10100000352E+00 0.  1.
       -3    1    3    3    0  502  0.19334894453E+03 -0.67145908155E+03  0.16428085776E+03  0.71779476382E+03  0.10100000352E+00 0. -1.
</event>
<event>
 5   0  0.1108819E-03  0.1361634E+04  0.7818609E-02  0.8982068E-01
        2   -1    0    0  501    0  0.00000000000E+00  0.00000000000E+00  0.12483883970E+04  0.12483883970E+04  0.25500000920E-02 0. -1.
       -2   -1    0    0    0  501  0.00000000000E+00  0.00000000000E+00 -0.37128796103E+03  0.37128796104E+03  0.25500000920E-02 0.  1.
    10030    2    1    2    0    0  0.00000000000E+00  0.00000000000E+00  0.87710043596E+03  0.16196763580E+04  0.13616336989E+04 0.  0.
        3    1    3    3  502    0 -0.18477440654E+03 -0.60463628351E+03  0.13813143615E+03  0.64715293440E+03  0.10100000352E+00 0.  1.
       -3    1    3    3    0  502  0.18477440654E+03  0.60463628351E+03  0.73896899981E+03  0.97252342364E+03  0.10100000352E+00 0. -1.
</event>
<event>
 5   0  0.1098949E-03  0.1367589E+04  0.7818609E-02  0.8977619E-01
        2   -1    0    0  501    0  0.00000000000E+00  0.00000000000E+00  0.12052234787E+04  0.12052234787E+04  0.25500000920E-02 0. -1.
       -2   -1    0    0    0  501  0.00000000000E+00  0.00000000000E+00 -0.38795708887E+03  0.38795708888E+03  0.25500000920E-02 0.  1.
    10030    2    1    2    0    0  0.00000000000E+00  0.00000000000E+00  0.81726638987E+03  0.15931805676E+04  0.13675891083E+04 0.  0.
        4    1    3    3  502    0 -0.12518398663E+03  0.58310592455E+03  0.18956284310E+02  0.59669464835E+03  0.12699999809E+01 0.  1.
       -4    1    3    3    0  502  0.12518398663E+03 -0.58310592455E+03  0.79831010556E+03  0.99648591926E+03  0.12699999809E+01 0. -1.
</event>
<event>
 5   0  0.5875298E-04  0.1365787E+04  0.7818609E-02  0.8978963E-01
       -1   -1    0    0    0  501  0.00000000000E+00  0.00000000000E+00  0.69832743725E+03  0.69832743727E+03  0.50400001928E-02 0. -1.
        1   -1    0    0  501    0  0.00000000000E+00  0.00000000000E+00 -0.66780060841E+03  0.66780060842E+03  0.50400001928E-02 0.  1.
    10030    2    1    2    0    0  0.00000000000E+00  0.00000000000E+00  0.30526828843E+02  0.13661280457E+04  0.13657869343E+04 0.  0.
        1    1    3    3  502    0 -0.64655208786E+03  0.12532567123E+03 -0.16535676988E+03  0.67902797259E+03  0.50400001928E-02 0.  1.
       -1    1    3    3    0  502  0.64655208786E+03 -0.12532567123E+03  0.19588359872E+03  0.68710007310E+03  0.50400001928E-02 0. -1.
</event>
<event>
 5   0  0.6153318E-04  0.1396101E+04  0.7818609E-02  0.8956645E-01
       -1   -1    0    0    0  501  0.00000000000E+00  0.00000000000E+00  0.32902240057E+03  0.32902240061E+03  0.50400001928E-02 0.  1.
        1   -1    0    0  501    0  0.00000000000E+00  0.00000000000E+00 -0.14809772789E+04  0.14809772789E+04  0.50400001928E-02 0. -1.
    10030    2    1    2    0    0  0.00000000000E+00  0.00000000000E+00 -0.11519548783E+04  0.18099996795E+04  0.13961012851E+04 0.  0.
        5    1    3    3  502    0  0.58207325265E+03  0.14741688759E+03 -0.11447950914E+03  0.61128443314E+03  0.46999998093E+01 0.  1.
       -5    1    3    3    0  502 -0.58207325265E+03 -0.14741688759E+03 -0.10374753692E+04  0.11987152464E+04  0.46999998093E+01 0. -1.
</event>
<event>
 5   0  0.1108819E-03  0.1361053E+04  0.7818609E-02  0.8982503E-01
        2   -1    0    0  501    0  0.00000000000E+00  0.00000000000E+00  0.93544766564E+03  0.93544766564E+03  0.25500000920E-02 0.  1.
       -2   -1    0    0    0  501  0.00000000000E+00  0.00000000000E+00 -0.49507487657E+03  0.49507487658E+03  0.25500000920E-02 0. -1.
    10030    2    1    2    0    0  0.00000000000E+00  0.00000000000E+00  0.44037278906E+03  0.14305225422E+04  0.13610534708E+04 0.  0.
        3    1    3    3  502    0 -0.60972473313E+02 -0.55980817788E+03 -0.18143464296E+03  0.59162604607E+03  0.10100000352E+00 0. -1.
       -3    1    3    3    0  502  0.60972473313E+02  0.55980817788E+03  0.62180743202E+03  0.83889649615E+03  0.10100000352E+00 0.  1.
</event>
<event>
 5   0  0.6194742E-04  0.1397700E+04  0.7818609E-02  0.8955485E-01
        1   -1    0    0  501    0  0.00000000000E+00  0.00000000000E+00  0.10368873504E+04  0.10368873504E+04  0.50400001928E-02 0.  1.
       -1   -1    0    0    0  501  0.00000000000E+00  0.00000000000E+00 -0.47101648743E+03  0.47101648746E+03  0.50400001928E-02 0. -1.
    10030    2    1    2    0    0  0.00000000000E+00  0.00000000000E+00  0.56587086292E+03  0.15079038378E+04  0.13976995924E+04 0.  0.
        4    1    3    3  502    0 -0.78152351147E+01  0.27425961350E+03  0.97634953062E+03  0.10141693312E+04  0.12699999809E+01 0.  1.
       -4    1    3    3    0  502  0.78152351147E+01 -0.27425961350E+03 -0.41047866770E+03  0.49373450663E+03  0.12699999809E+01 0. -1.
</event>
<event>
 5   0  0.1108819E-03  0.1394803E+04  0.7818609E-02  0.8957589E-01
        2   -1    0    0  501    0  0.00000000000E+00  0.00000000000E+00  0.71491786362E+03  0.71491786363E+03  0.25500000920E-02 0.  1.
       -2   -1    0    0    0  501  0.00000000000E+00  0.00000000000E+00 -0.68031449667E+03  0.68031449667E+03  0.25500000920E-02 0. -1.
    10030    2    1    2    0    0  0.00000000000E+00  0.00000000000E+00  0.34603366955E+02  0.13952323603E+04  0.13948031927E+04 0.  0.
        3    1    3    3  502    0 -0.30784897589E+03 -0.86534603082E+02  0.63725826022E+03  0.71299181616E+03  0.10100000352E+00 0.  1.
       -3    1    3    3    0  502  0.30784897589E+03  0.86534603082E+02 -0.60265489327E+03  0.68224054414E+03  0.10100000352E+00 0. -1.
</event>
<event>
 5   0  0.6153318E-04  0.1404469E+04  0.7818609E-02  0.8950590E-01
       -1   -1    0    0    0  501  0.00000000000E+00  0.00000000000E+00  0.41363204509E+03  0.41363204512E+03  0.50400001928E-02 0.  1.
        1   -1    0    0  501    0  0.00000000000E+00  0.00000000000E+00 -0.11922035631E+04  0.11922035631E+04  0.50400001928E-02 0. -1.
    10030    2    1    2    0    0  0.00000000000E+00  0.00000000000E+00 -0.77857151797E+03  0.16058356082E+04  0.14044694343E+04 0.  0.
        5    1    3    3  502    0 -0.29990608974E+03  0.41391782063E+03 -0.93981813764E+03  0.10698372992E+04  0.46999998093E+01 0. -1.
       -5    1    3    3    0  502  0.29990608974E+03 -0.41391782063E+03  0.16124661967E+03  0.53599830900E+03  0.46999998093E+01 0.  1.
</event>
<event>
 5   0  0.6097538E-04  0.1407422E+04  0.7818609E-02  0.8948464E-01
       -1   -1    0    0    0  501  0.00000000000E+00  0.00000000000E+00  0.85591970210E+03  0.85591970211E+03  0.50400001928E-02 0. -1.
        1   -1    0    0  501    0  0.00000000000E+00  0.00000000000E+00 -0.57856934737E+03  0.57856934739E+03  0.50400001928E-02 0.  1.
    10030    2    1    2    0    0  0.00000000000E+00  0.00000000000E+00  0.27735035473E+03  0.14344890495E+04  0.14074216191E+04 0.  0.
        2    1    3    3  502    0  0.15945626929E+03 -0.66801004409E+03  0.29507060476E+03  0.74748269721E+03  0.25500000920E-02 0. -1.
       -2    1    3    3    0  502 -0.15945626929E+03  0.66801004409E+03 -0.17720250029E+02  0.68700635229E+03  0.25500000920E-02 0.  1.
</event>
<event>
 5   0  0.1095119E-03  0.1422527E+04  0.7818609E-02  0.8937672E-01
        2   -1    0    0  501    0  0.00000000000E+00  0.00000000000E+00  0.89823925089E+03  0.89823925089E+03  0.25500000920E-02 0. -1.
       -2   -1    0    0    0  501  0.00000000000E+00  0.00000000000E+00 -0.56320806884E+03  0.56320806885E+03  0.25500000920E-02 0.  1.
    10030    2    1    2    0    0  0.00000000000E+00  0.00000000000E+00  0.33503118205E+03  0.14614473197E+04  0.14225267574E+04 0.  0.
        5    1    3    3  502    0  0.49817718839E+03 -0.38945784257E+03  0.50202440948E+03  0.80740852106E+03  0.46999998093E+01 0. -1.
       -5    1    3    3    0  502 -0.49817718839E+03  0.38945784257E+03 -0.16699322743E+03  0.65403879868E+03  0.46999998093E+01 0.  1.
</event>
<event>
 5   0  0.5875298E-04  0.1453823E+04  0.7818609E-02  0.8915754E-01
       -1   -1    0    0    0  501  0.00000000000E+00  0.00000000000E+00  0.87835903068E+03  0.87835903070E+03  0.50400001928E-02 0.  1.
        1   -1    0    0  501    0  0.00000000000E+00  0.00000000000E+00 -0.60157677049E+03  0.60157677051E+03  0.50400001928E-02 0. -1.
    10030    2    1    2    0    0  0.00000000000E+00  0.00000000000E+00  0.27678226019E+03  0.14799358012E+04  0.14538230828E+04 0.  0.
        1    1    3    3  502    0  0.52041652253E+03  0.25673030618E+03  0.58404038594E+03  0.82331462969E+03  0.50400001928E-02 0.  1.
       -1    1    3    3    0  502 -0.52041652253E+03 -0.25673030618E+03 -0.30725812575E+03  0.65662117152E+03  0.50400001928E-02 0. -1.
</event>
<event>
 5   0  0.5875298E-04  0.1402646E+04  0.7818609E-02  0.8951906E-01
       -1   -1    0    0    0  501  0.00000000000E+00  0.00000000000E+00  0.43309675897E+03  0.43309675900E+03  0.50400001928E-02 0. -1.
        1   -1    0    0  501    0  0.00000000000E+00  0.00000000000E+00 -0.11356673824E+04  0.11356673824E+04  0.50400001928E-02 0.  1.
    10030    2    1    2    0    0  0.00000000000E+00  0.00000000000E+00 -0.70257062341E+03  0.15687641414E+04  0.14026458749E+04 0.  0.
        1    1    3    3  502    0 -0.43270636427E+03 -0.48388137249E+03 -0.54367645844E+02  0.65140756924E+03  0.50400001928E-02 0.  1.
       -1    1    3    3    0  502  0.43270636427E+03  0.48388137249E+03 -0.64820297757E+03  0.91735657215E+03  0.50400001928E-02 0. -1.
</event>
<event>
 5   0  0.1095119E-03  0.1395721E+04  0.7818609E-02  0.8956922E-01
        2   -1    0    0  501    0  0.00000000000E+00  0.00000000000E+00  0.14299158026E+04  0.14299158026E+04  0.25500000920E-02 0.  1.
       -2   -1    0    0    0  501  0.00000000000E+00  0.00000000000E+00 -0.34058613717E+03  0.34058613718E+03  0.25500000920E-02 0. -1.
    10030    2    1    2    0    0  0.00000000000E+00  0.00000000000E+00  0.10893296654E+04  0.17705019397E+04  0.13957213184E+04 0.  0.
        5    1    3    3  502    0  0.28864789814E+03  0.36637421667E+03  0.12031234950E+04  0.12903782042E+04  0.46999998093E+01 0.  1.
       -5    1    3    3    0  502 -0.28864789814E+03 -0.36637421667E+03 -0.11379382962E+03  0.48012373551E+03  0.46999998093E+01 0. -1.
</event>
<event>
 5   0  0.6194742E-04  0.1423380E+04  0.7818609E-02  0.8937066E-01
        1   -1    0    0  501    0  0.00000000000E+00  0.00000000000E+00  0.82640752968E+03  0.82640752969E+03  0.50400001928E-02 0.  1.
       -1   -1    0    0    0  501  0.00000000000E+00  0.00000000000E+00 -0.61289731045E+03  0.61289731047E+03  0.50400001928E-02 0. -1.
    10030    2    1    2    0    0  0.00000000000E+00  0.00000000000E+00  0.21351021922E+03  0.14393048402E+04  0.14233804162E+04 0.  0.
        4    1    3    3  502    0 -0.50864807601E+03 -0.45992048708E+03 -0.85773603317E+02  0.69109221063E+03  0.12699999809E+01 0. -1.
       -4    1    3    3    0  502  0.50864807601E+03  0.45992048708E+03  0.29928382254E+03  0.74821262954E+03  0.12699999809E+01 0.  1.
</event>
<event>
 5   0  0.5875298E-04  0.1403848E+04  0.7818609E-02  0.8951038E-01
        1   -1    0    0  501    0  0.00000000000E+00  0.00000000000E+00  0.77920429652E+03  0.77920429653E+03  0.50400001928E-02 0. -1.
       -1   -1    0    0    0  501  0.00000000000E+00  0.00000000000E+00 -0.63230805272E+03  0.63230805274E+03  0.50400001928E-02 0.  1.
    10030    2    1    2    0    0  0.00000000000E+00  0.00000000000E+00  0.14689624380E+03  0.14115123493E+04  0.14038477858E+04 0.  0.
        1    1    3    3  502    0 -0.41922129473E+02  0.25449179974E+03  0.72983204853E+03  0.77406612131E+03  0.50400001928E-02 0. -1.
       -1    1    3    3    0  502  0.41922129473E+02 -0.25449179974E+03 -0.58293580474E+03  0.63744622796E+03  0.50400001928E-02 0.  1.
</event>
<event>
 5   0  0.1095119E-03  0.1396714E+04  0.7818609E-02  0.8956200E-01
        2   -1    0    0  501    0  0.00000000000E+00  0.00000000000E+00  0.20529077348E+04  0.20529077348E+04  0.25500000920E-02 0.  1.
       -2   -1    0    0    0  501  0.00000000000E+00  0.00000000000E+00 -0.23756680303E+03  0.23756680304E+03  0.25500000920E-02 0. -1.
    10030    2    1    2    0    0  0.00000000000E+00  0.00000000000E+00  0.18153409318E+04  0.22904745379E+04  0.13967143266E+04 0.  0.
        5    1    3    3  502    0  0.36004743317E+03  0.20781188470E+03  0.18278596229E+04  0.18745433643E+04  0.46999998093E+01 0.  1.
       -5    1    3    3    0  502 -0.36004743317E+03 -0.20781188470E+03 -0.12518691080E+02  0.41593117361E+03  0.46999998093E+01 0. -1.
</event>
<event>
 5   0  0.6153318E-04  0.1397099E+04  0.7818609E-02  0.8955921E-01
       -1   -1    0    0    0  501  0.00000000000E+00  0.00000000000E+00  0.39462193876E+03  0.39462193879E+03  0.50400001928E-02 0. -1.
        1   -1    0    0  501    0  0.00000000000E+00  0.00000000000E+00 -0.12365539541E+04  0.12365539541E+04  0.50400001928E-02 0.  1.
    10030    2    1    2    0    0  0.00000000000E+00  0.00000000000E+00 -0.84193201533E+03  0.16311758929E+04  0.13970988781E+04 0.  0.
        5    1    3    3  502    0  0.72880124237E+02 -0.28613410151E+03  0.31816009417E+03  0.43408774698E+03  0.46999998093E+01 0. -1.
       -5    1    3    3    0  502 -0.72880124237E+02  0.28613410151E+03 -0.11600921095E+04  0.11970881459E+04  0.46999998093E+01 0.  1.
</event>
<event>
 5   0  0.1108819E-03  0.1397216E+04  0.7818609E-02  0.8955836E-01
       -2   -1    0    0    0  501  0.00000000000E+00  0.00000000000E+00  0.86735967046E+03  0.86735967047E+03  0.25500000920E-02 0.  1.
        2   -1    0    0  501    0  0.00000000000E+00  0.00000000000E+00 -0.56268856948E+03  0.56268856949E+03  0.25500000920E-02 0. -1.
    10030    2    1    2    0    0  0.00000000000E+00  0.00000000000E+00  0.30467110098E+03  0.14300482400E+04  0.13972163357E+04 0.  0.
        3    1    3    3  502    0 -0.60146550762E+03 -0.76315327100E+02 -0.20290613470E+03  0.63934004701E+03  0.10100000352E+00 0. -1.
       -3    1    3    3    0  502  0.60146550762E+03  0.76315327100E+02  0.50757723568E+03  0.79070819295E+03  0.10100000352E+00 0.  1.
</event>
<event>
 5   0  0.6097538E-04  0.1403543E+04  0.7818609E-02  0.8951258E-01
        1   -1    0    0  501    0  0.00000000000E+00  0.00000000000E+00  0.61111573448E+03  0.61111573450E+03  0.50400001928E-02 0.  1.
       -1   -1    0    0    0  501  0.00000000000E+00  0.00000000000E+00 -0.80587531215E+03  0.80587531217E+03  0.50400001928E-02 0. -1.
    10030    2    1    2    0    0  0.00000000000E+00  0.00000000000E+00 -0.19475957767E+03  0.14169910467E+04  0.14035427793E+04 0.  0.
        2    1    3    3  502    0 -0.66162321161E+02  0.51750905793E+03 -0.57122756723E+03  0.77362394699E+03  0.25500000920E-02 0. -1.
       -2    1    3    3    0  502  0.66162321161E+02 -0.51750905793E+03  0.37646798956E+03  0.64336709968E+03  0.25500000920E-02 0.  1.
</event>
<event>
 5   0  0.6194742E-04  0.1400561E+04  0.7818609E-02  0.8953413E-01
       -1   -1    0    0    0  501  0.00000000000E+00  0.00000000000E+00  0.65440317144E+03  0.65440317146E+03  0.50400001928E-02 0. -1.
        1   -1    0    0  501    0  0.00000000000E+00  0.00000000000E+00 -0.74937357166E+03  0.74937357168E+03  0.50400001928E-02 0.  1.
    10030    2    1    2    0    0  0.00000000000E+00  0.00000000000E+00 -0.94970400220E+02  0.14037767431E+04  0.14005605191E+04 0.  0.
        4    1    3    3  502    0 -0.49383185680E+03  0.48375788614E+03 -0.15954190809E+03  0.70946939929E+03  0.12699999809E+01 0.  1.
       -4    1    3    3    0  502  0.49383185680E+03 -0.48375788614E+03  0.64571507867E+02  0.69430734385E+03  0.12699999809E+01 0. -1.
</event>
<event>
 5   0  0.5875298E-04  0.1329116E+04  0.7818609E-02  0.9006790E-01
       -1   -1    0    0    0  501  0.00000000000E+00  0.00000000000E+00  0.51873727068E+03  0.51873727071E+03  0.50400001928E-02 0.  1.
        1   -1    0    0  501    0  0.00000000000E+00  0.00000000000E+00 -0.85136945536E+03  0.85136945537E+03  0.50400001928E-02 0. -1.
    10030    2    1    2    0    0  0.00000000000E+00  0.00000000000E+00 -0.33263218468E+03  0.13701067261E+04  0.13291155971E+04 0.  0.
        1    1    3    3  502    0  0.80540469656E+02  0.33835076793E+03 -0.75005705775E+03  0.82677300350E+03  0.50400001928E-02 0. -1.
       -1    1    3    3    0  502 -0.80540469656E+02 -0.33835076793E+03  0.41742487307E+03  0.54333372258E+03  0.50400001928E-02 0.  1.
</event>
<event>
 5   0  0.6194742E-04  0.1400058E+04  0.7818609E-02  0.8953776E-01
        1   -1    0    0  501    0  0.00000000000E+00  0.00000000000E+00  0.77460689774E+03  0.77460689775E+03  0.50400001928E-02 0.  1.
       -1   -1    0    0    0  501  0.00000000000E+00  0.00000000000E+00 -0.63263154330E+03  0.63263154332E+03  0.50400001928E-02 0. -1.
    10030    2    1    2    0    0  0.00000000000E+00  0.00000000000E+00  0.14197535444E+03  0.14072384411E+04  0.14000582233E+04 0.  0.
        4    1    3    3  502    0 -0.38663246265E+03  0.20659419429E+03 -0.47758907344E+03  0.64827367543E+03  0.12699999809E+01 0. -1.
       -4    1    3    3    0  502  0.38663246265E+03 -0.20659419429E+03  0.61956442788E+03  0.75896476564E+03  0.12699999809E+01 0.  1.
</event>
<event>
 5   0  0.1120053E-03  0.1377276E+04  0.7818609E-02  0.8970434E-01
        2   -1    0    0  501    0  0.00000000000E+00  0.00000000000E+00  0.13954888153E+04  0.13954888153E+04  0.25500000920E-02 0. -1.
       -2   -1    0    0    0  501  0.00000000000E+00  0.00000000000E+00 -0.33982520465E+03  0.33982520466E+03  0.25500000920E-02 0.  1.
    10030    2    1    2    0    0  0.00000000000E+00  0.00000000000E+00  0.10556636107E+04  0.17353140200E+04  0.13772759669E+04 0.  0.
        2    1    3    3  502    0 -0.42076135303E+03  0.34439786315E+03 -0.46001506691E+01  0.54375653167E+03  0.25500000920E-02 0.  1.
       -2    1    3    3    0  502  0.42076135303E+03 -0.34439786315E+03  0.10602637613E+04  0.11915574883E+04  0.25500000920E-02 0. -1.
</event>
<event>
 5   0  0.1175146E-03  0.1415760E+04  0.7818609E-02  0.8942489E-01
       -2   -1    0    0    0  501  0.00000000000E+00  0.00000000000E+00  0.27450230386E+03  0.27450230387E+03  0.25500000920E-02 0. -1.
        2   -1    0    0  501    0  0.00000000000E+00  0.00000000000E+00 -0.18254633272E+04  0.18254633272E+04  0.25500000920E-02 0.  1.
    10030    2    1    2    0    0  0.00000000000E+00  0.00000000000E+00 -0.15509610233E+04  0.20999656311E+04  0.14157597098E+04 0.  0.
        1    1    3    3  502    0  0.45978876314E+03  0.50555405639E+03 -0.50156242940E+03  0.84767651923E+03  0.50400001928E-02 0. -1.
       -1    1    3    3    0  502 -0.45978876314E+03 -0.50555405639E+03 -0.10493985939E+04  0.12522891118E+04  0.50400001928E-02 0.  1.
</event>
<event>
 5   0  0.1108819E-03  0.1398208E+04  0.7818609E-02  0.8955117E-01
       -2   -1    0    0    0  501  0.00000000000E+00  0.00000000000E+00  0.65780422475E+03  0.65780422475E+03  0.25500000920E-02 0.  1.
        2   -1    0    0  501    0  0.00000000000E+00  0.00000000000E+00 -0.74299651652E+03  0.74299651652E+03  0.25500000920E-02 0. -1.
    10030    2    1    2    0    0  0.00000000000E+00  0.00000000000E+00 -0.85192291770E+02  0.14008007413E+04  0.13982077779E+04 0.  0.
        3    1    3    3  502    0 -0.40599455586E+03 -0.43829264881E+03 -0.40633171158E+03  0.72252162281E+03  0.10100000352E+00 0.  1.
       -3    1    3    3    0  502  0.40599455586E+03  0.43829264881E+03  0.32113941981E+03  0.67827911846E+03  0.10100000352E+00 0. -1.
</event>
<event>
 5   0  0.1175146E-03  0.1393521E+04  0.7818609E-02  0.8958522E-01
       -2   -1    0    0    0  501  0.00000000000E+00  0.00000000000E+00  0.31672089216E+03  0.31672089217E+03  0.25500000920E-02 0. -1.
        2   -1    0    0  501    0  0.00000000000E+00  0.00000000000E+00 -0.15328178423E+04  0.15328178423E+04  0.25500000920E-02 0.  1.
    10030    2    1    2    0    0  0.00000000000E+00  0.00000000000E+00 -0.12160969502E+04  0.18495387345E+04  0.13935213447E+04 0.  0.
        1    1    3    3  502    0  0.15147538780E+03 -0.26803241244E+03  0.22154541769E+03  0.37930006506E+03  0.50400001928E-02 0. -1.
       -1    1    3    3    0  502 -0.15147538780E+03  0.26803241244E+03 -0.14376423679E+04  0.14702386695E+04  0.50400001928E-02 0.  1.
</event>
<event>
 5   0  0.1098949E-03  0.1401106E+04  0.7818609E-02  0.8953019E-01
        2   -1    0    0  501    0  0.00000000000E+00  0.00000000000E+00  0.55538713975E+03  0.55538713975E+03  0.25500000920E-02 0.  1.
       -2   -1    0    0    0  501  0.00000000000E+00  0.00000000000E+00 -0.88366153398E+03  0.88366153399E+03  0.25500000920E-02 0. -1.
    10030    2    1    2    0    0  0.00000000000E+00  0.00000000000E+00 -0.32827439424E+03  0.14390486737E+04  0.14011056375E+04 0.  0.
        4    1    3    3  502    0  0.51493748800E+03 -0.45663166080E+03 -0.29844366513E+03  0.75016219870E+03  0.12699999809E+01 0.  1.
       -4    1    3    3    0  502 -0.51493748800E+03  0.45663166080E+03 -0.29830729101E+02  0.68888647504E+03  0.12699999809E+01 0. -1.
</event>
<event>
 5   0  0.6114266E-04  0.1402625E+04  0.7818609E-02  0.8951921E-01
       -1   -1    0    0    0  501  0.00000000000E+00  0.00000000000E+00  0.54874348221E+03  0.54874348223E+03  0.50400001928E-02 0.  1.
        1   -1    0    0  501    0  0.00000000000E+00  0.00000000000E+00 -0.89630052339E+03  0.89630052341E+03  0.50400001928E-02 0. -1.
    10030    2    1    2    0    0  0.00000000000E+00  0.00000000000E+00 -0.34755704118E+03  0.14450440056E+04  0.14026247828E+04 0.  0.
        3    1    3    3  502    0  0.67764198076E+03  0.16056861521E+03 -0.25909683961E+03  0.74304247306E+03  0.10100000352E+00 0. -1.
       -3    1    3    3    0  502 -0.67764198076E+03 -0.16056861521E+03 -0.88460201570E+02  0.70200153257E+03  0.10100000352E+00 0.  1.
</event>
<event>
 5   0  0.5875298E-04  0.1414123E+04  0.7818609E-02  0.8943659E-01
        1   -1    0    0  501    0  0.00000000000E+00  0.00000000000E+00  0.11308186524E+04  0.11308186524E+04  0.50400001928E-02 0. -1.
       -1   -1    0    0    0  501  0.00000000000E+00  0.00000000000E+00 -0.44210076558E+03  0.44210076560E+03  0.50400001928E-02 0.  1.
    10030    2    1    2    0    0  0.00000000000E+00  0.00000000000E+00  0.68871788681E+03  0.15729194180E+04  0.14141227556E+04 0.  0.
        1    1    3    3  502    0 -0.57145055820E+03  0.99876311783E+02  0.79398527101E+03  0.98333291856E+03  0.50400001928E-02 0. -1.
       -1    1    3    3    0  502  0.57145055820E+03 -0.99876311783E+02 -0.10526738420E+03  0.58958649944E+03  0.50400001928E-02 0.  1.
</event>
<event>
 5   0  0.4176125E-04  0.1334929E+04  0.7818609E-02  0.9002316E-01
        3   -1    0    0  501    0  0.00000000000E+00  0.00000000000E+00  0.57940857216E+03  0.57940858096E+03  0.10100000352E+00 0. -1.
       -3   -1    0    0    0  501  0.00000000000E+00  0.00000000000E+00 -0.76890249367E+03  0.76890250030E+03  0.10100000352E+00 0.  1.
    10030    2    1    2    0    0  0.00000000000E+00  0.00000000000E+00 -0.18949392151E+03  0.13483110813E+04  0.13349287717E+04 0.  0.
        2    1    3    3  502    0 -0.14852966885E+03 -0.63773528725E+03 -0.22543240327E+03  0.69252229392E+03  0.25500000920E-02 0.  1.
       -2    1    3    3    0  502  0.14852966885E+03  0.63773528725E+03  0.35938481760E+02  0.65578878734E+03  0.25500000920E-02 0. -1.
</event>
<event>
 5   0  0.5875298E-04  0.1414323E+04  0.7818609E-02  0.8943515E-01
        1   -1    0    0  501    0  0.00000000000E+00  0.00000000000E+00  0.45434728884E+03  0.45434728887E+03  0.50400001928E-02 0.  1.
       -1   -1    0    0    0  501  0.00000000000E+00  0.00000000000E+00 -0.11006503692E+04  0.11006503693E+04  0.50400001928E-02 0. -1.
    10030    2    1    2    0    0  0.00000000000E+00  0.00000000000E+00 -0.64630308040E+03  0.15549976581E+04  0.14143231756E+04 0.  0.
        1    1    3    3  502    0 -0.51003147342E+03  0.32778108164E+03 -0.72337004509E+03  0.94384149279E+03  0.50400001928E-02 0. -1.
       -1    1    3    3    0  502  0.51003147342E+03 -0.32778108164E+03  0.77066964683E+02  0.61115616533E+03  0.50400001928E-02 0.  1.
</event>
<event>
 5   0  0.6194742E-04  0.1392228E+04  0.7818609E-02  0.8959463E-01
        1   -1    0    0  501    0  0.00000000000E+00  0.00000000000E+00  0.12350735571E+04  0.12350735571E+04  0.50400001928E-02 0.  1.
       -1   -1    0    0    0  501  0.00000000000E+00  0.00000000000E+00 -0.39234499268E+03  0.39234499272E+03  0.50400001928E-02 0. -1.
    10030    2    1    2    0    0  0.00000000000E+00  0.00000000000E+00  0.84272856446E+03  0.16274185499E+04  0.13922283229E+04 0.  0.
        4    1    3    3  502    0  0.41924368670E+03 -0.21096441492E+03 -0.17958673008E+03  0.50251791979E+03  0.12699999809E+01 0. -1.
       -4    1    3    3    0  502 -0.41924368670E+03  0.21096441492E+03  0.10223152945E+04  0.11249006301E+04  0.12699999809E+01 0.  1.
</event>
<event>
 5   0  0.6114266E-04  0.1397493E+04  0.7818609E-02  0.8955636E-01
       -1   -1    0    0    0  501  0.00000000000E+00  0.00000000000E+00  0.85632554140E+03  0.85632554142E+03  0.50400001928E-02 0. -1.
        1   -1    0    0  501    0  0.00000000000E+00  0.00000000000E+00 -0.57016446548E+03  0.57016446551E+03  0.50400001928E-02 0.  1.
    10030    2    1    2    0    0  0.00000000000E+00  0.00000000000E+00  0.28616107592E+03  0.14264900069E+04  0.13974926041E+04 0.  0.
        3    1    3    3  502    0  0.59974777810E+03 -0.26465540772E+03 -0.10381957177E+03  0.66371559863E+03  0.10100000352E+00 0. -1.
       -3    1    3    3    0  502 -0.59974777810E+03  0.26465540772E+03  0.38998064769E+03  0.76277440830E+03  0.10100000352E+00 0.  1.
</event>
<event>
 5   0  0.1098949E-03  0.1403816E+04  0.7818609E-02  0.8951061E-01
        2   -1    0    0  501    0  0.00000000000E+00  0.00000000000E+00  0.12635124731E+04  0.12635124731E+04  0.25500000920E-02 0.  1.
       -2   -1    0    0    0  501  0.00000000000E+00  0.00000000000E+00 -0.38992498375E+03  0.38992498375E+03  0.25500000920E-02 0. -1.
    10030    2    1    2    0    0  0.00000000000E+00  0.00000000000E+00  0.87358748934E+03  0.16534374568E+04  0.14038163420E+04 0.  0.
        4    1    3    3  502    0 -0.64728408465E+03  0.26327855472E+03  0.51475399517E+03  0.86790873487E+03  0.12699999809E+01 0.  1.
       -4    1    3    3    0  502  0.64728408465E+03 -0.26327855472E+03  0.35883349418E+03  0.78552872198E+03  0.12699999809E+01 0. -1.
</event>
<event>
 5   0  0.6097538E-04  0.1402202E+04  0.7818609E-02  0.8952226E-01
       -1   -1    0    0    0  501  0.00000000000E+00  0.00000000000E+00  0.55799355920E+03  0.55799355922E+03  0.50400001928E-02 0.  1.
        1   -1    0    0  501    0  0.00000000000E+00  0.00000000000E+00 -0.88091034705E+03  0.88091034707E+03  0.50400001928E-02 0. -1.
    10030    2    1    2    0    0  0.00000000000E+00  0.00000000000E+00 -0.32291678786E+03  0.14389039063E+04  0.14022015546E+04 0.  0.
        2    1    3    3  502    0 -0.64766643871E+03  0.26373538841E+03 -0.21291191782E+03  0.73099908050E+03  0.25500000920E-02 0.  1.
       -2    1    3    3    0  502  0.64766643871E+03 -0.26373538841E+03 -0.11000487003E+03  0.70790482579E+03  0.25500000920E-02 0. -1.
</event>
<event>
 5   0  0.6114266E-04  0.1396817E+04  0.7818609E-02  0.8956126E-01
       -1   -1    0    0    0  501  0.00000000000E+00  0.00000000000E+00  0.32599493645E+03  0.32599493649E+03  0.50400001928E-02 0.  1.
        1   -1    0    0  501    0  0.00000000000E+00  0.00000000000E+00 -0.14962630395E+04  0.14962630395E+04  0.50400001928E-02 0. -1.
    10030    2    1    2    0    0  0.00000000000E+00  0.00000000000E+00 -0.11702681031E+04  0.18222579760E+04  0.13968166301E+04 0.  0.
        3    1    3    3  502    0  0.54170837944E+03 -0.43200309124E+03 -0.69960688503E+03  0.98464432309E+03  0.10100000352E+00 0. -1.
       -3    1    3    3    0  502 -0.54170837944E+03  0.43200309124E+03 -0.47066121802E+03  0.83761365292E+03  0.10100000352E+00 0.  1.
</event>
<event>
 5   0  0.1095119E-03  0.1401299E+04  0.7818609E-02  0.8952879E-01
       -2   -1    0    0    0  501  0.00000000000E+00  0.00000000000E+00  0.57263688753E+03  0.57263688753E+03  0.25500000920E-02 0.  1.
        2   -1    0    0  501    0  0.00000000000E+00  0.00000000000E+00 -0.85727929314E+03  0.85727929315E+03  0.25500000920E-02 0. -1.
    10030    2    1    2    0    0  0.00000000000E+00  0.00000000000E+00 -0.28464240561E+03  0.14299161807E+04  0.14012990347E+04 0.  0.
        5    1    3    3  502    0 -0.18842948456E+03 -0.19624446872E+03  0.51651905410E+03  0.58380783260E+03  0.46999998093E+01 0.  1.
       -5    1    3    3    0  502  0.18842948456E+03  0.19624446872E+03 -0.80116145972E+03  0.84610834808E+03  0.46999998093E+01 0. -1.
</event>
<event>
 5   0  0.6097538E-04  0.1271662E+04  0.7818609E-02  0.9052344E-01
       -1   -1    0    0    0  501  0.00000000000E+00  0.00000000000E+00  0.31548151379E+03  0.31548151383E+03  0.50400001928E-02 0.  1.
        1   -1    0    0  501    0  0.00000000000E+00  0.00000000000E+00 -0.12814736361E+04  0.12814736361E+04  0.50400001928E-02 0. -1.
    10030    2    1    2    0    0  0.00000000000E+00  0.00000000000E+00 -0.96599212228E+03  0.15969551499E+04  0.12716622863E+04 0.  0.
        2    1    3    3  502    0  0.27850135390E+03 -0.15903422111E+03  0.20646784986E+03  0.38142346629E+03  0.25500000920E-02 0.  1.
       -2    1    3    3    0  502 -0.27850135390E+03  0.15903422111E+03 -0.11724599721E+04  0.12155316836E+04  0.25500000920E-02 0. -1.
</event>
<event>
 5   0  0.6153318E-04  0.1401593E+04  0.7818609E-02  0.8952666E-01
       -1   -1    0    0    0  501  0.00000000000E+00  0.00000000000E+00  0.29726690224E+03  0.29726690228E+03  0.50400001928E-02 0. -1.
        1   -1    0    0  501    0  0.00000000000E+00  0.00000000000E+00 -0.16521033037E+04  0.16521033037E+04  0.50400001928E-02 0.  1.
    10030    2    1    2    0    0  0.00000000000E+00  0.00000000000E+00 -0.13548364015E+04  0.19493702060E+04  0.14015928529E+04 0.  0.
        5    1    3    3  502    0  0.91908021394E+02  0.53173202515E+02  0.28599191261E+03  0.30510315951E+03  0.46999998093E+01 0. -1.
       -5    1    3    3    0  502 -0.91908021394E+02 -0.53173202515E+02 -0.16408283141E+04  0.16442670465E+04  0.46999998093E+01 0.  1.
</event>
<event>
 5   0  0.6153318E-04  0.1403441E+04  0.7818609E-02  0.8951331E-01
       -1   -1    0    0    0  501  0.00000000000E+00  0.00000000000E+00  0.43609145675E+03  0.43609145678E+03  0.50400001928E-02 0. -1.
        1   -1    0    0  501    0  0.00000000000E+00  0.00000000000E+00 -0.11291484802E+04  0.11291484802E+04  0.50400001928E-02 0.  1.
    10030    2    1    2    0    0  0.00000000000E+00  0.00000000000E+00 -0.69305702343E+03  0.15652399370E+04  0.14034414924E+04 0.  0.
        5    1    3    3  502    0  0.23683479301E+03  0.37258881440E+03 -0.95482195902E+03  0.10519601738E+04  0.46999998093E+01 0.  1.
       -5    1    3    3    0  502 -0.23683479301E+03 -0.37258881440E+03  0.26176493559E+03  0.51327976319E+03  0.46999998093E+01 0. -1.
</event>
<event>
 5   0  0.1120053E-03  0.1390787E+04  0.7818609E-02  0.8960515E-01
       -2   -1    0    0    0  501  0.00000000000E+00  0.00000000000E+00  0.35910841660E+03  0.35910841660E+03  0.25500000920E-02 0. -1.
        2   -1    0    0  501    0  0.00000000000E+00  0.00000000000E+00 -0.13465902460E+04  0.13465902460E+04  0.25500000920E-02 0.  1.
    10030    2    1    2    0    0  0.00000000000E+00  0.00000000000E+00 -0.98748182937E+03  0.17056986626E+04  0.13907866710E+04 0.  0.
        2    1    3    3  502    0  0.46137387469E+03  0.46416994569E+03 -0.20545928341E+03  0.68595415873E+03  0.25500000920E-02 0. -1.
       -2    1    3    3    0  502 -0.46137387469E+03 -0.46416994569E+03 -0.78202254596E+03  0.10197445038E+04  0.25500000920E-02 0.  1.
</event>
<event>
 5   0  0.1120053E-03  0.1404900E+04  0.7818609E-02  0.8950279E-01
        2   -1    0    0  501    0  0.00000000000E+00  0.00000000000E+00  0.11236243384E+04  0.11236243384E+04  0.25500000920E-02 0. -1.
       -2   -1    0    0    0  501  0.00000000000E+00  0.00000000000E+00 -0.43914667985E+03  0.43914667986E+03  0.25500000920E-02 0.  1.
    10030    2    1    2    0    0  0.00000000000E+00  0.00000000000E+00  0.68447765853E+03  0.15627710182E+04  0.14048998507E+04 0.  0.
        2    1    3    3  502    0 -0.67001164957E+03  0.12288927804E+03  0.15144675214E+03  0.69782053851E+03  0.25500000920E-02 0.  1.
       -2    1    3    3    0  502  0.67001164957E+03 -0.12288927804E+03  0.53303090639E+03  0.86495047974E+03  0.25500000920E-02 0. -1.
</event>
<event>
 5   0  0.1095119E-03  0.1333161E+04  0.7818609E-02  0.9003674E-01
        2   -1    0    0  501    0  0.00000000000E+00  0.00000000000E+00  0.96916450199E+03  0.96916450199E+03  0.25500000920E-02 0.  1.
       -2   -1    0    0    0  501  0.00000000000E+00  0.00000000000E+00 -0.45846637528E+03  0.45846637528E+03  0.25500000920E-02 0. -1.
    10030    2    1    2    0    0  0.00000000000E+00  0.00000000000E+00  0.51069812671E+03  0.14276308773E+04  0.13331606599E+04 0.  0.
        5    1    3    3  502    0  0.38931132209E+03 -0.52823098304E+03  0.38076325852E+03  0.75867913243E+03  0.46999998093E+01 0. -1.
       -5    1    3    3    0  502 -0.38931132209E+03  0.52823098304E+03  0.12993486819E+03  0.66895174484E+03  0.46999998093E+01 0.  1.
</event>
<event>
 5   0  0.1098949E-03  0.1404459E+04  0.7818609E-02  0.8950597E-01
       -2   -1    0    0    0  501  0.00000000000E+00  0.00000000000E+00  0.87861548875E+03  0.87861548875E+03  0.25500000920E-02 0. -1.
        2   -1    0    0  501    0  0.00000000000E+00  0.00000000000E+00 -0.56125400502E+03  0.56125400502E+03  0.25500000920E-02 0.  1.
    10030    2    1    2    0    0  0.00000000000E+00  0.00000000000E+00  0.31736148373E+03  0.14398694938E+04  0.14044592724E+04 0.  0.
        4    1    3    3  502    0 -0.36100313726E+03 -0.34509754659E+03  0.66479666699E+03  0.83148770473E+03  0.12699999809E+01 0. -1.
       -4    1    3    3    0  502  0.36100313726E+03  0.34509754659E+03 -0.34743518326E+03  0.60838178904E+03  0.12699999809E+01 0.  1.
</event>
<event>
 5   0  0.5875298E-04  0.1404175E+04  0.7818609E-02  0.8950802E-01
        1   -1    0    0  501    0  0.00000000000E+00  0.00000000000E+00  0.26915326249E+03  0.26915326254E+03  0.50400001928E-02 0. -1.
       -1   -1    0    0    0  501  0.00000000000E+00  0.00000000000E+00 -0.18313988440E+04  0.18313988440E+04  0.50400001928E-02 0.  1.
    10030    2    1    2    0    0  0.00000000000E+00  0.00000000000E+00 -0.15622455815E+04  0.21005521065E+04  0.14041751655E+04 0.  0.
        1    1    3    3  502    0 -0.44438135922E+03  0.65177061596E+02  0.26132570446E+02  0.44989526897E+03  0.50400001928E-02 0. -1.
       -1    1    3    3    0  502  0.44438135922E+03 -0.65177061596E+02 -0.15883781519E+04  0.16506568375E+04  0.50400001928E-02 0.  1.
</event>
<event>
 5   0  0.1098949E-03  0.1404467E+04  0.7818609E-02  0.8950591E-01
        2   -1    0    0  501    0  0.00000000000E+00  0.00000000000E+00  0.84996525509E+03  0.84996525509E+03  0.25500000920E-02 0.  1.
       -2   -1    0    0    0  501  0.00000000000E+00  0.00000000000E+00 -0.58017927432E+03  0.58017927433E+03  0.25500000920E-02 0. -1.
    10030    2    1    2    0    0  0.00000000000E+00  0.00000000000E+00  0.26978598077E+03  0.14301445294E+04  0.14044674790E+04 0.  0.
        4    1    3    3  502    0 -0.30485918331E+03 -0.39541263272E+03 -0.36793682299E+03  0.62021721225E+03  0.12699999809E+01 0. -1.
       -4    1    3    3    0  502  0.30485918331E+03  0.39541263272E+03  0.63772280375E+03  0.80992731717E+03  0.12699999809E+01 0.  1.
</event>
<event>
 5   0  0.6194742E-04  0.1402824E+04  0.7818609E-02  0.8951777E-01
        1   -1    0    0  501    0  0.00000000000E+00  0.00000000000E+00  0.60389245130E+03  0.60389245132E+03  0.50400001928E-02 0. -1.
       -1   -1    0    0    0  501  0.00000000000E+00  0.00000000000E+00 -0.81467923776E+03  0.81467923777E+03  0.50400001928E-02 0.  1.
    10030    2    1    2    0    0  0.00000000000E+00  0.00000000000E+00 -0.21078678646E+03  0.14185716891E+04  0.14028237836E+04 0.  0.
        4    1    3    3  502    0 -0.43028646184E+03  0.53949733137E+03 -0.23239474336E+03  0.72815708431E+03  0.12699999809E+01 0. -1.
       -4    1    3    3    0  502  0.43028646184E+03 -0.53949733137E+03  0.21607956897E+02  0.69041460478E+03  0.12699999809E+01 0.  1.
</event>
<event>
 5   0  0.1175146E-03  0.1400849E+04  0.7818609E-02  0.8953204E-01
        2   -1    0    0  501    0  0.00000000000E+00  0.00000000000E+00  0.18028237180E+04  0.18028237180E+04  0.25500000920E-02 0. -1.
       -2   -1    0    0    0  501  0.00000000000E+00  0.00000000000E+00 -0.27212571883E+03  0.27212571884E+03  0.25500000920E-02 0.  1.
    10030    2    1    2    0    0  0.00000000000E+00  0.00000000000E+00  0.15306979992E+04  0.20749494368E+04  0.14008493141E+04 0.  0.
        1    1    3    3  502    0  0.13638114392E+03  0.61269458654E+03  0.12257170444E+04  0.13770899556E+04  0.50400001928E-02 0. -1.
       -1    1    3    3    0  502 -0.13638114392E+03 -0.61269458654E+03  0.30498095476E+03  0.69785948126E+03  0.50400001928E-02 0.  1.
</event>
<event>
 5   0  0.6114266E-04  0.1406312E+04  0.7818609E-02  0.8949262E-01
        1   -1    0    0  501    0  0.00000000000E+00  0.00000000000E+00  0.11363322270E+04  0.11363322270E+04  0.50400001928E-02 0. -1.
       -1   -1    0    0    0  501  0.00000000000E+00  0.00000000000E+00 -0.43510910804E+03  0.43510910807E+03  0.50400001928E-02 0.  1.
    10030    2    1    2    0    0  0.00000000000E+00  0.00000000000E+00  0.70122311897E+03  0.15714413351E+04  0.14063122011E+04 0.  0.
        3    1    3    3  502    0 -0.46538410030E+03  0.24477828017E+03 -0.17103297643E+03  0.55294760736E+03  0.10100000352E+00 0.  1.
       -3    1    3    3    0  502  0.46538410030E+03 -0.24477828017E+03  0.87225609541E+03  0.10184937277E+04  0.10100000352E+00 0. -1.
</event>
<event>
 5   0  0.1108819E-03  0.1401390E+04  0.7818609E-02  0.8952813E-01
       -2   -1    0    0    0  501  0.00000000000E+00  0.00000000000E+00  0.84240673159E+03  0.84240673159E+03  0.25500000920E-02 0. -1.
        2   -1    0    0  501    0  0.00000000000E+00  0.00000000000E+00 -0.58282243642E+03  0.58282243643E+03  0.25500000920E-02 0.  1.
    10030    2    1    2    0    0  0.00000000000E+00  0.00000000000E+00  0.25958429517E+03  0.14252291680E+04  0.14013900867E+04 0.  0.
        3    1    3    3  502    0 -0.21402522983E+03 -0.28898895111E+03 -0.48181305192E+03  0.60121979348E+03  0.10100000352E+00 0.  1.
       -3    1    3    3    0  502  0.21402522983E+03  0.28898895111E+03  0.74139734709E+03  0.82400937454E+03  0.10100000352E+00 0. -1.
</event>
<event>
 5   0  0.6153318E-04  0.1407009E+04  0.7818609E-02  0.8948760E-01
       -1   -1    0    0    0  501  0.00000000000E+00  0.00000000000E+00  0.89837891946E+03  0.89837891947E+03  0.50400001928E-02 0. -1.
        1   -1    0    0  501    0  0.00000000000E+00  0.00000000000E+00 -0.55090219174E+03  0.55090219177E+03  0.50400001928E-02 0.  1.
    10030    2    1    2    0    0  0.00000000000E+00  0.00000000000E+00  0.34747672772E+03  0.14492811112E+04  0.14070094751E+04 0.  0.
        5    1    3    3  502    0  0.70971261555E+02  0.48493559033E+03  0.69357615408E+03  0.84927581988E+03  0.46999998093E+01 0. -1.
       -5    1    3    3    0  502 -0.70971261555E+02 -0.48493559033E+03 -0.34609942636E+03  0.60000529136E+03  0.46999998093E+01 0.  1.
</event>
<event>
 5   0  0.1175146E-03  0.1403175E+04  0.7818609E-02  0.8951523E-01
        2   -1    0    0  501    0  0.00000000000E+00  0.00000000000E+00  0.12636455428E+04  0.12636455428E+04  0.25500000920E-02 0.  1.
       -2   -1    0    0    0  501  0.00000000000E+00  0.00000000000E+00 -0.38952781633E+03  0.38952781634E+03  0.25500000920E-02 0. -1.
    10030    2    1    2    0    0  0.00000000000E+00  0.00000000000E+00  0.87411772650E+03  0.16531733592E+04  0.14031750980E+04 0.  0.
        1    1    3    3  502    0  0.53560834148E+02  0.36990960983E+03 -0.26246153822E+03  0.45671428867E+03  0.50400001928E-02 0. -1.
       -1    1    3    3    0  502 -0.53560834148E+02 -0.36990960983E+03  0.11365792647E+04  0.11964590705E+04  0.50400001928E-02 0.  1.
</event>
<event>
 5   0  0.1108819E-03  0.1390242E+04  0.7818609E-02  0.8960912E-01
        2   -1    0    0  501    0  0.00000000000E+00  0.00000000000E+00  0.14297967376E+04  0.14297967376E+04  0.25500000920E-02 0. -1.
       -2   -1    0    0    0  501  0.00000000000E+00  0.00000000000E+00 -0.33794539359E+03  0.33794539360E+03  0.25500000920E-02 0.  1.
    10030    2    1    2    0    0  0.00000000000E+00  0.00000000000E+00  0.10918513440E+04  0.17677421312E+04  0.13902420239E+04 0.  0.
        3    1    3    3  502    0  0.64194525697E+03  0.16682578496E+03  0.81041929242E+03  0.10472363607E+04  0.10100000352E+00 0. -1.
       -3    1    3    3    0  502 -0.64194525697E+03 -0.16682578496E+03  0.28143205163E+03  0.72050577052E+03  0.10100000352E+00 0.  1.
</event>
<event>
 5   0  0.4176125E-04  0.1391775E+04  0.7818609E-02  0.8959794E-01
       -3   -1    0    0    0  501  0.00000000000E+00  0.00000000000E+00  0.17907973306E+03  0.17907976154E+03  0.10100000352E+00 0.  1.
        3   -1    0    0  501    0  0.00000000000E+00  0.00000000000E+00 -0.27041556813E+04  0.27041556832E+04  0.10100000352E+00 0. -1.
    10030    2    1    2    0    0  0.00000000000E+00  0.00000000000E+00 -0.25250759483E+04  0.28832354448E+04  0.13917751562E+04 0.  0.
        2    1    3    3  502    0 -0.30756667778E+03 -0.13901066725E+03 -0.25232338714E+04  0.25457082308E+04  0.25500000920E-02 0. -1.
       -2    1    3    3    0  502  0.30756667778E+03  0.13901066725E+03 -0.18420769035E+01  0.33752721392E+03  0.25500000920E-02 0.  1.
</event>
<event>
 5   0  0.6194742E-04  0.1396172E+04  0.7818609E-02  0.8956594E-01
       -1   -1    0    0    0  501  0.00000000000E+00  0.00000000000E+00  0.52054690640E+03  0.52054690642E+03  0.50400001928E-02 0.  1.
        1   -1    0    0  501    0  0.00000000000E+00  0.00000000000E+00 -0.93617727624E+03  0.93617727626E+03  0.50400001928E-02 0. -1.
    10030    2    1    2    0    0  0.00000000000E+00  0.00000000000E+00 -0.41563036985E+03  0.14567241827E+04  0.13961721742E+04 0.  0.
        4    1    3    3  502    0  0.91297917042E+02 -0.61055113744E+02  0.51147439895E+03  0.52313546071E+03  0.12699999809E+01 0.  1.
       -4    1    3    3    0  502 -0.91297917042E+02  0.61055113744E+02 -0.92710476879E+03  0.93358872197E+03  0.12699999809E+01 0. -1.
</event>
<event>
 5   0  0.6097538E-04  0.1391717E+04  0.7818609E-02  0.8959836E-01
       -1   -1    0    0    0  501  0.00000000000E+00  0.00000000000E+00  0.36114074147E+03  0.36114074150E+03  0.50400001928E-02 0. -1.
        1   -1    0    0  501    0  0.00000000000E+00  0.00000000000E+00 -0.13408043549E+04  0.13408043549E+04  0.50400001928E-02 0.  1.
    10030    2    1    2    0    0  0.00000000000E+00  0.00000000000E+00 -0.97966361345E+03  0.17019450964E+04  0.13917170387E+04 0.  0.
        2    1    3    3  502    0 -0.14830458746E+03 -0.12469622110E+03 -0.13071492271E+04  0.13214319884E+04  0.25500000920E-02 0.  1.
       -2    1    3    3    0  502  0.14830458746E+03  0.12469622110E+03  0.32748561362E+03  0.38051310799E+03  0.25500000920E-02 0. -1.
</event>
<event>
 5   0  0.1098949E-03  0.1403882E+04  0.7818609E-02  0.8951013E-01
       -2   -1    0    0    0  501  0.00000000000E+00  0.00000000000E+00  0.67978779162E+03  0.67978779162E+03  0.25500000920E-02 0.  1.
        2   -1    0    0  501    0  0.00000000000E+00  0.00000000000E+00 -0.72481612812E+03  0.72481612813E+03  0.25500000920E-02 0. -1.
    10030    2    1    2    0    0  0.00000000000E+00  0.00000000000E+00 -0.45028336507E+02  0.14046039198E+04  0.14038819823E+04 0.  0.
        4    1    3    3  502    0 -0.27280326521E+03  0.58033808341E+03 -0.30815288879E+03  0.71145887326E+03  0.12699999809E+01 0. -1.
       -4    1    3    3    0  502  0.27280326521E+03 -0.58033808341E+03  0.26312455228E+03  0.69314504649E+03  0.12699999809E+01 0.  1.
</event>
<event>
 5   0  0.1175146E-03  0.1412655E+04  0.7818609E-02  0.8944709E-01
        2   -1    0    0  501    0  0.00000000000E+00  0.00000000000E+00  0.19473237481E+04  0.19473237481E+04  0.25500000920E-02 0. -1.
       -2   -1    0    0    0  501  0.00000000000E+00  0.00000000000E+00 -0.25619699921E+03  0.25619699922E+03  0.25500000920E-02 0.  1.
    10030    2    1    2    0    0  0.00000000000E+00  0.00000000000E+00  0.16911267489E+04  0.22035207473E+04  0.14126549483E+04 0.  0.
        1    1    3    3  502    0  0.42001621920E+03 -0.76430153900E+02  0.17233040122E+04  0.17753962688E+04  0.50400001928E-02 0. -1.
       -1    1    3    3    0  502 -0.42001621920E+03  0.76430153900E+02 -0.32177263295E+02  0.42812447853E+03  0.50400001928E-02 0.  1.
</event>
<event>
 5   0  0.5875298E-04  0.1385688E+04  0.7818609E-02  0.8964244E-01
       -1   -1    0    0    0  501  0.00000000000E+00  0.00000000000E+00  0.32434829192E+03  0.32434829196E+03  0.50400001928E-02 0.  1.
        1   -1    0    0  501    0  0.00000000000E+00  0.00000000000E+00 -0.14799910742E+04  0.14799910742E+04  0.50400001928E-02 0. -1.
    10030    2    1    2    0    0  0.00000000000E+00  0.00000000000E+00 -0.11556427822E+04  0.18043393661E+04  0.13856876661E+04 0.  0.
        1    1    3    3  502    0 -0.43045813375E+03 -0.19090058272E+03  0.83954830206E+02  0.47831543037E+03  0.50400001928E-02 0.  1.
       -1    1    3    3    0  502  0.43045813375E+03  0.19090058272E+03 -0.12395976124E+04  0.13260239358E+04  0.50400001928E-02 0. -1.
</event>
<event>
 5   0  0.1095119E-03  0.1442362E+04  0.7818609E-02  0.8923713E-01
        2   -1    0    0  501    0  0.00000000000E+00  0.00000000000E+00  0.21602694527E+04  0.21602694527E+04  0.25500000920E-02 0. -1.
       -2   -1    0    0    0  501  0.00000000000E+00  0.00000000000E+00 -0.24075803422E+03  0.24075803423E+03  0.25500000920E-02 0.  1.
    10030    2    1    2    0    0  0.00000000000E+00  0.00000000000E+00  0.19195114185E+04  0.24010274870E+04  0.14423622663E+04 0.  0.
        5    1    3    3  502    0  0.45653906643E+03  0.34986246102E+03  0.16839231174E+04  0.17794523922E+04  0.46999998093E+01 0. -1.
       -5    1    3    3    0  502 -0.45653906643E+03 -0.34986246102E+03  0.23558830112E+03  0.62157509476E+03  0.46999998093E+01 0.  1.
</event>
<event>
 5   0  0.6194742E-04  0.1424446E+04  0.7818609E-02  0.8936311E-01
       -1   -1    0    0    0  501  0.00000000000E+00  0.00000000000E+00  0.59223504677E+03  0.59223504679E+03  0.50400001928E-02 0.  1.
        1   -1    0    0  501    0  0.00000000000E+00  0.00000000000E+00 -0.85652033718E+03  0.85652033719E+03  0.50400001928E-02 0. -1.
    10030    2    1    2    0    0  0.00000000000E+00  0.00000000000E+00 -0.26428529041E+03  0.14487553840E+04  0.14244456634E+04 0.  0.
        4    1    3    3  502    0  0.56984948544E+03 -0.42137780700E+03 -0.60426454161E+02  0.71129505942E+03  0.12699999809E+01 0.  1.
       -4    1    3    3    0  502 -0.56984948544E+03  0.42137780700E+03 -0.20385883624E+03  0.73746032457E+03  0.12699999809E+01 0. -1.
</event>
<event>
 5   0  0.6114266E-04  0.1410458E+04  0.7818609E-02  0.8946283E-01
        1   -1    0    0  501    0  0.00000000000E+00  0.00000000000E+00  0.10003477381E+04  0.10003477381E+04  0.50400001928E-02 0. -1.
       -1   -1    0    0    0  501  0.00000000000E+00  0.00000000000E+00 -0.49717475932E+03  0.49717475934E+03  0.50400001928E-02 0.  1.
    10030    2    1    2    0    0  0.00000000000E+00  0.00000000000E+00  0.50317297875E+03  0.14975224974E+04  0.14104575796E+04 0.  0.
        3    1    3    3  502    0  0.44188622374E+03 -0.42474145381E+03 -0.11877085489E+03  0.62431984070E+03  0.10100000352E+00 0.  1.
       -3    1    3    3    0  502 -0.44188622374E+03  0.42474145381E+03  0.62194383364E+03  0.87320265673E+03  0.10100000352E+00 0. -1.
</event>
<event>
 5   0  0.6097538E-04  0.1415810E+04  0.7818609E-02  0.8942453E-01
       -1   -1    0    0    0  501  0.00000000000E+00  0.00000000000E+00  0.10397291615E+04  0.10397291615E+04  0.50400001928E-02 0. -1.
        1   -1    0    0  501    0  0.00000000000E+00  0.00000000000E+00 -0.48198082931E+03  0.48198082933E+03  0.50400001928E-02 0.  1.
    10030    2    1    2    0    0  0.00000000000E+00  0.00000000000E+00  0.55774833220E+03  0.15217099909E+04  0.14158100488E+04 0.  0.
        2    1    3    3  502    0  0.22468406728E+03  0.16565035652E+03  0.97807686079E+03  0.10171319070E+04  0.25500000920E-02 0. -1.
       -2    1    3    3    0  502 -0.22468406728E+03 -0.16565035652E+03 -0.42032852859E+03  0.50457808381E+03  0.25500000920E-02 0.  1.
</event>
<event>
 5   0  0.1098949E-03  0.1394503E+04  0.7818609E-02  0.8957807E-01
       -2   -1    0    0    0  501  0.00000000000E+00  0.00000000000E+00  0.56269586857E+03  0.56269586858E+03  0.25500000920E-02 0.  1.
        2   -1    0    0  501    0  0.00000000000E+00  0.00000000000E+00 -0.86398326256E+03  0.86398326256E+03  0.25500000920E-02 0. -1.
    10030    2    1    2    0    0  0.00000000000E+00  0.00000000000E+00 -0.30128739399E+03  0.14266791311E+04  0.13945032268E+04 0.  0.
        4    1    3    3  502    0 -0.30448983723E+03 -0.52188713587E+03  0.20534755449E+03  0.63816100993E+03  0.12699999809E+01 0.  1.
       -4    1    3    3    0  502  0.30448983723E+03  0.52188713587E+03 -0.50663494848E+03  0.78851812121E+03  0.12699999809E+01 0. -1.
</event>
<event>
 5   0  0.5875298E-04  0.1356684E+04  0.7818609E-02  0.8985784E-01
        1   -1    0    0  501    0  0.00000000000E+00  0.00000000000E+00  0.11636357615E+04  0.11636357615E+04  0.50400001928E-02 0.  1.
       -1   -1    0    0    0  501  0.00000000000E+00  0.00000000000E+00 -0.39543997765E+03  0.39543997769E+03  0.50400001928E-02 0. -1.
    10030    2    1    2    0    0  0.00000000000E+00  0.00000000000E+00  0.76819578385E+03  0.15590757392E+04  0.13566843399E+04 0.  0.
        1    1    3    3  502    0 -0.11072857030E+03 -0.57804733599E+03  0.77167789015E+03  0.97050827152E+03  0.50400001928E-02 0.  1.
       -1    1    3    3    0  502  0.11072857030E+03  0.57804733599E+03 -0.34821062925E+01  0.58856746768E+03  0.50400001928E-02 0. -1.
</event>
<event>
 5   0  0.6114266E-04  0.1385361E+04  0.7818609E-02  0.8964484E-01
        1   -1    0    0  501    0  0.00000000000E+00  0.00000000000E+00  0.15087520888E+04  0.15087520888E+04  0.50400001928E-02 0. -1.
       -1   -1    0    0    0  501  0.00000000000E+00  0.00000000000E+00 -0.31801514779E+03  0.31801514783E+03  0.50400001928E-02 0.  1.
    10030    2    1    2    0    0  0.00000000000E+00  0.00000000000E+00  0.11907369410E+04  0.18267672366E+04  0.13853606296E+04 0.  0.
        3    1    3    3  502    0 -0.18725530368E+03 -0.32969118843E+03 -0.16902894100E+03  0.41512843986E+03  0.10100000352E+00 0.  1.
       -3    1    3    3    0  502  0.18725530368E+03  0.32969118843E+03  0.13597658820E+04  0.14116387967E+04  0.10100000352E+00 0. -1.
</event>
<event>
 5   0  0.1120053E-03  0.1392243E+04  0.7818609E-02  0.8959453E-01
       -2   -1    0    0    0  501  0.00000000000E+00  0.00000000000E+00  0.40599760477E+03  0.40599760478E+03  0.25500000920E-02 0.  1.
        2   -1    0    0  501    0  0.00000000000E+00  0.00000000000E+00 -0.11935667822E+04  0.11935667822E+04  0.25500000920E-02 0. -1.
    10030    2    1    2    0    0  0.00000000000E+00  0.00000000000E+00 -0.78756917747E+03  0.15995643870E+04  0.13922431608E+04 0.  0.
        2    1    3    3  502    0  0.60446581790E+03 -0.31587158069E+02 -0.78879735850E+03  0.99427257145E+03  0.25500000920E-02 0.  1.
       -2    1    3    3    0  502 -0.60446581790E+03  0.31587158069E+02  0.12281810315E+01  0.60529181557E+03  0.25500000920E-02 0. -1.
</event>
<event>
 5   0  0.1098949E-03  0.1410556E+04  0.7818609E-02  0.8946213E-01
        2   -1    0    0  501    0  0.00000000000E+00  0.00000000000E+00  0.12206173735E+04  0.12206173735E+04  0.25500000920E-02 0.  1.
       -2   -1    0    0    0  501  0.00000000000E+00  0.00000000000E+00 -0.40751244343E+03  0.40751244344E+03  0.25500000920E-02 0. -1.
    10030    2    1    2    0    0  0.00000000000E+00  0.00000000000E+00  0.81310493011E+03  0.16281298170E+04  0.14105555904E+04 0.  0.
        4    1    3    3  502    0  0.48000115174E+02  0.32258495295E+03 -0.31524444724E+03  0.45359203845E+03  0.12699999809E+01 0.  1.
       -4    1    3    3    0  502 -0.48000115174E+02 -0.32258495295E+03  0.11283493773E+04  0.11745377785E+04  0.12699999809E+01 0. -1.
</event>
<event>
 5   0  0.6153318E-04  0.1397805E+04  0.7818609E-02  0.8955409E-01
        1   -1    0    0  501    0  0.00000000000E+00  0.00000000000E+00  0.10121977578E+04  0.10121977578E+04  0.50400001928E-02 0. -1.
       -1   -1    0    0    0  501  0.00000000000E+00  0.00000000000E+00 -0.48257816590E+03  0.48257816592E+03  0.50400001928E-02 0.  1.
    10030    2    1    2    0    0  0.00000000000E+00  0.00000000000E+00  0.52961959188E+03  0.14947759237E+04  0.13978047611E+04 0.  0.
        5    1    3    3  502    0 -0.56184233431E+03 -0.37734171962E+03  0.45122735727E+03  0.81343825822E+03  0.46999998093E+01 0. -1.
       -5    1    3    3    0  502  0.56184233431E+03  0.37734171962E+03  0.78392234613E+02  0.68133766550E+03  0.46999998093E+01 0.  1.
</event>
<event>
 5   0  0.1098949E-03  0.1379554E+04  0.7818609E-02  0.8968753E-01
       -2   -1    0    0    0  501  0.00000000000E+00  0.00000000000E+00  0.89793659700E+03  0.89793659700E+03  0.25500000920E-02 0.  1.
        2   -1    0    0  501    0  0.00000000000E+00  0.00000000000E+00 -0.52987315903E+03  0.52987315904E+03  0.25500000920E-02 0. -1.
    10030    2    1    2    0    0  0.00000000000E+00  0.00000000000E+00  0.36806343797E+03  0.14278097560E+04  0.13795542777E+04 0.  0.
        4    1    3    3  502    0  0.60280602786E+03  0.81039774168E+02 -0.15269189252E+03  0.62710364307E+03  0.12699999809E+01 0. -1.
       -4    1    3    3    0  502 -0.60280602786E+03 -0.81039774168E+02  0.52075533049E+03  0.80070611297E+03  0.12699999809E+01 0.  1.
</event>
<event>
 5   0  0.6097538E-04  0.1374965E+04  0.7818609E-02  0.8972143E-01
       -1   -1    0    0    0  501  0.00000000000E+00  0.00000000000E+00  0.65198964756E+03  0.65198964758E+03  0.50400001928E-02 0. -1.
        1   -1    0    0  501    0  0.00000000000E+00  0.00000000000E+00 -0.72490699316E+03  0.72490699317E+03  0.50400001928E-02 0.  1.
    10030    2    1    2    0    0  0.00000000000E+00  0.00000000000E+00 -0.72917345592E+02  0.13768966408E+04  0.13749645159E+04 0.  0.
        2    1    3    3  502    0 -0.49384111357E+03 -0.47797878428E+03 -0.53485251316E+02  0.68935000964E+03  0.25500000920E-02 0. -1.
       -2    1    3    3    0  502  0.49384111357E+03  0.47797878428E+03 -0.19432094276E+02  0.68754663112E+03  0.25500000920E-02 0.  1.
</event>
<event>
 5   0  0.1095119E-03  0.1402232E+04  0.7818609E-02  0.8952204E-01
        2   -1    0    0  501    0  0.00000000000E+00  0.00000000000E+00  0.74607702882E+03  0.74607702882E+03  0.25500000920E-02 0. -1.
       -2   -1    0    0    0  501  0.00000000000E+00  0.00000000000E+00 -0.65886448527E+03  0.65886448527E+03  0.25500000920E-02 0.  1.
    10030    2    1    2    0    0  0.00000000000E+00  0.00000000000E+00  0.87212543552E+02  0.14049415141E+04  0.14022320173E+04 0.  0.
        5    1    3    3  502    0 -0.58308050402E+03  0.38893975835E+03  0.26704836203E+02  0.70142159082E+03  0.46999998093E+01 0.  1.
       -5    1    3    3    0  502  0.58308050402E+03 -0.38893975835E+03  0.60507707349E+02  0.70351992327E+03  0.46999998093E+01 0. -1.
</event>
<event>
 5   0  0.6194742E-04  0.1393964E+04  0.7818609E-02  0.8958199E-01
       -1   -1    0    0    0  501  0.00000000000E+00  0.00000000000E+00  0.55415549161E+03  0.55415549163E+03  0.50400001928E-02 0.  1.
        1   -1    0    0  501    0  0.00000000000E+00  0.00000000000E+00 -0.87662049343E+03  0.87662049344E+03  0.50400001928E-02 0. -1.
    10030    2    1    2    0    0  0.00000000000E+00  0.00000000000E+00 -0.32246500182E+03  0.14307759851E+04  0.13939642184E+04 0.  0.
        4    1    3    3  502    0  0.49677878430E+03 -0.48657201073E+03 -0.20982146013E+03  0.72633886045E+03  0.12699999809E+01 0. -1.
       -4    1    3    3    0  502 -0.49677878430E+03  0.48657201073E+03 -0.11264354169E+03  0.70443712462E+03  0.12699999809E+01 0.  1.
</event>
<event>
 5   0  0.1108819E-03  0.1386256E+04  0.7818609E-02  0.8963827E-01
       -2   -1    0    0    0  501  0.00000000000E+00  0.00000000000E+00  0.41622020329E+03  0.41622020329E+03  0.25500000920E-02 0.  1.
        2   -1    0    0  501    0  0.00000000000E+00  0.00000000000E+00 -0.11542607466E+04  0.11542607466E+04  0.25500000920E-02 0. -1.
    10030    2    1    2    0    0  0.00000000000E+00  0.00000000000E+00 -0.73804054327E+03  0.15704809498E+04  0.13862563148E+04 0.  0.
        3    1    3    3  502    0 -0.68683124448E+03  0.24186392141E+02 -0.47100896911E+03  0.83316961007E+03  0.10100000352E+00 0. -1.
       -3    1    3    3    0  502  0.68683124448E+03 -0.24186392141E+02 -0.26703157416E+03  0.73731133978E+03  0.10100000352E+00 0.  1.
</event>
<event>
 5   0  0.4176125E-04  0.1408933E+04  0.7818609E-02  0.8947377E-01
       -4   -1    0    0    0  501  0.00000000000E+00  0.00000000000E+00  0.97724067324E+03  0.97724149847E+03  0.12699999809E+01 0.  1.
        4   -1    0    0  501    0  0.00000000000E+00  0.00000000000E+00 -0.50782941241E+03  0.50783100044E+03  0.12699999809E+01 0. -1.
    10030    2    1    2    0    0  0.00000000000E+00  0.00000000000E+00  0.46941126083E+03  0.14850724989E+04  0.14089334247E+04 0.  0.
        5    1    3    3  502    0 -0.57818376021E+03 -0.11043815284E+03  0.64260450551E+03  0.87146754768E+03  0.46999998093E+01 0.  1.
       -5    1    3    3    0  502  0.57818376021E+03  0.11043815284E+03 -0.17319324468E+03  0.61360495123E+03  0.46999998093E+01 0. -1.
</event>
<event>
 5   0  0.1120053E-03  0.1396698E+04  0.7818609E-02  0.8956212E-01
       -2   -1    0    0    0  501  0.00000000000E+00  0.00000000000E+00  0.14102902306E+04  0.14102902306E+04  0.25500000920E-02 0.  1.
        2   -1    0    0  501    0  0.00000000000E+00  0.00000000000E+00 -0.34580908280E+03  0.34580908281E+03  0.25500000920E-02 0. -1.
    10030    2    1    2    0    0  0.00000000000E+00  0.00000000000E+00  0.10644811478E+04  0.17560993134E+04  0.13966977785E+04 0.  0.
        2    1    3    3  502    0 -0.29209248667E+03  0.14125533209E+03 -0.24528910537E+03  0.40674050061E+03  0.25500000920E-02 0. -1.
       -2    1    3    3    0  502  0.29209248667E+03 -0.14125533209E+03  0.13097702532E+04  0.13493588128E+04  0.25500000920E-02 0.  1.
</event>
<event>
 5   0  0.4176125E-04  0.1359841E+04  0.7818609E-02  0.8983412E-01
       -3   -1    0    0    0  501  0.00000000000E+00  0.00000000000E+00  0.27792579598E+04  0.27792579616E+04  0.10100000352E+00 0. -1.
        3   -1    0    0  501    0  0.00000000000E+00  0.00000000000E+00 -0.16633631612E+03  0.16633634678E+03  0.10100000352E+00 0.  1.
    10030    2    1    2    0    0  0.00000000000E+00  0.00000000000E+00  0.26129216437E+04  0.29455943084E+04  0.13598405472E+04 0.  0.
        4    1    3    3  502    0 -0.41999632089E+03  0.45920668293E+03  0.18997686382E+04  0.19990973410E+04  0.12699999809E+01 0. -1.
       -4    1    3    3    0  502  0.41999632089E+03 -0.45920668293E+03  0.71315300548E+03  0.94649696741E+03  0.12699999809E+01 0.  1.
</event>
<event>
 5   0  0.1098949E-03  0.1394695E+04  0.7818609E-02  0.8957667E-01
       -2   -1    0    0    0  501  0.00000000000E+00  0.00000000000E+00  0.52160715800E+03  0.52160715800E+03  0.25500000920E-02 0.  1.
        2   -1    0    0  501    0  0.00000000000E+00  0.00000000000E+00 -0.93229866721E+03  0.93229866721E+03  0.25500000920E-02 0. -1.
    10030    2    1    2    0    0  0.00000000000E+00  0.00000000000E+00 -0.41069150921E+03  0.14539058252E+04  0.13946951756E+04 0.  0.
        4    1    3    3  502    0 -0.64308325309E+03  0.25740107945E+03 -0.12142554305E+03  0.70324758195E+03  0.12699999809E+01 0.  1.
       -4    1    3    3    0  502  0.64308325309E+03 -0.25740107945E+03 -0.28926596616E+03  0.75065824327E+03  0.12699999809E+01 0. -1.
</event>
<event>
 5   0  0.1095119E-03  0.1392913E+04  0.7818609E-02  0.8958964E-01
       -2   -1    0    0    0  501  0.00000000000E+00  0.00000000000E+00  0.25508020118E+03  0.25508020119E+03  0.25500000920E-02 0.  1.
        2   -1    0    0  501    0  0.00000000000E+00  0.00000000000E+00 -0.19015663999E+04  0.19015663999E+04  0.25500000920E-02 0. -1.
    10030    2    1    2    0    0  0.00000000000E+00  0.00000000000E+00 -0.16464861987E+04  0.21566466010E+04  0.13929134070E+04 0.  0.
        5    1    3    3  502    0 -0.42797185778E+03 -0.34895290327E+02 -0.16722028511E+04  0.17264593993E+04  0.46999998093E+01 0. -1.
       -5    1    3    3    0  502  0.42797185778E+03  0.34895290327E+02  0.25716652386E+02  0.43018720174E+03  0.46999998093E+01 0.  1.
</event>
<event>
 5   0  0.6194742E-04  0.1394936E+04  0.7818609E-02  0.8957492E-01
        1   -1    0    0  501    0  0.00000000000E+00  0.00000000000E+00  0.46137448386E+03  0.46137448389E+03  0.50400001928E-02 0. -1.
       -1   -1    0    0    0  501  0.00000000000E+00  0.00000000000E+00 -0.10543749011E+04  0.10543749011E+04  0.50400001928E-02 0.  1.
    10030    2    1    2    0    0  0.00000000000E+00  0.00000000000E+00 -0.59300041722E+03  0.15157493850E+04  0.13949360929E+04 0.  0.
        4    1    3    3  502    0  0.18996370112E+02  0.53643904347E+03 -0.78041608632E+03  0.94719511724E+03  0.12699999809E+01 0.  1.
       -4    1    3    3    0  502 -0.18996370112E+02 -0.53643904347E+03  0.18741566910E+03  0.56855426774E+03  0.12699999809E+01 0. -1.
</event>
<event>
 5   0  0.6097538E-04  0.1394594E+04  0.7818609E-02  0.8957741E-01
        1   -1    0    0  501    0  0.00000000000E+00  0.00000000000E+00  0.17258874154E+04  0.17258874154E+04  0.50400001928E-02 0. -1.
       -1   -1    0    0    0  501  0.00000000000E+00  0.00000000000E+00 -0.28172335492E+03  0.28172335497E+03  0.50400001928E-02 0.  1.
    10030    2    1    2    0    0  0.00000000000E+00  0.00000000000E+00  0.14441640605E+04  0.20076107704E+04  0.13945935507E+04 0.  0.
        2    1    3    3  502    0  0.50707218915E+03 -0.32846072408E+03  0.22088497820E+03  0.64327196882E+03  0.25500000920E-02 0.  1.
       -2    1    3    3    0  502 -0.50707218915E+03  0.32846072408E+03  0.12232790823E+04  0.13643388015E+04  0.25500000920E-02 0. -1.
</event>
<event>
 5   0  0.1095119E-03  0.1393731E+04  0.7818609E-02  0.8958369E-01
        2   -1    0    0  501    0  0.00000000000E+00  0.00000000000E+00  0.91494724770E+03  0.91494724770E+03  0.25500000920E-02 0.  1.
       -2   -1    0    0    0  501  0.00000000000E+00  0.00000000000E+00 -0.53076456535E+03  0.53076456536E+03  0.25500000920E-02 0. -1.
    10030    2    1    2    0    0  0.00000000000E+00  0.00000000000E+00  0.38418268235E+03  0.14457118131E+04  0.13937310763E+04 0.  0.
        5    1    3    3  502    0 -0.23140658735E+02  0.85705366669E+02 -0.52485857141E+03  0.53233402102E+03  0.46999998093E+01 0. -1.
       -5    1    3    3    0  502  0.23140658735E+02 -0.85705366669E+02  0.90904125375E+03  0.91337779204E+03  0.46999998093E+01 0.  1.
</event>
<event>
 5   0  0.6114266E-04  0.1368478E+04  0.7818609E-02  0.8976957E-01
       -1   -1    0    0    0  501  0.00000000000E+00  0.00000000000E+00  0.36675606185E+03  0.36675606188E+03  0.50400001928E-02 0.  1.
        1   -1    0    0  501    0  0.00000000000E+00  0.00000000000E+00 -0.12765510025E+04  0.12765510025E+04  0.50400001928E-02 0. -1.
    10030    2    1    2    0    0  0.00000000000E+00  0.00000000000E+00 -0.90979494065E+03  0.16433070644E+04  0.13684777214E+04 0.  0.
        3    1    3    3  502    0  0.76882679885E+02  0.58656906040E+03 -0.86776005404E+03  0.10502293705E+04  0.10100000352E+00 0.  1.
       -3    1    3    3    0  502 -0.76882679885E+02 -0.58656906040E+03 -0.42034886605E+02  0.59307769388E+03  0.10100000352E+00 0. -1.
</event>
<event>
 5   0  0.1175146E-03  0.1394960E+04  0.7818609E-02  0.8957475E-01
       -2   -1    0    0    0  501  0.00000000000E+00  0.00000000000E+00  0.24155326796E+03  0.24155326797E+03  0.25500000920E-02 0.  1.
        2   -1    0    0  501    0  0.00000000000E+00  0.00000000000E+00 -0.20139592535E+04  0.20139592535E+04  0.25500000920E-02 0. -1.
    10030    2    1    2    0    0  0.00000000000E+00  0.00000000000E+00 -0.17724059856E+04  0.22555125215E+04  0.13949601274E+04 0.  0.
        1    1    3    3  502    0 -0.18409824415E+03 -0.40229703608E+03 -0.17580461406E+04  0.18128599784E+04  0.50400001928E-02 0. -1.
       -1    1    3    3    0  502  0.18409824415E+03  0.40229703608E+03 -0.14359844946E+02  0.44265254309E+03  0.50400001928E-02 0.  1.
</event>
<event>
 5   0  0.5875298E-04  0.1422847E+04  0.7818609E-02  0.8937445E-01
        1   -1    0    0  501    0  0.00000000000E+00  0.00000000000E+00  0.57669607718E+03  0.57669607721E+03  0.50400001928E-02 0.  1.
       -1   -1    0    0    0  501  0.00000000000E+00  0.00000000000E+00 -0.87762631463E+03  0.87762631465E+03  0.50400001928E-02 0. -1.
    10030    2    1    2    0    0  0.00000000000E+00  0.00000000000E+00 -0.30093023745E+03  0.14543223919E+04  0.14228473606E+04 0.  0.
        1    1    3    3  502    0 -0.44171544973E+03 -0.49683388844E+03  0.10845090473E+03  0.67358596333E+03  0.50400001928E-02 0. -1.
       -1    1    3    3    0  502  0.44171544973E+03  0.49683388844E+03 -0.40938114218E+03  0.78073642853E+03  0.50400001928E-02 0.  1.
</event>
<event>
 5   0  0.1175146E-03  0.1402303E+04  0.7818609E-02  0.8952153E-01
        2   -1    0    0  501    0  0.00000000000E+00  0.00000000000E+00  0.18655575251E+04  0.18655575251E+04  0.25500000920E-02 0. -1.
       -2   -1    0    0    0  501  0.00000000000E+00  0.00000000000E+00 -0.26352103946E+03  0.26352103947E+03  0.25500000920E-02 0.  1.
    10030    2    1    2    0    0  0.00000000000E+00  0.00000000000E+00  0.16020364856E+04  0.21290785646E+04  0.14023033312E+04 0.  0.
        1    1    3    3  502    0  0.28352176967E+03 -0.47266965215E+03  0.14303940289E+03  0.56943960588E+03  0.50400001928E-02 0.  1.
       -1    1    3    3    0  502 -0.28352176967E+03  0.47266965215E+03  0.14589970827E+04  0.15596389587E+04  0.50400001928E-02 0. -1.
</event>
<event>
 5   0  0.1175146E-03  0.1397924E+04  0.7818609E-02  0.8955322E-01
       -2   -1    0    0    0  501  0.00000000000E+00  0.00000000000E+00  0.25598145680E+03  0.25598145681E+03  0.25500000920E-02 0. -1.
        2   -1    0    0  501    0  0.00000000000E+00  0.00000000000E+00 -0.19085290390E+04  0.19085290390E+04  0.25500000920E-02 0.  1.
    10030    2    1    2    0    0  0.00000000000E+00  0.00000000000E+00 -0.16525475822E+04  0.21645104958E+04  0.13979242379E+04 0.  0.
        1    1    3    3  502    0  0.29707175345E+03 -0.38597479253E+03 -0.50045477483E+02  0.48962507800E+03  0.50400001928E-02 0. -1.
       -1    1    3    3    0  502 -0.29707175345E+03  0.38597479253E+03 -0.16025021047E+04  0.16748854178E+04  0.50400001928E-02 0.  1.
</event>
<event>
 5   0  0.1095119E-03  0.1396816E+04  0.7818609E-02  0.8956127E-01
       -2   -1    0    0    0  501  0.00000000000E+00  0.00000000000E+00  0.51943767168E+03  0.51943767168E+03  0.25500000920E-02 0.  1.
        2   -1    0    0  501    0  0.00000000000E+00  0.00000000000E+00 -0.93904126548E+03  0.93904126548E+03  0.25500000920E-02 0. -1.
    10030    2    1    2    0    0  0.00000000000E+00  0.00000000000E+00 -0.41960359380E+03  0.14584789372E+04  0.13968155334E+04 0.  0.
        5    1    3    3  502    0 -0.22588345744E+03 -0.66048709568E+03 -0.23279147288E+03  0.73585358581E+03  0.46999998093E+01 0.  1.
       -5    1    3    3    0  502  0.22588345744E+03  0.66048709568E+03 -0.18681212092E+03  0.72262535136E+03  0.46999998093E+01 0. -1.
</event>
<event>
 5   0  0.1108819E-03  0.1386186E+04  0.7818609E-02  0.8963879E-01
        2   -1    0    0  501    0  0.00000000000E+00  0.00000000000E+00  0.60040273213E+03  0.60040273213E+03  0.25500000920E-02 0.  1.
       -2   -1    0    0    0  501  0.00000000000E+00  0.00000000000E+00 -0.80009285501E+03  0.80009285502E+03  0.25500000920E-02 0. -1.
    10030    2    1    2    0    0  0.00000000000E+00  0.00000000000E+00 -0.19969012289E+03  0.14004955871E+04  0.13861860425E+04 0.  0.
        3    1    3    3  502    0  0.17884588582E+03 -0.38377800334E+03  0.45455121195E+03  0.62119901900E+03  0.10100000352E+00 0.  1.
       -3    1    3    3    0  502 -0.17884588582E+03  0.38377800334E+03 -0.65424133483E+03  0.77929656815E+03  0.10100000352E+00 0. -1.
</event>
<event>
 5   0  0.6097538E-04  0.1407996E+04  0.7818609E-02  0.8948051E-01
       -1   -1    0    0    0  501  0.00000000000E+00  0.00000000000E+00  0.26124951399E+03  0.26124951404E+03  0.50400001928E-02 0.  1.
        1   -1    0    0  501    0  0.00000000000E+00  0.00000000000E+00 -0.18970881952E+04  0.18970881952E+04  0.50400001928E-02 0. -1.
    10030    2    1    2    0    0  0.00000000000E+00  0.00000000000E+00 -0.16358386812E+04  0.21583377092E+04  0.14079962628E+04 0.  0.
        2    1    3    3  502    0 -0.41413340611E+03  0.55655820020E+02 -0.16864331292E+04  0.17374293504E+04  0.25500000920E-02 0. -1.
       -2    1    3    3    0  502  0.41413340611E+03 -0.55655820020E+02  0.50594448008E+02  0.42090835883E+03  0.25500000920E-02 0.  1.
</event>
<event>
 5   0  0.6114266E-04  0.1396563E+04  0.7818609E-02  0.8956310E-01
       -1   -1    0    0    0  501  0.00000000000E+00  0.00000000000E+00  0.65807734341E+03  0.65807734343E+03  0.50400001928E-02 0. -1.
        1   -1    0    0  501    0  0.00000000000E+00  0.00000000000E+00 -0.74094195545E+03  0.74094195547E+03  0.50400001928E-02 0.  1.
    10030    2    1    2    0    0  0.00000000000E+00  0.00000000000E+00 -0.82864612037E+02  0.13990192989E+04  0.13965630866E+04 0.  0.
        3    1    3    3  502    0  0.41904461808E+03  0.10869145553E+02 -0.60087719248E+03  0.73264584958E+03  0.10100000352E+00 0.  1.
       -3    1    3    3    0  502 -0.41904461808E+03 -0.10869145553E+02  0.51801258044E+03  0.66637344932E+03  0.10100000352E+00 0. -1.
</event>
<event>
 5   0  0.4176125E-04  0.1396996E+04  0.7818609E-02  0.8955996E-01
       -3   -1    0    0    0  501  0.00000000000E+00  0.00000000000E+00  0.38830527470E+03  0.38830528783E+03  0.10100000352E+00 0.  1.
        3   -1    0    0  501    0  0.00000000000E+00  0.00000000000E+00 -0.12564844991E+04  0.12564845031E+04  0.10100000352E+00 0. -1.
    10030    2    1    2    0    0  0.00000000000E+00  0.00000000000E+00 -0.86817922437E+03  0.16447897910E+04  0.13969961671E+04 0.  0.
        1    1    3    3  502    0 -0.68596676110E+03 -0.13127802951E+03 -0.42144970811E+03  0.81572309938E+03  0.50400001928E-02 0.  1.
       -1    1    3    3    0  502  0.68596676110E+03  0.13127802951E+03 -0.44672951626E+03  0.82906669158E+03  0.50400001928E-02 0. -1.
</event>
<event>
 5   0  0.6097538E-04  0.1433079E+04  0.7818609E-02  0.8930216E-01
        1   -1    0    0  501    0  0.00000000000E+00  0.00000000000E+00  0.13567306651E+04  0.13567306651E+04  0.50400001928E-02 0. -1.
       -1   -1    0    0    0  501  0.00000000000E+00  0.00000000000E+00 -0.37843087934E+03  0.37843087937E+03  0.50400001928E-02 0.  1.
    10030    2    1    2    0    0  0.00000000000E+00  0.00000000000E+00  0.97829978579E+03  0.17351615445E+04  0.14330788934E+04 0.  0.
        2    1    3    3  502    0  0.20039173415E+03  0.70624983240E+02  0.13177109057E+04  0.13347309716E+04  0.25500000920E-02 0. -1.
       -2    1    3    3    0  502 -0.20039173415E+03 -0.70624983240E+02 -0.33941111996E+03  0.40043057292E+03  0.25500000920E-02 0.  1.
</event>
<event>
 5   0  0.5875298E-04  0.1392657E+04  0.7818609E-02  0.8959151E-01
       -1   -1    0    0    0  501  0.00000000000E+00  0.00000000000E+00  0.47066791478E+03  0.47066791481E+03  0.50400001928E-02 0. -1.
        1   -1    0    0  501    0  0.00000000000E+00  0.00000000000E+00 -0.10301818506E+04  0.10301818506E+04  0.50400001928E-02 0.  1.
    10030    2    1    2    0    0  0.00000000000E+00  0.00000000000E+00 -0.55951393580E+03  0.15008497654E+04  0.13926572349E+04 0.  0.
        1    1    3    3  502    0  0.26115375201E+03  0.21274863336E+03 -0.93653700246E+03  0.99527122946E+03  0.50400001928E-02 0.  1.
       -1    1    3    3    0  502 -0.26115375201E+03 -0.21274863336E+03  0.37702306666E+03  0.50557853594E+03  0.50400001928E-02 0. -1.
</event>
<event>
 5   0  0.1175146E-03  0.1393586E+04  0.7818609E-02  0.8958474E-01
       -2   -1    0    0    0  501  0.00000000000E+00  0.00000000000E+00  0.76643907771E+03  0.76643907771E+03  0.25500000920E-02 0.  1.
        2   -1    0    0  501    0  0.00000000000E+00  0.00000000000E+00 -0.63347581199E+03  0.63347581199E+03  0.25500000920E-02 0. -1.
    10030    2    1    2    0    0  0.00000000000E+00  0.00000000000E+00  0.13296326572E+03  0.13999148897E+04  0.13935861898E+04 0.  0.
        1    1    3    3  502    0 -0.12508983288E+03 -0.44700630930E+03  0.58851316053E+03  0.74953975678E+03  0.50400001928E-02 0.  1.
       -1    1    3    3    0  502  0.12508983288E+03  0.44700630930E+03 -0.45554989481E+03  0.65037513293E+03  0.50400001928E-02 0. -1.
</event>
<event>
 5   0  0.6114266E-04  0.1453950E+04  0.7818609E-02  0.8915666E-01
        1   -1    0    0  501    0  0.00000000000E+00  0.00000000000E+00  0.10625646934E+04  0.10625646934E+04  0.50400001928E-02 0.  1.
       -1   -1    0    0    0  501  0.00000000000E+00  0.00000000000E+00 -0.49737479432E+03  0.49737479435E+03  0.50400001928E-02 0. -1.
    10030    2    1    2    0    0  0.00000000000E+00  0.00000000000E+00  0.56518989905E+03  0.15599394877E+04  0.14539503373E+04 0.  0.
        3    1    3    3  502    0  0.44536027132E+03  0.77803167126E+02  0.89338721422E+03  0.10012691091E+04  0.10100000352E+00 0.  1.
       -3    1    3    3    0  502 -0.44536027132E+03 -0.77803167126E+02 -0.32819731517E+03  0.55867037864E+03  0.10100000352E+00 0. -1.
</event>
<event>
 5   0  0.1120053E-03  0.1418240E+04  0.7818609E-02  0.8940721E-01
       -2   -1    0    0    0  501  0.00000000000E+00  0.00000000000E+00  0.18006396879E+04  0.18006396879E+04  0.25500000920E-02 0.  1.
        2   -1    0    0  501    0  0.00000000000E+00  0.00000000000E+00 -0.27926237256E+03  0.27926237257E+03  0.25500000920E-02 0. -1.
    10030    2    1    2    0    0  0.00000000000E+00  0.00000000000E+00  0.15213773153E+04  0.20799020605E+04  0.14182396291E+04 0.  0.
        2    1    3    3  502    0  0.12218315950E+03  0.69839372105E+03  0.77971962400E+03  0.10538715321E+04  0.25500000920E-02 0. -1.
       -2    1    3    3    0  502 -0.12218315950E+03 -0.69839372105E+03  0.74165769132E+03  0.10260305284E+04  0.25500000920E-02 0.  1.
</event>
<event>
 5   0  0.6153318E-04  0.1379927E+04  0.7818609E-02  0.8968478E-01
       -1   -1    0    0    0  501  0.00000000000E+00  0.00000000000E+00  0.30946885820E+03  0.30946885824E+03  0.50400001928E-02 0.  1.
        1   -1    0    0  501    0  0.00000000000E+00  0.00000000000E+00 -0.15382803851E+04  0.15382803851E+04  0.50400001928E-02 0. -1.
    10030    2    1    2    0    0  0.00000000000E+00  0.00000000000E+00 -0.12288115269E+04  0.18477492434E+04  0.13799273523E+04 0.  0.
        5    1    3    3  502    0  0.82338792925E+02  0.16724275596E+03  0.27508805111E+03  0.33233317936E+03  0.46999998093E+01 0.  1.
       -5    1    3    3    0  502 -0.82338792925E+02 -0.16724275596E+03 -0.15038995780E+04  0.15154160640E+04  0.46999998093E+01 0. -1.
</event>
<event>
 5   0  0.1098949E-03  0.1306515E+04  0.7818609E-02  0.9024415E-01
        2   -1    0    0  501    0  0.00000000000E+00  0.00000000000E+00  0.19005467218E+03  0.19005467219E+03  0.25500000920E-02 0. -1.
       -2   -1    0    0    0  501  0.00000000000E+00  0.00000000000E+00 -0.22453814123E+04  0.22453814123E+04  0.25500000920E-02 0.  1.
    10030    2    1    2    0    0  0.00000000000E+00  0.00000000000E+00 -0.20553267401E+04  0.24354360845E+04  0.13065147963E+04 0.  0.
        4    1    3    3  502    0 -0.40020706849E+02  0.38120500671E+03 -0.20137281075E+04  0.20498832694E+04  0.12699999809E+01 0.  1.
       -4    1    3    3    0  502  0.40020706849E+02 -0.38120500671E+03 -0.41598632599E+02  0.38555281512E+03  0.12699999809E+01 0. -1.
</event>
<event>
 5   0  0.1175146E-03  0.1340018E+04  0.7818609E-02  0.8998419E-01
        2   -1    0    0  501    0  0.00000000000E+00  0.00000000000E+00  0.25553802446E+03  0.25553802447E+03  0.25500000920E-02 0.  1.
       -2   -1    0    0    0  501  0.00000000000E+00  0.00000000000E+00 -0.17567316905E+04  0.17567316905E+04  0.25500000920E-02 0. -1.
    10030    2    1    2    0    0  0.00000000000E+00  0.00000000000E+00 -0.15011936660E+04  0.20122697149E+04  0.13400175308E+04 0.  0.
        1    1    3    3  502    0  0.32701384388E+03 -0.53236552322E+03 -0.11139915614E+04  0.12772346313E+04  0.50400001928E-02 0. -1.
       -1    1    3    3    0  502 -0.32701384388E+03  0.53236552322E+03 -0.38720210458E+03  0.73503508366E+03  0.50400001928E-02 0.  1.
</event>
<event>
 5   0  0.1108819E-03  0.1429447E+04  0.7818609E-02  0.8932775E-01
        2   -1    0    0  501    0  0.00000000000E+00  0.00000000000E+00  0.11376316425E+04  0.11376316425E+04  0.25500000920E-02 0. -1.
       -2   -1    0    0    0  501  0.00000000000E+00  0.00000000000E+00 -0.44902919695E+03  0.44902919695E+03  0.25500000920E-02 0.  1.
    10030    2    1    2    0    0  0.00000000000E+00  0.00000000000E+00  0.68860244553E+03  0.15866608394E+04  0.14294471978E+04 0.  0.
        3    1    3    3  502    0  0.48857431229E+03  0.96415703012E+02 -0.22475162202E+03  0.54636448294E+03  0.10100000352E+00 0.  1.
       -3    1    3    3    0  502 -0.48857431229E+03 -0.96415703012E+02  0.91335406755E+03  0.10402963565E+04  0.10100000352E+00 0. -1.
</event>
<event>
 5   0  0.6194742E-04  0.1406028E+04  0.7818609E-02  0.8949467E-01
       -1   -1    0    0    0  501  0.00000000000E+00  0.00000000000E+00  0.75860955586E+03  0.75860955588E+03  0.50400001928E-02 0. -1.
        1   -1    0    0  501    0  0.00000000000E+00  0.00000000000E+00 -0.65149238165E+03  0.65149238167E+03  0.50400001928E-02 0.  1.
    10030    2    1    2    0    0  0.00000000000E+00  0.00000000000E+00  0.10711717421E+03  0.14101019375E+04  0.14060275194E+04 0.  0.
        4    1    3    3  502    0  0.29985016402E+03  0.33352522025E+03  0.59649373467E+03  0.74629456772E+03  0.12699999809E+01 0. -1.
       -4    1    3    3    0  502 -0.29985016402E+03 -0.33352522025E+03 -0.48937656046E+03  0.66380736983E+03  0.12699999809E+01 0.  1.
</event>
<event>
 5   0  0.1098949E-03  0.1391098E+04  0.7818609E-02  0.8960288E-01
       -2   -1    0    0    0  501  0.00000000000E+00  0.00000000000E+00  0.62836558788E+03  0.62836558788E+03  0.25500000920E-02 0.  1.
        2   -1    0    0  501    0  0.00000000000E+00  0.00000000000E+00 -0.76991539863E+03  0.76991539864E+03  0.25500000920E-02 0. -1.
    10030    2    1    2    0    0  0.00000000000E+00  0.00000000000E+00 -0.14154981076E+03  0.13982809865E+04  0.13910979003E+04 0.  0.
        4    1    3    3  502    0  0.23987749284E+03  0.53263654437E+03 -0.45027419543E+03  0.73755770211E+03  0.12699999809E+01 0. -1.
       -4    1    3    3    0  502 -0.23987749284E+03 -0.53263654437E+03  0.30872438467E+03  0.66072328441E+03  0.12699999809E+01 0.  1.
</event>
<event>
 5   0  0.1098949E-03  0.1389553E+04  0.7818609E-02  0.8961415E-01
        2   -1    0    0  501    0  0.00000000000E+00  0.00000000000E+00  0.87152842704E+03  0.87152842704E+03  0.25500000920E-02 0.  1.
       -2   -1    0    0    0  501  0.00000000000E+00  0.00000000000E+00 -0.55387122996E+03  0.55387122997E+03  0.25500000920E-02 0. -1.
    10030    2    1    2    0    0  0.00000000000E+00  0.00000000000E+00  0.31765719708E+03  0.14253996570E+04  0.13895531970E+04 0.  0.
        4    1    3    3  502    0  0.49865890444E+03  0.41223154414E+03 -0.10091765262E+03  0.65481412207E+03  0.12699999809E+01 0. -1.
       -4    1    3    3    0  502 -0.49865890444E+03 -0.41223154414E+03  0.41857484970E+03  0.77058553494E+03  0.12699999809E+01 0.  1.
</event>
<event>
 5   0  0.6097538E-04  0.1400955E+04  0.7818609E-02  0.8953127E-01
        1   -1    0    0  501    0  0.00000000000E+00  0.00000000000E+00  0.78643259243E+03  0.78643259245E+03  0.50400001928E-02 0.  1.
       -1   -1    0    0    0  501  0.00000000000E+00  0.00000000000E+00 -0.62391730605E+03  0.62391730607E+03  0.50400001928E-02 0. -1.
    10030    2    1    2    0    0  0.00000000000E+00  0.00000000000E+00  0.16251528638E+03  0.14103498985E+04  0.14009552519E+04 0.  0.
        2    1    3    3  502    0  0.54232431142E+03  0.43341135234E+03 -0.12683958909E+02  0.69435001398E+03  0.25500000920E-02 0. -1.
       -2    1    3    3    0  502 -0.54232431142E+03 -0.43341135234E+03  0.17519924529E+03  0.71599988454E+03  0.25500000920E-02 0.  1.
</event>
<event>
 5   0  0.1175146E-03  0.1388262E+04  0.7818609E-02  0.8962359E-01
       -2   -1    0    0    0  501  0.00000000000E+00  0.00000000000E+00  0.10617844491E+04  0.10617844491E+04  0.25500000920E-02 0.  1.
        2   -1    0    0  501    0  0.00000000000E+00  0.00000000000E+00 -0.45378141594E+03  0.45378141594E+03  0.25500000920E-02 0. -1.
    10030    2    1    2    0    0  0.00000000000E+00  0.00000000000E+00  0.60800303312E+03  0.15155658650E+04  0.13882622961E+04 0.  0.
        1    1    3    3  502    0  0.38005134466E+03  0.19118579424E+03 -0.29477078995E+03  0.51757207337E+03  0.50400001928E-02 0. -1.
       -1    1    3    3    0  502 -0.38005134466E+03 -0.19118579424E+03  0.90277382307E+03  0.99799379164E+03  0.50400001928E-02 0.  1.
</event>
<event>
 5   0  0.6153318E-04  0.1391448E+04  0.7818609E-02  0.8960032E-01
        1   -1    0    0  501    0  0.00000000000E+00  0.00000000000E+00  0.97880694088E+03  0.97880694089E+03  0.50400001928E-02 0.  1.
       -1   -1    0    0    0  501  0.00000000000E+00  0.00000000000E+00 -0.49451230453E+03  0.49451230455E+03  0.50400001928E-02 0. -1.
    10030    2    1    2    0    0  0.00000000000E+00  0.00000000000E+00  0.48429463635E+03  0.14733192454E+04  0.13914482758E+04 0.  0.
        5    1    3    3  502    0 -0.36177662944E+03  0.25941729436E+03 -0.32394067773E+03  0.55058088862E+03  0.46999998093E+01 0. -1.
       -5    1    3    3    0  502  0.36177662944E+03 -0.25941729436E+03  0.80823531409E+03  0.92273835683E+03  0.46999998093E+01 0.  1.
</event>
<event>
 5   0  0.6153318E-04  0.1403534E+04  0.7818609E-02  0.8951264E-01
        1   -1    0    0  501    0  0.00000000000E+00  0.00000000000E+00  0.18401933861E+04  0.18401933861E+04  0.50400001928E-02 0. -1.
       -1   -1    0    0    0  501  0.00000000000E+00  0.00000000000E+00 -0.26762245119E+03  0.26762245124E+03  0.50400001928E-02 0.  1.
    10030    2    1    2    0    0  0.00000000000E+00  0.00000000000E+00  0.15725709349E+04  0.21078158373E+04  0.14035342029E+04 0.  0.
        5    1    3    3  502    0  0.16442218323E+03 -0.66208493891E+03  0.10333466320E+04  0.12382319946E+04  0.46999998093E+01 0. -1.
       -5    1    3    3    0  502 -0.16442218323E+03  0.66208493891E+03  0.53922430295E+03  0.86958384274E+03  0.46999998093E+01 0.  1.
</event>
<event>
 5   0  0.6153318E-04  0.1396026E+04  0.7818609E-02  0.8956700E-01
       -1   -1    0    0    0  501  0.00000000000E+00  0.00000000000E+00  0.56055380241E+03  0.56055380244E+03  0.50400001928E-02 0.  1.
        1   -1    0    0  501    0  0.00000000000E+00  0.00000000000E+00 -0.86917957431E+03  0.86917957432E+03  0.50400001928E-02 0. -1.
    10030    2    1    2    0    0  0.00000000000E+00  0.00000000000E+00 -0.30862577190E+03  0.14297333768E+04  0.13960256665E+04 0.  0.
        5    1    3    3  502    0  0.49769232609E+03  0.42891312621E+03 -0.39566315870E+03  0.76696515334E+03  0.46999998093E+01 0. -1.
       -5    1    3    3    0  502 -0.49769232609E+03 -0.42891312621E+03  0.87037386806E+02  0.66276822342E+03  0.46999998093E+01 0.  1.
</event>
<event>
 5   0  0.6097538E-04  0.1395189E+04  0.7818609E-02  0.8957308E-01
       -1   -1    0    0    0  501  0.00000000000E+00  0.00000000000E+00  0.19233126308E+03  0.19233126315E+03  0.50400001928E-02 0.  1.
        1   -1    0    0  501    0  0.00000000000E+00  0.00000000000E+00 -0.25302091489E+04  0.25302091489E+04  0.50400001928E-02 0. -1.
    10030    2    1    2    0    0  0.00000000000E+00  0.00000000000E+00 -0.23378778858E+04  0.27225404120E+04  0.13951893371E+04 0.  0.
        2    1    3    3  502    0 -0.31812738573E+03  0.18617109881E+03 -0.13213584073E+02  0.36883507208E+03  0.25500000920E-02 0.  1.
       -2    1    3    3    0  502  0.31812738573E+03 -0.18617109881E+03 -0.23246643017E+04  0.23537053399E+04  0.25500000920E-02 0. -1.
</event>
<event>
 5   0  0.1108819E-03  0.1386193E+04  0.7818609E-02  0.8963874E-01
        2   -1    0    0  501    0  0.00000000000E+00  0.00000000000E+00  0.12703257578E+04  0.12703257578E+04  0.25500000920E-02 0.  1.
       -2   -1    0    0    0  501  0.00000000000E+00  0.00000000000E+00 -0.37815715519E+03  0.37815715520E+03  0.25500000920E-02 0. -1.
    10030    2    1    2    0    0  0.00000000000E+00  0.00000000000E+00  0.89216860259E+03  0.16484829130E+04  0.13861930237E+04 0.  0.
        3    1    3    3  502    0 -0.58824192131E+03 -0.23953545128E+03  0.77602900301E+03  0.10028094605E+04  0.10100000352E+00 0.  1.
       -3    1    3    3    0  502  0.58824192131E+03  0.23953545128E+03  0.11613959958E+03  0.64567345245E+03  0.10100000352E+00 0. -1.
</event>
<event>
 5   0  0.1095119E-03  0.1409537E+04  0.7818609E-02  0.8946944E-01
       -2   -1    0    0    0  501  0.00000000000E+00  0.00000000000E+00  0.11034111328E+04  0.11034111328E+04  0.25500000920E-02 0.  1.
        2   -1    0    0  501    0  0.00000000000E+00  0.00000000000E+00 -0.45014802949E+03  0.45014802950E+03  0.25500000920E-02 0. -1.
    10030    2    1    2    0    0  0.00000000000E+00  0.00000000000E+00  0.65326310333E+03  0.15535591623E+04  0.14095365865E+04 0.  0.
        5    1    3    3  502    0  0.34233763105E+02 -0.50499415401E+02 -0.44721471547E+03  0.45138147195E+03  0.46999998093E+01 0. -1.
       -5    1    3    3    0  502 -0.34233763105E+02  0.50499415401E+02  0.11004778188E+04  0.11021776904E+04  0.46999998093E+01 0.  1.
</event>
<event>
 5   0  0.1120053E-03  0.1360766E+04  0.7818609E-02  0.8982718E-01
       -2   -1    0    0    0  501  0.00000000000E+00  0.00000000000E+00  0.11767526763E+04  0.11767526763E+04  0.25500000920E-02 0.  1.
        2   -1    0    0  501    0  0.00000000000E+00  0.00000000000E+00 -0.39338852494E+03  0.39338852495E+03  0.25500000920E-02 0. -1.
    10030    2    1    2    0    0  0.00000000000E+00  0.00000000000E+00  0.78336415134E+03  0.15701412012E+04  0.13607659601E+04 0.  0.
        2    1    3    3  502    0  0.10263445689E+03  0.14921552729E+03 -0.36506551677E+03  0.40751924723E+03  0.25500000920E-02 0. -1.
       -2    1    3    3    0  502 -0.10263445689E+03 -0.14921552729E+03  0.11484296681E+04  0.11626219540E+04  0.25500000920E-02 0.  1.
</event>
<event>
 5   0  0.6097538E-04  0.1432742E+04  0.7818609E-02  0.8930453E-01
       -1   -1    0    0    0  501  0.00000000000E+00  0.00000000000E+00  0.93276880931E+03  0.93276880933E+03  0.50400001928E-02 0.  1.
        1   -1    0    0  501    0  0.00000000000E+00  0.00000000000E+00 -0.55017675119E+03  0.55017675121E+03  0.50400001928E-02 0. -1.
    10030    2    1    2    0    0  0.00000000000E+00  0.00000000000E+00  0.38259205813E+03  0.14829455605E+04  0.14327424237E+04 0.  0.
        2    1    3    3  502    0  0.33574926425E+03  0.11782990319E+03 -0.45224268283E+03  0.57544321936E+03  0.25500000920E-02 0. -1.
       -2    1    3    3    0  502 -0.33574926425E+03 -0.11782990319E+03  0.83483474096E+03  0.90750234118E+03  0.25500000920E-02 0.  1.
</event>
<event>
 5   0  0.1175146E-03  0.1394523E+04  0.7818609E-02  0.8957793E-01
        2   -1    0    0  501    0  0.00000000000E+00  0.00000000000E+00  0.10281496822E+04  0.10281496822E+04  0.25500000920E-02 0. -1.
       -2   -1    0    0    0  501  0.00000000000E+00  0.00000000000E+00 -0.47286269436E+03  0.47286269437E+03  0.25500000920E-02 0.  1.
    10030    2    1    2    0    0  0.00000000000E+00  0.00000000000E+00  0.55528698783E+03  0.15010123766E+04  0.13945230424E+04 0.  0.
        1    1    3    3  502    0 -0.44698258407E+03 -0.46041991803E+03 -0.15936630907E+02  0.64189867395E+03  0.50400001928E-02 0.  1.
       -1    1    3    3    0  502  0.44698258407E+03  0.46041991803E+03  0.57122361874E+03  0.85911370261E+03  0.50400001928E-02 0. -1.
</event>
<event>
 5   0  0.4176125E-04  0.1422887E+04  0.7818609E-02  0.8937416E-01
       -3   -1    0    0    0  501  0.00000000000E+00  0.00000000000E+00  0.57958779558E+03  0.57958780438E+03  0.10100000352E+00 0.  1.
        3   -1    0    0  501    0  0.00000000000E+00  0.00000000000E+00 -0.87329654407E+03  0.87329654991E+03  0.10100000352E+00 0. -1.
    10030    2    1    2    0    0  0.00000000000E+00  0.00000000000E+00 -0.29370874849E+03  0.14528843543E+04  0.14228872471E+04 0.  0.
        3    1    3    3  502    0 -0.11250298507E+03  0.20204775511E+03  0.54013857724E+03  0.58756268587E+03  0.10100000352E+00 0.  1.
       -3    1    3    3    0  502  0.11250298507E+03 -0.20204775511E+03 -0.83384732574E+03  0.86532166842E+03  0.10100000352E+00 0. -1.
</event>
<event>
 5   0  0.6097538E-04  0.1395495E+04  0.7818609E-02  0.8957086E-01
       -1   -1    0    0    0  501  0.00000000000E+00  0.00000000000E+00  0.39998863610E+03  0.39998863614E+03  0.50400001928E-02 0.  1.
        1   -1    0    0  501    0  0.00000000000E+00  0.00000000000E+00 -0.12171637407E+04  0.12171637407E+04  0.50400001928E-02 0. -1.
    10030    2    1    2    0    0  0.00000000000E+00  0.00000000000E+00 -0.81717510457E+03  0.16171523768E+04  0.13954951302E+04 0.  0.
        2    1    3    3  502    0  0.36379605298E+03  0.59540064291E+03 -0.40688014800E+03  0.80771340745E+03  0.25500000920E-02 0.  1.
       -2    1    3    3    0  502 -0.36379605298E+03 -0.59540064291E+03 -0.41029495657E+03  0.80943896937E+03  0.25500000920E-02 0. -1.
</event>
<event>
 5   0  0.5875298E-04  0.1337444E+04  0.7818609E-02  0.9000387E-01
       -1   -1    0    0    0  501  0.00000000000E+00  0.00000000000E+00  0.18833767469E+03  0.18833767476E+03  0.50400001928E-02 0.  1.
        1   -1    0    0  501    0  0.00000000000E+00  0.00000000000E+00 -0.23744015227E+04  0.23744015227E+04  0.50400001928E-02 0. -1.
    10030    2    1    2    0    0  0.00000000000E+00  0.00000000000E+00 -0.21860638480E+04  0.25627391975E+04  0.13374442219E+04 0.  0.
        1    1    3    3  502    0  0.62092241707E+03 -0.24214594693E+03 -0.11981575665E+04  0.13710437126E+04  0.50400001928E-02 0.  1.
       -1    1    3    3    0  502 -0.62092241707E+03  0.24214594693E+03 -0.98790628152E+03  0.11916954849E+04  0.50400001928E-02 0. -1.
</event>
<event>
 5   0  0.6114266E-04  0.1397838E+04  0.7818609E-02  0.8955385E-01
       -1   -1    0    0    0  501  0.00000000000E+00  0.00000000000E+00  0.31934477814E+03  0.31934477818E+03  0.50400001928E-02 0.  1.
        1   -1    0    0  501    0  0.00000000000E+00  0.00000000000E+00 -0.15296553574E+04  0.15296553574E+04  0.50400001928E-02 0. -1.
    10030    2    1    2    0    0  0.00000000000E+00  0.00000000000E+00 -0.12103105792E+04  0.18490001355E+04  0.13978375453E+04 0.  0.
        3    1    3    3  502    0  0.24067305415E+03  0.49861861660E+03 -0.11693751783E+04  0.12938247028E+04  0.10100000352E+00 0. -1.
       -3    1    3    3    0  502 -0.24067305415E+03 -0.49861861660E+03 -0.40935400899E+02  0.55517543269E+03  0.10100000352E+00 0.  1.
</event>
<event>
 5   0  0.6097538E-04  0.1403357E+04  0.7818609E-02  0.8951392E-01
        1   -1    0    0  501    0  0.00000000000E+00  0.00000000000E+00  0.14844779142E+04  0.14844779142E+04  0.50400001928E-02 0. -1.
       -1   -1    0    0    0  501  0.00000000000E+00  0.00000000000E+00 -0.33166709062E+03  0.33166709066E+03  0.50400001928E-02 0.  1.
    10030    2    1    2    0    0  0.00000000000E+00  0.00000000000E+00  0.11528108236E+04  0.18161450049E+04  0.14033566488E+04 0.  0.
        2    1    3    3  502    0  0.32718909952E+03  0.15457872359E+03  0.13544055101E+04  0.14019135403E+04  0.25500000920E-02 0. -1.
       -2    1    3    3    0  502 -0.32718909952E+03 -0.15457872359E+03 -0.20159468651E+03  0.41423146460E+03  0.25500000920E-02 0.  1.
</event>
<event>
 5   0  0.6114266E-04  0.1414630E+04  0.7818609E-02  0.8943296E-01
       -1   -1    0    0    0  501  0.00000000000E+00  0.00000000000E+00  0.39438238299E+03  0.39438238302E+03  0.50400001928E-02 0.  1.
        1   -1    0    0  501    0  0.00000000000E+00  0.00000000000E+00 -0.12685519541E+04  0.12685519541E+04  0.50400001928E-02 0. -1.
    10030    2    1    2    0    0  0.00000000000E+00  0.00000000000E+00 -0.87416957114E+03  0.16629343372E+04  0.14146300473E+04 0.  0.
        3    1    3    3  502    0  0.56310014616E+03  0.18017265386E+03  0.19332104874E+02  0.59153841826E+03  0.10100000352E+00 0.  1.
       -3    1    3    3    0  502 -0.56310014616E+03 -0.18017265386E+03 -0.89350167601E+03  0.10713959189E+04  0.10100000352E+00 0. -1.
</event>
<event>
 5   0  0.5875298E-04  0.1431476E+04  0.7818609E-02  0.8931345E-01
       -1   -1    0    0    0  501  0.00000000000E+00  0.00000000000E+00  0.40055477135E+03  0.40055477138E+03  0.50400001928E-02 0.  1.
        1   -1    0    0  501    0  0.00000000000E+00  0.00000000000E+00 -0.12789281036E+04  0.12789281036E+04  0.50400001928E-02 0. -1.
    10030    2    1    2    0    0  0.00000000000E+00  0.00000000000E+00 -0.87837333222E+03  0.16794828750E+04  0.14314758177E+04 0.  0.
        1    1    3    3  502    0 -0.14643128167E+03 -0.43409008880E+03  0.20600037773E+03  0.50230715812E+03  0.50400001928E-02 0.  1.
       -1    1    3    3    0  502  0.14643128167E+03  0.43409008880E+03 -0.10843737100E+04  0.11771757168E+04  0.50400001928E-02 0. -1.
</event>
<event>
 5   0  0.6097538E-04  0.1399924E+04  0.7818609E-02  0.8953874E-01
        1   -1    0    0  501    0  0.00000000000E+00  0.00000000000E+00  0.82546869664E+03  0.82546869666E+03  0.50400001928E-02 0.  1.
       -1   -1    0    0    0  501  0.00000000000E+00  0.00000000000E+00 -0.59353761182E+03  0.59353761184E+03  0.50400001928E-02 0. -1.
    10030    2    1    2    0    0  0.00000000000E+00  0.00000000000E+00  0.23193108483E+03  0.14190063085E+04  0.13999238820E+04 0.  0.
        2    1    3    3  502    0  0.64035420988E+03 -0.52893534353E+02 -0.16547998964E+03  0.66350197217E+03  0.25500000920E-02 0. -1.
       -2    1    3    3    0  502 -0.64035420988E+03  0.52893534353E+02  0.39741107447E+03  0.75550433633E+03  0.25500000920E-02 0.  1.
</event>
<event>
 5   0  0.1120053E-03  0.1400991E+04  0.7818609E-02  0.8953101E-01
       -2   -1    0    0    0  501  0.00000000000E+00  0.00000000000E+00  0.11138202128E+04  0.11138202128E+04  0.25500000920E-02 0. -1.
        2   -1    0    0  501    0  0.00000000000E+00  0.00000000000E+00 -0.44055071539E+03  0.44055071540E+03  0.25500000920E-02 0.  1.
    10030    2    1    2    0    0  0.00000000000E+00  0.00000000000E+00  0.67326949741E+03  0.15543709282E+04  0.14009914940E+04 0.  0.
        2    1    3    3  502    0  0.19434108511E+03  0.34010311982E+03  0.98095060167E+03  0.10562682767E+04  0.25500000920E-02 0. -1.
       -2    1    3    3    0  502 -0.19434108511E+03 -0.34010311982E+03 -0.30768110427E+03  0.49810265147E+03  0.25500000920E-02 0.  1.
</event>
<event>
 5   0  0.6097538E-04  0.1403313E+04  0.7818609E-02  0.8951424E-01
       -1   -1    0    0    0  501  0.00000000000E+00  0.00000000000E+00  0.67799867044E+03  0.67799867046E+03  0.50400001928E-02 0. -1.
        1   -1    0    0  501    0  0.00000000000E+00  0.00000000000E+00 -0.72613961158E+03  0.72613961160E+03  0.50400001928E-02 0.  1.
    10030    2    1    2    0    0  0.00000000000E+00  0.00000000000E+00 -0.48140941141E+02  0.14041382821E+04  0.14033127823E+04 0.  0.
        2    1    3    3  502    0  0.25294657094E+03  0.63222990469E+03 -0.19335944963E+03  0.70787322092E+03  0.25500000920E-02 0.  1.
       -2    1    3    3    0  502 -0.25294657094E+03 -0.63222990469E+03  0.14521850849E+03  0.69626506113E+03  0.25500000920E-02 0. -1.
</event>
<event>
 5   0  0.6153318E-04  0.1367060E+04  0.7818609E-02  0.8978013E-01
       -1   -1    0    0    0  501  0.00000000000E+00  0.00000000000E+00  0.24820739276E+03  0.24820739281E+03  0.50400001928E-02 0. -1.
        1   -1    0    0  501    0  0.00000000000E+00  0.00000000000E+00 -0.18823504477E+04  0.18823504477E+04  0.50400001928E-02 0.  1.
    10030    2    1    2    0    0  0.00000000000E+00  0.00000000000E+00 -0.16341430549E+04  0.21305578405E+04  0.13670600527E+04 0.  0.
        5    1    3    3  502    0  0.31360315936E+03  0.48487766649E+03 -0.24712644818E+03  0.62812965573E+03  0.46999998093E+01 0. -1.
       -5    1    3    3    0  502 -0.31360315936E+03 -0.48487766649E+03 -0.13870166067E+04  0.15024281848E+04  0.46999998093E+01 0.  1.
</event>
<event>
 5   0  0.4176125E-04  0.1409240E+04  0.7818609E-02  0.8947157E-01
       -3   -1    0    0    0  501  0.00000000000E+00  0.00000000000E+00  0.36894664407E+03  0.36894665790E+03  0.10100000352E+00 0. -1.
        3   -1    0    0  501    0  0.00000000000E+00  0.00000000000E+00 -0.13456939359E+04  0.13456939397E+04  0.10100000352E+00 0.  1.
    10030    2    1    2    0    0  0.00000000000E+00  0.00000000000E+00 -0.97674729181E+03  0.17146405976E+04  0.14092399039E+04 0.  0.
        1    1    3    3  502    0 -0.19963379273E+03 -0.48920525686E+03  0.78820663931E+02  0.53421730749E+03  0.50400001928E-02 0. -1.
       -1    1    3    3    0  502  0.19963379273E+03  0.48920525686E+03 -0.10555679557E+04  0.11804232901E+04  0.50400001928E-02 0.  1.
</event>
<event>
 5   0  0.1108819E-03  0.1208228E+04  0.7818609E-02  0.9105685E-01
        2   -1    0    0  501    0  0.00000000000E+00  0.00000000000E+00  0.19620939584E+04  0.19620939584E+04  0.25500000920E-02 0. -1.
       -2   -1    0    0    0  501  0.00000000000E+00  0.00000000000E+00 -0.18600214735E+03  0.18600214737E+03  0.25500000920E-02 0.  1.
    10030    2    1    2    0    0  0.00000000000E+00  0.00000000000E+00  0.17760918110E+04  0.21480961058E+04  0.12082279414E+04 0.  0.
        3    1    3    3  502    0 -0.42793216665E+03  0.24761562748E+03  0.15052432063E+04  0.15843599839E+04  0.10100000352E+00 0. -1.
       -3    1    3    3    0  502  0.42793216665E+03 -0.24761562748E+03  0.27084860473E+03  0.56373612188E+03  0.10100000352E+00 0.  1.
</event>
<event>
 5   0  0.1108819E-03  0.1429858E+04  0.7818609E-02  0.8932485E-01
        2   -1    0    0  501    0  0.00000000000E+00  0.00000000000E+00  0.12135900544E+04  0.12135900544E+04  0.25500000920E-02 0. -1.
       -2   -1    0    0    0  501  0.00000000000E+00  0.00000000000E+00 -0.42116673246E+03  0.42116673247E+03  0.25500000920E-02 0.  1.
    10030    2    1    2    0    0  0.00000000000E+00  0.00000000000E+00  0.79242332191E+03  0.16347567868E+04  0.14298583954E+04 0.  0.
        3    1    3    3  502    0 -0.25735892219E+03  0.69207078942E+02  0.11546775552E+04  0.11850331224E+04  0.10100000352E+00 0. -1.
       -3    1    3    3    0  502  0.25735892219E+03 -0.69207078942E+02 -0.36225423327E+03  0.44972366441E+03  0.10100000352E+00 0.  1.
</event>
<event>
 5   0  0.1098949E-03  0.1400349E+04  0.7818609E-02  0.8953566E-01
       -2   -1    0    0    0  501  0.00000000000E+00  0.00000000000E+00  0.46219805017E+03  0.46219805018E+03  0.25500000920E-02 0.  1.
        2   -1    0    0  501    0  0.00000000000E+00  0.00000000000E+00 -0.10606808436E+04  0.10606808436E+04  0.25500000920E-02 0. -1.
    10030    2    1    2    0    0  0.00000000000E+00  0.00000000000E+00 -0.59848279339E+03  0.15228788937E+04  0.14003494103E+04 0.  0.
        4    1    3    3  502    0 -0.49978681550E+03 -0.91952107512E+01  0.23393452049E+03  0.55190432652E+03  0.12699999809E+01 0.  1.
       -4    1    3    3    0  502  0.49978681550E+03  0.91952107512E+01 -0.83241731388E+03  0.97097456723E+03  0.12699999809E+01 0. -1.
</event>
<event>
 5   0  0.1108819E-03  0.1396488E+04  0.7818609E-02  0.8956364E-01
        2   -1    0    0  501    0  0.00000000000E+00  0.00000000000E+00  0.79435319939E+03  0.79435319940E+03  0.25500000920E-02 0.  1.
       -2   -1    0    0    0  501  0.00000000000E+00  0.00000000000E+00 -0.61376344838E+03  0.61376344838E+03  0.25500000920E-02 0. -1.
    10030    2    1    2    0    0  0.00000000000E+00  0.00000000000E+00  0.18058975102E+03  0.14081166478E+04  0.13964883944E+04 0.  0.
        3    1    3    3  502    0  0.35908310742E+03  0.54746355968E+03 -0.15439410703E+03  0.67267717198E+03  0.10100000352E+00 0. -1.
       -3    1    3    3    0  502 -0.35908310742E+03 -0.54746355968E+03  0.33498385804E+03  0.73543947580E+03  0.10100000352E+00 0.  1.
</event>
<event>
 5   0  0.1175146E-03  0.1385765E+04  0.7818609E-02  0.8964188E-01
       -2   -1    0    0    0  501  0.00000000000E+00  0.00000000000E+00  0.57169938535E+03  0.57169938535E+03  0.25500000920E-02 0.  1.
        2   -1    0    0  501    0  0.00000000000E+00  0.00000000000E+00 -0.83975222862E+03  0.83975222862E+03  0.25500000920E-02 0. -1.
    10030    2    1    2    0    0  0.00000000000E+00  0.00000000000E+00 -0.26805284327E+03  0.14114516140E+04  0.13857645297E+04 0.  0.
        1    1    3    3  502    0 -0.11637991950E+03 -0.54807791283E+03  0.28114699194E+03  0.62687902764E+03  0.50400001928E-02 0.  1.
       -1    1    3    3    0  502  0.11637991950E+03  0.54807791283E+03 -0.54919983520E+03  0.78457258633E+03  0.50400001928E-02 0. -1.
</event>
<event>
 5   0  0.1095119E-03  0.1309316E+04  0.7818609E-02  0.9022210E-01
        2   -1    0    0  501    0  0.00000000000E+00  0.00000000000E+00  0.63550794473E+03  0.63550794473E+03  0.25500000920E-02 0. -1.
       -2   -1    0    0    0  501  0.00000000000E+00  0.00000000000E+00 -0.67438500221E+03  0.67438500222E+03  0.25500000920E-02 0.  1.
    10030    2    1    2    0    0  0.00000000000E+00  0.00000000000E+00 -0.38877057488E+02  0.13098929470E+04  0.13093158927E+04 0.  0.
        5    1    3    3  502    0  0.19323535854E+03  0.11345504969E+03 -0.63480553470E+03  0.67321030070E+03  0.46999998093E+01 0.  1.
       -5    1    3    3    0  502 -0.19323535854E+03 -0.11345504969E+03  0.59592847721E+03  0.63668264625E+03  0.46999998093E+01 0. -1.
</event>
<event>
 5   0  0.1095119E-03  0.1354952E+04  0.7818609E-02  0.8987088E-01
        2   -1    0    0  501    0  0.00000000000E+00  0.00000000000E+00  0.83937236830E+03  0.83937236830E+03  0.25500000920E-02 0.  1.
       -2   -1    0    0    0  501  0.00000000000E+00  0.00000000000E+00 -0.54680594410E+03  0.54680594410E+03  0.25500000920E-02 0. -1.
    10030    2    1    2    0    0  0.00000000000E+00  0.00000000000E+00  0.29256642420E+03  0.13861783124E+04  0.13549521029E+04 0.  0.
        5    1    3    3  502    0  0.15960895736E+03  0.41089321827E+03  0.67257395929E+03  0.80416794067E+03  0.46999998093E+01 0.  1.
       -5    1    3    3    0  502 -0.15960895736E+03 -0.41089321827E+03 -0.38000753509E+03  0.58201037174E+03  0.46999998093E+01 0. -1.
</event>
<event>
 5   0  0.6114266E-04  0.1378340E+04  0.7818609E-02  0.8969648E-01
        1   -1    0    0  501    0  0.00000000000E+00  0.00000000000E+00  0.96838010601E+03  0.96838010602E+03  0.50400001928E-02 0. -1.
       -1   -1    0    0    0  501  0.00000000000E+00  0.00000000000E+00 -0.49046363260E+03  0.49046363263E+03  0.50400001928E-02 0.  1.
    10030    2    1    2    0    0  0.00000000000E+00  0.00000000000E+00  0.47791647341E+03  0.14588437386E+04  0.13783399066E+04 0.  0.
        3    1    3    3  502    0 -0.18449706671E+03  0.65887087218E+03  0.32627015843E+03  0.75802521087E+03  0.10100000352E+00 0. -1.
       -3    1    3    3    0  502  0.18449706671E+03 -0.65887087218E+03  0.15164631497E+03  0.70081852778E+03  0.10100000352E+00 0.  1.
</event>
<event>
 5   0  0.5875298E-04  0.1387914E+04  0.7818609E-02  0.8962614E-01
        1   -1    0    0  501    0  0.00000000000E+00  0.00000000000E+00  0.15568505799E+04  0.15568505799E+04  0.50400001928E-02 0.  1.
       -1   -1    0    0    0  501  0.00000000000E+00  0.00000000000E+00 -0.30932716280E+03  0.30932716284E+03  0.50400001928E-02 0. -1.
    10030    2    1    2    0    0  0.00000000000E+00  0.00000000000E+00  0.12475234171E+04  0.18661777428E+04  0.13879137910E+04 0.  0.
        1    1    3    3  502    0  0.25039717882E+02 -0.98513819776E+02  0.15467868470E+04  0.15501230630E+04  0.50400001928E-02 0.  1.
       -1    1    3    3    0  502 -0.25039717882E+02  0.98513819776E+02 -0.29926342988E+03  0.31605467983E+03  0.50400001928E-02 0. -1.
</event>
<event>
 5   0  0.6114266E-04  0.1410056E+04  0.7818609E-02  0.8946572E-01
        1   -1    0    0  501    0  0.00000000000E+00  0.00000000000E+00  0.47270423644E+03  0.47270423647E+03  0.50400001928E-02 0. -1.
       -1   -1    0    0    0  501  0.00000000000E+00  0.00000000000E+00 -0.10515337008E+04  0.10515337008E+04  0.50400001928E-02 0.  1.
    10030    2    1    2    0    0  0.00000000000E+00  0.00000000000E+00 -0.57882946435E+03  0.15242379373E+04  0.14100559353E+04 0.  0.
        3    1    3    3  502    0 -0.69600813588E+03 -0.10429531290E+03 -0.24407052072E+03  0.74489950113E+03  0.10100000352E+00 0. -1.
       -3    1    3    3    0  502  0.69600813588E+03  0.10429531290E+03 -0.33475894363E+03  0.77933843614E+03  0.10100000352E+00 0.  1.
</event>
<event>
 5   0  0.5875298E-04  0.1397810E+04  0.7818609E-02  0.8955405E-01
       -1   -1    0    0    0  501  0.00000000000E+00  0.00000000000E+00  0.15819884594E+03  0.15819884602E+03  0.50400001928E-02 0.  1.
        1   -1    0    0  501    0  0.00000000000E+00  0.00000000000E+00 -0.30876858705E+04  0.30876858705E+04  0.50400001928E-02 0. -1.
    10030    2    1    2    0    0  0.00000000000E+00  0.00000000000E+00 -0.29294870245E+04  0.32458847165E+04  0.13978102038E+04 0.  0.
        1    1    3    3  502    0  0.39280673283E+03  0.55397300706E+03 -0.18483163230E+04  0.19691258090E+04  0.50400001928E-02 0. -1.
       -1    1    3    3    0  502 -0.39280673283E+03 -0.55397300706E+03 -0.10811707016E+04  0.12767589075E+04  0.50400001928E-02 0.  1.
</event>
<event>
 5   0  0.6194742E-04  0.1394606E+04  0.7818609E-02  0.8957732E-01
       -1   -1    0    0    0  501  0.00000000000E+00  0.00000000000E+00  0.32205371568E+03  0.32205371572E+03  0.50400001928E-02 0. -1.
        1   -1    0    0  501    0  0.00000000000E+00  0.00000000000E+00 -0.15097842738E+04  0.15097842738E+04  0.50400001928E-02 0.  1.
    10030    2    1    2    0    0  0.00000000000E+00  0.00000000000E+00 -0.11877305582E+04  0.18318379896E+04  0.13946062316E+04 0.  0.
        4    1    3    3  502    0 -0.68637442107E+03 -0.88088507548E+02 -0.48117360955E+03  0.84285175832E+03  0.12699999809E+01 0. -1.
       -4    1    3    3    0  502  0.68637442107E+03  0.88088507548E+02 -0.70655694860E+03  0.98898623124E+03  0.12699999809E+01 0.  1.
</event>
<event>
 5   0  0.1098949E-03  0.1399442E+04  0.7818609E-02  0.8954222E-01
       -2   -1    0    0    0  501  0.00000000000E+00  0.00000000000E+00  0.10562685167E+04  0.10562685167E+04  0.25500000920E-02 0.  1.
        2   -1    0    0  501    0  0.00000000000E+00  0.00000000000E+00 -0.46352759762E+03  0.46352759763E+03  0.25500000920E-02 0. -1.
    10030    2    1    2    0    0  0.00000000000E+00  0.00000000000E+00  0.59274091905E+03  0.15197961143E+04  0.13994421860E+04 0.  0.
        4    1    3    3  502    0 -0.40051412314E+03 -0.36431524494E+02  0.91821333520E+03  0.10024251397E+04  0.12699999809E+01 0.  1.
       -4    1    3    3    0  502  0.40051412314E+03  0.36431524494E+02 -0.32547241616E+03  0.51737097463E+03  0.12699999809E+01 0. -1.
</event>
<event>
 5   0  0.1095119E-03  0.1399852E+04  0.7818609E-02  0.8953926E-01
        2   -1    0    0  501    0  0.00000000000E+00  0.00000000000E+00  0.60166617472E+03  0.60166617472E+03  0.25500000920E-02 0. -1.
       -2   -1    0    0    0  501  0.00000000000E+00  0.00000000000E+00 -0.81423258751E+03  0.81423258752E+03  0.25500000920E-02 0.  1.
    10030    2    1    2    0    0  0.00000000000E+00  0.00000000000E+00 -0.21256641280E+03  0.14158987622E+04  0.13998517154E+04 0.  0.
        5    1    3    3  502    0  0.57320548126E+03 -0.27871365778E+03 -0.39878381580E+03  0.75186198768E+03  0.46999998093E+01 0.  1.
       -5    1    3    3    0  502 -0.57320548126E+03  0.27871365778E+03  0.18621740301E+03  0.66403677455E+03  0.46999998093E+01 0. -1.
</event>
<event>
 5   0  0.5875298E-04  0.1373799E+04  0.7818609E-02  0.8973006E-01
        1   -1    0    0  501    0  0.00000000000E+00  0.00000000000E+00  0.39155947499E+03  0.39155947503E+03  0.50400001928E-02 0.  1.
       -1   -1    0    0    0  501  0.00000000000E+00  0.00000000000E+00 -0.12050044827E+04  0.12050044827E+04  0.50400001928E-02 0. -1.
    10030    2    1    2    0    0  0.00000000000E+00  0.00000000000E+00 -0.81344500768E+03  0.15965639577E+04  0.13737989993E+04 0.  0.
        1    1    3    3  502    0  0.49682291152E+03 -0.44028918259E+03 -0.61181312885E+03  0.90277509623E+03  0.50400001928E-02 0.  1.
       -1    1    3    3    0  502 -0.49682291152E+03  0.44028918259E+03 -0.20163187882E+03  0.69378886147E+03  0.50400001928E-02 0. -1.
</event>
<event>
 5   0  0.1108819E-03  0.1427141E+04  0.7818609E-02  0.8934403E-01
       -2   -1    0    0    0  501  0.00000000000E+00  0.00000000000E+00  0.35413949332E+03  0.35413949333E+03  0.25500000920E-02 0. -1.
        2   -1    0    0  501    0  0.00000000000E+00  0.00000000000E+00 -0.14378031980E+04  0.14378031981E+04  0.25500000920E-02 0.  1.
    10030    2    1    2    0    0  0.00000000000E+00  0.00000000000E+00 -0.10836637047E+04  0.17919426914E+04  0.14271410527E+04 0.  0.
        3    1    3    3  502    0 -0.63211299521E+03  0.32946614338E+03 -0.58286782232E+03  0.92078753621E+03  0.10100000352E+00 0.  1.
       -3    1    3    3    0  502  0.63211299521E+03 -0.32946614338E+03 -0.50079588241E+03  0.87115515517E+03  0.10100000352E+00 0. -1.
</event>
<event>
 5   0  0.1175146E-03  0.1399378E+04  0.7818609E-02  0.8954269E-01
        2   -1    0    0  501    0  0.00000000000E+00  0.00000000000E+00  0.79565403626E+03  0.79565403627E+03  0.25500000920E-02 0.  1.
       -2   -1    0    0    0  501  0.00000000000E+00  0.00000000000E+00 -0.61529822660E+03  0.61529822661E+03  0.25500000920E-02 0. -1.
    10030    2    1    2    0    0  0.00000000000E+00  0.00000000000E+00  0.18035580966E+03  0.14109522629E+04  0.13993777439E+04 0.  0.
        1    1    3    3  502    0 -0.11701806166E+03  0.16748888211E+03  0.76490554588E+03  0.79172359225E+03  0.50400001928E-02 0.  1.
       -1    1    3    3    0  502  0.11701806166E+03 -0.16748888211E+03 -0.58454973622E+03  0.61922867062E+03  0.50400001928E-02 0. -1.
</event>
<event>
 5   0  0.1120053E-03  0.1388171E+04  0.7818609E-02  0.8962426E-01
       -2   -1    0    0    0  501  0.00000000000E+00  0.00000000000E+00  0.37517927390E+03  0.37517927390E+03  0.25500000920E-02 0. -1.
        2   -1    0    0  501    0  0.00000000000E+00  0.00000000000E+00 -0.12840646793E+04  0.12840646793E+04  0.25500000920E-02 0.  1.
    10030    2    1    2    0    0  0.00000000000E+00  0.00000000000E+00 -0.90888540542E+03  0.16592439532E+04  0.13881706725E+04 0.  0.
        2    1    3    3  502    0 -0.65679736538E+02  0.42337247161E+03 -0.11071501374E+04  0.11871560573E+04  0.25500000920E-02 0.  1.
       -2    1    3    3    0  502  0.65679736538E+02 -0.42337247161E+03  0.19826473203E+03  0.47208789593E+03  0.25500000920E-02 0. -1.
</event>
<event>
 5   0  0.6097538E-04  0.1393008E+04  0.7818609E-02  0.8958896E-01
       -1   -1    0    0    0  501  0.00000000000E+00  0.00000000000E+00  0.52226777696E+03  0.52226777698E+03  0.50400001928E-02 0.  1.
        1   -1    0    0  501    0  0.00000000000E+00  0.00000000000E+00 -0.92886738855E+03  0.92886738857E+03  0.50400001928E-02 0. -1.
    10030    2    1    2    0    0  0.00000000000E+00  0.00000000000E+00 -0.40659961159E+03  0.14511351656E+04  0.13930075465E+04 0.  0.
        2    1    3    3  502    0  0.10588019262E+03 -0.67055109513E+03 -0.36558259449E+03  0.77103827387E+03  0.25500000920E-02 0.  1.
       -2    1    3    3    0  502 -0.10588019262E+03  0.67055109513E+03 -0.41017017102E+02  0.68009689168E+03  0.25500000920E-02 0. -1.
</event>
<event>
 5   0  0.6194742E-04  0.1369970E+04  0.7818609E-02  0.8975848E-01
        1   -1    0    0  501    0  0.00000000000E+00  0.00000000000E+00  0.72813124939E+03  0.72813124941E+03  0.50400001928E-02 0. -1.
       -1   -1    0    0    0  501  0.00000000000E+00  0.00000000000E+00 -0.64439509857E+03  0.64439509859E+03  0.50400001928E-02 0.  1.
    10030    2    1    2    0    0  0.00000000000E+00  0.00000000000E+00  0.83736150821E+02  0.13725263480E+04  0.13699696467E+04 0.  0.
        4    1    3    3  502    0  0.45189949481E+03  0.14982339649E+03 -0.45153695538E+03  0.65616113761E+03  0.12699999809E+01 0.  1.
       -4    1    3    3    0  502 -0.45189949481E+03 -0.14982339649E+03  0.53527310620E+03  0.71636521039E+03  0.12699999809E+01 0. -1.
</event>
<event>
 5   0  0.1095119E-03  0.1344623E+04  0.7818609E-02  0.8994909E-01
       -2   -1    0    0    0  501  0.00000000000E+00  0.00000000000E+00  0.47062861523E+03  0.47062861524E+03  0.25500000920E-02 0. -1.
        2   -1    0    0  501    0  0.00000000000E+00  0.00000000000E+00 -0.96042306478E+03  0.96042306479E+03  0.25500000920E-02 0.  1.
    10030    2    1    2    0    0  0.00000000000E+00  0.00000000000E+00 -0.48979444955E+03  0.14310516800E+04  0.13446227382E+04 0.  0.
        5    1    3    3  502    0 -0.26274545081E+03  0.77255968101E+02  0.40855252516E+03  0.49187489501E+03  0.46999998093E+01 0. -1.
       -5    1    3    3    0  502  0.26274545081E+03 -0.77255968101E+02 -0.89834697472E+03  0.93917678501E+03  0.46999998093E+01 0.  1.
</event>
<event>
 5   0  0.4176125E-04  0.1416608E+04  0.7818609E-02  0.8941884E-01
        4   -1    0    0  501    0  0.00000000000E+00  0.00000000000E+00  0.40670058669E+03  0.40670256959E+03  0.12699999809E+01 0. -1.
       -4   -1    0    0    0  501  0.00000000000E+00  0.00000000000E+00 -0.12335665095E+04  0.12335671632E+04  0.12699999809E+01 0.  1.
    10030    2    1    2    0    0  0.00000000000E+00  0.00000000000E+00 -0.82686592279E+03  0.16402697328E+04  0.14166077587E+04 0.  0.
        5    1    3    3  502    0  0.36828846786E+03 -0.45151480182E+03  0.52851875934E+02  0.58507898835E+03  0.46999998093E+01 0. -1.
       -5    1    3    3    0  502 -0.36828846786E+03  0.45151480182E+03 -0.87971779872E+03  0.10551907445E+04  0.46999998093E+01 0.  1.
</event>
<event>
 5   0  0.6153318E-04  0.1403922E+04  0.7818609E-02  0.8950985E-01
        1   -1    0    0  501    0  0.00000000000E+00  0.00000000000E+00  0.40175762951E+03  0.40175762954E+03  0.50400001928E-02 0.  1.
       -1   -1    0    0    0  501  0.00000000000E+00  0.00000000000E+00 -0.12264837425E+04  0.12264837425E+04  0.50400001928E-02 0. -1.
    10030    2    1    2    0    0  0.00000000000E+00  0.00000000000E+00 -0.82472611302E+03  0.16282413721E+04  0.14039219367E+04 0.  0.
        5    1    3    3  502    0 -0.55589207050E+03  0.31234573598E+03 -0.71949663893E+02  0.64169673286E+03  0.46999998093E+01 0.  1.
       -5    1    3    3    0  502  0.55589207050E+03 -0.31234573598E+03 -0.75277644913E+03  0.98654463923E+03  0.46999998093E+01 0. -1.
</event>
<event>
 5   0  0.6194742E-04  0.1341847E+04  0.7818609E-02  0.8997023E-01
        1   -1    0    0  501    0  0.00000000000E+00  0.00000000000E+00  0.10203459561E+04  0.10203459561E+04  0.50400001928E-02 0. -1.
       -1   -1    0    0    0  501  0.00000000000E+00  0.00000000000E+00 -0.44116273844E+03  0.44116273847E+03  0.50400001928E-02 0.  1.
    10030    2    1    2    0    0  0.00000000000E+00  0.00000000000E+00  0.57918321764E+03  0.14615086946E+04  0.13418474074E+04 0.  0.
        4    1    3    3  502    0 -0.49398838892E+03  0.34655492858E+03  0.60902343902E+03  0.85734241064E+03  0.12699999809E+01 0. -1.
       -4    1    3    3    0  502  0.49398838892E+03 -0.34655492858E+03 -0.29840221379E+02  0.60416628392E+03  0.12699999809E+01 0.  1.
</event>
<event>
 5   0  0.6114266E-04  0.1381382E+04  0.7818609E-02  0.8967407E-01
       -1   -1    0    0    0  501  0.00000000000E+00  0.00000000000E+00  0.48041159489E+03  0.48041159492E+03  0.50400001928E-02 0. -1.
        1   -1    0    0  501    0  0.00000000000E+00  0.00000000000E+00 -0.99301045898E+03  0.99301045899E+03  0.50400001928E-02 0.  1.
    10030    2    1    2    0    0  0.00000000000E+00  0.00000000000E+00 -0.51259886409E+03  0.14734220539E+04  0.13813815380E+04 0.  0.
        3    1    3    3  502    0 -0.65129193327E+03  0.13814335092E+03 -0.60234043810E+02  0.66850049961E+03  0.10100000352E+00 0.  1.
       -3    1    3    3    0  502  0.65129193327E+03 -0.13814335092E+03 -0.45236482028E+03  0.80492155430E+03  0.10100000352E+00 0. -1.
</event>
<event>
 5   0  0.6153318E-04  0.1264672E+04  0.7818609E-02  0.9058059E-01
       -1   -1    0    0    0  501  0.00000000000E+00  0.00000000000E+00  0.26393247208E+03  0.26393247213E+03  0.50400001928E-02 0.  1.
        1   -1    0    0  501    0  0.00000000000E+00  0.00000000000E+00 -0.15149667407E+04  0.15149667407E+04  0.50400001928E-02 0. -1.
    10030    2    1    2    0    0  0.00000000000E+00  0.00000000000E+00 -0.12510342686E+04  0.17788992128E+04  0.12646721584E+04 0.  0.
        5    1    3    3  502    0 -0.16681625577E+03  0.60927424448E+03 -0.66490366425E+03  0.91714870163E+03  0.46999998093E+01 0. -1.
       -5    1    3    3    0  502  0.16681625577E+03 -0.60927424448E+03 -0.58613060437E+03  0.86175051120E+03  0.46999998093E+01 0.  1.
</event>
<event>
 5   0  0.5875298E-04  0.1401960E+04  0.7818609E-02  0.8952401E-01
        1   -1    0    0  501    0  0.00000000000E+00  0.00000000000E+00  0.10425490709E+04  0.10425490709E+04  0.50400001928E-02 0.  1.
       -1   -1    0    0    0  501  0.00000000000E+00  0.00000000000E+00 -0.47131876478E+03  0.47131876480E+03  0.50400001928E-02 0. -1.
    10030    2    1    2    0    0  0.00000000000E+00  0.00000000000E+00  0.57123030615E+03  0.15138678357E+04  0.14019599714E+04 0.  0.
        1    1    3    3  502    0 -0.20313721022E+03  0.65835189292E+03  0.42507955841E+03  0.80955825738E+03  0.50400001928E-02 0. -1.
       -1    1    3    3    0  502  0.20313721022E+03 -0.65835189292E+03  0.14615074773E+03  0.70430957836E+03  0.50400001928E-02 0.  1.
</event>
<event>
 5   0  0.4176125E-04  0.1445237E+04  0.7818609E-02  0.8921710E-01
        3   -1    0    0  501    0  0.00000000000E+00  0.00000000000E+00  0.80774565494E+03  0.80774566125E+03  0.10100000352E+00 0.  1.
       -3   -1    0    0    0  501  0.00000000000E+00  0.00000000000E+00 -0.64646237089E+03  0.64646237878E+03  0.10100000352E+00 0. -1.
    10030    2    1    2    0    0  0.00000000000E+00  0.00000000000E+00  0.16128328405E+03  0.14542080400E+04  0.14452365640E+04 0.  0.
        1    1    3    3  502    0 -0.11334128664E+03 -0.35597665685E+03  0.70303742464E+03  0.79613268238E+03  0.50400001928E-02 0.  1.
       -1    1    3    3    0  502  0.11334128664E+03  0.35597665685E+03 -0.54175414059E+03  0.65807535765E+03  0.50400001928E-02 0. -1.
</event>
<event>
 5   0  0.1175146E-03  0.1407239E+04  0.7818609E-02  0.8948595E-01
        2   -1    0    0  501    0  0.00000000000E+00  0.00000000000E+00  0.95511153062E+03  0.95511153063E+03  0.25500000920E-02 0.  1.
       -2   -1    0    0    0  501  0.00000000000E+00  0.00000000000E+00 -0.51834832940E+03  0.51834832941E+03  0.25500000920E-02 0. -1.
    10030    2    1    2    0    0  0.00000000000E+00  0.00000000000E+00  0.43676320122E+03  0.14734598600E+04  0.14072390931E+04 0.  0.
        1    1    3    3  502    0 -0.12798419973E+03  0.10735431204E+03  0.93404775131E+03  0.94886780188E+03  0.50400001928E-02 0.  1.
       -1    1    3    3    0  502  0.12798419973E+03 -0.10735431204E+03 -0.49728455009E+03  0.52459205815E+03  0.50400001928E-02 0. -1.
</event>
<event>
 5   0  0.5875298E-04  0.1392724E+04  0.7818609E-02  0.8959102E-01
        1   -1    0    0  501    0  0.00000000000E+00  0.00000000000E+00  0.59875262946E+03  0.59875262948E+03  0.50400001928E-02 0.  1.
       -1   -1    0    0    0  501  0.00000000000E+00  0.00000000000E+00 -0.80988331570E+03  0.80988331572E+03  0.50400001928E-02 0. -1.
    10030    2    1    2    0    0  0.00000000000E+00  0.00000000000E+00 -0.21113068625E+03  0.14086359452E+04  0.13927236120E+04 0.  0.
        1    1    3    3  502    0 -0.31984501352E+03 -0.22249355208E+03 -0.68932124160E+03  0.79181310139E+03  0.50400001928E-02 0. -1.
       -1    1    3    3    0  502  0.31984501352E+03  0.22249355208E+03  0.47819055535E+03  0.61682284381E+03  0.50400001928E-02 0.  1.
</event>
<event>
 5   0  0.1098949E-03  0.1405316E+04  0.7818609E-02  0.8949979E-01
       -2   -1    0    0    0  501  0.00000000000E+00  0.00000000000E+00  0.27538905813E+03  0.27538905814E+03  0.25500000920E-02 0.  1.
        2   -1    0    0  501    0  0.00000000000E+00  0.00000000000E+00 -0.17928393918E+04  0.17928393918E+04  0.25500000920E-02 0. -1.
    10030    2    1    2    0    0  0.00000000000E+00  0.00000000000E+00 -0.15174503336E+04  0.20682284499E+04  0.14053161231E+04 0.  0.
        4    1    3    3  502    0  0.26580584041E+03 -0.62367805032E+03 -0.48695633232E+03  0.83471859793E+03  0.12699999809E+01 0.  1.
       -4    1    3    3    0  502 -0.26580584041E+03  0.62367805032E+03 -0.10304940013E+04  0.12335098520E+04  0.12699999809E+01 0. -1.
</event>
<event>
 5   0  0.1095119E-03  0.1155303E+04  0.7818609E-02  0.9152905E-01
        2   -1    0    0  501    0  0.00000000000E+00  0.00000000000E+00  0.60028901371E+03  0.60028901372E+03  0.25500000920E-02 0. -1.
       -2   -1    0    0    0  501  0.00000000000E+00  0.00000000000E+00 -0.55586795110E+03  0.55586795111E+03  0.25500000920E-02 0.  1.
    10030    2    1    2    0    0  0.00000000000E+00  0.00000000000E+00  0.44421062608E+02  0.11561569648E+04  0.11553032920E+04 0.  0.
        5    1    3    3  502    0  0.50962257586E+03 -0.16795292206E+03 -0.19180721423E+03  0.56985564074E+03  0.46999998093E+01 0. -1.
       -5    1    3    3    0  502 -0.50962257586E+03  0.16795292206E+03  0.23622827684E+03  0.58630132409E+03  0.46999998093E+01 0.  1.
</event>
<event>
 5   0  0.6097538E-04  0.1388921E+04  0.7818609E-02  0.8961878E-01
        1   -1    0    0  501    0  0.00000000000E+00  0.00000000000E+00  0.50378811989E+03  0.50378811992E+03  0.50400001928E-02 0. -1.
       -1   -1    0    0    0  501  0.00000000000E+00  0.00000000000E+00 -0.95729738682E+03  0.95729738683E+03  0.50400001928E-02 0.  1.
    10030    2    1    2    0    0  0.00000000000E+00  0.00000000000E+00 -0.45350926693E+03  0.14610855068E+04  0.13889205171E+04 0.  0.
        2    1    3    3  502    0 -0.56035048573E+03  0.34790022940E+03 -0.45541405500E+03  0.80151681079E+03  0.25500000920E-02 0. -1.
       -2    1    3    3    0  502  0.56035048573E+03 -0.34790022940E+03  0.19047880756E+01  0.65956869597E+03  0.25500000920E-02 0.  1.
</event>
<event>
 5   0  0.5875298E-04  0.1415228E+04  0.7818609E-02  0.8942869E-01
       -1   -1    0    0    0  501  0.00000000000E+00  0.00000000000E+00  0.19167543390E+03  0.19167543397E+03  0.50400001928E-02 0. -1.
        1   -1    0    0  501    0  0.00000000000E+00  0.00000000000E+00 -0.26123203748E+04  0.26123203748E+04  0.50400001928E-02 0.  1.
    10030    2    1    2    0    0  0.00000000000E+00  0.00000000000E+00 -0.24206449409E+04  0.28039958088E+04  0.14152280967E+04 0.  0.
        1    1    3    3  502    0 -0.65983502977E+03 -0.65224840600E+02 -0.72065153708E+03  0.97927278338E+03  0.50400001928E-02 0. -1.
       -1    1    3    3    0  502  0.65983502977E+03  0.65224840600E+02 -0.16999934038E+04  0.18247230254E+04  0.50400001928E-02 0.  1.
</event>
<event>
 5   0  0.1120053E-03  0.1404225E+04  0.7818609E-02  0.8950766E-01
        2   -1    0    0  501    0  0.00000000000E+00  0.00000000000E+00  0.99595146285E+03  0.99595146285E+03  0.25500000920E-02 0.  1.
       -2   -1    0    0    0  501  0.00000000000E+00  0.00000000000E+00 -0.49496601325E+03  0.49496601326E+03  0.25500000920E-02 0. -1.
    10030    2    1    2    0    0  0.00000000000E+00  0.00000000000E+00  0.50098544960E+03  0.14909174761E+04  0.14042252312E+04 0.  0.
        2    1    3    3  502    0  0.61272936337E+03  0.13167713765E+03 -0.85569978497E+02  0.63253328967E+03  0.25500000920E-02 0. -1.
       -2    1    3    3    0  502 -0.61272936337E+03 -0.13167713765E+03  0.58655542809E+03  0.85838418645E+03  0.25500000920E-02 0.  1.
</event>
<event>
 5   0  0.6114266E-04  0.1197970E+04  0.7818609E-02  0.9114635E-01
       -1   -1    0    0    0  501  0.00000000000E+00  0.00000000000E+00  0.25558114609E+03  0.25558114614E+03  0.50400001928E-02 0.  1.
        1   -1    0    0  501    0  0.00000000000E+00  0.00000000000E+00 -0.14037925399E+04  0.14037925399E+04  0.50400001928E-02 0. -1.
    10030    2    1    2    0    0  0.00000000000E+00  0.00000000000E+00 -0.11482113938E+04  0.16593736860E+04  0.11979697931E+04 0.  0.
        3    1    3    3  502    0 -0.78725627094E+02  0.10176803922E+03  0.23621396877E+03  0.26898235520E+03  0.10100000352E+00 0.  1.
       -3    1    3    3    0  502  0.78725627094E+02 -0.10176803922E+03 -0.13844253626E+04  0.13903913308E+04  0.10100000352E+00 0. -1.
</event>
<event>
 5   0  0.6114266E-04  0.1393390E+04  0.7818609E-02  0.8958617E-01
        1   -1    0    0  501    0  0.00000000000E+00  0.00000000000E+00  0.14773520868E+04  0.14773520868E+04  0.50400001928E-02 0.  1.
       -1   -1    0    0    0  501  0.00000000000E+00  0.00000000000E+00 -0.32854996974E+03  0.32854996978E+03  0.50400001928E-02 0. -1.
    10030    2    1    2    0    0  0.00000000000E+00  0.00000000000E+00  0.11488021171E+04  0.18059020566E+04  0.13933900868E+04 0.  0.
        3    1    3    3  502    0 -0.46532674797E+03  0.29002865261E+03  0.11314585661E+04  0.12573162286E+04  0.10100000352E+00 0.  1.
       -3    1    3    3    0  502  0.46532674797E+03 -0.29002865261E+03  0.17343550966E+02  0.54858582799E+03  0.10100000352E+00 0. -1.
</event>
<event>
 5   0  0.1120053E-03  0.1386033E+04  0.7818609E-02  0.8963991E-01
        2   -1    0    0  501    0  0.00000000000E+00  0.00000000000E+00  0.87457143194E+03  0.87457143195E+03  0.25500000920E-02 0.  1.
       -2   -1    0    0    0  501  0.00000000000E+00  0.00000000000E+00 -0.54915144783E+03  0.54915144784E+03  0.25500000920E-02 0. -1.
    10030    2    1    2    0    0  0.00000000000E+00  0.00000000000E+00  0.32541998411E+03  0.14237228798E+04  0.13860334312E+04 0.  0.
        2    1    3    3  502    0  0.18603970987E+03 -0.64769768845E+03 -0.33940197803E+01  0.67389508727E+03  0.25500000920E-02 0. -1.
       -2    1    3    3    0  502 -0.18603970987E+03  0.64769768845E+03  0.32881400389E+03  0.74982779252E+03  0.25500000920E-02 0.  1.
</event>
<event>
 5   0  0.6153318E-04  0.1404839E+04  0.7818609E-02  0.8950323E-01
       -1   -1    0    0    0  501  0.00000000000E+00  0.00000000000E+00  0.68737059590E+03  0.68737059592E+03  0.50400001928E-02 0. -1.
        1   -1    0    0  501    0  0.00000000000E+00  0.00000000000E+00 -0.71779810035E+03  0.71779810036E+03  0.50400001928E-02 0.  1.
    10030    2    1    2    0    0  0.00000000000E+00  0.00000000000E+00 -0.30427504446E+02  0.14051686963E+04  0.14048392193E+04 0.  0.
        5    1    3    3  502    0  0.64652646382E+03  0.27419682477E+03 -0.29031870575E+02  0.70288356549E+03  0.46999998093E+01 0.  1.
       -5    1    3    3    0  502 -0.64652646382E+03 -0.27419682477E+03 -0.13956338705E+01  0.70228513079E+03  0.46999998093E+01 0. -1.
</event>
<event>
 5   0  0.1108819E-03  0.1401761E+04  0.7818609E-02  0.8952545E-01
        2   -1    0    0  501    0  0.00000000000E+00  0.00000000000E+00  0.74744240035E+03  0.74744240035E+03  0.25500000920E-02 0. -1.
       -2   -1    0    0    0  501  0.00000000000E+00  0.00000000000E+00 -0.65721924790E+03  0.65721924790E+03  0.25500000920E-02 0.  1.
    10030    2    1    2    0    0  0.00000000000E+00  0.00000000000E+00  0.90223152451E+02  0.14046616483E+04  0.14017610812E+04 0.  0.
        3    1    3    3  502    0 -0.24686208500E+03  0.61215492976E+03 -0.19108567508E+03  0.68715958297E+03  0.10100000352E+00 0.  1.
       -3    1    3    3    0  502  0.24686208500E+03 -0.61215492976E+03  0.28130882753E+03  0.71750206529E+03  0.10100000352E+00 0. -1.
</event>
<event>
 5   0  0.1108819E-03  0.1384836E+04  0.7818609E-02  0.8964869E-01
        2   -1    0    0  501    0  0.00000000000E+00  0.00000000000E+00  0.14154030765E+04  0.14154030765E+04  0.25500000920E-02 0.  1.
       -2   -1    0    0    0  501  0.00000000000E+00  0.00000000000E+00 -0.33873215920E+03  0.33873215921E+03  0.25500000920E-02 0. -1.
    10030    2    1    2    0    0  0.00000000000E+00  0.00000000000E+00  0.10766709173E+04  0.17541352357E+04  0.13848357885E+04 0.  0.
        3    1    3    3  502    0  0.13510110002E+03 -0.57457742180E+03  0.79787273721E+02  0.59561526182E+03  0.10100000352E+00 0. -1.
       -3    1    3    3    0  502 -0.13510110002E+03  0.57457742180E+03  0.99688364355E+03  0.11585199739E+04  0.10100000352E+00 0.  1.
</event>
<event>
 5   0  0.1120053E-03  0.1401992E+04  0.7818609E-02  0.8952378E-01
        2   -1    0    0  501    0  0.00000000000E+00  0.00000000000E+00  0.65117589448E+03  0.65117589448E+03  0.25500000920E-02 0. -1.
       -2   -1    0    0    0  501  0.00000000000E+00  0.00000000000E+00 -0.75462800434E+03  0.75462800435E+03  0.25500000920E-02 0.  1.
    10030    2    1    2    0    0  0.00000000000E+00  0.00000000000E+00 -0.10345210986E+03  0.14058038988E+04  0.14019922478E+04 0.  0.
        2    1    3    3  502    0  0.18599635187E+01  0.57414357679E+03  0.35155049286E+03  0.67322511485E+03  0.25500000920E-02 0. -1.
       -2    1    3    3    0  502 -0.18599635187E+01 -0.57414357679E+03 -0.45500260273E+03  0.73257878397E+03  0.25500000920E-02 0.  1.
</event>
<event>
 5   0  0.6194742E-04  0.1398882E+04  0.7818609E-02  0.8954628E-01
        1   -1    0    0  501    0  0.00000000000E+00  0.00000000000E+00  0.91336268676E+03  0.91336268678E+03  0.50400001928E-02 0.  1.
       -1   -1    0    0    0  501  0.00000000000E+00  0.00000000000E+00 -0.53562257648E+03  0.53562257651E+03  0.50400001928E-02 0. -1.
    10030    2    1    2    0    0  0.00000000000E+00  0.00000000000E+00  0.37774011028E+03  0.14489852633E+04  0.13988819472E+04 0.  0.
        4    1    3    3  502    0  0.56794669266E+03  0.30636928704E+03 -0.90590286377E+02  0.65163931636E+03  0.12699999809E+01 0.  1.
       -4    1    3    3    0  502 -0.56794669266E+03 -0.30636928704E+03  0.46833039666E+03  0.79734594692E+03  0.12699999809E+01 0. -1.
</event>
<event>
 5   0  0.1175146E-03  0.1408058E+04  0.7818609E-02  0.8948006E-01
        2   -1    0    0  501    0  0.00000000000E+00  0.00000000000E+00  0.30396445961E+03  0.30396445962E+03  0.25500000920E-02 0. -1.
       -2   -1    0    0    0  501  0.00000000000E+00  0.00000000000E+00 -0.16306403645E+04  0.16306403645E+04  0.25500000920E-02 0.  1.
    10030    2    1    2    0    0  0.00000000000E+00  0.00000000000E+00 -0.13266759049E+04  0.19346048241E+04  0.14080578358E+04 0.  0.
        1    1    3    3  502    0 -0.25825989890E+03  0.32399301403E+03  0.11871401133E+03  0.43100193159E+03  0.50400001928E-02 0. -1.
       -1    1    3    3    0  502  0.25825989890E+03 -0.32399301403E+03 -0.14453899162E+04  0.15036028925E+04  0.50400001928E-02 0.  1.
</event>
<event>
 5   0  0.1120053E-03  0.1401463E+04  0.7818609E-02  0.8952760E-01
       -2   -1    0    0    0  501  0.00000000000E+00  0.00000000000E+00  0.66481385218E+03  0.66481385219E+03  0.25500000920E-02 0. -1.
        2   -1    0    0  501    0  0.00000000000E+00  0.00000000000E+00 -0.73859003605E+03  0.73859003606E+03  0.25500000920E-02 0.  1.
    10030    2    1    2    0    0  0.00000000000E+00  0.00000000000E+00 -0.73776183871E+02  0.14034038882E+04  0.14014633596E+04 0.  0.
        2    1    3    3  502    0  0.42240465764E+03 -0.13651603803E+03 -0.57982196872E+03  0.73024368457E+03  0.25500000920E-02 0.  1.
       -2    1    3    3    0  502 -0.42240465764E+03  0.13651603803E+03  0.50604578485E+03  0.67316020368E+03  0.25500000920E-02 0. -1.
</event>
<event>
 5   0  0.1175146E-03  0.1375531E+04  0.7818609E-02  0.8971723E-01
       -2   -1    0    0    0  501  0.00000000000E+00  0.00000000000E+00  0.48723280367E+03  0.48723280368E+03  0.25500000920E-02 0. -1.
        2   -1    0    0  501    0  0.00000000000E+00  0.00000000000E+00 -0.97083249832E+03  0.97083249832E+03  0.25500000920E-02 0.  1.
    10030    2    1    2    0    0  0.00000000000E+00  0.00000000000E+00 -0.48359969464E+03  0.14580653020E+04  0.13755310830E+04 0.  0.
        1    1    3    3  502    0 -0.77836535020E+02  0.68302496330E+03 -0.21956978028E+03  0.72165955624E+03  0.50400001928E-02 0.  1.
       -1    1    3    3    0  502  0.77836535020E+02 -0.68302496330E+03 -0.26402991436E+03  0.73640574575E+03  0.50400001928E-02 0. -1.
</event>
<event>
 5   0  0.1108819E-03  0.1332438E+04  0.7818609E-02  0.9004230E-01
       -2   -1    0    0    0  501  0.00000000000E+00  0.00000000000E+00  0.36552063064E+03  0.36552063065E+03  0.25500000920E-02 0.  1.
        2   -1    0    0  501    0  0.00000000000E+00  0.00000000000E+00 -0.12142888322E+04  0.12142888322E+04  0.25500000920E-02 0. -1.
    10030    2    1    2    0    0  0.00000000000E+00  0.00000000000E+00 -0.84876820152E+03  0.15798094628E+04  0.13324377955E+04 0.  0.
        3    1    3    3  502    0  0.51638683327E+03 -0.22986267343E+03 -0.62745474500E+01  0.56527125379E+03  0.10100000352E+00 0.  1.
       -3    1    3    3    0  502 -0.51638683327E+03  0.22986267343E+03 -0.84249365407E+03  0.10145382090E+04  0.10100000352E+00 0. -1.
</event>
<event>
 5   0  0.6097538E-04  0.1400051E+04  0.7818609E-02  0.8953781E-01
       -1   -1    0    0    0  501  0.00000000000E+00  0.00000000000E+00  0.50357740941E+03  0.50357740944E+03  0.50400001928E-02 0. -1.
        1   -1    0    0  501    0  0.00000000000E+00  0.00000000000E+00 -0.97310931132E+03  0.97310931133E+03  0.50400001928E-02 0.  1.
    10030    2    1    2    0    0  0.00000000000E+00  0.00000000000E+00 -0.46953190191E+03  0.14766867208E+04  0.14000512363E+04 0.  0.
        2    1    3    3  502    0 -0.12550312060E+03  0.28564486809E+03 -0.89571864888E+03  0.94850193564E+03  0.25500000920E-02 0.  1.
       -2    1    3    3    0  502  0.12550312060E+03 -0.28564486809E+03  0.42618674697E+03  0.52818478514E+03  0.25500000920E-02 0. -1.
</event>
<event>
 5   0  0.1108819E-03  0.1391189E+04  0.7818609E-02  0.8960221E-01
        2   -1    0    0  501    0  0.00000000000E+00  0.00000000000E+00  0.85004199614E+03  0.85004199614E+03  0.25500000920E-02 0. -1.
       -2   -1    0    0    0  501  0.00000000000E+00  0.00000000000E+00 -0.56920931754E+03  0.56920931754E+03  0.25500000920E-02 0.  1.
    10030    2    1    2    0    0  0.00000000000E+00  0.00000000000E+00  0.28083267860E+03  0.14192513137E+04  0.13911891669E+04 0.  0.
        3    1    3    3  502    0 -0.51082156047E+03 -0.30086868695E+03 -0.23077911202E+03  0.63617579502E+03  0.10100000352E+00 0.  1.
       -3    1    3    3    0  502  0.51082156047E+03  0.30086868695E+03  0.51161179063E+03  0.78307551866E+03  0.10100000352E+00 0. -1.
</event>
<event>
 5   0  0.1098949E-03  0.1401814E+04  0.7818609E-02  0.8952506E-01
        2   -1    0    0  501    0  0.00000000000E+00  0.00000000000E+00  0.21971557995E+04  0.21971557995E+04  0.25500000920E-02 0. -1.
       -2   -1    0    0    0  501  0.00000000000E+00  0.00000000000E+00 -0.22359395765E+03  0.22359395766E+03  0.25500000920E-02 0.  1.
    10030    2    1    2    0    0  0.00000000000E+00  0.00000000000E+00  0.19735618418E+04  0.24207497572E+04  0.14018141971E+04 0.  0.
        4    1    3    3  502    0  0.37719057570E+03  0.45834971900E+03  0.16304005058E+04  0.17350978697E+04  0.12699999809E+01 0. -1.
       -4    1    3    3    0  502 -0.37719057570E+03 -0.45834971900E+03  0.34316133608E+03  0.68565188746E+03  0.12699999809E+01 0.  1.
</event>
<event>
 5   0  0.5875298E-04  0.1391876E+04  0.7818609E-02  0.8959720E-01
       -1   -1    0    0    0  501  0.00000000000E+00  0.00000000000E+00  0.14167955478E+04  0.14167955478E+04  0.50400001928E-02 0.  1.
        1   -1    0    0  501    0  0.00000000000E+00  0.00000000000E+00 -0.34184854842E+03  0.34184854845E+03  0.50400001928E-02 0. -1.
    10030    2    1    2    0    0  0.00000000000E+00  0.00000000000E+00  0.10749469994E+04  0.17586440963E+04  0.13918757149E+04 0.  0.
        1    1    3    3  502    0 -0.47076359610E+03  0.41814148785E+03  0.91201067703E+03  0.11082527430E+04  0.50400001928E-02 0.  1.
       -1    1    3    3    0  502  0.47076359610E+03 -0.41814148785E+03  0.16293632236E+03  0.65039135330E+03  0.50400001928E-02 0. -1.
</event>
<event>
 5   0  0.6097538E-04  0.1384970E+04  0.7818609E-02  0.8964770E-01
       -1   -1    0    0    0  501  0.00000000000E+00  0.00000000000E+00  0.71444203638E+03  0.71444203640E+03  0.50400001928E-02 0. -1.
        1   -1    0    0  501    0  0.00000000000E+00  0.00000000000E+00 -0.67120305281E+03  0.67120305283E+03  0.50400001928E-02 0.  1.
    10030    2    1    2    0    0  0.00000000000E+00  0.00000000000E+00  0.43238983574E+02  0.13856450892E+04  0.13849702898E+04 0.  0.
        2    1    3    3  502    0  0.14921136588E+02  0.10386194262E+03 -0.66320340759E+03  0.67145268134E+03  0.25500000920E-02 0.  1.
       -2    1    3    3    0  502 -0.14921136588E+02 -0.10386194262E+03  0.70644239116E+03  0.71419240788E+03  0.25500000920E-02 0. -1.
</event>
<event>
 5   0  0.6153318E-04  0.1289543E+04  0.7818609E-02  0.9037899E-01
        1   -1    0    0  501    0  0.00000000000E+00  0.00000000000E+00  0.69250108717E+03  0.69250108719E+03  0.50400001928E-02 0. -1.
       -1   -1    0    0    0  501  0.00000000000E+00  0.00000000000E+00 -0.60033158454E+03  0.60033158456E+03  0.50400001928E-02 0.  1.
    10030    2    1    2    0    0  0.00000000000E+00  0.00000000000E+00  0.92169502638E+02  0.12928326718E+04  0.12895429810E+04 0.  0.
        5    1    3    3  502    0  0.27442115619E+03  0.51772198325E+03  0.31577874003E+03  0.66564354242E+03  0.46999998093E+01 0. -1.
       -5    1    3    3    0  502 -0.27442115619E+03 -0.51772198325E+03 -0.22360923739E+03  0.62718912933E+03  0.46999998093E+01 0.  1.
</event>
<event>
 5   0  0.4176125E-04  0.1396030E+04  0.7818609E-02  0.8956697E-01
       -3   -1    0    0    0  501  0.00000000000E+00  0.00000000000E+00  0.17896878998E+04  0.17896879027E+04  0.10100000352E+00 0. -1.
        3   -1    0    0  501    0  0.00000000000E+00  0.00000000000E+00 -0.27224030147E+03  0.27224032021E+03  0.10100000352E+00 0.  1.
    10030    2    1    2    0    0  0.00000000000E+00  0.00000000000E+00  0.15174475984E+04  0.20619282229E+04  0.13960303659E+04 0.  0.
        1    1    3    3  502    0  0.64450740532E+03 -0.16626243901E+03  0.10692165726E+04  0.12594669798E+04  0.50400001928E-02 0. -1.
       -1    1    3    3    0  502 -0.64450740532E+03  0.16626243901E+03  0.44823102574E+03  0.80246124305E+03  0.50400001928E-02 0.  1.
</event>
<event>
 5   0  0.6114266E-04  0.1374627E+04  0.7818609E-02  0.8972392E-01
        1   -1    0    0  501    0  0.00000000000E+00  0.00000000000E+00  0.51801329077E+03  0.51801329080E+03  0.50400001928E-02 0.  1.
       -1   -1    0    0    0  501  0.00000000000E+00  0.00000000000E+00 -0.91194526269E+03  0.91194526271E+03  0.50400001928E-02 0. -1.
    10030    2    1    2    0    0  0.00000000000E+00  0.00000000000E+00 -0.39393197192E+03  0.14299585535E+04  0.13746268826E+04 0.  0.
        3    1    3    3  502    0 -0.15370958420E+03 -0.45925688132E+03 -0.70430222959E+03  0.85474274499E+03  0.10100000352E+00 0. -1.
       -3    1    3    3    0  502  0.15370958420E+03  0.45925688132E+03  0.31037025767E+03  0.57521580851E+03  0.10100000352E+00 0.  1.
</event>
<event>
 5   0  0.1098949E-03  0.1398397E+04  0.7818609E-02  0.8954979E-01
       -2   -1    0    0    0  501  0.00000000000E+00  0.00000000000E+00  0.33392837634E+03  0.33392837635E+03  0.25500000920E-02 0. -1.
        2   -1    0    0  501    0  0.00000000000E+00  0.00000000000E+00 -0.14640229485E+04  0.14640229485E+04  0.25500000920E-02 0.  1.
    10030    2    1    2    0    0  0.00000000000E+00  0.00000000000E+00 -0.11300945722E+04  0.17979513249E+04  0.13983973772E+04 0.  0.
        4    1    3    3  502    0 -0.17690777718E+03  0.13071968827E+03 -0.14183771228E+04  0.14353324611E+04  0.12699999809E+01 0.  1.
       -4    1    3    3    0  502  0.17690777718E+03 -0.13071968827E+03  0.28828255057E+03  0.36261886381E+03  0.12699999809E+01 0. -1.
</event>
<event>
 5   0  0.5875298E-04  0.1385525E+04  0.7818609E-02  0.8964364E-01
        1   -1    0    0  501    0  0.00000000000E+00  0.00000000000E+00  0.20090542358E+04  0.20090542358E+04  0.50400001928E-02 0.  1.
       -1   -1    0    0    0  501  0.00000000000E+00  0.00000000000E+00 -0.23887839845E+03  0.23887839850E+03  0.50400001928E-02 0. -1.
    10030    2    1    2    0    0  0.00000000000E+00  0.00000000000E+00  0.17701758374E+04  0.22479326343E+04  0.13855246780E+04 0.  0.
        1    1    3    3  502    0  0.57752734960E+03 -0.57873087859E+02  0.14986894413E+04  0.16071581052E+04  0.50400001928E-02 0.  1.
       -1    1    3    3    0  502 -0.57752734960E+03  0.57873087859E+02  0.27148639608E+03  0.64077452908E+03  0.50400001928E-02 0. -1.
</event>
<event>
 5   0  0.1095119E-03  0.1399897E+04  0.7818609E-02  0.8953893E-01
        2   -1    0    0  501    0  0.00000000000E+00  0.00000000000E+00  0.78742380295E+03  0.78742380296E+03  0.25500000920E-02 0. -1.
       -2   -1    0    0    0  501  0.00000000000E+00  0.00000000000E+00 -0.62219093488E+03  0.62219093489E+03  0.25500000920E-02 0.  1.
    10030    2    1    2    0    0  0.00000000000E+00  0.00000000000E+00  0.16523286807E+03  0.14096147378E+04  0.13998970707E+04 0.  0.
        5    1    3    3  502    0  0.10371157323E+03  0.68271308959E+03 -0.32424656850E+02  0.69132242947E+03  0.46999998093E+01 0.  1.
       -5    1    3    3    0  502 -0.10371157323E+03 -0.68271308959E+03  0.19765752492E+03  0.71829230838E+03  0.46999998093E+01 0. -1.
</event>
<event>
 5   0  0.1095119E-03  0.1391124E+04  0.7818609E-02  0.8960269E-01
        2   -1    0    0  501    0  0.00000000000E+00  0.00000000000E+00  0.56581568024E+03  0.56581568025E+03  0.25500000920E-02 0.  1.
       -2   -1    0    0    0  501  0.00000000000E+00  0.00000000000E+00 -0.85506030445E+03  0.85506030445E+03  0.25500000920E-02 0. -1.
    10030    2    1    2    0    0  0.00000000000E+00  0.00000000000E+00 -0.28924462420E+03  0.14208759847E+04  0.13911240460E+04 0.  0.
        5    1    3    3  502    0 -0.18493062881E+03  0.15429398327E+03  0.52185007920E+03  0.57476566173E+03  0.46999998093E+01 0.  1.
       -5    1    3    3    0  502  0.18493062881E+03 -0.15429398327E+03 -0.81109470341E+03  0.84611032297E+03  0.46999998093E+01 0. -1.
</event>
<event>
 5   0  0.1095119E-03  0.1401704E+04  0.7818609E-02  0.8952586E-01
        2   -1    0    0  501    0  0.00000000000E+00  0.00000000000E+00  0.58871981999E+03  0.58871981999E+03  0.25500000920E-02 0. -1.
       -2   -1    0    0    0  501  0.00000000000E+00  0.00000000000E+00 -0.83434217678E+03  0.83434217678E+03  0.25500000920E-02 0.  1.
    10030    2    1    2    0    0  0.00000000000E+00  0.00000000000E+00 -0.24562235679E+03  0.14230619968E+04  0.14017043570E+04 0.  0.
        5    1    3    3  502    0  0.29206691493E+02  0.48467941149E+03 -0.63588716613E+03  0.80008858309E+03  0.46999998093E+01 0.  1.
       -5    1    3    3    0  502 -0.29206691493E+02 -0.48467941149E+03  0.39026480934E+03  0.62297341368E+03  0.46999998093E+01 0. -1.
</event>
<event>
 5   0  0.1120053E-03  0.1437801E+04  0.7818609E-02  0.8926902E-01
        2   -1    0    0  501    0  0.00000000000E+00  0.00000000000E+00  0.14711729791E+04  0.14711729791E+04  0.25500000920E-02 0. -1.
       -2   -1    0    0    0  501  0.00000000000E+00  0.00000000000E+00 -0.35129664501E+03  0.35129664502E+03  0.25500000920E-02 0.  1.
    10030    2    1    2    0    0  0.00000000000E+00  0.00000000000E+00  0.11198763341E+04  0.18224696241E+04  0.14378012822E+04 0.  0.
        2    1    3    3  502    0  0.82387411408E+01 -0.71380232211E+03  0.45211161661E+03  0.84497724572E+03  0.25500000920E-02 0. -1.
       -2    1    3    3    0  502 -0.82387411408E+01  0.71380232211E+03  0.66776471745E+03  0.97749237837E+03  0.25500000920E-02 0.  1.
</event>
<event>
 5   0  0.6194742E-04  0.1379905E+04  0.7818609E-02  0.8968494E-01
        1   -1    0    0  501    0  0.00000000000E+00  0.00000000000E+00  0.24792492082E+04  0.24792492082E+04  0.50400001928E-02 0.  1.
       -1   -1    0    0    0  501  0.00000000000E+00  0.00000000000E+00 -0.19200763680E+03  0.19200763687E+03  0.50400001928E-02 0. -1.
    10030    2    1    2    0    0  0.00000000000E+00  0.00000000000E+00  0.22872415714E+04  0.26712568451E+04  0.13799054773E+04 0.  0.
        4    1    3    3  502    0 -0.20768188934E+03  0.65512875928E+03  0.10257464641E+04  0.12346995100E+04  0.12699999809E+01 0.  1.
       -4    1    3    3    0  502  0.20768188934E+03 -0.65512875928E+03  0.12614951073E+04  0.14365573351E+04  0.12699999809E+01 0. -1.
</event>
<event>
 5   0  0.1175146E-03  0.1403749E+04  0.7818609E-02  0.8951109E-01
       -2   -1    0    0    0  501  0.00000000000E+00  0.00000000000E+00  0.41184536324E+03  0.41184536325E+03  0.25500000920E-02 0. -1.
        2   -1    0    0  501    0  0.00000000000E+00  0.00000000000E+00 -0.11961471879E+04  0.11961471879E+04  0.25500000920E-02 0.  1.
    10030    2    1    2    0    0  0.00000000000E+00  0.00000000000E+00 -0.78430182469E+03  0.16079925512E+04  0.14037487996E+04 0.  0.
        1    1    3    3  502    0  0.17234002410E+03 -0.52737476298E+03  0.10028361402E+03  0.56381027642E+03  0.50400001928E-02 0. -1.
       -1    1    3    3    0  502 -0.17234002410E+03  0.52737476298E+03 -0.88458543870E+03  0.10441822748E+04  0.50400001928E-02 0.  1.
</event>
<event>
 5   0  0.1095119E-03  0.1399816E+04  0.7818609E-02  0.8953952E-01
        2   -1    0    0  501    0  0.00000000000E+00  0.00000000000E+00  0.14149042163E+04  0.14149042163E+04  0.25500000920E-02 0.  1.
       -2   -1    0    0    0  501  0.00000000000E+00  0.00000000000E+00 -0.34622213897E+03  0.34622213898E+03  0.25500000920E-02 0. -1.
    10030    2    1    2    0    0  0.00000000000E+00  0.00000000000E+00  0.10686820774E+04  0.17611263553E+04  0.13998159368E+04 0.  0.
        5    1    3    3  502    0 -0.29000162265E+02  0.36064993340E+03  0.12880962446E+04  0.13379549354E+04  0.46999998093E+01 0.  1.
       -5    1    3    3    0  502  0.29000162265E+02 -0.36064993340E+03 -0.21941416720E+03  0.42317141992E+03  0.46999998093E+01 0. -1.
</event>
<event>
 5   0  0.1098949E-03  0.1399414E+04  0.7818609E-02  0.8954243E-01
        2   -1    0    0  501    0  0.00000000000E+00  0.00000000000E+00  0.75253212931E+03  0.75253212931E+03  0.25500000920E-02 0. -1.
       -2   -1    0    0    0  501  0.00000000000E+00  0.00000000000E+00 -0.65059010455E+03  0.65059010456E+03  0.25500000920E-02 0.  1.
    10030    2    1    2    0    0  0.00000000000E+00  0.00000000000E+00  0.10194202475E+03  0.14031222339E+04  0.13994141012E+04 0.  0.
        4    1    3    3  502    0 -0.66461488506E+02  0.21398143752E+03 -0.61364525050E+03  0.65327428498E+03  0.12699999809E+01 0.  1.
       -4    1    3    3    0  502  0.66461488506E+02 -0.21398143752E+03  0.71558727525E+03  0.74984794889E+03  0.12699999809E+01 0. -1.
</event>
<event>
 5   0  0.1095119E-03  0.1415435E+04  0.7818609E-02  0.8942721E-01
        2   -1    0    0  501    0  0.00000000000E+00  0.00000000000E+00  0.27601361015E+04  0.27601361015E+04  0.25500000920E-02 0.  1.
       -2   -1    0    0    0  501  0.00000000000E+00  0.00000000000E+00 -0.18146341683E+03  0.18146341684E+03  0.25500000920E-02 0. -1.
    10030    2    1    2    0    0  0.00000000000E+00  0.00000000000E+00  0.25786726847E+04  0.29415995184E+04  0.14154345310E+04 0.  0.
        5    1    3    3  502    0 -0.10607349190E+03  0.56550212166E+03  0.21457020747E+04  0.22215093335E+04  0.46999998093E+01 0.  1.
       -5    1    3    3    0  502  0.10607349190E+03 -0.56550212166E+03  0.43297061000E+03  0.72009018491E+03  0.46999998093E+01 0. -1.
</event>
<event>
 5   0  0.1095119E-03  0.1400927E+04  0.7818609E-02  0.8953148E-01
       -2   -1    0    0    0  501  0.00000000000E+00  0.00000000000E+00  0.16244487300E+03  0.16244487302E+03  0.25500000920E-02 0. -1.
        2   -1    0    0  501    0  0.00000000000E+00  0.00000000000E+00 -0.30204053804E+04  0.30204053804E+04  0.25500000920E-02 0.  1.
    10030    2    1    2    0    0  0.00000000000E+00  0.00000000000E+00 -0.28579605074E+04  0.31828502534E+04  0.14009273621E+04 0.  0.
        5    1    3    3  502    0 -0.19032527392E+03 -0.23786903782E+03 -0.28619760835E+04  0.28781477692E+04  0.46999998093E+01 0.  1.
       -5    1    3    3    0  502  0.19032527392E+03  0.23786903782E+03  0.40155760589E+01  0.30470248423E+03  0.46999998093E+01 0. -1.
</event>
<event>
 5   0  0.6194742E-04  0.1401500E+04  0.7818609E-02  0.8952733E-01
        1   -1    0    0  501    0  0.00000000000E+00  0.00000000000E+00  0.17345941001E+04  0.17345941001E+04  0.50400001928E-02 0.  1.
       -1   -1    0    0    0  501  0.00000000000E+00  0.00000000000E+00 -0.28309266412E+03  0.28309266417E+03  0.50400001928E-02 0. -1.
    10030    2    1    2    0    0  0.00000000000E+00  0.00000000000E+00  0.14515014360E+04  0.20176867643E+04  0.14015004317E+04 0.  0.
        4    1    3    3  502    0  0.34741465634E+03 -0.19880585146E+03  0.15538110774E+04  0.16045408026E+04  0.12699999809E+01 0.  1.
       -4    1    3    3    0  502 -0.34741465634E+03  0.19880585146E+03 -0.10230964144E+03  0.41314596167E+03  0.12699999809E+01 0. -1.
</event>
<event>
 5   0  0.6114266E-04  0.1401958E+04  0.7818609E-02  0.8952403E-01
       -1   -1    0    0    0  501  0.00000000000E+00  0.00000000000E+00  0.39721089349E+03  0.39721089352E+03  0.50400001928E-02 0.  1.
        1   -1    0    0  501    0  0.00000000000E+00  0.00000000000E+00 -0.12370542537E+04  0.12370542538E+04  0.50400001928E-02 0. -1.
    10030    2    1    2    0    0  0.00000000000E+00  0.00000000000E+00 -0.83984336026E+03  0.16342651473E+04  0.14019578103E+04 0.  0.
        3    1    3    3  502    0 -0.79203387693E+02  0.69197313117E+03 -0.32760702120E+03  0.76969238103E+03  0.10100000352E+00 0. -1.
       -3    1    3    3    0  502  0.79203387693E+02 -0.69197313117E+03 -0.51223633906E+03  0.86457276625E+03  0.10100000352E+00 0.  1.
</event>
<event>
 5   0  0.6153318E-04  0.1393543E+04  0.7818609E-02  0.8958506E-01
       -1   -1    0    0    0  501  0.00000000000E+00  0.00000000000E+00  0.55586580547E+03  0.55586580550E+03  0.50400001928E-02 0.  1.
        1   -1    0    0  501    0  0.00000000000E+00  0.00000000000E+00 -0.87339457698E+03  0.87339457700E+03  0.50400001928E-02 0. -1.
    10030    2    1    2    0    0  0.00000000000E+00  0.00000000000E+00 -0.31752877151E+03  0.14292603825E+04  0.13935425075E+04 0.  0.
        5    1    3    3  502    0 -0.47718768052E+03  0.43334056973E+03 -0.43007423639E+03  0.77490520105E+03  0.46999998093E+01 0. -1.
       -5    1    3    3    0  502  0.47718768052E+03 -0.43334056973E+03  0.11254546488E+03  0.65435518144E+03  0.46999998093E+01 0.  1.
</event>
<event>
 5   0  0.1175146E-03  0.1393773E+04  0.7818609E-02  0.8958338E-01
       -2   -1    0    0    0  501  0.00000000000E+00  0.00000000000E+00  0.13353447793E+04  0.13353447793E+04  0.25500000920E-02 0.  1.
        2   -1    0    0  501    0  0.00000000000E+00  0.00000000000E+00 -0.36368934800E+03  0.36368934801E+03  0.25500000920E-02 0. -1.
    10030    2    1    2    0    0  0.00000000000E+00  0.00000000000E+00  0.97165543133E+03  0.16990341273E+04  0.13937728253E+04 0.  0.
        1    1    3    3  502    0  0.69046537629E+03  0.91919115358E+02  0.51194750517E+03  0.86445463021E+03  0.50400001928E-02 0.  1.
       -1    1    3    3    0  502 -0.69046537629E+03 -0.91919115358E+02  0.45970792616E+03  0.83457949712E+03  0.50400001928E-02 0. -1.
</event>
<event>
 5   0  0.1095119E-03  0.1415568E+04  0.7818609E-02  0.8942626E-01
       -2   -1    0    0    0  501  0.00000000000E+00  0.00000000000E+00  0.67291098865E+03  0.67291098865E+03  0.25500000920E-02 0. -1.
        2   -1    0    0  501    0  0.00000000000E+00  0.00000000000E+00 -0.74446407494E+03  0.74446407494E+03  0.25500000920E-02 0.  1.
    10030    2    1    2    0    0  0.00000000000E+00  0.00000000000E+00 -0.71553086292E+02  0.14173750636E+04  0.14155678107E+04 0.  0.
        5    1    3    3  502    0 -0.56453704811E+03 -0.33597768274E+03  0.22790903315E+03  0.69537594104E+03  0.46999998093E+01 0.  1.
       -5    1    3    3    0  502  0.56453704811E+03  0.33597768274E+03 -0.29946211944E+03  0.72199912255E+03  0.46999998093E+01 0. -1.
</event>
<event>
 5   0  0.6153318E-04  0.1396915E+04  0.7818609E-02  0.8956055E-01
        1   -1    0    0  501    0  0.00000000000E+00  0.00000000000E+00  0.11697607616E+04  0.11697607617E+04  0.50400001928E-02 0. -1.
       -1   -1    0    0    0  501  0.00000000000E+00  0.00000000000E+00 -0.41704497294E+03  0.41704497297E+03  0.50400001928E-02 0.  1.
    10030    2    1    2    0    0  0.00000000000E+00  0.00000000000E+00  0.75271578870E+03  0.15868057346E+04  0.13969149512E+04 0.  0.
        5    1    3    3  502    0  0.90614883991E+02 -0.67181858797E+03  0.56734881747E+03  0.88400115556E+03  0.46999998093E+01 0.  1.
       -5    1    3    3    0  502 -0.90614883991E+02  0.67181858797E+03  0.18536697123E+03  0.70280457907E+03  0.46999998093E+01 0. -1.
</event>
<event>
 5   0  0.5875298E-04  0.1412351E+04  0.7818609E-02  0.8944927E-01
        1   -1    0    0  501    0  0.00000000000E+00  0.00000000000E+00  0.60362566061E+03  0.60362566063E+03  0.50400001928E-02 0. -1.
       -1   -1    0    0    0  501  0.00000000000E+00  0.00000000000E+00 -0.82614718252E+03  0.82614718254E+03  0.50400001928E-02 0.  1.
    10030    2    1    2    0    0  0.00000000000E+00  0.00000000000E+00 -0.22252152192E+03  0.14297728432E+04  0.14123507197E+04 0.  0.
        1    1    3    3  502    0  0.68596789589E+02  0.29229323021E+03 -0.75831883669E+03  0.81559077366E+03  0.50400001928E-02 0.  1.
       -1    1    3    3    0  502 -0.68596789589E+02 -0.29229323021E+03  0.53579731477E+03  0.61418206951E+03  0.50400001928E-02 0. -1.
</event>
<event>
 5   0  0.1098949E-03  0.1399304E+04  0.7818609E-02  0.8954322E-01
        2   -1    0    0  501    0  0.00000000000E+00  0.00000000000E+00  0.95924347817E+03  0.95924347818E+03  0.25500000920E-02 0.  1.
       -2   -1    0    0    0  501  0.00000000000E+00  0.00000000000E+00 -0.51031180115E+03  0.51031180115E+03  0.25500000920E-02 0. -1.
    10030    2    1    2    0    0  0.00000000000E+00  0.00000000000E+00  0.44893167703E+03  0.14695552793E+04  0.13993044945E+04 0.  0.
        4    1    3    3  502    0  0.63207186238E+03 -0.27393365765E+03  0.96026412042E+02  0.69554092096E+03  0.12699999809E+01 0.  1.
       -4    1    3    3    0  502 -0.63207186238E+03  0.27393365765E+03  0.35290526498E+03  0.77401435837E+03  0.12699999809E+01 0. -1.
</event>
<event>
 5   0  0.5875298E-04  0.1399041E+04  0.7818609E-02  0.8954513E-01
        1   -1    0    0  501    0  0.00000000000E+00  0.00000000000E+00  0.83959195199E+03  0.83959195201E+03  0.50400001928E-02 0. -1.
       -1   -1    0    0    0  501  0.00000000000E+00  0.00000000000E+00 -0.58281780006E+03  0.58281780008E+03  0.50400001928E-02 0.  1.
    10030    2    1    2    0    0  0.00000000000E+00  0.00000000000E+00  0.25677415193E+03  0.14224097521E+04  0.13990412924E+04 0.  0.
        1    1    3    3  502    0 -0.46096401640E+02 -0.30881462617E+02 -0.58057704922E+03  0.58322230160E+03  0.50400001928E-02 0.  1.
       -1    1    3    3    0  502  0.46096401640E+02  0.30881462617E+02  0.83735120115E+03  0.83918745049E+03  0.50400001928E-02 0. -1.
</event>
<event>
 5   0  0.1098949E-03  0.1367215E+04  0.7818609E-02  0.8977898E-01
        2   -1    0    0  501    0  0.00000000000E+00  0.00000000000E+00  0.15843266054E+04  0.15843266054E+04  0.25500000920E-02 0.  1.
       -2   -1    0    0    0  501  0.00000000000E+00  0.00000000000E+00 -0.29496389443E+03  0.29496389444E+03  0.25500000920E-02 0. -1.
    10030    2    1    2    0    0  0.00000000000E+00  0.00000000000E+00  0.12893627110E+04  0.18792904999E+04  0.13672148998E+04 0.  0.
        4    1    3    3  502    0 -0.53751018828E+03  0.36441904010E+03  0.93819969357E+03  0.11410252921E+04  0.12699999809E+01 0. -1.
       -4    1    3    3    0  502  0.53751018828E+03 -0.36441904010E+03  0.35116301743E+03  0.73826520777E+03  0.12699999809E+01 0.  1.
</event>
<event>
 5   0  0.1175146E-03  0.1375083E+04  0.7818609E-02  0.8972055E-01
       -2   -1    0    0    0  501  0.00000000000E+00  0.00000000000E+00  0.59461777730E+03  0.59461777731E+03  0.25500000920E-02 0.  1.
        2   -1    0    0  501    0  0.00000000000E+00  0.00000000000E+00 -0.79498677809E+03  0.79498677810E+03  0.25500000920E-02 0. -1.
    10030    2    1    2    0    0  0.00000000000E+00  0.00000000000E+00 -0.20036900079E+03  0.13896045554E+04  0.13750829371E+04 0.  0.
        1    1    3    3  502    0 -0.54230139549E+02 -0.37709652029E+03 -0.67856651425E+03  0.77819997940E+03  0.50400001928E-02 0. -1.
       -1    1    3    3    0  502  0.54230139549E+02  0.37709652029E+03  0.47819751346E+03  0.61140457600E+03  0.50400001928E-02 0.  1.
</event>
<event>
 5   0  0.4176125E-04  0.1398925E+04  0.7818609E-02  0.8954597E-01
        4   -1    0    0  501    0  0.00000000000E+00  0.00000000000E+00  0.14819076020E+04  0.14819081462E+04  0.12699999809E+01 0. -1.
       -4   -1    0    0    0  501  0.00000000000E+00  0.00000000000E+00 -0.33014527418E+03  0.33014771688E+03  0.12699999809E+01 0.  1.
    10030    2    1    2    0    0  0.00000000000E+00  0.00000000000E+00  0.11517623278E+04  0.18120558631E+04  0.13989245838E+04 0.  0.
        3    1    3    3  502    0  0.21719807497E+02  0.35813626335E+03  0.13536283353E+04  0.14003724552E+04  0.10100000352E+00 0. -1.
       -3    1    3    3    0  502 -0.21719807497E+02 -0.35813626335E+03 -0.20186600742E+03  0.41168340787E+03  0.10100000352E+00 0.  1.
</event>
<event>
 5   0  0.5875298E-04  0.1380173E+04  0.7818609E-02  0.8968297E-01
       -1   -1    0    0    0  501  0.00000000000E+00  0.00000000000E+00  0.62416597020E+03  0.62416597022E+03  0.50400001928E-02 0. -1.
        1   -1    0    0  501    0  0.00000000000E+00  0.00000000000E+00 -0.76296883368E+03  0.76296883370E+03  0.50400001928E-02 0.  1.
    10030    2    1    2    0    0  0.00000000000E+00  0.00000000000E+00 -0.13880286348E+03  0.13871348039E+04  0.13801727172E+04 0.  0.
        1    1    3    3  502    0  0.12558943840E+03  0.14439496368E+03 -0.73576673798E+03  0.76024687130E+03  0.50400001928E-02 0.  1.
       -1    1    3    3    0  502 -0.12558943840E+03 -0.14439496368E+03  0.59696387451E+03  0.62688793262E+03  0.50400001928E-02 0. -1.
</event>
<event>
 5   0  0.4176125E-04  0.1401177E+04  0.7818609E-02  0.8952967E-01
       -3   -1    0    0    0  501  0.00000000000E+00  0.00000000000E+00  0.54375448558E+03  0.54375449496E+03  0.10100000352E+00 0. -1.
        3   -1    0    0  501    0  0.00000000000E+00  0.00000000000E+00 -0.90265768662E+03  0.90265769227E+03  0.10100000352E+00 0.  1.
    10030    2    1    2    0    0  0.00000000000E+00  0.00000000000E+00 -0.35890320103E+03  0.14464121872E+04  0.14011769009E+04 0.  0.
        4    1    3    3  502    0 -0.65948436513E+03 -0.18301026438E+03 -0.33398479022E+03  0.76155094230E+03  0.12699999809E+01 0.  1.
       -4    1    3    3    0  502  0.65948436513E+03  0.18301026438E+03 -0.24918410813E+02  0.68486124493E+03  0.12699999809E+01 0. -1.
</event>
<event>
 5   0  0.1098949E-03  0.1407864E+04  0.7818609E-02  0.8948146E-01
       -2   -1    0    0    0  501  0.00000000000E+00  0.00000000000E+00  0.66123932056E+03  0.66123932057E+03  0.25500000920E-02 0. -1.
        2   -1    0    0  501    0  0.00000000000E+00  0.00000000000E+00 -0.74938130570E+03  0.74938130570E+03  0.25500000920E-02 0.  1.
    10030    2    1    2    0    0  0.00000000000E+00  0.00000000000E+00 -0.88141985136E+02  0.14106206263E+04  0.14078641773E+04 0.  0.
        4    1    3    3  502    0 -0.52243939470E+03 -0.45772141692E+03  0.70463602234E+02  0.69815367132E+03  0.12699999809E+01 0. -1.
       -4    1    3    3    0  502  0.52243939470E+03  0.45772141692E+03 -0.15860558737E+03  0.71246695494E+03  0.12699999809E+01 0.  1.
</event>
<event>
 5   0  0.6194742E-04  0.1373071E+04  0.7818609E-02  0.8973545E-01
       -1   -1    0    0    0  501  0.00000000000E+00  0.00000000000E+00  0.39650273437E+03  0.39650273440E+03  0.50400001928E-02 0.  1.
        1   -1    0    0  501    0  0.00000000000E+00  0.00000000000E+00 -0.11887203135E+04  0.11887203135E+04  0.50400001928E-02 0. -1.
    10030    2    1    2    0    0  0.00000000000E+00  0.00000000000E+00 -0.79221757913E+03  0.15852230479E+04  0.13730707990E+04 0.  0.
        4    1    3    3  502    0 -0.19120862870E+03  0.27518810363E+03  0.29567259372E+03  0.44689274736E+03  0.12699999809E+01 0.  1.
       -4    1    3    3    0  502  0.19120862870E+03 -0.27518810363E+03 -0.10878901729E+04  0.11383303006E+04  0.12699999809E+01 0. -1.
</event>
<event>
 5   0  0.1098949E-03  0.1397206E+04  0.7818609E-02  0.8955843E-01
       -2   -1    0    0    0  501  0.00000000000E+00  0.00000000000E+00  0.87737497515E+03  0.87737497515E+03  0.25500000920E-02 0. -1.
        2   -1    0    0  501    0  0.00000000000E+00  0.00000000000E+00 -0.55625719367E+03  0.55625719368E+03  0.25500000920E-02 0.  1.
    10030    2    1    2    0    0  0.00000000000E+00  0.00000000000E+00  0.32111778148E+03  0.14336321688E+04  0.13972059855E+04 0.  0.
        4    1    3    3  502    0  0.33412177890E+02  0.27605318915E+03  0.81814359328E+03  0.86410779941E+03  0.12699999809E+01 0. -1.
       -4    1    3    3    0  502 -0.33412177890E+02 -0.27605318915E+03 -0.49702581181E+03  0.56952436943E+03  0.12699999809E+01 0.  1.
</event>
<event>
 5   0  0.6097538E-04  0.1388467E+04  0.7818609E-02  0.8962209E-01
       -1   -1    0    0    0  501  0.00000000000E+00  0.00000000000E+00  0.36048996061E+03  0.36048996065E+03  0.50400001928E-02 0. -1.
        1   -1    0    0  501    0  0.00000000000E+00  0.00000000000E+00 -0.13369585629E+04  0.13369585629E+04  0.50400001928E-02 0.  1.
    10030    2    1    2    0    0  0.00000000000E+00  0.00000000000E+00 -0.97646860224E+03  0.16974485235E+04  0.13884669815E+04 0.  0.
        2    1    3    3  502    0  0.40340911336E+03  0.43726199737E+03 -0.92566106234E+03  0.11003569282E+04  0.25500000920E-02 0.  1.
       -2    1    3    3    0  502 -0.40340911336E+03 -0.43726199737E+03 -0.50807539901E+02  0.59709159532E+03  0.25500000920E-02 0. -1.
</event>
<event>
 5   0  0.1175146E-03  0.1387253E+04  0.7818609E-02  0.8963097E-01
       -2   -1    0    0    0  501  0.00000000000E+00  0.00000000000E+00  0.48221993157E+03  0.48221993157E+03  0.25500000920E-02 0.  1.
        2   -1    0    0  501    0  0.00000000000E+00  0.00000000000E+00 -0.99771474024E+03  0.99771474024E+03  0.25500000920E-02 0. -1.
    10030    2    1    2    0    0  0.00000000000E+00  0.00000000000E+00 -0.51549480867E+03  0.14799346718E+04  0.13872533060E+04 0.  0.
        1    1    3    3  502    0  0.12988195859E+03  0.57889856401E+03  0.12559957893E+03  0.60643888796E+03  0.50400001928E-02 0.  1.
       -1    1    3    3    0  502 -0.12988195859E+03 -0.57889856401E+03 -0.64109438760E+03  0.87349578386E+03  0.50400001928E-02 0. -1.
</event>
<event>
 5   0  0.6114266E-04  0.1388054E+04  0.7818609E-02  0.8962511E-01
        1   -1    0    0  501    0  0.00000000000E+00  0.00000000000E+00  0.13127383828E+04  0.13127383828E+04  0.50400001928E-02 0.  1.
       -1   -1    0    0    0  501  0.00000000000E+00  0.00000000000E+00 -0.36692281773E+03  0.36692281777E+03  0.50400001928E-02 0. -1.
    10030    2    1    2    0    0  0.00000000000E+00  0.00000000000E+00  0.94581556505E+03  0.16796612006E+04  0.13880542733E+04 0.  0.
        3    1    3    3  502    0 -0.61842908549E+02  0.68191723472E+03  0.61001611792E+03  0.91703616868E+03  0.10100000352E+00 0. -1.
       -3    1    3    3    0  502  0.61842908549E+02 -0.68191723472E+03  0.33579944712E+03  0.76262503187E+03  0.10100000352E+00 0.  1.
</event>
<event>
 5   0  0.5875298E-04  0.1411903E+04  0.7818609E-02  0.8945247E-01
       -1   -1    0    0    0  501  0.00000000000E+00  0.00000000000E+00  0.13763221965E+04  0.13763221965E+04  0.50400001928E-02 0.  1.
        1   -1    0    0  501    0  0.00000000000E+00  0.00000000000E+00 -0.36210091089E+03  0.36210091092E+03  0.50400001928E-02 0. -1.
    10030    2    1    2    0    0  0.00000000000E+00  0.00000000000E+00  0.10142212856E+04  0.17384231074E+04  0.14119030010E+04 0.  0.
        1    1    3    3  502    0  0.42181336506E+03  0.56100508106E+03  0.41403579438E+03  0.81491033554E+03  0.50400001928E-02 0. -1.
       -1    1    3    3    0  502 -0.42181336506E+03 -0.56100508106E+03  0.60018549121E+03  0.92351277187E+03  0.50400001928E-02 0.  1.
</event>
<event>
 5   0  0.6114266E-04  0.1409526E+04  0.7818609E-02  0.8946952E-01
        1   -1    0    0  501    0  0.00000000000E+00  0.00000000000E+00  0.12968933753E+04  0.12968933753E+04  0.50400001928E-02 0. -1.
       -1   -1    0    0    0  501  0.00000000000E+00  0.00000000000E+00 -0.38298495108E+03  0.38298495111E+03  0.50400001928E-02 0.  1.
    10030    2    1    2    0    0  0.00000000000E+00  0.00000000000E+00  0.91390842421E+03  0.16798783264E+04  0.14095256591E+04 0.  0.
        3    1    3    3  502    0  0.64990270399E+03  0.27061834907E+03  0.49617199327E+03  0.86127491117E+03  0.10100000352E+00 0.  1.
       -3    1    3    3    0  502 -0.64990270399E+03 -0.27061834907E+03  0.41773643093E+03  0.81860341524E+03  0.10100000352E+00 0. -1.
</event>
<event>
 5   0  0.1108819E-03  0.1441853E+04  0.7818609E-02  0.8924068E-01
       -2   -1    0    0    0  501  0.00000000000E+00  0.00000000000E+00  0.35274620144E+03  0.35274620145E+03  0.25500000920E-02 0.  1.
        2   -1    0    0  501    0  0.00000000000E+00  0.00000000000E+00 -0.14733968014E+04  0.14733968014E+04  0.25500000920E-02 0. -1.
    10030    2    1    2    0    0  0.00000000000E+00  0.00000000000E+00 -0.11206506000E+04  0.18261430029E+04  0.14418531478E+04 0.  0.
        3    1    3    3  502    0 -0.30936616110E+03 -0.39444772408E+03 -0.12165254206E+04  0.13157623409E+04  0.10100000352E+00 0. -1.
       -3    1    3    3    0  502  0.30936616110E+03  0.39444772408E+03  0.95874820588E+02  0.51038066195E+03  0.10100000352E+00 0.  1.
</event>
<event>
 5   0  0.1120053E-03  0.1354979E+04  0.7818609E-02  0.8987068E-01
        2   -1    0    0  501    0  0.00000000000E+00  0.00000000000E+00  0.61115143891E+03  0.61115143892E+03  0.25500000920E-02 0.  1.
       -2   -1    0    0    0  501  0.00000000000E+00  0.00000000000E+00 -0.75102786605E+03  0.75102786606E+03  0.25500000920E-02 0. -1.
    10030    2    1    2    0    0  0.00000000000E+00  0.00000000000E+00 -0.13987642714E+03  0.13621793050E+04  0.13549786139E+04 0.  0.
        2    1    3    3  502    0 -0.23906894843E+03  0.52521260586E+02 -0.70502261641E+03  0.74630378170E+03  0.25500000920E-02 0. -1.
       -2    1    3    3    0  502  0.23906894843E+03 -0.52521260586E+02  0.56514618927E+03  0.61587552328E+03  0.25500000920E-02 0.  1.
</event>
<event>
 5   0  0.6194742E-04  0.1396222E+04  0.7818609E-02  0.8956558E-01
        1   -1    0    0  501    0  0.00000000000E+00  0.00000000000E+00  0.20631700363E+04  0.20631700363E+04  0.50400001928E-02 0. -1.
       -1   -1    0    0    0  501  0.00000000000E+00  0.00000000000E+00 -0.23621847683E+03  0.23621847688E+03  0.50400001928E-02 0.  1.
    10030    2    1    2    0    0  0.00000000000E+00  0.00000000000E+00  0.18269515595E+04  0.22993885132E+04  0.13962218785E+04 0.  0.
        4    1    3    3  502    0 -0.15431971116E+03 -0.34604140652E+02 -0.20632591107E+03  0.25996925642E+03  0.12699999809E+01 0.  1.
       -4    1    3    3    0  502  0.15431971116E+03  0.34604140652E+02  0.20332774706E+04  0.20394192568E+04  0.12699999809E+01 0. -1.
</event>
<event>
 5   0  0.1175146E-03  0.1386827E+04  0.7818609E-02  0.8963410E-01
        2   -1    0    0  501    0  0.00000000000E+00  0.00000000000E+00  0.94373137521E+03  0.94373137522E+03  0.25500000920E-02 0.  1.
       -2   -1    0    0    0  501  0.00000000000E+00  0.00000000000E+00 -0.50949046284E+03  0.50949046285E+03  0.25500000920E-02 0. -1.
    10030    2    1    2    0    0  0.00000000000E+00  0.00000000000E+00  0.43424091237E+03  0.14532218381E+04  0.13868267883E+04 0.  0.
        1    1    3    3  502    0  0.90678209064E+02  0.22978837665E+03 -0.46181627778E+03  0.52373610730E+03  0.50400001928E-02 0. -1.
       -1    1    3    3    0  502 -0.90678209064E+02 -0.22978837665E+03  0.89605719015E+03  0.92948573076E+03  0.50400001928E-02 0.  1.
</event>
<event>
 5   0  0.1095119E-03  0.1396743E+04  0.7818609E-02  0.8956179E-01
        2   -1    0    0  501    0  0.00000000000E+00  0.00000000000E+00  0.13833557997E+04  0.13833557997E+04  0.25500000920E-02 0.  1.
       -2   -1    0    0    0  501  0.00000000000E+00  0.00000000000E+00 -0.35256509491E+03  0.35256509491E+03  0.25500000920E-02 0. -1.
    10030    2    1    2    0    0  0.00000000000E+00  0.00000000000E+00  0.10307907048E+04  0.17359208946E+04  0.13967433104E+04 0.  0.
        5    1    3    3  502    0 -0.36004632294E+03 -0.34675021840E+03  0.11215009589E+04  0.12278662629E+04  0.46999998093E+01 0.  1.
       -5    1    3    3    0  502  0.36004632294E+03  0.34675021840E+03 -0.90710254141E+02  0.50805463174E+03  0.46999998093E+01 0. -1.
</event>
<event>
 5   0  0.6194742E-04  0.1403501E+04  0.7818609E-02  0.8951288E-01
        1   -1    0    0  501    0  0.00000000000E+00  0.00000000000E+00  0.10141776603E+04  0.10141776603E+04  0.50400001928E-02 0.  1.
       -1   -1    0    0    0  501  0.00000000000E+00  0.00000000000E+00 -0.48556977775E+03  0.48556977778E+03  0.50400001928E-02 0. -1.
    10030    2    1    2    0    0  0.00000000000E+00  0.00000000000E+00  0.52860788250E+03  0.14997474380E+04  0.14035013660E+04 0.  0.
        4    1    3    3  502    0 -0.65109779996E+03 -0.11510365980E+03  0.51553335911E+03  0.83842319557E+03  0.12699999809E+01 0.  1.
       -4    1    3    3    0  502  0.65109779996E+03  0.11510365980E+03  0.13074523390E+02  0.66132424247E+03  0.12699999809E+01 0. -1.
</event>
<event>
 5   0  0.1175146E-03  0.1397195E+04  0.7818609E-02  0.8955852E-01
       -2   -1    0    0    0  501  0.00000000000E+00  0.00000000000E+00  0.52116850240E+03  0.52116850241E+03  0.25500000920E-02 0. -1.
        2   -1    0    0  501    0  0.00000000000E+00  0.00000000000E+00 -0.93643102817E+03  0.93643102818E+03  0.25500000920E-02 0.  1.
    10030    2    1    2    0    0  0.00000000000E+00  0.00000000000E+00 -0.41526252577E+03  0.14575995306E+04  0.13971948419E+04 0.  0.
        1    1    3    3  502    0  0.37461057920E+03 -0.25874209425E+03  0.34514216840E+03  0.57131748951E+03  0.50400001928E-02 0. -1.
       -1    1    3    3    0  502 -0.37461057920E+03  0.25874209425E+03 -0.76040469417E+03  0.88628204107E+03  0.50400001928E-02 0.  1.
</event>
<event>
 5   0  0.5875298E-04  0.1418289E+04  0.7818609E-02  0.8940685E-01
       -1   -1    0    0    0  501  0.00000000000E+00  0.00000000000E+00  0.54636597129E+03  0.54636597132E+03  0.50400001928E-02 0.  1.
        1   -1    0    0  501    0  0.00000000000E+00  0.00000000000E+00 -0.92041974831E+03  0.92041974832E+03  0.50400001928E-02 0. -1.
    10030    2    1    2    0    0  0.00000000000E+00  0.00000000000E+00 -0.37405377701E+03  0.14667857196E+04  0.14182891522E+04 0.  0.
        1    1    3    3  502    0 -0.44100734509E+03 -0.55640607563E+02  0.38440858379E+03  0.58766769092E+03  0.50400001928E-02 0.  1.
       -1    1    3    3    0  502  0.44100734509E+03  0.55640607563E+02 -0.75846236080E+03  0.87911802872E+03  0.50400001928E-02 0. -1.
</event>
<event>
 5   0  0.1175146E-03  0.1419788E+04  0.7818609E-02  0.8939618E-01
        2   -1    0    0  501    0  0.00000000000E+00  0.00000000000E+00  0.20023134733E+04  0.20023134733E+04  0.25500000920E-02 0. -1.
       -2   -1    0    0    0  501  0.00000000000E+00  0.00000000000E+00 -0.25168373623E+03  0.25168373625E+03  0.25500000920E-02 0.  1.
    10030    2    1    2    0    0  0.00000000000E+00  0.00000000000E+00  0.17506297370E+04  0.22539972095E+04  0.14197883449E+04 0.  0.
        1    1    3    3  502    0  0.33339930845E+03 -0.25877053453E+02 -0.11881252628E+03  0.35488186372E+03  0.50400001928E-02 0.  1.
       -1    1    3    3    0  502 -0.33339930845E+03  0.25877053453E+02  0.18694422633E+04  0.18991153458E+04  0.50400001928E-02 0. -1.
</event>
<event>
 5   0  0.6194742E-04  0.1405639E+04  0.7818609E-02  0.8949747E-01
       -1   -1    0    0    0  501  0.00000000000E+00  0.00000000000E+00  0.11460206242E+04  0.11460206242E+04  0.50400001928E-02 0.  1.
        1   -1    0    0  501    0  0.00000000000E+00  0.00000000000E+00 -0.43101759785E+03  0.43101759788E+03  0.50400001928E-02 0. -1.
    10030    2    1    2    0    0  0.00000000000E+00  0.00000000000E+00  0.71500302632E+03  0.15770382221E+04  0.14056387253E+04 0.  0.
        4    1    3    3  502    0  0.86865895074E+02  0.46831877606E+03 -0.22231887935E+03  0.52563814241E+03  0.12699999809E+01 0. -1.
       -4    1    3    3    0  502 -0.86865895074E+02 -0.46831877606E+03  0.93732190566E+03  0.10514000796E+04  0.12699999809E+01 0.  1.
</event>
<event>
 5   0  0.1120053E-03  0.1399252E+04  0.7818609E-02  0.8954360E-01
        2   -1    0    0  501    0  0.00000000000E+00  0.00000000000E+00  0.33315961342E+03  0.33315961343E+03  0.25500000920E-02 0.  1.
       -2   -1    0    0    0  501  0.00000000000E+00  0.00000000000E+00 -0.14691947021E+04  0.14691947021E+04  0.25500000920E-02 0. -1.
    10030    2    1    2    0    0  0.00000000000E+00  0.00000000000E+00 -0.11360350887E+04  0.18023543155E+04  0.13992517129E+04 0.  0.
        2    1    3    3  502    0  0.63776432065E+02  0.70863637181E+02 -0.14607885142E+04  0.14638962298E+04  0.25500000920E-02 0. -1.
       -2    1    3    3    0  502 -0.63776432065E+02 -0.70863637181E+02  0.32475342555E+03  0.33845808570E+03  0.25500000920E-02 0.  1.
</event>
<event>
 5   0  0.1120053E-03  0.1418132E+04  0.7818609E-02  0.8940797E-01
        2   -1    0    0  501    0  0.00000000000E+00  0.00000000000E+00  0.11533683978E+04  0.11533683978E+04  0.25500000920E-02 0. -1.
       -2   -1    0    0    0  501  0.00000000000E+00  0.00000000000E+00 -0.43591842394E+03  0.43591842395E+03  0.25500000920E-02 0.  1.
    10030    2    1    2    0    0  0.00000000000E+00  0.00000000000E+00  0.71744997386E+03  0.15892868218E+04  0.14181319180E+04 0.  0.
        2    1    3    3  502    0  0.17735990965E+03  0.60946618328E+03  0.45638267436E+01  0.63476483412E+03  0.25500000920E-02 0.  1.
       -2    1    3    3    0  502 -0.17735990965E+03 -0.60946618328E+03  0.71288614712E+03  0.95452198763E+03  0.25500000920E-02 0. -1.
</event>
<event>
 5   0  0.6194742E-04  0.1408181E+04  0.7818609E-02  0.8947918E-01
        1   -1    0    0  501    0  0.00000000000E+00  0.00000000000E+00  0.47891226975E+03  0.47891226978E+03  0.50400001928E-02 0.  1.
       -1   -1    0    0    0  501  0.00000000000E+00  0.00000000000E+00 -0.10351440927E+04  0.10351440927E+04  0.50400001928E-02 0. -1.
    10030    2    1    2    0    0  0.00000000000E+00  0.00000000000E+00 -0.55623182297E+03  0.15140563625E+04  0.14081806802E+04 0.  0.
        4    1    3    3  502    0  0.19640575810E+03 -0.64255597432E+03 -0.50438625556E+03  0.84015505096E+03  0.12699999809E+01 0.  1.
       -4    1    3    3    0  502 -0.19640575810E+03  0.64255597432E+03 -0.51845567415E+02  0.67390131156E+03  0.12699999809E+01 0. -1.
</event>
<event>
 5   0  0.6153318E-04  0.1395093E+04  0.7818609E-02  0.8957378E-01
       -1   -1    0    0    0  501  0.00000000000E+00  0.00000000000E+00  0.32782091454E+03  0.32782091458E+03  0.50400001928E-02 0. -1.
        1   -1    0    0  501    0  0.00000000000E+00  0.00000000000E+00 -0.14842598362E+04  0.14842598362E+04  0.50400001928E-02 0.  1.
    10030    2    1    2    0    0  0.00000000000E+00  0.00000000000E+00 -0.11564389217E+04  0.18120807508E+04  0.13950934262E+04 0.  0.
        5    1    3    3  502    0 -0.15237536711E+03  0.53506248225E+02 -0.14596215092E+04  0.14685360776E+04  0.46999998093E+01 0.  1.
       -5    1    3    3    0  502  0.15237536711E+03 -0.53506248225E+02  0.30318258753E+03  0.34354467320E+03  0.46999998093E+01 0. -1.
</event>
<event>
 5   0  0.6097538E-04  0.1382585E+04  0.7818609E-02  0.8966522E-01
        1   -1    0    0  501    0  0.00000000000E+00  0.00000000000E+00  0.89981887493E+03  0.89981887494E+03  0.50400001928E-02 0. -1.
       -1   -1    0    0    0  501  0.00000000000E+00  0.00000000000E+00 -0.53109051256E+03  0.53109051259E+03  0.50400001928E-02 0.  1.
    10030    2    1    2    0    0  0.00000000000E+00  0.00000000000E+00  0.36872836236E+03  0.14309093875E+04  0.13825849233E+04 0.  0.
        2    1    3    3  502    0 -0.22796001041E+03  0.42260232936E+03  0.69906621126E+03  0.84808729672E+03  0.25500000920E-02 0. -1.
       -2    1    3    3    0  502  0.22796001041E+03 -0.42260232936E+03 -0.33033784890E+03  0.58282209081E+03  0.25500000920E-02 0.  1.
</event>
<event>
 5   0  0.1108819E-03  0.1408999E+04  0.7818609E-02  0.8947331E-01
        2   -1    0    0  501    0  0.00000000000E+00  0.00000000000E+00  0.20498341904E+04  0.20498341904E+04  0.25500000920E-02 0.  1.
       -2   -1    0    0    0  501  0.00000000000E+00  0.00000000000E+00 -0.24212656178E+03  0.24212656179E+03  0.25500000920E-02 0. -1.
    10030    2    1    2    0    0  0.00000000000E+00  0.00000000000E+00  0.18077076286E+04  0.22919607522E+04  0.14089986583E+04 0.  0.
        3    1    3    3  502    0 -0.42589013013E+02 -0.70273413708E+03  0.94596522773E+03  0.11791943494E+04  0.10100000352E+00 0.  1.
       -3    1    3    3    0  502  0.42589013013E+02  0.70273413708E+03  0.86174240090E+03  0.11127664028E+04  0.10100000352E+00 0. -1.
</event>
<event>
 5   0  0.6097538E-04  0.1406105E+04  0.7818609E-02  0.8949412E-01
        1   -1    0    0  501    0  0.00000000000E+00  0.00000000000E+00  0.84250949702E+03  0.84250949703E+03  0.50400001928E-02 0.  1.
       -1   -1    0    0    0  501  0.00000000000E+00  0.00000000000E+00 -0.58667893275E+03  0.58667893278E+03  0.50400001928E-02 0. -1.
    10030    2    1    2    0    0  0.00000000000E+00  0.00000000000E+00  0.25583056426E+03  0.14291884298E+04  0.14061046513E+04 0.  0.
        2    1    3    3  502    0  0.15397004614E+03 -0.21775820054E+03  0.78909983015E+03  0.83294894860E+03  0.25500000920E-02 0.  1.
       -2    1    3    3    0  502 -0.15397004614E+03  0.21775820054E+03 -0.53326926589E+03  0.59623948122E+03  0.25500000920E-02 0. -1.
</event>
<event>
 5   0  0.5875298E-04  0.1405200E+04  0.7818609E-02  0.8950063E-01
       -1   -1    0    0    0  501  0.00000000000E+00  0.00000000000E+00  0.69691724994E+03  0.69691724996E+03  0.50400001928E-02 0.  1.
        1   -1    0    0  501    0  0.00000000000E+00  0.00000000000E+00 -0.70832859951E+03  0.70832859953E+03  0.50400001928E-02 0. -1.
    10030    2    1    2    0    0  0.00000000000E+00  0.00000000000E+00 -0.11411349565E+02  0.14052458495E+04  0.14051995156E+04 0.  0.
        1    1    3    3  502    0 -0.26849838728E+03 -0.53292762329E+03 -0.37658605255E+03  0.70563467222E+03  0.50400001928E-02 0. -1.
       -1    1    3    3    0  502  0.26849838728E+03  0.53292762329E+03  0.36517470299E+03  0.69961117727E+03  0.50400001928E-02 0.  1.
</event>
<event>
 5   0  0.1175146E-03  0.1384394E+04  0.7818609E-02  0.8965193E-01
        2   -1    0    0  501    0  0.00000000000E+00  0.00000000000E+00  0.17396641278E+04  0.17396641278E+04  0.25500000920E-02 0.  1.
       -2   -1    0    0    0  501  0.00000000000E+00  0.00000000000E+00 -0.27541890485E+03  0.27541890486E+03  0.25500000920E-02 0. -1.
    10030    2    1    2    0    0  0.00000000000E+00  0.00000000000E+00  0.14642452229E+04  0.20150830326E+04  0.13843935696E+04 0.  0.
        1    1    3    3  502    0  0.37110966661E+03 -0.31158007030E+03  0.14516103994E+04  0.15303520107E+04  0.50400001928E-02 0.  1.
       -1    1    3    3    0  502 -0.37110966661E+03  0.31158007030E+03  0.12634823511E+02  0.48473102196E+03  0.50400001928E-02 0. -1.
</event>
<event>
 5   0  0.6153318E-04  0.1410509E+04  0.7818609E-02  0.8946247E-01
       -1   -1    0    0    0  501  0.00000000000E+00  0.00000000000E+00  0.32398722015E+03  0.32398722018E+03  0.50400001928E-02 0.  1.
        1   -1    0    0  501    0  0.00000000000E+00  0.00000000000E+00 -0.15351952357E+04  0.15351952357E+04  0.50400001928E-02 0. -1.
    10030    2    1    2    0    0  0.00000000000E+00  0.00000000000E+00 -0.12112080155E+04  0.18591824559E+04  0.14105086130E+04 0.  0.
        5    1    3    3  502    0 -0.31976053893E+03  0.28900544150E+03 -0.13413678533E+04  0.14089218415E+04  0.46999998093E+01 0. -1.
       -5    1    3    3    0  502  0.31976053893E+03 -0.28900544150E+03  0.13015983781E+03  0.45026061437E+03  0.46999998093E+01 0.  1.
</event>
<event>
 5   0  0.6153318E-04  0.1398305E+04  0.7818609E-02  0.8955046E-01
        1   -1    0    0  501    0  0.00000000000E+00  0.00000000000E+00  0.10544338989E+04  0.10544338989E+04  0.50400001928E-02 0.  1.
       -1   -1    0    0    0  501  0.00000000000E+00  0.00000000000E+00 -0.46357990871E+03  0.46357990874E+03  0.50400001928E-02 0. -1.
    10030    2    1    2    0    0  0.00000000000E+00  0.00000000000E+00  0.59085399017E+03  0.15180138076E+04  0.13983052179E+04 0.  0.
        5    1    3    3  502    0 -0.47303776691E+03  0.38231261305E+03 -0.78855953652E+02  0.61332537405E+03  0.46999998093E+01 0. -1.
       -5    1    3    3    0  502  0.47303776691E+03 -0.38231261305E+03  0.66970994383E+03  0.90468843360E+03  0.46999998093E+01 0.  1.
</event>
<event>
 5   0  0.1120053E-03  0.1395022E+04  0.7818609E-02  0.8957429E-01
       -2   -1    0    0    0  501  0.00000000000E+00  0.00000000000E+00  0.54852791307E+03  0.54852791307E+03  0.25500000920E-02 0. -1.
        2   -1    0    0  501    0  0.00000000000E+00  0.00000000000E+00 -0.88695923142E+03  0.88695923142E+03  0.25500000920E-02 0.  1.
    10030    2    1    2    0    0  0.00000000000E+00  0.00000000000E+00 -0.33843131835E+03  0.14354871445E+04  0.13950224316E+04 0.  0.
        2    1    3    3  502    0 -0.43217456182E+03 -0.95271155170E+02  0.38556148289E+03  0.58694897732E+03  0.25500000920E-02 0. -1.
       -2    1    3    3    0  502  0.43217456182E+03  0.95271155170E+02 -0.72399280123E+03  0.84853816717E+03  0.25500000920E-02 0.  1.
</event>
<event>
 5   0  0.1120053E-03  0.1292083E+04  0.7818609E-02  0.9035867E-01
       -2   -1    0    0    0  501  0.00000000000E+00  0.00000000000E+00  0.29139759806E+03  0.29139759807E+03  0.25500000920E-02 0. -1.
        2   -1    0    0  501    0  0.00000000000E+00  0.00000000000E+00 -0.14323035707E+04  0.14323035707E+04  0.25500000920E-02 0.  1.
    10030    2    1    2    0    0  0.00000000000E+00  0.00000000000E+00 -0.11409059727E+04  0.17237011688E+04  0.12920833103E+04 0.  0.
        2    1    3    3  502    0 -0.17684066629E+02 -0.52378110941E+03 -0.66489191977E+02  0.52828040796E+03  0.25500000920E-02 0. -1.
       -2    1    3    3    0  502  0.17684066629E+02  0.52378110941E+03 -0.10744167807E+04  0.11954207608E+04  0.25500000920E-02 0.  1.
</event>
<event>
 5   0  0.6114266E-04  0.1398453E+04  0.7818609E-02  0.8954939E-01
       -1   -1    0    0    0  501  0.00000000000E+00  0.00000000000E+00  0.16107246436E+04  0.16107246436E+04  0.50400001928E-02 0.  1.
        1   -1    0    0  501    0  0.00000000000E+00  0.00000000000E+00 -0.30353900097E+03  0.30353900101E+03  0.50400001928E-02 0. -1.
    10030    2    1    2    0    0  0.00000000000E+00  0.00000000000E+00  0.13071856426E+04  0.19142636446E+04  0.13984530728E+04 0.  0.
        3    1    3    3  502    0 -0.29101497066E+03 -0.19941856916E+03  0.14799711970E+04  0.15214375548E+04  0.10100000352E+00 0.  1.
       -3    1    3    3    0  502  0.29101497066E+03  0.19941856916E+03 -0.17278555438E+03  0.39282608986E+03  0.10100000352E+00 0. -1.
</event>
<event>
 5   0  0.1095119E-03  0.1401743E+04  0.7818609E-02  0.8952558E-01
       -2   -1    0    0    0  501  0.00000000000E+00  0.00000000000E+00  0.95442496252E+03  0.95442496252E+03  0.25500000920E-02 0. -1.
        2   -1    0    0  501    0  0.00000000000E+00  0.00000000000E+00 -0.51467703292E+03  0.51467703292E+03  0.25500000920E-02 0.  1.
    10030    2    1    2    0    0  0.00000000000E+00  0.00000000000E+00  0.43974792960E+03  0.14691019954E+04  0.14017426409E+04 0.  0.
        5    1    3    3  502    0  0.15091059126E+03 -0.40556836855E+03 -0.35792497825E+03  0.56159779929E+03  0.46999998093E+01 0.  1.
       -5    1    3    3    0  502 -0.15091059126E+03  0.40556836855E+03  0.79767290785E+03  0.90750419615E+03  0.46999998093E+01 0. -1.
</event>
<event>
 5   0  0.6194742E-04  0.1407710E+04  0.7818609E-02  0.8948257E-01
       -1   -1    0    0    0  501  0.00000000000E+00  0.00000000000E+00  0.33837094918E+03  0.33837094921E+03  0.50400001928E-02 0.  1.
        1   -1    0    0  501    0  0.00000000000E+00  0.00000000000E+00 -0.14641079781E+04  0.14641079781E+04  0.50400001928E-02 0. -1.
    10030    2    1    2    0    0  0.00000000000E+00  0.00000000000E+00 -0.11257370289E+04  0.18024789273E+04  0.14077096381E+04 0.  0.
        4    1    3    3  502    0  0.43909158237E+03 -0.99131636965E+02  0.12996505715E+03  0.46853071205E+03  0.12699999809E+01 0.  1.
       -4    1    3    3    0  502 -0.43909158237E+03  0.99131636965E+02 -0.12557020861E+04  0.13339482153E+04  0.12699999809E+01 0. -1.
</event>
<event>
 5   0  0.1120053E-03  0.1408120E+04  0.7818609E-02  0.8947962E-01
        2   -1    0    0  501    0  0.00000000000E+00  0.00000000000E+00  0.99202388044E+03  0.99202388045E+03  0.25500000920E-02 0. -1.
       -2   -1    0    0    0  501  0.00000000000E+00  0.00000000000E+00 -0.49968622970E+03  0.49968622971E+03  0.25500000920E-02 0.  1.
    10030    2    1    2    0    0  0.00000000000E+00  0.00000000000E+00  0.49233765074E+03  0.14917101102E+04  0.14081202684E+04 0.  0.
        2    1    3    3  502    0  0.54532854183E+03 -0.29872809481E+03 -0.10370803151E+03  0.63037849660E+03  0.25500000920E-02 0.  1.
       -2    1    3    3    0  502 -0.54532854183E+03  0.29872809481E+03  0.59604568226E+03  0.86133161356E+03  0.25500000920E-02 0. -1.
</event>
<event>
 5   0  0.6114266E-04  0.1414579E+04  0.7818609E-02  0.8943333E-01
       -1   -1    0    0    0  501  0.00000000000E+00  0.00000000000E+00  0.91542808463E+03  0.91542808465E+03  0.50400001928E-02 0. -1.
        1   -1    0    0  501    0  0.00000000000E+00  0.00000000000E+00 -0.54647497679E+03  0.54647497681E+03  0.50400001928E-02 0.  1.
    10030    2    1    2    0    0  0.00000000000E+00  0.00000000000E+00  0.36895310784E+03  0.14619030615E+04  0.14145791478E+04 0.  0.
        3    1    3    3  502    0  0.51985275693E+03  0.41566448144E+02 -0.30929826611E+03  0.60633331272E+03  0.10100000352E+00 0.  1.
       -3    1    3    3    0  502 -0.51985275693E+03 -0.41566448144E+02  0.67825137395E+03  0.85556974874E+03  0.10100000352E+00 0. -1.
</event>
<event>
 5   0  0.6153318E-04  0.1394304E+04  0.7818609E-02  0.8957952E-01
        1   -1    0    0  501    0  0.00000000000E+00  0.00000000000E+00  0.93915695765E+03  0.93915695767E+03  0.50400001928E-02 0.  1.
       -1   -1    0    0    0  501  0.00000000000E+00  0.00000000000E+00 -0.51750747094E+03  0.51750747097E+03  0.50400001928E-02 0. -1.
    10030    2    1    2    0    0  0.00000000000E+00  0.00000000000E+00  0.42164948671E+03  0.14566644286E+04  0.13943037574E+04 0.  0.
        5    1    3    3  502    0  0.36606653080E+03 -0.25539858241E+02 -0.40842658002E+03  0.54908228035E+03  0.46999998093E+01 0. -1.
       -5    1    3    3    0  502 -0.36606653080E+03  0.25539858241E+02  0.83007606673E+03  0.90758214828E+03  0.46999998093E+01 0.  1.
</event>
<event>
 5   0  0.6097538E-04  0.1453236E+04  0.7818609E-02  0.8916160E-01
       -1   -1    0    0    0  501  0.00000000000E+00  0.00000000000E+00  0.82899646114E+03  0.82899646116E+03  0.50400001928E-02 0. -1.
        1   -1    0    0  501    0  0.00000000000E+00  0.00000000000E+00 -0.63688313006E+03  0.63688313008E+03  0.50400001928E-02 0.  1.
    10030    2    1    2    0    0  0.00000000000E+00  0.00000000000E+00  0.19211333109E+03  0.14658795912E+04  0.14532361969E+04 0.  0.
        2    1    3    3  502    0  0.38356485632E+03  0.40411745439E+03  0.56652738245E+03  0.79459813178E+03  0.25500000920E-02 0. -1.
       -2    1    3    3    0  502 -0.38356485632E+03 -0.40411745439E+03 -0.37441405137E+03  0.67128145946E+03  0.25500000920E-02 0.  1.
</event>
<event>
 5   0  0.6153318E-04  0.1407848E+04  0.7818609E-02  0.8948157E-01
        1   -1    0    0  501    0  0.00000000000E+00  0.00000000000E+00  0.46502385245E+03  0.46502385248E+03  0.50400001928E-02 0.  1.
       -1   -1    0    0    0  501  0.00000000000E+00  0.00000000000E+00 -0.10655559703E+04  0.10655559703E+04  0.50400001928E-02 0. -1.
    10030    2    1    2    0    0  0.00000000000E+00  0.00000000000E+00 -0.60053211783E+03  0.15305798228E+04  0.14078479212E+04 0.  0.
        5    1    3    3  502    0 -0.53304145458E+03 -0.20318695246E+03 -0.74861119692E+03  0.94120079904E+03  0.46999998093E+01 0. -1.
       -5    1    3    3    0  502  0.53304145458E+03  0.20318695246E+03  0.14807907910E+03  0.58937902373E+03  0.46999998093E+01 0.  1.
</event>
<event>
 5   0  0.1120053E-03  0.1242870E+04  0.7818609E-02  0.9076138E-01
        2   -1    0    0  501    0  0.00000000000E+00  0.00000000000E+00  0.10357946028E+04  0.10357946028E+04  0.25500000920E-02 0.  1.
       -2   -1    0    0    0  501  0.00000000000E+00  0.00000000000E+00 -0.37283601725E+03  0.37283601726E+03  0.25500000920E-02 0. -1.
    10030    2    1    2    0    0  0.00000000000E+00  0.00000000000E+00  0.66295858552E+03  0.14086306200E+04  0.12428701210E+04 0.  0.
        2    1    3    3  502    0 -0.45289771928E+03 -0.19968665334E+03  0.75734631266E+03  0.90474556697E+03  0.25500000920E-02 0.  1.
       -2    1    3    3    0  502  0.45289771928E+03  0.19968665334E+03 -0.94387727140E+02  0.50388505305E+03  0.25500000920E-02 0. -1.
</event>
<event>
 5   0  0.1120053E-03  0.1370589E+04  0.7818609E-02  0.8975388E-01
       -2   -1    0    0    0  501  0.00000000000E+00  0.00000000000E+00  0.20205408469E+03  0.20205408470E+03  0.25500000920E-02 0. -1.
        2   -1    0    0  501    0  0.00000000000E+00  0.00000000000E+00 -0.23242699061E+04  0.23242699061E+04  0.25500000920E-02 0.  1.
    10030    2    1    2    0    0  0.00000000000E+00  0.00000000000E+00 -0.21222158214E+04  0.25263239908E+04  0.13705885283E+04 0.  0.
        2    1    3    3  502    0  0.27473670366E+01  0.51374513006E+03 -0.18970669082E+04  0.19654018573E+04  0.25500000920E-02 0.  1.
       -2    1    3    3    0  502 -0.27473670366E+01 -0.51374513006E+03 -0.22514891322E+03  0.56092213347E+03  0.25500000920E-02 0. -1.
</event>
<event>
 5   0  0.6194742E-04  0.1406381E+04  0.7818609E-02  0.8949212E-01
        1   -1    0    0  501    0  0.00000000000E+00  0.00000000000E+00  0.50258723505E+03  0.50258723508E+03  0.50400001928E-02 0.  1.
       -1   -1    0    0    0  501  0.00000000000E+00  0.00000000000E+00 -0.98386327393E+03  0.98386327395E+03  0.50400001928E-02 0. -1.
    10030    2    1    2    0    0  0.00000000000E+00  0.00000000000E+00 -0.48127603888E+03  0.14864505090E+04  0.14063813459E+04 0.  0.
        4    1    3    3  502    0  0.30966259426E+03  0.33900462975E+03  0.32228207161E+03  0.56096560310E+03  0.12699999809E+01 0.  1.
       -4    1    3    3    0  502 -0.30966259426E+03 -0.33900462975E+03 -0.80355811049E+03  0.92548490593E+03  0.12699999809E+01 0. -1.
</event>
<event>
 5   0  0.1098949E-03  0.1402329E+04  0.7818609E-02  0.8952135E-01
        2   -1    0    0  501    0  0.00000000000E+00  0.00000000000E+00  0.14879503074E+04  0.14879503074E+04  0.25500000920E-02 0.  1.
       -2   -1    0    0    0  501  0.00000000000E+00  0.00000000000E+00 -0.33040844498E+03  0.33040844498E+03  0.25500000920E-02 0. -1.
    10030    2    1    2    0    0  0.00000000000E+00  0.00000000000E+00  0.11575418624E+04  0.18183587524E+04  0.14023285596E+04 0.  0.
        4    1    3    3  502    0 -0.60599579973E+03 -0.19249453538E+03  0.19555106160E+03  0.66522694326E+03  0.12699999809E+01 0. -1.
       -4    1    3    3    0  502  0.60599579973E+03  0.19249453538E+03  0.96199080083E+03  0.11531318091E+04  0.12699999809E+01 0.  1.
</event>
<event>
 5   0  0.4176125E-04  0.1388170E+04  0.7818609E-02  0.8962426E-01
        3   -1    0    0  501    0  0.00000000000E+00  0.00000000000E+00  0.13709575892E+04  0.13709575930E+04  0.10100000352E+00 0.  1.
       -3   -1    0    0    0  501  0.00000000000E+00  0.00000000000E+00 -0.35139965678E+03  0.35139967130E+03  0.10100000352E+00 0. -1.
    10030    2    1    2    0    0  0.00000000000E+00  0.00000000000E+00  0.10195579325E+04  0.17223572643E+04  0.13881700790E+04 0.  0.
        4    1    3    3  502    0 -0.25557608197E+03 -0.51462162292E+03  0.99286794191E+03  0.11471455494E+04  0.12699999809E+01 0.  1.
       -4    1    3    3    0  502  0.25557608197E+03  0.51462162292E+03  0.26689990544E+02  0.57521171489E+03  0.12699999809E+01 0. -1.
</event>
<event>
 5   0  0.6153318E-04  0.1407571E+04  0.7818609E-02  0.8948357E-01
        1   -1    0    0  501    0  0.00000000000E+00  0.00000000000E+00  0.77439458259E+03  0.77439458260E+03  0.50400001928E-02 0.  1.
       -1   -1    0    0    0  501  0.00000000000E+00  0.00000000000E+00 -0.63961414951E+03  0.63961414953E+03  0.50400001928E-02 0. -1.
    10030    2    1    2    0    0  0.00000000000E+00  0.00000000000E+00  0.13478043307E+03  0.14140087321E+04  0.14075705771E+04 0.  0.
        5    1    3    3  502    0 -0.27162614614E+03 -0.35095223050E+03 -0.48131632372E+03  0.65470277595E+03  0.46999998093E+01 0. -1.
       -5    1    3    3    0  502  0.27162614614E+03  0.35095223050E+03  0.61609675679E+03  0.75930595618E+03  0.46999998093E+01 0.  1.
</event>
<event>
 5   0  0.6114266E-04  0.1390756E+04  0.7818609E-02  0.8960537E-01
       -1   -1    0    0    0  501  0.00000000000E+00  0.00000000000E+00  0.50763694933E+03  0.50763694936E+03  0.50400001928E-02 0. -1.
        1   -1    0    0  501    0  0.00000000000E+00  0.00000000000E+00 -0.95255216618E+03  0.95255216619E+03  0.50400001928E-02 0.  1.
    10030    2    1    2    0    0  0.00000000000E+00  0.00000000000E+00 -0.44491521685E+03  0.14601891156E+04  0.13907561623E+04 0.  0.
        3    1    3    3  502    0  0.14379442469E+03 -0.18025063976E+03  0.46633097240E+03  0.52022275587E+03  0.10100000352E+00 0. -1.
       -3    1    3    3    0  502 -0.14379442469E+03  0.18025063976E+03 -0.91124618925E+03  0.93996635968E+03  0.10100000352E+00 0.  1.
</event>
<event>
 5   0  0.1120053E-03  0.1399596E+04  0.7818609E-02  0.8954111E-01
        2   -1    0    0  501    0  0.00000000000E+00  0.00000000000E+00  0.13706685145E+04  0.13706685145E+04  0.25500000920E-02 0. -1.
       -2   -1    0    0    0  501  0.00000000000E+00  0.00000000000E+00 -0.35728334659E+03  0.35728334660E+03  0.25500000920E-02 0.  1.
    10030    2    1    2    0    0  0.00000000000E+00  0.00000000000E+00  0.10133851679E+04  0.17279518611E+04  0.13995957044E+04 0.  0.
        2    1    3    3  502    0  0.63614559976E+03 -0.21532020085E+03  0.26390130238E+03  0.72158707749E+03  0.25500000920E-02 0. -1.
       -2    1    3    3    0  502 -0.63614559976E+03  0.21532020085E+03  0.74948386552E+03  0.10063647836E+04  0.25500000920E-02 0.  1.
</event>
<event>
 5   0  0.5875298E-04  0.1389154E+04  0.7818609E-02  0.8961707E-01
        1   -1    0    0  501    0  0.00000000000E+00  0.00000000000E+00  0.45986483970E+03  0.45986483973E+03  0.50400001928E-02 0.  1.
       -1   -1    0    0    0  501  0.00000000000E+00  0.00000000000E+00 -0.10490846493E+04  0.10490846493E+04  0.50400001928E-02 0. -1.
    10030    2    1    2    0    0  0.00000000000E+00  0.00000000000E+00 -0.58921980955E+03  0.15089494890E+04  0.13891539067E+04 0.  0.
        1    1    3    3  502    0  0.18869063963E+03 -0.20798345733E+03  0.39545022023E+03  0.48501768288E+03  0.50400001928E-02 0.  1.
       -1    1    3    3    0  502 -0.18869063963E+03  0.20798345733E+03 -0.98467002978E+03  0.10239318061E+04  0.50400001928E-02 0. -1.
</event>
<event>
 5   0  0.1120053E-03  0.1389609E+04  0.7818609E-02  0.8961374E-01
        2   -1    0    0  501    0  0.00000000000E+00  0.00000000000E+00  0.78417084373E+03  0.78417084373E+03  0.25500000920E-02 0.  1.
       -2   -1    0    0    0  501  0.00000000000E+00  0.00000000000E+00 -0.61562274197E+03  0.61562274197E+03  0.25500000920E-02 0. -1.
    10030    2    1    2    0    0  0.00000000000E+00  0.00000000000E+00  0.16854810176E+03  0.13997935857E+04  0.13896091609E+04 0.  0.
        2    1    3    3  502    0 -0.43917097895E+03 -0.20773152167E+03  0.58463360469E+03  0.76014471358E+03  0.25500000920E-02 0.  1.
       -2    1    3    3    0  502  0.43917097895E+03  0.20773152167E+03 -0.41608550293E+03  0.63964887212E+03  0.25500000920E-02 0. -1.
</event>
<event>
 5   0  0.1120053E-03  0.1417116E+04  0.7818609E-02  0.8941522E-01
        2   -1    0    0  501    0  0.00000000000E+00  0.00000000000E+00  0.10805263114E+04  0.10805263114E+04  0.25500000920E-02 0.  1.
       -2   -1    0    0    0  501  0.00000000000E+00  0.00000000000E+00 -0.46463873964E+03  0.46463873965E+03  0.25500000920E-02 0. -1.
    10030    2    1    2    0    0  0.00000000000E+00  0.00000000000E+00  0.61588757177E+03  0.15451650511E+04  0.14171159211E+04 0.  0.
        2    1    3    3  502    0 -0.34170749800E+03  0.25559893542E+03  0.92470497959E+03  0.10184174632E+04  0.25500000920E-02 0.  1.
       -2    1    3    3    0  502  0.34170749800E+03 -0.25559893542E+03 -0.30881740782E+03  0.52674758790E+03  0.25500000920E-02 0. -1.
</event>
<event>
 5   0  0.6114266E-04  0.1431733E+04  0.7818609E-02  0.8931164E-01
       -1   -1    0    0    0  501  0.00000000000E+00  0.00000000000E+00  0.46966597232E+03  0.46966597235E+03  0.50400001928E-02 0. -1.
        1   -1    0    0  501    0  0.00000000000E+00  0.00000000000E+00 -0.10911255988E+04  0.10911255988E+04  0.50400001928E-02 0.  1.
    10030    2    1    2    0    0  0.00000000000E+00  0.00000000000E+00 -0.62145962648E+03  0.15607915712E+04  0.14317326082E+04 0.  0.
        3    1    3    3  502    0  0.51125033940E+03 -0.26101374304E+03  0.15556484827E+03  0.59473146529E+03  0.10100000352E+00 0. -1.
       -3    1    3    3    0  502 -0.51125033940E+03  0.26101374304E+03 -0.77702447474E+03  0.96606010587E+03  0.10100000352E+00 0.  1.
</event>
<event>
 5   0  0.5875298E-04  0.1395649E+04  0.7818609E-02  0.8956974E-01
        1   -1    0    0  501    0  0.00000000000E+00  0.00000000000E+00  0.48282970994E+03  0.48282970996E+03  0.50400001928E-02 0.  1.
       -1   -1    0    0    0  501  0.00000000000E+00  0.00000000000E+00 -0.10085517180E+04  0.10085517180E+04  0.50400001928E-02 0. -1.
    10030    2    1    2    0    0  0.00000000000E+00  0.00000000000E+00 -0.52572200810E+03  0.14913814280E+04  0.13956485711E+04 0.  0.
        1    1    3    3  502    0 -0.55925802448E+03 -0.12065765184E+03  0.16408324952E+03  0.59518998621E+03  0.50400001928E-02 0.  1.
       -1    1    3    3    0  502  0.55925802448E+03  0.12065765184E+03 -0.68980525762E+03  0.89619144180E+03  0.50400001928E-02 0. -1.
</event>
<event>
 5   0  0.6114266E-04  0.1396993E+04  0.7818609E-02  0.8955998E-01
       -1   -1    0    0    0  501  0.00000000000E+00  0.00000000000E+00  0.58527041181E+03  0.58527041183E+03  0.50400001928E-02 0. -1.
        1   -1    0    0  501    0  0.00000000000E+00  0.00000000000E+00 -0.83362697914E+03  0.83362697916E+03  0.50400001928E-02 0.  1.
    10030    2    1    2    0    0  0.00000000000E+00  0.00000000000E+00 -0.24835656734E+03  0.14188973910E+04  0.13969927779E+04 0.  0.
        3    1    3    3  502    0  0.49525266407E+03  0.17505179212E+03  0.34345251812E+03  0.62759698342E+03  0.10100000352E+00 0. -1.
       -3    1    3    3    0  502 -0.49525266407E+03 -0.17505179212E+03 -0.59180908546E+03  0.79130040757E+03  0.10100000352E+00 0.  1.
</event>
<event>
 5   0  0.4176125E-04  0.1405257E+04  0.7818609E-02  0.8950022E-01
        3   -1    0    0  501    0  0.00000000000E+00  0.00000000000E+00  0.24855495826E+04  0.24855495847E+04  0.10100000352E+00 0.  1.
       -3   -1    0    0    0  501  0.00000000000E+00  0.00000000000E+00 -0.19862272766E+03  0.19862275334E+03  0.10100000352E+00 0. -1.
    10030    2    1    2    0    0  0.00000000000E+00  0.00000000000E+00  0.22869268549E+04  0.26841723380E+04  0.14052568093E+04 0.  0.
        2    1    3    3  502    0  0.28862405229E+03  0.48615956906E+03  0.19402993149E+04  0.20209939143E+04  0.25500000920E-02 0.  1.
       -2    1    3    3    0  502 -0.28862405229E+03 -0.48615956906E+03  0.34662754003E+03  0.66317842370E+03  0.25500000920E-02 0. -1.
</event>
<event>
 5   0  0.6194742E-04  0.1404027E+04  0.7818609E-02  0.8950909E-01
       -1   -1    0    0    0  501  0.00000000000E+00  0.00000000000E+00  0.91234728278E+03  0.91234728280E+03  0.50400001928E-02 0. -1.
        1   -1    0    0  501    0  0.00000000000E+00  0.00000000000E+00 -0.54017012088E+03  0.54017012090E+03  0.50400001928E-02 0.  1.
    10030    2    1    2    0    0  0.00000000000E+00  0.00000000000E+00  0.37217716191E+03  0.14525174037E+04  0.14040266978E+04 0.  0.
        4    1    3    3  502    0 -0.46705442942E+03  0.33007370465E+03 -0.23507421584E+03  0.61834455637E+03  0.12699999809E+01 0.  1.
       -4    1    3    3    0  502  0.46705442942E+03 -0.33007370465E+03  0.60725137774E+03  0.83417284733E+03  0.12699999809E+01 0. -1.
</event>
<event>
 5   0  0.6194742E-04  0.1368758E+04  0.7818609E-02  0.8976749E-01
       -1   -1    0    0    0  501  0.00000000000E+00  0.00000000000E+00  0.63482508241E+03  0.63482508243E+03  0.50400001928E-02 0. -1.
        1   -1    0    0  501    0  0.00000000000E+00  0.00000000000E+00 -0.73780129528E+03  0.73780129530E+03  0.50400001928E-02 0.  1.
    10030    2    1    2    0    0  0.00000000000E+00  0.00000000000E+00 -0.10297621287E+03  0.13726263777E+04  0.13687582228E+04 0.  0.
        4    1    3    3  502    0  0.48299449146E+03  0.47947580877E+03  0.20774017969E+02  0.68089199048E+03  0.12699999809E+01 0.  1.
       -4    1    3    3    0  502 -0.48299449146E+03 -0.47947580877E+03 -0.12375023084E+03  0.69173438725E+03  0.12699999809E+01 0. -1.
</event>
<event>
 5   0  0.1175146E-03  0.1387245E+04  0.7818609E-02  0.8963103E-01
        2   -1    0    0  501    0  0.00000000000E+00  0.00000000000E+00  0.66543503451E+03  0.66543503451E+03  0.25500000920E-02 0.  1.
       -2   -1    0    0    0  501  0.00000000000E+00  0.00000000000E+00 -0.72300402067E+03  0.72300402068E+03  0.25500000920E-02 0. -1.
    10030    2    1    2    0    0  0.00000000000E+00  0.00000000000E+00 -0.57568986165E+02  0.13884390552E+04  0.13872450475E+04 0.  0.
        1    1    3    3  502    0  0.38300902937E+03 -0.56372651324E+03  0.10027884110E+03  0.68886816178E+03  0.50400001928E-02 0.  1.
       -1    1    3    3    0  502 -0.38300902937E+03  0.56372651324E+03 -0.15784782727E+03  0.69957089341E+03  0.50400001928E-02 0. -1.
</event>
<event>
 5   0  0.1108819E-03  0.1395250E+04  0.7818609E-02  0.8957264E-01
       -2   -1    0    0    0  501  0.00000000000E+00  0.00000000000E+00  0.41854852106E+03  0.41854852107E+03  0.25500000920E-02 0. -1.
        2   -1    0    0  501    0  0.00000000000E+00  0.00000000000E+00 -0.11627827165E+04  0.11627827165E+04  0.25500000920E-02 0.  1.
    10030    2    1    2    0    0  0.00000000000E+00  0.00000000000E+00 -0.74423419544E+03  0.15813312376E+04  0.13952504955E+04 0.  0.
        3    1    3    3  502    0 -0.30306147372E+03  0.35007935083E+03  0.21927820614E+03  0.51233265622E+03  0.10100000352E+00 0. -1.
       -3    1    3    3    0  502  0.30306147372E+03 -0.35007935083E+03 -0.96351240158E+03  0.10689985814E+04  0.10100000352E+00 0.  1.
</event>
<event>
 5   0  0.6153318E-04  0.1395276E+04  0.7818609E-02  0.8957245E-01
       -1   -1    0    0    0  501  0.00000000000E+00  0.00000000000E+00  0.35394012714E+03  0.35394012717E+03  0.50400001928E-02 0.  1.
        1   -1    0    0  501    0  0.00000000000E+00  0.00000000000E+00 -0.13750883278E+04  0.13750883278E+04  0.50400001928E-02 0. -1.
    10030    2    1    2    0    0  0.00000000000E+00  0.00000000000E+00 -0.10211482006E+04  0.17290284549E+04  0.13952762273E+04 0.  0.
        5    1    3    3  502    0 -0.22410138693E+03 -0.47444072595E+03 -0.10802853539E+04  0.12009804202E+04  0.46999998093E+01 0. -1.
       -5    1    3    3    0  502  0.22410138693E+03  0.47444072595E+03  0.59137153229E+02  0.52804803470E+03  0.46999998093E+01 0.  1.
</event>
<event>
 5   0  0.1120053E-03  0.1386195E+04  0.7818609E-02  0.8963872E-01
       -2   -1    0    0    0  501  0.00000000000E+00  0.00000000000E+00  0.71543992736E+03  0.71543992736E+03  0.25500000920E-02 0.  1.
        2   -1    0    0  501    0  0.00000000000E+00  0.00000000000E+00 -0.67145301142E+03  0.67145301142E+03  0.25500000920E-02 0. -1.
    10030    2    1    2    0    0  0.00000000000E+00  0.00000000000E+00  0.43986915944E+02  0.13868929388E+04  0.13861952153E+04 0.  0.
        2    1    3    3  502    0 -0.44460978029E+03 -0.62243263412E+02  0.55030489736E+03  0.71020247862E+03  0.25500000920E-02 0.  1.
       -2    1    3    3    0  502  0.44460978029E+03  0.62243263412E+02 -0.50631798141E+03  0.67669046017E+03  0.25500000920E-02 0. -1.
</event>
<event>
 5   0  0.1098949E-03  0.1396939E+04  0.7818609E-02  0.8956037E-01
        2   -1    0    0  501    0  0.00000000000E+00  0.00000000000E+00  0.10275640667E+04  0.10275640667E+04  0.25500000920E-02 0.  1.
       -2   -1    0    0    0  501  0.00000000000E+00  0.00000000000E+00 -0.47477295659E+03  0.47477295660E+03  0.25500000920E-02 0. -1.
    10030    2    1    2    0    0  0.00000000000E+00  0.00000000000E+00  0.55279111010E+03  0.15023370233E+04  0.13969389823E+04 0.  0.
        4    1    3    3  502    0  0.53854008573E+02 -0.47164634273E+03  0.82740720769E+03  0.95391552408E+03  0.12699999809E+01 0.  1.
       -4    1    3    3    0  502 -0.53854008573E+02  0.47164634273E+03 -0.27461609758E+03  0.54842149922E+03  0.12699999809E+01 0. -1.
</event>
<event>
 5   0  0.6194742E-04  0.1409624E+04  0.7818609E-02  0.8946881E-01
        1   -1    0    0  501    0  0.00000000000E+00  0.00000000000E+00  0.94609986349E+03  0.94609986350E+03  0.50400001928E-02 0. -1.
       -1   -1    0    0    0  501  0.00000000000E+00  0.00000000000E+00 -0.52506084750E+03  0.52506084753E+03  0.50400001928E-02 0.  1.
    10030    2    1    2    0    0  0.00000000000E+00  0.00000000000E+00  0.42103901599E+03  0.14711607110E+04  0.14096240579E+04 0.  0.
        4    1    3    3  502    0 -0.81613968015E+02 -0.35276014705E+02  0.94022232394E+03  0.94441774037E+03  0.12699999809E+01 0. -1.
       -4    1    3    3    0  502  0.81613968015E+02  0.35276014705E+02 -0.51918330795E+03  0.52674297066E+03  0.12699999809E+01 0.  1.
</event>
<event>
 5   0  0.1095119E-03  0.1405075E+04  0.7818609E-02  0.8950153E-01
       -2   -1    0    0    0  501  0.00000000000E+00  0.00000000000E+00  0.73479034013E+03  0.73479034013E+03  0.25500000920E-02 0. -1.
        2   -1    0    0  501    0  0.00000000000E+00  0.00000000000E+00 -0.67170047627E+03  0.67170047627E+03  0.25500000920E-02 0.  1.
    10030    2    1    2    0    0  0.00000000000E+00  0.00000000000E+00  0.63089863863E+02  0.14064908164E+04  0.14050751175E+04 0.  0.
        5    1    3    3  502    0  0.48654514237E+03  0.11800015818E+03 -0.46178701665E+03  0.68111640095E+03  0.46999998093E+01 0.  1.
       -5    1    3    3    0  502 -0.48654514237E+03 -0.11800015818E+03  0.52487688051E+03  0.72537441545E+03  0.46999998093E+01 0. -1.
</event>
<event>
 5   0  0.1108819E-03  0.1374841E+04  0.7818609E-02  0.8972234E-01
        2   -1    0    0  501    0  0.00000000000E+00  0.00000000000E+00  0.54167509732E+03  0.54167509732E+03  0.25500000920E-02 0. -1.
       -2   -1    0    0    0  501  0.00000000000E+00  0.00000000000E+00 -0.87238135390E+03  0.87238135391E+03  0.25500000920E-02 0.  1.
    10030    2    1    2    0    0  0.00000000000E+00  0.00000000000E+00 -0.33070625659E+03  0.14140564512E+04  0.13748414524E+04 0.  0.
        3    1    3    3  502    0  0.35915595738E+03  0.36118104926E+03 -0.64015059626E+03  0.81806940302E+03  0.10100000352E+00 0.  1.
       -3    1    3    3    0  502 -0.35915595738E+03 -0.36118104926E+03  0.30944433967E+03  0.59598704820E+03  0.10100000352E+00 0. -1.
</event>
<event>
 5   0  0.6194742E-04  0.1386969E+04  0.7818609E-02  0.8963305E-01
        1   -1    0    0  501    0  0.00000000000E+00  0.00000000000E+00  0.21324836638E+04  0.21324836638E+04  0.50400001928E-02 0. -1.
       -1   -1    0    0    0  501  0.00000000000E+00  0.00000000000E+00 -0.22552155169E+03  0.22552155174E+03  0.50400001928E-02 0.  1.
    10030    2    1    2    0    0  0.00000000000E+00  0.00000000000E+00  0.19069621121E+04  0.23580052155E+04  0.13869693939E+04 0.  0.
        4    1    3    3  502    0 -0.20093569511E+03  0.34697114096E+02  0.20803630481E+04  0.20903327649E+04  0.12699999809E+01 0. -1.
       -4    1    3    3    0  502  0.20093569511E+03 -0.34697114096E+02 -0.17340093602E+03  0.26767245060E+03  0.12699999809E+01 0.  1.
</event>
<event>
 5   0  0.6114266E-04  0.1402261E+04  0.7818609E-02  0.8952183E-01
       -1   -1    0    0    0  501  0.00000000000E+00  0.00000000000E+00  0.54773565977E+03  0.54773565979E+03  0.50400001928E-02 0.  1.
        1   -1    0    0  501    0  0.00000000000E+00  0.00000000000E+00 -0.89748430050E+03  0.89748430052E+03  0.50400001928E-02 0. -1.
    10030    2    1    2    0    0  0.00000000000E+00  0.00000000000E+00 -0.34974864073E+03  0.14452199603E+04  0.14022612531E+04 0.  0.
        3    1    3    3  502    0 -0.22079886222E+03  0.63683786506E+03  0.24093133040E+02  0.67445911157E+03  0.10100000352E+00 0. -1.
       -3    1    3    3    0  502  0.22079886222E+03 -0.63683786506E+03 -0.37384177377E+03  0.77076084874E+03  0.10100000352E+00 0.  1.
</event>
<event>
 5   0  0.1098949E-03  0.1401563E+04  0.7818609E-02  0.8952688E-01
        2   -1    0    0  501    0  0.00000000000E+00  0.00000000000E+00  0.52066236365E+03  0.52066236365E+03  0.25500000920E-02 0.  1.
       -2   -1    0    0    0  501  0.00000000000E+00  0.00000000000E+00 -0.94321158510E+03  0.94321158510E+03  0.25500000920E-02 0. -1.
    10030    2    1    2    0    0  0.00000000000E+00  0.00000000000E+00 -0.42254922145E+03  0.14638739488E+04  0.14015630893E+04 0.  0.
        4    1    3    3  502    0  0.65302076672E+03 -0.47760158057E+02  0.49580777406E+02  0.65664070911E+03  0.12699999809E+01 0.  1.
       -4    1    3    3    0  502 -0.65302076672E+03  0.47760158057E+02 -0.47212999885E+03  0.80723323965E+03  0.12699999809E+01 0. -1.
</event>
<event>
 5   0  0.1108819E-03  0.1394926E+04  0.7818609E-02  0.8957499E-01
        2   -1    0    0  501    0  0.00000000000E+00  0.00000000000E+00  0.74362325388E+03  0.74362325389E+03  0.25500000920E-02 0.  1.
       -2   -1    0    0    0  501  0.00000000000E+00  0.00000000000E+00 -0.65416842587E+03  0.65416842588E+03  0.25500000920E-02 0. -1.
    10030    2    1    2    0    0  0.00000000000E+00  0.00000000000E+00  0.89454828010E+02  0.13977916798E+04  0.13949263112E+04 0.  0.
        3    1    3    3  502    0 -0.57396581565E+03 -0.17594127099E+03 -0.31105508543E+03  0.67612673719E+03  0.10100000352E+00 0. -1.
       -3    1    3    3    0  502  0.57396581565E+03  0.17594127099E+03  0.40050991344E+03  0.72166494257E+03  0.10100000352E+00 0.  1.
</event>
<event>
 5   0  0.1120053E-03  0.1395613E+04  0.7818609E-02  0.8957000E-01
       -2   -1    0    0    0  501  0.00000000000E+00  0.00000000000E+00  0.13208874293E+04  0.13208874293E+04  0.25500000920E-02 0.  1.
        2   -1    0    0  501    0  0.00000000000E+00  0.00000000000E+00 -0.36864164952E+03  0.36864164953E+03  0.25500000920E-02 0. -1.
    10030    2    1    2    0    0  0.00000000000E+00  0.00000000000E+00  0.95224577978E+03  0.16895290788E+04  0.13956133000E+04 0.  0.
        2    1    3    3  502    0  0.20666370911E+02  0.23125548133E+03  0.12727563120E+04  0.12937599570E+04  0.25500000920E-02 0.  1.
       -2    1    3    3    0  502 -0.20666370911E+02 -0.23125548133E+03 -0.32051053223E+03  0.39576912185E+03  0.25500000920E-02 0. -1.
</event>
<event>
 5   0  0.1120053E-03  0.1399095E+04  0.7818609E-02  0.8954474E-01
        2   -1    0    0  501    0  0.00000000000E+00  0.00000000000E+00  0.79837450234E+03  0.79837450234E+03  0.25500000920E-02 0.  1.
       -2   -1    0    0    0  501  0.00000000000E+00  0.00000000000E+00 -0.61295422100E+03  0.61295422101E+03  0.25500000920E-02 0. -1.
    10030    2    1    2    0    0  0.00000000000E+00  0.00000000000E+00  0.18542028134E+03  0.14113287234E+04  0.13990954523E+04 0.  0.
        2    1    3    3  502    0  0.85558157206E+02 -0.66388382977E+03  0.29772370082E+03  0.73259903067E+03  0.25500000920E-02 0.  1.
       -2    1    3    3    0  502 -0.85558157206E+02  0.66388382977E+03 -0.11230341949E+03  0.67872969269E+03  0.25500000920E-02 0. -1.
</event>
<event>
 5   0  0.1098949E-03  0.1390631E+04  0.7818609E-02  0.8960628E-01
       -2   -1    0    0    0  501  0.00000000000E+00  0.00000000000E+00  0.30643316995E+03  0.30643316996E+03  0.25500000920E-02 0. -1.
        2   -1    0    0  501    0  0.00000000000E+00  0.00000000000E+00 -0.15777129032E+04  0.15777129032E+04  0.25500000920E-02 0.  1.
    10030    2    1    2    0    0  0.00000000000E+00  0.00000000000E+00 -0.12712797333E+04  0.18841460732E+04  0.13906308874E+04 0.  0.
        4    1    3    3  502    0 -0.60325552288E+03  0.77577661659E+02 -0.17912891976E+03  0.63405386385E+03  0.12699999809E+01 0. -1.
       -4    1    3    3    0  502  0.60325552288E+03 -0.77577661659E+02 -0.10921508135E+04  0.12500922093E+04  0.12699999809E+01 0.  1.
</event>
<event>
 5   0  0.1095119E-03  0.1396803E+04  0.7818609E-02  0.8956136E-01
       -2   -1    0    0    0  501  0.00000000000E+00  0.00000000000E+00  0.81031417302E+03  0.81031417302E+03  0.25500000920E-02 0. -1.
        2   -1    0    0  501    0  0.00000000000E+00  0.00000000000E+00 -0.60194473310E+03  0.60194473310E+03  0.25500000920E-02 0.  1.
    10030    2    1    2    0    0  0.00000000000E+00  0.00000000000E+00  0.20836943992E+03  0.14122589061E+04  0.13968025610E+04 0.  0.
        5    1    3    3  502    0 -0.26388941798E+03  0.10078059288E+03 -0.54159091273E+03  0.61084953922E+03  0.46999998093E+01 0.  1.
       -5    1    3    3    0  502  0.26388941798E+03 -0.10078059288E+03  0.74996035265E+03  0.80140936690E+03  0.46999998093E+01 0. -1.
</event>
<event>
 5   0  0.1095119E-03  0.1405211E+04  0.7818609E-02  0.8950055E-01
       -2   -1    0    0    0  501  0.00000000000E+00  0.00000000000E+00  0.14564918984E+03  0.14564918986E+03  0.25500000920E-02 0. -1.
        2   -1    0    0  501    0  0.00000000000E+00  0.00000000000E+00 -0.33893412562E+04  0.33893412562E+04  0.25500000920E-02 0.  1.
    10030    2    1    2    0    0  0.00000000000E+00  0.00000000000E+00 -0.32436920664E+04  0.35349904461E+04  0.14052114547E+04 0.  0.
        5    1    3    3  502    0  0.37562745595E+03 -0.73439316314E+02 -0.31040262728E+04  0.31275374516E+04  0.46999998093E+01 0.  1.
       -5    1    3    3    0  502 -0.37562745595E+03  0.73439316314E+02 -0.13966579361E+03  0.40745299453E+03  0.46999998093E+01 0. -1.
</event>
<event>
 5   0  0.1108819E-03  0.1412390E+04  0.7818609E-02  0.8944899E-01
        2   -1    0    0  501    0  0.00000000000E+00  0.00000000000E+00  0.11486084084E+04  0.11486084084E+04  0.25500000920E-02 0. -1.
       -2   -1    0    0    0  501  0.00000000000E+00  0.00000000000E+00 -0.43418730975E+03  0.43418730976E+03  0.25500000920E-02 0.  1.
    10030    2    1    2    0    0  0.00000000000E+00  0.00000000000E+00  0.71442109868E+03  0.15827957182E+04  0.14123897406E+04 0.  0.
        3    1    3    3  502    0  0.54830908240E+03 -0.37713626177E+03  0.62201769330E+03  0.91092295545E+03  0.10100000352E+00 0. -1.
       -3    1    3    3    0  502 -0.54830908240E+03  0.37713626177E+03  0.92403405383E+02  0.67187276275E+03  0.10100000352E+00 0.  1.
</event>
<event>
 5   0  0.5875298E-04  0.1413761E+04  0.7818609E-02  0.8943917E-01
       -1   -1    0    0    0  501  0.00000000000E+00  0.00000000000E+00  0.39275492923E+03  0.39275492926E+03  0.50400001928E-02 0. -1.
        1   -1    0    0  501    0  0.00000000000E+00  0.00000000000E+00 -0.12722441553E+04  0.12722441553E+04  0.50400001928E-02 0.  1.
    10030    2    1    2    0    0  0.00000000000E+00  0.00000000000E+00 -0.87948922609E+03  0.16649990846E+04  0.14137611725E+04 0.  0.
        1    1    3    3  502    0 -0.22154231330E+03 -0.66284593180E+03 -0.56457307272E+03  0.89843668689E+03  0.50400001928E-02 0. -1.
       -1    1    3    3    0  502  0.22154231330E+03  0.66284593180E+03 -0.31491615338E+03  0.76656239770E+03  0.50400001928E-02 0.  1.
</event>
<event>
 5   0  0.5875298E-04  0.1440328E+04  0.7818609E-02  0.8925133E-01
        1   -1    0    0  501    0  0.00000000000E+00  0.00000000000E+00  0.14909819068E+04  0.14909819068E+04  0.50400001928E-02 0. -1.
       -1   -1    0    0    0  501  0.00000000000E+00  0.00000000000E+00 -0.34784894476E+03  0.34784894480E+03  0.50400001928E-02 0.  1.
    10030    2    1    2    0    0  0.00000000000E+00  0.00000000000E+00  0.11431329621E+04  0.18388308516E+04  0.14403284112E+04 0.  0.
        1    1    3    3  502    0  0.36653528483E+03 -0.56461290687E+03  0.89830700708E+03  0.11225378963E+04  0.50400001928E-02 0. -1.
       -1    1    3    3    0  502 -0.36653528483E+03  0.56461290687E+03  0.24482595500E+03  0.71629295535E+03  0.50400001928E-02 0.  1.
</event>
<event>
 5   0  0.1120053E-03  0.1420585E+04  0.7818609E-02  0.8939051E-01
        2   -1    0    0  501    0  0.00000000000E+00  0.00000000000E+00  0.10227292194E+04  0.10227292194E+04  0.25500000920E-02 0. -1.
       -2   -1    0    0    0  501  0.00000000000E+00  0.00000000000E+00 -0.49330303327E+03  0.49330303328E+03  0.25500000920E-02 0.  1.
    10030    2    1    2    0    0  0.00000000000E+00  0.00000000000E+00  0.52942618609E+03  0.15160322526E+04  0.14205849867E+04 0.  0.
        2    1    3    3  502    0  0.17638705040E+03 -0.68683273034E+03  0.30824386434E+03  0.77321786769E+03  0.25500000920E-02 0. -1.
       -2    1    3    3    0  502 -0.17638705040E+03  0.68683273034E+03  0.22118232175E+03  0.74281438494E+03  0.25500000920E-02 0.  1.
</event>
<event>
 5   0  0.1098949E-03  0.1373159E+04  0.7818609E-02  0.8973480E-01
        2   -1    0    0  501    0  0.00000000000E+00  0.00000000000E+00  0.11573512485E+04  0.11573512485E+04  0.25500000920E-02 0.  1.
       -2   -1    0    0    0  501  0.00000000000E+00  0.00000000000E+00 -0.40730211855E+03  0.40730211855E+03  0.25500000920E-02 0. -1.
    10030    2    1    2    0    0  0.00000000000E+00  0.00000000000E+00  0.75004912997E+03  0.15646533671E+04  0.13731592995E+04 0.  0.
        4    1    3    3  502    0  0.33557418880E+03 -0.54840671579E+03  0.10053638149E+03  0.65074506453E+03  0.12699999809E+01 0.  1.
       -4    1    3    3    0  502 -0.33557418880E+03  0.54840671579E+03  0.64951274848E+03  0.91390830254E+03  0.12699999809E+01 0. -1.
</event>
<event>
 5   0  0.6153318E-04  0.1382664E+04  0.7818609E-02  0.8966464E-01
        1   -1    0    0  501    0  0.00000000000E+00  0.00000000000E+00  0.12556275419E+04  0.12556275419E+04  0.50400001928E-02 0. -1.
       -1   -1    0    0    0  501  0.00000000000E+00  0.00000000000E+00 -0.38063842501E+03  0.38063842504E+03  0.50400001928E-02 0.  1.
    10030    2    1    2    0    0  0.00000000000E+00  0.00000000000E+00  0.87498911686E+03  0.16362659669E+04  0.13826642253E+04 0.  0.
        5    1    3    3  502    0  0.66931961763E+03 -0.54492104504E+02  0.63180493230E+03  0.92203996794E+03  0.46999998093E+01 0.  1.
       -5    1    3    3    0  502 -0.66931961763E+03  0.54492104504E+02  0.24318418455E+03  0.71422599898E+03  0.46999998093E+01 0. -1.
</event>
<event>
 5   0  0.4176125E-04  0.1268057E+04  0.7818609E-02  0.9055287E-01
        3   -1    0    0  501    0  0.00000000000E+00  0.00000000000E+00  0.40223186608E+03  0.40223187876E+03  0.10100000352E+00 0. -1.
       -3   -1    0    0    0  501  0.00000000000E+00  0.00000000000E+00 -0.99940363895E+03  0.99940364405E+03  0.10100000352E+00 0.  1.
    10030    2    1    2    0    0  0.00000000000E+00  0.00000000000E+00 -0.59717177287E+03  0.14016355228E+04  0.12680567860E+04 0.  0.
        3    1    3    3  502    0 -0.37534710515E+03  0.36670075608E+03 -0.69193381716E+03  0.86840503878E+03  0.10100000352E+00 0.  1.
       -3    1    3    3    0  502  0.37534710515E+03 -0.36670075608E+03  0.94762044293E+02  0.53323048403E+03  0.10100000352E+00 0. -1.
</event>
<event>
 5   0  0.1175146E-03  0.1326187E+04  0.7818609E-02  0.9009052E-01
       -2   -1    0    0    0  501  0.00000000000E+00  0.00000000000E+00  0.13322859148E+04  0.13322859148E+04  0.25500000920E-02 0.  1.
        2   -1    0    0  501    0  0.00000000000E+00  0.00000000000E+00 -0.33002920228E+03  0.33002920229E+03  0.25500000920E-02 0. -1.
    10030    2    1    2    0    0  0.00000000000E+00  0.00000000000E+00  0.10022567125E+04  0.16623151171E+04  0.13261874041E+04 0.  0.
        1    1    3    3  502    0  0.41403897048E+03 -0.57131184433E+02 -0.14412790203E+03  0.44211434435E+03  0.50400001928E-02 0. -1.
       -1    1    3    3    0  502 -0.41403897048E+03  0.57131184433E+02  0.11463846146E+04  0.12202007727E+04  0.50400001928E-02 0.  1.
</event>
<event>
 5   0  0.6153318E-04  0.1403290E+04  0.7818609E-02  0.8951440E-01
       -1   -1    0    0    0  501  0.00000000000E+00  0.00000000000E+00  0.36502266990E+03  0.36502266994E+03  0.50400001928E-02 0. -1.
        1   -1    0    0  501    0  0.00000000000E+00  0.00000000000E+00 -0.13486992845E+04  0.13486992845E+04  0.50400001928E-02 0.  1.
    10030    2    1    2    0    0  0.00000000000E+00  0.00000000000E+00 -0.98367661462E+03  0.17137219545E+04  0.14032901536E+04 0.  0.
        5    1    3    3  502    0  0.66160793204E+03  0.22799561329E+03 -0.42984823480E+03  0.82127866792E+03  0.46999998093E+01 0. -1.
       -5    1    3    3    0  502 -0.66160793204E+03 -0.22799561329E+03 -0.55382837983E+03  0.89244328656E+03  0.46999998093E+01 0.  1.
</event>
<event>
 5   0  0.6194742E-04  0.1403525E+04  0.7818609E-02  0.8951271E-01
       -1   -1    0    0    0  501  0.00000000000E+00  0.00000000000E+00  0.25403560548E+03  0.25403560553E+03  0.50400001928E-02 0. -1.
        1   -1    0    0  501    0  0.00000000000E+00  0.00000000000E+00 -0.19385877791E+04  0.19385877791E+04  0.50400001928E-02 0.  1.
    10030    2    1    2    0    0  0.00000000000E+00  0.00000000000E+00 -0.16845521736E+04  0.21926233846E+04  0.14035245923E+04 0.  0.
        4    1    3    3  502    0 -0.18943131855E+03  0.14590147943E+03 -0.18729872324E+04  0.18881880870E+04  0.12699999809E+01 0.  1.
       -4    1    3    3    0  502  0.18943131855E+03 -0.14590147943E+03  0.18843505883E+03  0.30443529763E+03  0.12699999809E+01 0. -1.
</event>
<event>
 5   0  0.5875298E-04  0.1395891E+04  0.7818609E-02  0.8956798E-01
        1   -1    0    0  501    0  0.00000000000E+00  0.00000000000E+00  0.29933119703E+03  0.29933119707E+03  0.50400001928E-02 0. -1.
       -1   -1    0    0    0  501  0.00000000000E+00  0.00000000000E+00 -0.16273881087E+04  0.16273881087E+04  0.50400001928E-02 0.  1.
    10030    2    1    2    0    0  0.00000000000E+00  0.00000000000E+00 -0.13280569117E+04  0.19267193058E+04  0.13958911572E+04 0.  0.
        1    1    3    3  502    0 -0.58652782119E+03  0.37827509951E+03 -0.67036793635E+03  0.96772935579E+03  0.50400001928E-02 0.  1.
       -1    1    3    3    0  502  0.58652782119E+03 -0.37827509951E+03 -0.65768897534E+03  0.95898995002E+03  0.50400001928E-02 0. -1.
</event>
<event>
 5   0  0.5875298E-04  0.1383711E+04  0.7818609E-02  0.8965694E-01
       -1   -1    0    0    0  501  0.00000000000E+00  0.00000000000E+00  0.49888849058E+03  0.49888849060E+03  0.50400001928E-02 0. -1.
        1   -1    0    0  501    0  0.00000000000E+00  0.00000000000E+00 -0.95946160916E+03  0.95946160917E+03  0.50400001928E-02 0.  1.
    10030    2    1    2    0    0  0.00000000000E+00  0.00000000000E+00 -0.46057311858E+03  0.14583500998E+04  0.13837114641E+04 0.  0.
        1    1    3    3  502    0 -0.48139941354E+03 -0.33549140122E+01 -0.75398776808E+03  0.89456928477E+03  0.50400001928E-02 0.  1.
       -1    1    3    3    0  502  0.48139941354E+03  0.33549140122E+01  0.29341464950E+03  0.56378081501E+03  0.50400001928E-02 0. -1.
</event>
<event>
 5   0  0.5875298E-04  0.1397780E+04  0.7818609E-02  0.8955427E-01
        1   -1    0    0  501    0  0.00000000000E+00  0.00000000000E+00  0.15885867627E+04  0.15885867627E+04  0.50400001928E-02 0.  1.
       -1   -1    0    0    0  501  0.00000000000E+00  0.00000000000E+00 -0.30747265381E+03  0.30747265385E+03  0.50400001928E-02 0. -1.
    10030    2    1    2    0    0  0.00000000000E+00  0.00000000000E+00  0.12811141089E+04  0.18960594165E+04  0.13977796504E+04 0.  0.
        1    1    3    3  502    0 -0.37107626093E+03  0.58416828358E+03  0.50836596943E+03  0.85871190388E+03  0.50400001928E-02 0.  1.
       -1    1    3    3    0  502  0.37107626093E+03 -0.58416828358E+03  0.77274813944E+03  0.10373475126E+04  0.50400001928E-02 0. -1.
</event>
<event>
 5   0  0.6097538E-04  0.1397428E+04  0.7818609E-02  0.8955682E-01
        1   -1    0    0  501    0  0.00000000000E+00  0.00000000000E+00  0.34937461691E+03  0.34937461695E+03  0.50400001928E-02 0.  1.
       -1   -1    0    0    0  501  0.00000000000E+00  0.00000000000E+00 -0.13973580340E+04  0.13973580340E+04  0.50400001928E-02 0. -1.
    10030    2    1    2    0    0  0.00000000000E+00  0.00000000000E+00 -0.10479834171E+04  0.17467326510E+04  0.13974282491E+04 0.  0.
        2    1    3    3  502    0 -0.37071405082E+03  0.54618821456E+03 -0.81026024567E+03  0.10451182416E+04  0.25500000920E-02 0. -1.
       -2    1    3    3    0  502  0.37071405082E+03 -0.54618821456E+03 -0.23772317144E+03  0.70161440938E+03  0.25500000920E-02 0.  1.
</event>
<event>
 5   0  0.6153318E-04  0.1380258E+04  0.7818609E-02  0.8968234E-01
        1   -1    0    0  501    0  0.00000000000E+00  0.00000000000E+00  0.12433267116E+04  0.12433267116E+04  0.50400001928E-02 0. -1.
       -1   -1    0    0    0  501  0.00000000000E+00  0.00000000000E+00 -0.38306731267E+03  0.38306731271E+03  0.50400001928E-02 0.  1.
    10030    2    1    2    0    0  0.00000000000E+00  0.00000000000E+00  0.86025939890E+03  0.16263940243E+04  0.13802576893E+04 0.  0.
        5    1    3    3  502    0 -0.49970458723E+03  0.25053401163E+02  0.99020469969E+03  0.11094412038E+04  0.46999998093E+01 0. -1.
       -5    1    3    3    0  502  0.49970458723E+03 -0.25053401163E+02 -0.12994530079E+03  0.51695282049E+03  0.46999998093E+01 0.  1.
</event>
<event>
 5   0  0.1108819E-03  0.1399546E+04  0.7818609E-02  0.8954147E-01
       -2   -1    0    0    0  501  0.00000000000E+00  0.00000000000E+00  0.97364753694E+03  0.97364753694E+03  0.25500000920E-02 0. -1.
        2   -1    0    0  501    0  0.00000000000E+00  0.00000000000E+00 -0.50293570095E+03  0.50293570096E+03  0.25500000920E-02 0.  1.
    10030    2    1    2    0    0  0.00000000000E+00  0.00000000000E+00  0.47071183599E+03  0.14765832379E+04  0.13995457927E+04 0.  0.
        3    1    3    3  502    0 -0.66052151623E+02 -0.58801293834E+03  0.62949662553E+03  0.86393756381E+03  0.10100000352E+00 0. -1.
       -3    1    3    3    0  502  0.66052151623E+02  0.58801293834E+03 -0.15878478954E+03  0.61264567409E+03  0.10100000352E+00 0.  1.
</event>
<event>
 5   0  0.6114266E-04  0.1408295E+04  0.7818609E-02  0.8947836E-01
       -1   -1    0    0    0  501  0.00000000000E+00  0.00000000000E+00  0.62403707689E+03  0.62403707691E+03  0.50400001928E-02 0. -1.
        1   -1    0    0  501    0  0.00000000000E+00  0.00000000000E+00 -0.79454176218E+03  0.79454176219E+03  0.50400001928E-02 0.  1.
    10030    2    1    2    0    0  0.00000000000E+00  0.00000000000E+00 -0.17050468528E+03  0.14185788391E+04  0.14082947401E+04 0.  0.
        3    1    3    3  502    0 -0.23387553179E+02  0.50283323532E+03 -0.58122509687E+03  0.76890237587E+03  0.10100000352E+00 0.  1.
       -3    1    3    3    0  502  0.23387553179E+02 -0.50283323532E+03  0.41072041159E+03  0.64967646324E+03  0.10100000352E+00 0. -1.
</event>
<event>
 5   0  0.6097538E-04  0.1391165E+04  0.7818609E-02  0.8960238E-01
        1   -1    0    0  501    0  0.00000000000E+00  0.00000000000E+00  0.95928219541E+03  0.95928219543E+03  0.50400001928E-02 0.  1.
       -1   -1    0    0    0  501  0.00000000000E+00  0.00000000000E+00 -0.50437223683E+03  0.50437223685E+03  0.50400001928E-02 0. -1.
    10030    2    1    2    0    0  0.00000000000E+00  0.00000000000E+00  0.45490995859E+03  0.14636544323E+04  0.13911654203E+04 0.  0.
        2    1    3    3  502    0 -0.99230348639E+02 -0.60442675635E+03  0.57426250644E+03  0.83961645541E+03  0.25500000920E-02 0.  1.
       -2    1    3    3    0  502  0.99230348639E+02  0.60442675635E+03 -0.11935254785E+03  0.62403797687E+03  0.25500000920E-02 0. -1.
</event>
<event>
 5   0  0.1095119E-03  0.1364721E+04  0.7818609E-02  0.8979759E-01
       -2   -1    0    0    0  501  0.00000000000E+00  0.00000000000E+00  0.42379711830E+03  0.42379711831E+03  0.25500000920E-02 0.  1.
        2   -1    0    0  501    0  0.00000000000E+00  0.00000000000E+00 -0.10986761943E+04  0.10986761943E+04  0.25500000920E-02 0. -1.
    10030    2    1    2    0    0  0.00000000000E+00  0.00000000000E+00 -0.67487907598E+03  0.15224733126E+04  0.13647209313E+04 0.  0.
        5    1    3    3  502    0  0.47575888848E+03  0.38533106696E+03 -0.13382172316E+01  0.61225030172E+03  0.46999998093E+01 0.  1.
       -5    1    3    3    0  502 -0.47575888848E+03 -0.38533106696E+03 -0.67354085875E+03  0.91022301088E+03  0.46999998093E+01 0. -1.
</event>
<event>
 5   0  0.1108819E-03  0.1393415E+04  0.7818609E-02  0.8958599E-01
       -2   -1    0    0    0  501  0.00000000000E+00  0.00000000000E+00  0.92710378838E+03  0.92710378838E+03  0.25500000920E-02 0. -1.
        2   -1    0    0  501    0  0.00000000000E+00  0.00000000000E+00 -0.52356712785E+03  0.52356712785E+03  0.25500000920E-02 0.  1.
    10030    2    1    2    0    0  0.00000000000E+00  0.00000000000E+00  0.40353666053E+03  0.14506709162E+04  0.13934146084E+04 0.  0.
        3    1    3    3  502    0  0.20364677658E+03  0.62532808741E+03 -0.37668556206E+02  0.65873071648E+03  0.10100000352E+00 0. -1.
       -3    1    3    3    0  502 -0.20364677658E+03 -0.62532808741E+03  0.44120521673E+03  0.79194019975E+03  0.10100000352E+00 0.  1.
</event>
<event>
 5   0  0.5875298E-04  0.1382038E+04  0.7818609E-02  0.8966924E-01
        1   -1    0    0  501    0  0.00000000000E+00  0.00000000000E+00  0.11983135343E+04  0.11983135343E+04  0.50400001928E-02 0.  1.
       -1   -1    0    0    0  501  0.00000000000E+00  0.00000000000E+00 -0.39848279679E+03  0.39848279682E+03  0.50400001928E-02 0. -1.
    10030    2    1    2    0    0  0.00000000000E+00  0.00000000000E+00  0.79983073754E+03  0.15967963312E+04  0.13820381017E+04 0.  0.
        1    1    3    3  502    0  0.50857722856E+02  0.67788768817E+03  0.54324505856E+03  0.87019159926E+03  0.50400001928E-02 0.  1.
       -1    1    3    3    0  502 -0.50857722856E+02 -0.67788768817E+03  0.25658567898E+03  0.72660473190E+03  0.50400001928E-02 0. -1.
</event>
<event>
 5   0  0.1098949E-03  0.1419065E+04  0.7818609E-02  0.8940133E-01
        2   -1    0    0  501    0  0.00000000000E+00  0.00000000000E+00  0.10129984458E+04  0.10129984458E+04  0.25500000920E-02 0. -1.
       -2   -1    0    0    0  501  0.00000000000E+00  0.00000000000E+00 -0.49697617140E+03  0.49697617140E+03  0.25500000920E-02 0.  1.
    10030    2    1    2    0    0  0.00000000000E+00  0.00000000000E+00  0.51602227437E+03  0.15099746172E+04  0.14190646063E+04 0.  0.
        4    1    3    3  502    0  0.26625428070E+03 -0.17139466006E+02  0.95758675491E+03  0.99406192431E+03  0.12699999809E+01 0. -1.
       -4    1    3    3    0  502 -0.26625428070E+03  0.17139466006E+02 -0.44156448054E+03  0.51591269287E+03  0.12699999809E+01 0.  1.
</event>
<event>
 5   0  0.1175146E-03  0.1386719E+04  0.7818609E-02  0.8963488E-01
       -2   -1    0    0    0  501  0.00000000000E+00  0.00000000000E+00  0.24296540285E+03  0.24296540286E+03  0.25500000920E-02 0.  1.
        2   -1    0    0  501    0  0.00000000000E+00  0.00000000000E+00 -0.19786670569E+04  0.19786670569E+04  0.25500000920E-02 0. -1.
    10030    2    1    2    0    0  0.00000000000E+00  0.00000000000E+00 -0.17357016540E+04  0.22216324597E+04  0.13867193495E+04 0.  0.
        1    1    3    3  502    0  0.30205060139E+03 -0.16642903888E+02  0.13166617359E+03  0.32992049549E+03  0.50400001928E-02 0.  1.
       -1    1    3    3    0  502 -0.30205060139E+03  0.16642903888E+02 -0.18673678276E+04  0.18917119642E+04  0.50400001928E-02 0. -1.
</event>
<event>
 5   0  0.1108819E-03  0.1412821E+04  0.7818609E-02  0.8944590E-01
        2   -1    0    0  501    0  0.00000000000E+00  0.00000000000E+00  0.76851477860E+03  0.76851477860E+03  0.25500000920E-02 0.  1.
       -2   -1    0    0    0  501  0.00000000000E+00  0.00000000000E+00 -0.64932447599E+03  0.64932447599E+03  0.25500000920E-02 0. -1.
    10030    2    1    2    0    0  0.00000000000E+00  0.00000000000E+00  0.11919030261E+03  0.14178392546E+04  0.14128205207E+04 0.  0.
        3    1    3    3  502    0 -0.24490686427E+02 -0.69358346626E+03 -0.72621204122E+02  0.69780489242E+03  0.10100000352E+00 0.  1.
       -3    1    3    3    0  502  0.24490686427E+02  0.69358346626E+03  0.19181150673E+03  0.72003436217E+03  0.10100000352E+00 0. -1.
</event>
<event>
 5   0  0.6153318E-04  0.1389473E+04  0.7818609E-02  0.8961474E-01
        1   -1    0    0  501    0  0.00000000000E+00  0.00000000000E+00  0.70651000215E+03  0.70651000217E+03  0.50400001928E-02 0. -1.
       -1   -1    0    0    0  501  0.00000000000E+00  0.00000000000E+00 -0.68315895587E+03  0.68315895589E+03  0.50400001928E-02 0.  1.
    10030    2    1    2    0    0  0.00000000000E+00  0.00000000000E+00  0.23351046279E+02  0.13896689581E+04  0.13894727567E+04 0.  0.
        5    1    3    3  502    0 -0.58669649663E+03 -0.34384707350E+01  0.38376561306E+03  0.70108682630E+03  0.46999998093E+01 0. -1.
       -5    1    3    3    0  502  0.58669649663E+03  0.34384707350E+01 -0.36041456678E+03  0.68858213177E+03  0.46999998093E+01 0.  1.
</event>
<event>
 5   0  0.6097538E-04  0.1412344E+04  0.7818609E-02  0.8944931E-01
        1   -1    0    0  501    0  0.00000000000E+00  0.00000000000E+00  0.59035809418E+03  0.59035809421E+03  0.50400001928E-02 0.  1.
       -1   -1    0    0    0  501  0.00000000000E+00  0.00000000000E+00 -0.84470580328E+03  0.84470580329E+03  0.50400001928E-02 0. -1.
    10030    2    1    2    0    0  0.00000000000E+00  0.00000000000E+00 -0.25434770909E+03  0.14350638975E+04  0.14123440207E+04 0.  0.
        2    1    3    3  502    0 -0.39960643040E+03 -0.18574674733E+03  0.43351059570E+03  0.61815741519E+03  0.25500000920E-02 0.  1.
       -2    1    3    3    0  502  0.39960643040E+03  0.18574674733E+03 -0.68785830479E+03  0.81690648231E+03  0.25500000920E-02 0. -1.
</event>
<event>
 5   0  0.5875298E-04  0.1391671E+04  0.7818609E-02  0.8959869E-01
        1   -1    0    0  501    0  0.00000000000E+00  0.00000000000E+00  0.13158090247E+04  0.13158090247E+04  0.50400001928E-02 0. -1.
       -1   -1    0    0    0  501  0.00000000000E+00  0.00000000000E+00 -0.36797693823E+03  0.36797693826E+03  0.50400001928E-02 0.  1.
    10030    2    1    2    0    0  0.00000000000E+00  0.00000000000E+00  0.94783208647E+03  0.16837859630E+04  0.13916714788E+04 0.  0.
        1    1    3    3  502    0 -0.60773771561E+03  0.33144128190E+03  0.55937419778E+03  0.88999884690E+03  0.50400001928E-02 0.  1.
       -1    1    3    3    0  502  0.60773771561E+03 -0.33144128190E+03  0.38845788869E+03  0.79378711606E+03  0.50400001928E-02 0. -1.
</event>
<event>
 5   0  0.1120053E-03  0.1408433E+04  0.7818609E-02  0.8947737E-01
       -2   -1    0    0    0  501  0.00000000000E+00  0.00000000000E+00  0.47510439762E+03  0.47510439763E+03  0.25500000920E-02 0. -1.
        2   -1    0    0  501    0  0.00000000000E+00  0.00000000000E+00 -0.10438151106E+04  0.10438151106E+04  0.25500000920E-02 0.  1.
    10030    2    1    2    0    0  0.00000000000E+00  0.00000000000E+00 -0.56871071299E+03  0.15189195082E+04  0.14084333841E+04 0.  0.
        2    1    3    3  502    0  0.19330970701E+02 -0.10169300924E+03 -0.10355656468E+04  0.10407263634E+04  0.25500000920E-02 0.  1.
       -2    1    3    3    0  502 -0.19330970701E+02  0.10169300924E+03  0.46685493382E+03  0.47819314487E+03  0.25500000920E-02 0. -1.
</event>
<event>
 5   0  0.1098949E-03  0.1392582E+04  0.7818609E-02  0.8959205E-01
        2   -1    0    0  501    0  0.00000000000E+00  0.00000000000E+00  0.19071329010E+04  0.19071329010E+04  0.25500000920E-02 0.  1.
       -2   -1    0    0    0  501  0.00000000000E+00  0.00000000000E+00 -0.25421475230E+03  0.25421475232E+03  0.25500000920E-02 0. -1.
    10030    2    1    2    0    0  0.00000000000E+00  0.00000000000E+00  0.16529181487E+04  0.21613476533E+04  0.13925822318E+04 0.  0.
        4    1    3    3  502    0 -0.17253691417E+03  0.59299079407E+03  0.32735560968E+03  0.69897809457E+03  0.12699999809E+01 0. -1.
       -4    1    3    3    0  502  0.17253691417E+03 -0.59299079407E+03  0.13255625390E+04  0.14623695588E+04  0.12699999809E+01 0.  1.
</event>
<event>
 5   0  0.6097538E-04  0.1360300E+04  0.7818609E-02  0.8983067E-01
        1   -1    0    0  501    0  0.00000000000E+00  0.00000000000E+00  0.94728313312E+03  0.94728313314E+03  0.50400001928E-02 0.  1.
       -1   -1    0    0    0  501  0.00000000000E+00  0.00000000000E+00 -0.48834828299E+03  0.48834828301E+03  0.50400001928E-02 0. -1.
    10030    2    1    2    0    0  0.00000000000E+00  0.00000000000E+00  0.45893485014E+03  0.14356314161E+04  0.13603001016E+04 0.  0.
        2    1    3    3  502    0 -0.66071141571E+03  0.14827294175E+02  0.59801862108E+02  0.66357794284E+03  0.25500000920E-02 0. -1.
       -2    1    3    3    0  502  0.66071141571E+03 -0.14827294175E+02  0.39913298803E+03  0.77205347331E+03  0.25500000920E-02 0.  1.
</event>
<event>
 5   0  0.6153318E-04  0.1393361E+04  0.7818609E-02  0.8958638E-01
       -1   -1    0    0    0  501  0.00000000000E+00  0.00000000000E+00  0.42221584863E+03  0.42221584866E+03  0.50400001928E-02 0.  1.
        1   -1    0    0  501    0  0.00000000000E+00  0.00000000000E+00 -0.11495636900E+04  0.11495636900E+04  0.50400001928E-02 0. -1.
    10030    2    1    2    0    0  0.00000000000E+00  0.00000000000E+00 -0.72734784138E+03  0.15717795387E+04  0.13933614161E+04 0.  0.
        5    1    3    3  502    0  0.63257799750E+03  0.22382085076E+02 -0.69194585860E+03  0.93779904131E+03  0.46999998093E+01 0. -1.
       -5    1    3    3    0  502 -0.63257799750E+03 -0.22382085076E+02 -0.35401982774E+02  0.63398049736E+03  0.46999998093E+01 0.  1.
</event>
<event>
 5   0  0.6097538E-04  0.1393875E+04  0.7818609E-02  0.8958264E-01
        1   -1    0    0  501    0  0.00000000000E+00  0.00000000000E+00  0.11535828119E+04  0.11535828119E+04  0.50400001928E-02 0.  1.
       -1   -1    0    0    0  501  0.00000000000E+00  0.00000000000E+00 -0.42105513478E+03  0.42105513481E+03  0.50400001928E-02 0. -1.
    10030    2    1    2    0    0  0.00000000000E+00  0.00000000000E+00  0.73252767710E+03  0.15746379467E+04  0.13938751255E+04 0.  0.
        2    1    3    3  502    0 -0.63108509967E+03 -0.27987805441E+03  0.25836965750E+03  0.73712618206E+03  0.25500000920E-02 0. -1.
       -2    1    3    3    0  502  0.63108509967E+03  0.27987805441E+03  0.47415801960E+03  0.83751176464E+03  0.25500000920E-02 0.  1.
</event>
<event>
 5   0  0.4176125E-04  0.1400161E+04  0.7818609E-02  0.8953702E-01
        3   -1    0    0  501    0  0.00000000000E+00  0.00000000000E+00  0.84245144892E+03  0.84245145497E+03  0.10100000352E+00 0.  1.
       -3   -1    0    0    0  501  0.00000000000E+00  0.00000000000E+00 -0.58176992856E+03  0.58176993733E+03  0.10100000352E+00 0. -1.
    10030    2    1    2    0    0  0.00000000000E+00  0.00000000000E+00  0.26068152036E+03  0.14242213923E+04  0.14001613190E+04 0.  0.
        3    1    3    3  502    0 -0.52920458681E+03 -0.11649075558E+03 -0.32054289597E+03  0.62958347277E+03  0.10100000352E+00 0.  1.
       -3    1    3    3    0  502  0.52920458681E+03  0.11649075558E+03  0.58122441632E+03  0.79463791953E+03  0.10100000352E+00 0. -1.
</event>
<event>
 5   0  0.1120053E-03  0.1403309E+04  0.7818609E-02  0.8951427E-01
        2   -1    0    0  501    0  0.00000000000E+00  0.00000000000E+00  0.40158528696E+03  0.40158528697E+03  0.25500000920E-02 0. -1.
       -2   -1    0    0    0  501  0.00000000000E+00  0.00000000000E+00 -0.12259387416E+04  0.12259387416E+04  0.25500000920E-02 0.  1.
    10030    2    1    2    0    0  0.00000000000E+00  0.00000000000E+00 -0.82435345463E+03  0.16275240286E+04  0.14033088916E+04 0.  0.
        2    1    3    3  502    0 -0.18142066476E+03 -0.19573455257E+03  0.34042185374E+03  0.43256503694E+03  0.25500000920E-02 0. -1.
       -2    1    3    3    0  502  0.18142066476E+03  0.19573455257E+03 -0.11647753084E+04  0.11949589916E+04  0.25500000920E-02 0.  1.
</event>
<event>
 5   0  0.1108819E-03  0.1409384E+04  0.7818609E-02  0.8947054E-01
       -2   -1    0    0    0  501  0.00000000000E+00  0.00000000000E+00  0.13369245274E+04  0.13369245274E+04  0.25500000920E-02 0.  1.
        2   -1    0    0  501    0  0.00000000000E+00  0.00000000000E+00 -0.37144286743E+03  0.37144286744E+03  0.25500000920E-02 0. -1.
    10030    2    1    2    0    0  0.00000000000E+00  0.00000000000E+00  0.96548165997E+03  0.17083673949E+04  0.14093843763E+04 0.  0.
        3    1    3    3  502    0  0.33970869987E+03 -0.22619360500E+03 -0.21360597079E+03  0.46064418880E+03  0.10100000352E+00 0. -1.
       -3    1    3    3    0  502 -0.33970869987E+03  0.22619360500E+03  0.11790876308E+04  0.12477232061E+04  0.10100000352E+00 0.  1.
</event>
<event>
 5   0  0.1120053E-03  0.1394259E+04  0.7818609E-02  0.8957985E-01
        2   -1    0    0  501    0  0.00000000000E+00  0.00000000000E+00  0.61007649728E+03  0.61007649729E+03  0.25500000920E-02 0. -1.
       -2   -1    0    0    0  501  0.00000000000E+00  0.00000000000E+00 -0.79660380321E+03  0.79660380322E+03  0.25500000920E-02 0.  1.
    10030    2    1    2    0    0  0.00000000000E+00  0.00000000000E+00 -0.18652730593E+03  0.14066803005E+04  0.13942585958E+04 0.  0.
        2    1    3    3  502    0  0.51540687555E+03  0.36078976204E+03 -0.39623180380E+03  0.74351404971E+03  0.25500000920E-02 0.  1.
       -2    1    3    3    0  502 -0.51540687555E+03 -0.36078976204E+03  0.20970449787E+03  0.66316625080E+03  0.25500000920E-02 0. -1.
</event>
<event>
 5   0  0.6114266E-04  0.1396814E+04  0.7818609E-02  0.8956128E-01
       -1   -1    0    0    0  501  0.00000000000E+00  0.00000000000E+00  0.11702105527E+04  0.11702105527E+04  0.50400001928E-02 0. -1.
        1   -1    0    0  501    0  0.00000000000E+00  0.00000000000E+00 -0.41682431666E+03  0.41682431669E+03  0.50400001928E-02 0.  1.
    10030    2    1    2    0    0  0.00000000000E+00  0.00000000000E+00  0.75338623607E+03  0.15870348694E+04  0.13968138230E+04 0.  0.
        3    1    3    3  502    0  0.93360350111E+02 -0.66361812558E+03  0.15327501243E+03  0.68745793414E+03  0.10100000352E+00 0.  1.
       -3    1    3    3    0  502 -0.93360350111E+02  0.66361812558E+03  0.60011122364E+03  0.89957693530E+03  0.10100000352E+00 0. -1.
</event>
<event>
 5   0  0.6153318E-04  0.1387540E+04  0.7818609E-02  0.8962887E-01
        1   -1    0    0  501    0  0.00000000000E+00  0.00000000000E+00  0.13672434226E+04  0.13672434226E+04  0.50400001928E-02 0.  1.
       -1   -1    0    0    0  501  0.00000000000E+00  0.00000000000E+00 -0.35203463703E+03  0.35203463707E+03  0.50400001928E-02 0. -1.
    10030    2    1    2    0    0  0.00000000000E+00  0.00000000000E+00  0.10152087856E+04  0.17192780597E+04  0.13875403303E+04 0.  0.
        5    1    3    3  502    0 -0.24419947688E+02  0.28832046854E+03 -0.27367661673E+03  0.39830391282E+03  0.46999998093E+01 0. -1.
       -5    1    3    3    0  502  0.24419947688E+02 -0.28832046854E+03  0.12888854023E+04  0.13209741469E+04  0.46999998093E+01 0.  1.
</event>
<event>
 5   0  0.1095119E-03  0.1401201E+04  0.7818609E-02  0.8952950E-01
        2   -1    0    0  501    0  0.00000000000E+00  0.00000000000E+00  0.11816213610E+04  0.11816213610E+04  0.25500000920E-02 0. -1.
       -2   -1    0    0    0  501  0.00000000000E+00  0.00000000000E+00 -0.41539636372E+03  0.41539636373E+03  0.25500000920E-02 0.  1.
    10030    2    1    2    0    0  0.00000000000E+00  0.00000000000E+00  0.76622499724E+03  0.15970177247E+04  0.14012012227E+04 0.  0.
        5    1    3    3  502    0  0.12449292208E+03  0.33725798795E+03  0.10684587484E+04  0.11273276477E+04  0.46999998093E+01 0. -1.
       -5    1    3    3    0  502 -0.12449292208E+03 -0.33725798795E+03 -0.30223375120E+03  0.46969007702E+03  0.46999998093E+01 0.  1.
</event>
<event>
 5   0  0.6153318E-04  0.1441285E+04  0.7818609E-02  0.8924465E-01
        1   -1    0    0  501    0  0.00000000000E+00  0.00000000000E+00  0.18258220434E+04  0.18258220434E+04  0.50400001928E-02 0.  1.
       -1   -1    0    0    0  501  0.00000000000E+00  0.00000000000E+00 -0.28443396671E+03  0.28443396675E+03  0.50400001928E-02 0. -1.
    10030    2    1    2    0    0  0.00000000000E+00  0.00000000000E+00  0.15413880767E+04  0.21102560101E+04  0.14412852686E+04 0.  0.
        5    1    3    3  502    0  0.41258416728E+03 -0.12839554586E+03 -0.73692872498E+02  0.43836496295E+03  0.46999998093E+01 0. -1.
       -5    1    3    3    0  502 -0.41258416728E+03  0.12839554586E+03  0.16150809492E+04  0.16718910472E+04  0.46999998093E+01 0.  1.
</event>
<event>
 5   0  0.6097538E-04  0.1419830E+04  0.7818609E-02  0.8939588E-01
       -1   -1    0    0    0  501  0.00000000000E+00  0.00000000000E+00  0.61119346523E+03  0.61119346526E+03  0.50400001928E-02 0.  1.
        1   -1    0    0  501    0  0.00000000000E+00  0.00000000000E+00 -0.82458272126E+03  0.82458272128E+03  0.50400001928E-02 0. -1.
    10030    2    1    2    0    0  0.00000000000E+00  0.00000000000E+00 -0.21338925603E+03  0.14357761865E+04  0.14198303713E+04 0.  0.
        2    1    3    3  502    0 -0.68864971248E+03 -0.52528485098E+02  0.59411849588E+02  0.69320086276E+03  0.25500000920E-02 0.  1.
       -2    1    3    3    0  502  0.68864971248E+03  0.52528485098E+02 -0.27280110561E+03  0.74257532378E+03  0.25500000920E-02 0. -1.
</event>
<event>
 5   0  0.1095119E-03  0.1393689E+04  0.7818609E-02  0.8958399E-01
        2   -1    0    0  501    0  0.00000000000E+00  0.00000000000E+00  0.12966514890E+04  0.12966514890E+04  0.25500000920E-02 0. -1.
       -2   -1    0    0    0  501  0.00000000000E+00  0.00000000000E+00 -0.37449717422E+03  0.37449717423E+03  0.25500000920E-02 0.  1.
    10030    2    1    2    0    0  0.00000000000E+00  0.00000000000E+00  0.92215431482E+03  0.16711486633E+04  0.13936890881E+04 0.  0.
        5    1    3    3  502    0 -0.87265079060E+02  0.67909114469E+03  0.61645095853E+03  0.92131094159E+03  0.46999998093E+01 0. -1.
       -5    1    3    3    0  502  0.87265079060E+02 -0.67909114469E+03  0.30570335629E+03  0.74983772168E+03  0.46999998093E+01 0.  1.
</event>
<event>
 5   0  0.5875298E-04  0.1429181E+04  0.7818609E-02  0.8932963E-01
        1   -1    0    0  501    0  0.00000000000E+00  0.00000000000E+00  0.31761495269E+03  0.31761495273E+03  0.50400001928E-02 0.  1.
       -1   -1    0    0    0  501  0.00000000000E+00  0.00000000000E+00 -0.16077305976E+04  0.16077305976E+04  0.50400001928E-02 0. -1.
    10030    2    1    2    0    0  0.00000000000E+00  0.00000000000E+00 -0.12901156449E+04  0.19253455503E+04  0.14291805732E+04 0.  0.
        1    1    3    3  502    0 -0.72988605724E+02  0.32280908190E+03 -0.14982586919E+04  0.15343767946E+04  0.50400001928E-02 0. -1.
       -1    1    3    3    0  502  0.72988605724E+02 -0.32280908190E+03  0.20814304699E+03  0.39096875574E+03  0.50400001928E-02 0.  1.
</event>
<event>
 5   0  0.1108819E-03  0.1404137E+04  0.7818609E-02  0.8950830E-01
       -2   -1    0    0    0  501  0.00000000000E+00  0.00000000000E+00  0.12739505508E+04  0.12739505509E+04  0.25500000920E-02 0.  1.
        2   -1    0    0  501    0  0.00000000000E+00  0.00000000000E+00 -0.38690672232E+03  0.38690672233E+03  0.25500000920E-02 0. -1.
    10030    2    1    2    0    0  0.00000000000E+00  0.00000000000E+00  0.88704382853E+03  0.16608572732E+04  0.14041367911E+04 0.  0.
        3    1    3    3  502    0 -0.65840655357E+03  0.23350151791E+03  0.36091086342E+03  0.78630707118E+03  0.10100000352E+00 0. -1.
       -3    1    3    3    0  502  0.65840655357E+03 -0.23350151791E+03  0.52613296511E+03  0.87455020200E+03  0.10100000352E+00 0.  1.
</event>
<event>
 5   0  0.1175146E-03  0.1411591E+04  0.7818609E-02  0.8945471E-01
        2   -1    0    0  501    0  0.00000000000E+00  0.00000000000E+00  0.55996579653E+03  0.55996579654E+03  0.25500000920E-02 0.  1.
       -2   -1    0    0    0  501  0.00000000000E+00  0.00000000000E+00 -0.88960249864E+03  0.88960249864E+03  0.25500000920E-02 0. -1.
    10030    2    1    2    0    0  0.00000000000E+00  0.00000000000E+00 -0.32963670211E+03  0.14495682952E+04  0.14115905522E+04 0.  0.
        1    1    3    3  502    0  0.34253813989E+03  0.30473560645E+02  0.46811292714E+03  0.58085344774E+03  0.50400001928E-02 0.  1.
       -1    1    3    3    0  502 -0.34253813989E+03 -0.30473560645E+02 -0.79774962924E+03  0.86871484744E+03  0.50400001928E-02 0. -1.
</event>
<event>
 5   0  0.1108819E-03  0.1397317E+04  0.7818609E-02  0.8955763E-01
       -2   -1    0    0    0  501  0.00000000000E+00  0.00000000000E+00  0.86079311550E+03  0.86079311550E+03  0.25500000920E-02 0.  1.
        2   -1    0    0  501    0  0.00000000000E+00  0.00000000000E+00 -0.56706272787E+03  0.56706272788E+03  0.25500000920E-02 0. -1.
    10030    2    1    2    0    0  0.00000000000E+00  0.00000000000E+00  0.29373038763E+03  0.14278558434E+04  0.13973169894E+04 0.  0.
        3    1    3    3  502    0  0.41713914013E+02  0.90025434599E+02  0.85355707801E+03  0.85930455900E+03  0.10100000352E+00 0.  1.
       -3    1    3    3    0  502 -0.41713914013E+02 -0.90025434599E+02 -0.55982669039E+03  0.56855128438E+03  0.10100000352E+00 0. -1.
</event>
<event>
 5   0  0.6097538E-04  0.1397373E+04  0.7818609E-02  0.8955722E-01
        1   -1    0    0  501    0  0.00000000000E+00  0.00000000000E+00  0.21698603264E+04  0.21698603264E+04  0.50400001928E-02 0. -1.
       -1   -1    0    0    0  501  0.00000000000E+00  0.00000000000E+00 -0.22497433773E+03  0.22497433778E+03  0.50400001928E-02 0.  1.
    10030    2    1    2    0    0  0.00000000000E+00  0.00000000000E+00  0.19448859887E+04  0.23948346642E+04  0.13973730926E+04 0.  0.
        2    1    3    3  502    0 -0.98290611713E+02 -0.55404128010E+03  0.26262664898E+03  0.62096339761E+03  0.25500000920E-02 0.  1.
       -2    1    3    3    0  502  0.98290611713E+02  0.55404128010E+03  0.16822593397E+04  0.17738712666E+04  0.25500000920E-02 0. -1.
</event>
<event>
 5   0  0.1098949E-03  0.1444411E+04  0.7818609E-02  0.8922285E-01
       -2   -1    0    0    0  501  0.00000000000E+00  0.00000000000E+00  0.24853396428E+03  0.24853396429E+03  0.25500000920E-02 0.  1.
        2   -1    0    0  501    0  0.00000000000E+00  0.00000000000E+00 -0.20986283708E+04  0.20986283708E+04  0.25500000920E-02 0. -1.
    10030    2    1    2    0    0  0.00000000000E+00  0.00000000000E+00 -0.18500944065E+04  0.23471623351E+04  0.14444105075E+04 0.  0.
        4    1    3    3  502    0 -0.65344627067E+03 -0.38366191916E+02 -0.42918398154E+03  0.78272887787E+03  0.12699999809E+01 0.  1.
       -4    1    3    3    0  502  0.65344627067E+03  0.38366191916E+02 -0.14209104250E+04  0.15644334572E+04  0.12699999809E+01 0. -1.
</event>
<event>
 5   0  0.6153318E-04  0.1359886E+04  0.7818609E-02  0.8983378E-01
       -1   -1    0    0    0  501  0.00000000000E+00  0.00000000000E+00  0.46026553511E+03  0.46026553513E+03  0.50400001928E-02 0.  1.
        1   -1    0    0  501    0  0.00000000000E+00  0.00000000000E+00 -0.10044693584E+04  0.10044693584E+04  0.50400001928E-02 0. -1.
    10030    2    1    2    0    0  0.00000000000E+00  0.00000000000E+00 -0.54420382332E+03  0.14647348936E+04  0.13598862111E+04 0.  0.
        5    1    3    3  502    0  0.55673075494E+03  0.35343981507E+03 -0.45049697086E+03  0.79864788682E+03  0.46999998093E+01 0.  1.
       -5    1    3    3    0  502 -0.55673075494E+03 -0.35343981507E+03 -0.93706852465E+02  0.66608700675E+03  0.46999998093E+01 0. -1.
</event>
<event>
 5   0  0.4176125E-04  0.1409374E+04  0.7818609E-02  0.8947061E-01
       -4   -1    0    0    0  501  0.00000000000E+00  0.00000000000E+00  0.48689351164E+03  0.48689516795E+03  0.12699999809E+01 0. -1.
        4   -1    0    0  501    0  0.00000000000E+00  0.00000000000E+00 -0.10198981364E+04  0.10198989271E+04  0.12699999809E+01 0.  1.
    10030    2    1    2    0    0  0.00000000000E+00  0.00000000000E+00 -0.53300462478E+03  0.15067940951E+04  0.14093738024E+04 0.  0.
        5    1    3    3  502    0  0.34640308475E+02 -0.66190084905E+03 -0.10696084879E+02  0.66290963274E+03  0.46999998093E+01 0. -1.
       -5    1    3    3    0  502 -0.34640308475E+02  0.66190084905E+03 -0.52230853990E+03  0.84388446235E+03  0.46999998093E+01 0.  1.
</event>
<event>
 5   0  0.4176125E-04  0.1388727E+04  0.7818609E-02  0.8962019E-01
       -3   -1    0    0    0  501  0.00000000000E+00  0.00000000000E+00  0.73708433606E+03  0.73708434298E+03  0.10100000352E+00 0.  1.
        3   -1    0    0  501    0  0.00000000000E+00  0.00000000000E+00 -0.65411916947E+03  0.65411917727E+03  0.10100000352E+00 0. -1.
    10030    2    1    2    0    0  0.00000000000E+00  0.00000000000E+00  0.82965166589E+02  0.13912035203E+04  0.13887274808E+04 0.  0.
        1    1    3    3  502    0 -0.11152417478E+03 -0.19312873607E+03  0.70022983748E+03  0.73488650523E+03  0.50400001928E-02 0.  1.
       -1    1    3    3    0  502  0.11152417478E+03  0.19312873607E+03 -0.61726467089E+03  0.65631701502E+03  0.50400001928E-02 0. -1.
</event>
<event>
 5   0  0.6097538E-04  0.1462356E+04  0.7818609E-02  0.8909879E-01
        1   -1    0    0  501    0  0.00000000000E+00  0.00000000000E+00  0.14601750007E+04  0.14601750007E+04  0.50400001928E-02 0. -1.
       -1   -1    0    0    0  501  0.00000000000E+00  0.00000000000E+00 -0.36613500107E+03  0.36613500110E+03  0.50400001928E-02 0.  1.
    10030    2    1    2    0    0  0.00000000000E+00  0.00000000000E+00  0.10940399996E+04  0.18263100018E+04  0.14623558739E+04 0.  0.
        2    1    3    3  502    0  0.15747632545E+03 -0.19232574555E+03  0.14057871049E+04  0.14275942595E+04  0.25500000920E-02 0. -1.
       -2    1    3    3    0  502 -0.15747632545E+03  0.19232574555E+03 -0.31174710528E+03  0.39871574228E+03  0.25500000920E-02 0.  1.
</event>
<event>
 5   0  0.6114266E-04  0.1428672E+04  0.7818609E-02  0.8933322E-01
       -1   -1    0    0    0  501  0.00000000000E+00  0.00000000000E+00  0.68775497615E+03  0.68775497616E+03  0.50400001928E-02 0.  1.
        1   -1    0    0  501    0  0.00000000000E+00  0.00000000000E+00 -0.74194475199E+03  0.74194475201E+03  0.50400001928E-02 0. -1.
    10030    2    1    2    0    0  0.00000000000E+00  0.00000000000E+00 -0.54189775843E+02  0.14296997282E+04  0.14286723840E+04 0.  0.
        3    1    3    3  502    0  0.30289891846E+03  0.57727229552E+03  0.26515128661E+03  0.70377288451E+03  0.10100000352E+00 0.  1.
       -3    1    3    3    0  502 -0.30289891846E+03 -0.57727229552E+03 -0.31934106245E+03  0.72592684366E+03  0.10100000352E+00 0. -1.
</event>
<event>
 5   0  0.6153318E-04  0.1405150E+04  0.7818609E-02  0.8950099E-01
       -1   -1    0    0    0  501  0.00000000000E+00  0.00000000000E+00  0.81259741517E+03  0.81259741519E+03  0.50400001928E-02 0. -1.
        1   -1    0    0  501    0  0.00000000000E+00  0.00000000000E+00 -0.60744888591E+03  0.60744888593E+03  0.50400001928E-02 0.  1.
    10030    2    1    2    0    0  0.00000000000E+00  0.00000000000E+00  0.20514852926E+03  0.14200463011E+04  0.14051496640E+04 0.  0.
        5    1    3    3  502    0 -0.62931718167E+03 -0.30596244040E+03  0.39170201200E+02  0.70086341376E+03  0.46999998093E+01 0.  1.
       -5    1    3    3    0  502  0.62931718167E+03  0.30596244040E+03  0.16597832806E+03  0.71918288736E+03  0.46999998093E+01 0. -1.
</event>
<event>
 5   0  0.1095119E-03  0.1398674E+04  0.7818609E-02  0.8954779E-01
       -2   -1    0    0    0  501  0.00000000000E+00  0.00000000000E+00  0.33605100361E+03  0.33605100362E+03  0.25500000920E-02 0. -1.
        2   -1    0    0  501    0  0.00000000000E+00  0.00000000000E+00 -0.14553511858E+04  0.14553511858E+04  0.25500000920E-02 0.  1.
    10030    2    1    2    0    0  0.00000000000E+00  0.00000000000E+00 -0.11193001822E+04  0.17914021894E+04  0.13986739814E+04 0.  0.
        5    1    3    3  502    0  0.33306899164E+03  0.17457884145E+03  0.19551144005E+03  0.42386264080E+03  0.46999998093E+01 0. -1.
       -5    1    3    3    0  502 -0.33306899164E+03 -0.17457884145E+03 -0.13148116222E+04  0.13675395486E+04  0.46999998093E+01 0.  1.
</event>
<event>
 5   0  0.5875298E-04  0.1381365E+04  0.7818609E-02  0.8967419E-01
        1   -1    0    0  501    0  0.00000000000E+00  0.00000000000E+00  0.72200167564E+03  0.72200167566E+03  0.50400001928E-02 0.  1.
       -1   -1    0    0    0  501  0.00000000000E+00  0.00000000000E+00 -0.66072156289E+03  0.66072156291E+03  0.50400001928E-02 0. -1.
    10030    2    1    2    0    0  0.00000000000E+00  0.00000000000E+00  0.61280112749E+02  0.13827232386E+04  0.13813646522E+04 0.  0.
        1    1    3    3  502    0 -0.57804290554E+02 -0.32912822167E+03 -0.57441730250E+03  0.66454643159E+03  0.50400001928E-02 0. -1.
       -1    1    3    3    0  502  0.57804290554E+02  0.32912822167E+03  0.63569741525E+03  0.71817680698E+03  0.50400001928E-02 0.  1.
</event>
<event>
 5   0  0.6153318E-04  0.1406178E+04  0.7818609E-02  0.8949358E-01
       -1   -1    0    0    0  501  0.00000000000E+00  0.00000000000E+00  0.37905769229E+03  0.37905769232E+03  0.50400001928E-02 0.  1.
        1   -1    0    0  501    0  0.00000000000E+00  0.00000000000E+00 -0.13041138998E+04  0.13041138999E+04  0.50400001928E-02 0. -1.
    10030    2    1    2    0    0  0.00000000000E+00  0.00000000000E+00 -0.92505620755E+03  0.16831715922E+04  0.14061783747E+04 0.  0.
        5    1    3    3  502    0  0.48401615198E+03 -0.35697033707E+03 -0.89842200850E+03  0.10811492276E+04  0.46999998093E+01 0. -1.
       -5    1    3    3    0  502 -0.48401615198E+03  0.35697033707E+03 -0.26634199055E+02  0.60202236461E+03  0.46999998093E+01 0.  1.
</event>
<event>
 5   0  0.6194742E-04  0.1370125E+04  0.7818609E-02  0.8975732E-01
       -1   -1    0    0    0  501  0.00000000000E+00  0.00000000000E+00  0.24182950522E+03  0.24182950528E+03  0.50400001928E-02 0. -1.
        1   -1    0    0  501    0  0.00000000000E+00  0.00000000000E+00 -0.19406662393E+04  0.19406662393E+04  0.50400001928E-02 0.  1.
    10030    2    1    2    0    0  0.00000000000E+00  0.00000000000E+00 -0.16988367341E+04  0.21824957446E+04  0.13701246024E+04 0.  0.
        4    1    3    3  502    0  0.54902628321E+03 -0.38941532945E+03 -0.10523799955E+04  0.12492315343E+04  0.12699999809E+01 0. -1.
       -4    1    3    3    0  502 -0.54902628321E+03  0.38941532945E+03 -0.64645673863E+03  0.93326421033E+03  0.12699999809E+01 0.  1.
</event>
<event>
 5   0  0.6097538E-04  0.1395163E+04  0.7818609E-02  0.8957327E-01
       -1   -1    0    0    0  501  0.00000000000E+00  0.00000000000E+00  0.69567337630E+03  0.69567337632E+03  0.50400001928E-02 0.  1.
        1   -1    0    0  501    0  0.00000000000E+00  0.00000000000E+00 -0.69949525576E+03  0.69949525578E+03  0.50400001928E-02 0. -1.
    10030    2    1    2    0    0  0.00000000000E+00  0.00000000000E+00 -0.38218794607E+01  0.13951686321E+04  0.13951633973E+04 0.  0.
        2    1    3    3  502    0  0.39506916591E+03 -0.54737810698E+03  0.17392426854E+03  0.69710263882E+03  0.25500000920E-02 0.  1.
       -2    1    3    3    0  502 -0.39506916591E+03  0.54737810698E+03 -0.17774614800E+03  0.69806599329E+03  0.25500000920E-02 0. -1.
</event>
<event>
 5   0  0.1120053E-03  0.1455162E+04  0.7818609E-02  0.8914830E-01
        2   -1    0    0  501    0  0.00000000000E+00  0.00000000000E+00  0.17467502389E+04  0.17467502389E+04  0.25500000920E-02 0.  1.
       -2   -1    0    0    0  501  0.00000000000E+00  0.00000000000E+00 -0.30306217295E+03  0.30306217296E+03  0.25500000920E-02 0. -1.
    10030    2    1    2    0    0  0.00000000000E+00  0.00000000000E+00  0.14436880659E+04  0.20498124118E+04  0.14551617408E+04 0.  0.
        2    1    3    3  502    0 -0.32201223431E+03  0.50311153463E+03  0.13070031263E+04  0.14370352353E+04  0.25500000920E-02 0.  1.
       -2    1    3    3    0  502  0.32201223431E+03 -0.50311153463E+03  0.13668493959E+03  0.61277717650E+03  0.25500000920E-02 0. -1.
</event>
<event>
 5   0  0.1108819E-03  0.1456494E+04  0.7818609E-02  0.8913911E-01
        2   -1    0    0  501    0  0.00000000000E+00  0.00000000000E+00  0.25044845584E+04  0.25044845584E+04  0.25500000920E-02 0.  1.
       -2   -1    0    0    0  501  0.00000000000E+00  0.00000000000E+00 -0.21175752875E+03  0.21175752876E+03  0.25500000920E-02 0. -1.
    10030    2    1    2    0    0  0.00000000000E+00  0.00000000000E+00  0.22927270296E+04  0.27162420872E+04  0.14564936813E+04 0.  0.
        3    1    3    3  502    0 -0.19268699005E+03  0.69266560098E+03  0.93024576637E+03  0.11757002624E+04  0.10100000352E+00 0. -1.
       -3    1    3    3    0  502  0.19268699005E+03 -0.69266560098E+03  0.13624812633E+04  0.15405418248E+04  0.10100000352E+00 0.  1.
</event>
<event>
 5   0  0.1098949E-03  0.1401209E+04  0.7818609E-02  0.8952944E-01
       -2   -1    0    0    0  501  0.00000000000E+00  0.00000000000E+00  0.28255787533E+03  0.28255787534E+03  0.25500000920E-02 0.  1.
        2   -1    0    0  501    0  0.00000000000E+00  0.00000000000E+00 -0.17371551579E+04  0.17371551579E+04  0.25500000920E-02 0. -1.
    10030    2    1    2    0    0  0.00000000000E+00  0.00000000000E+00 -0.14545972825E+04  0.20197130332E+04  0.14012092928E+04 0.  0.
        4    1    3    3  502    0 -0.15450292994E+03 -0.52585752469E+03 -0.98263615375E+02  0.55682550466E+03  0.12699999809E+01 0.  1.
       -4    1    3    3    0  502  0.15450292994E+03  0.52585752469E+03 -0.13563336672E+04  0.14628875286E+04  0.12699999809E+01 0. -1.
</event>
<event>
 5   0  0.6153318E-04  0.1399593E+04  0.7818609E-02  0.8954113E-01
       -1   -1    0    0    0  501  0.00000000000E+00  0.00000000000E+00  0.30419626306E+03  0.30419626311E+03  0.50400001928E-02 0. -1.
        1   -1    0    0  501    0  0.00000000000E+00  0.00000000000E+00 -0.16098668156E+04  0.16098668156E+04  0.50400001928E-02 0.  1.
    10030    2    1    2    0    0  0.00000000000E+00  0.00000000000E+00 -0.13056705526E+04  0.19140630787E+04  0.13995934687E+04 0.  0.
        5    1    3    3  502    0 -0.10634006540E+03 -0.26054183307E+03  0.22338353297E+03  0.35932234705E+03  0.46999998093E+01 0. -1.
       -5    1    3    3    0  502  0.10634006540E+03  0.26054183307E+03 -0.15290540855E+04  0.15547407317E+04  0.46999998093E+01 0.  1.
</event>
<event>
 5   0  0.1175146E-03  0.1388635E+04  0.7818609E-02  0.8962086E-01
       -2   -1    0    0    0  501  0.00000000000E+00  0.00000000000E+00  0.19099275890E+03  0.19099275892E+03  0.25500000920E-02 0.  1.
        2   -1    0    0  501    0  0.00000000000E+00  0.00000000000E+00 -0.25240592585E+04  0.25240592586E+04  0.25500000920E-02 0. -1.
    10030    2    1    2    0    0  0.00000000000E+00  0.00000000000E+00 -0.23330664996E+04  0.27150520175E+04  0.13886353610E+04 0.  0.
        1    1    3    3  502    0 -0.46124124974E+03  0.50263370055E+03 -0.91392006583E+03  0.11404534248E+04  0.50400001928E-02 0.  1.
       -1    1    3    3    0  502  0.46124124974E+03 -0.50263370055E+03 -0.14191464338E+04  0.15745985927E+04  0.50400001928E-02 0. -1.
</event>
<event>
 5   0  0.1095119E-03  0.1393678E+04  0.7818609E-02  0.8958407E-01
        2   -1    0    0  501    0  0.00000000000E+00  0.00000000000E+00  0.11516086753E+04  0.11516086753E+04  0.25500000920E-02 0. -1.
       -2   -1    0    0    0  501  0.00000000000E+00  0.00000000000E+00 -0.42165770895E+03  0.42165770896E+03  0.25500000920E-02 0.  1.
    10030    2    1    2    0    0  0.00000000000E+00  0.00000000000E+00  0.72995096636E+03  0.15732663843E+04  0.13936781201E+04 0.  0.
        5    1    3    3  502    0 -0.16035335832E+03 -0.39313388951E+03 -0.25875895066E+03  0.49723811112E+03  0.46999998093E+01 0.  1.
       -5    1    3    3    0  502  0.16035335832E+03  0.39313388951E+03  0.98870991701E+03  0.10760282731E+04  0.46999998093E+01 0. -1.
</event>
<event>
 5   0  0.6194742E-04  0.1401820E+04  0.7818609E-02  0.8952502E-01
        1   -1    0    0  501    0  0.00000000000E+00  0.00000000000E+00  0.72370324688E+03  0.72370324689E+03  0.50400001928E-02 0. -1.
       -1   -1    0    0    0  501  0.00000000000E+00  0.00000000000E+00 -0.67883480114E+03  0.67883480116E+03  0.50400001928E-02 0.  1.
    10030    2    1    2    0    0  0.00000000000E+00  0.00000000000E+00  0.44868445738E+02  0.14025380480E+04  0.14018201735E+04 0.  0.
        4    1    3    3  502    0 -0.60831775119E+03  0.18978895848E+03 -0.26961078938E+03  0.69192624305E+03  0.12699999809E+01 0.  1.
       -4    1    3    3    0  502  0.60831775119E+03 -0.18978895848E+03  0.31447923512E+03  0.71061180499E+03  0.12699999809E+01 0. -1.
</event>
<event>
 5   0  0.6097538E-04  0.1402247E+04  0.7818609E-02  0.8952194E-01
       -1   -1    0    0    0  501  0.00000000000E+00  0.00000000000E+00  0.11903818536E+04  0.11903818536E+04  0.50400001928E-02 0.  1.
        1   -1    0    0  501    0  0.00000000000E+00  0.00000000000E+00 -0.41295513506E+03  0.41295513509E+03  0.50400001928E-02 0. -1.
    10030    2    1    2    0    0  0.00000000000E+00  0.00000000000E+00  0.77742671852E+03  0.16033369887E+04  0.14022471952E+04 0.  0.
        2    1    3    3  502    0  0.60890760603E+03 -0.23087926554E+03  0.68578009225E+03  0.94571033772E+03  0.25500000920E-02 0.  1.
       -2    1    3    3    0  502 -0.60890760603E+03  0.23087926554E+03  0.91646626268E+02  0.65762665096E+03  0.25500000920E-02 0. -1.
</event>
<event>
 5   0  0.6097538E-04  0.1399735E+04  0.7818609E-02  0.8954010E-01
        1   -1    0    0  501    0  0.00000000000E+00  0.00000000000E+00  0.98168663770E+03  0.98168663772E+03  0.50400001928E-02 0.  1.
       -1   -1    0    0    0  501  0.00000000000E+00  0.00000000000E+00 -0.49895203683E+03  0.49895203686E+03  0.50400001928E-02 0. -1.
    10030    2    1    2    0    0  0.00000000000E+00  0.00000000000E+00  0.48273460087E+03  0.14806386746E+04  0.13997350427E+04 0.  0.
        2    1    3    3  502    0 -0.44511500737E+03  0.27516355803E+03  0.73295632008E+03  0.90059276068E+03  0.25500000920E-02 0.  1.
       -2    1    3    3    0  502  0.44511500737E+03 -0.27516355803E+03 -0.25022171920E+03  0.58004591389E+03  0.25500000920E-02 0. -1.
</event>
<event>
 5   0  0.6114266E-04  0.1410420E+04  0.7818609E-02  0.8946310E-01
       -1   -1    0    0    0  501  0.00000000000E+00  0.00000000000E+00  0.62792215215E+03  0.62792215217E+03  0.50400001928E-02 0.  1.
        1   -1    0    0  501    0  0.00000000000E+00  0.00000000000E+00 -0.79201106294E+03  0.79201106295E+03  0.50400001928E-02 0. -1.
    10030    2    1    2    0    0  0.00000000000E+00  0.00000000000E+00 -0.16408891078E+03  0.14199332151E+04  0.14104202086E+04 0.  0.
        3    1    3    3  502    0 -0.49964634488E+02  0.47909999761E+03 -0.60057961130E+03  0.76988905182E+03  0.10100000352E+00 0. -1.
       -3    1    3    3    0  502  0.49964634488E+02 -0.47909999761E+03  0.43649070051E+03  0.65004416330E+03  0.10100000352E+00 0.  1.
</event>
<event>
 5   0  0.6097538E-04  0.1422175E+04  0.7818609E-02  0.8937922E-01
       -1   -1    0    0    0  501  0.00000000000E+00  0.00000000000E+00  0.52671842321E+03  0.52671842323E+03  0.50400001928E-02 0. -1.
        1   -1    0    0  501    0  0.00000000000E+00  0.00000000000E+00 -0.95999195634E+03  0.95999195635E+03  0.50400001928E-02 0.  1.
    10030    2    1    2    0    0  0.00000000000E+00  0.00000000000E+00 -0.43327353313E+03  0.14867103796E+04  0.14221750238E+04 0.  0.
        2    1    3    3  502    0 -0.33148629573E+03 -0.58170383894E+03  0.33780737489E+02  0.67037575935E+03  0.25500000920E-02 0. -1.
       -2    1    3    3    0  502  0.33148629573E+03  0.58170383894E+03 -0.46705427062E+03  0.81633462024E+03  0.25500000920E-02 0.  1.
</event>
<event>
 5   0  0.1120053E-03  0.1387352E+04  0.7818609E-02  0.8963025E-01
        2   -1    0    0  501    0  0.00000000000E+00  0.00000000000E+00  0.17298757682E+04  0.17298757682E+04  0.25500000920E-02 0. -1.
       -2   -1    0    0    0  501  0.00000000000E+00  0.00000000000E+00 -0.27816236713E+03  0.27816236714E+03  0.25500000920E-02 0.  1.
    10030    2    1    2    0    0  0.00000000000E+00  0.00000000000E+00  0.14517134010E+04  0.20080381353E+04  0.13873519215E+04 0.  0.
        2    1    3    3  502    0  0.60219737966E+03  0.34426286326E+03  0.73347929444E+03  0.10095298304E+04  0.25500000920E-02 0.  1.
       -2    1    3    3    0  502 -0.60219737966E+03 -0.34426286326E+03  0.71823410661E+03  0.99850830492E+03  0.25500000920E-02 0. -1.
</event>
<event>
 5   0  0.1120053E-03  0.1372632E+04  0.7818609E-02  0.8973871E-01
       -2   -1    0    0    0  501  0.00000000000E+00  0.00000000000E+00  0.57637883100E+03  0.57637883101E+03  0.25500000920E-02 0.  1.
        2   -1    0    0  501    0  0.00000000000E+00  0.00000000000E+00 -0.81722226103E+03  0.81722226104E+03  0.25500000920E-02 0. -1.
    10030    2    1    2    0    0  0.00000000000E+00  0.00000000000E+00 -0.24084343003E+03  0.13936010920E+04  0.13726319412E+04 0.  0.
        2    1    3    3  502    0 -0.22728573918E+03 -0.42438564243E+03 -0.61704416930E+03  0.78262729803E+03  0.25500000920E-02 0. -1.
       -2    1    3    3    0  502  0.22728573918E+03  0.42438564243E+03  0.37620073927E+03  0.61097379402E+03  0.25500000920E-02 0.  1.
</event>
<event>
 5   0  0.1108819E-03  0.1371221E+04  0.7818609E-02  0.8974918E-01
        2   -1    0    0  501    0  0.00000000000E+00  0.00000000000E+00  0.60749953112E+03  0.60749953113E+03  0.25500000920E-02 0.  1.
       -2   -1    0    0    0  501  0.00000000000E+00  0.00000000000E+00 -0.77376448504E+03  0.77376448505E+03  0.25500000920E-02 0. -1.
    10030    2    1    2    0    0  0.00000000000E+00  0.00000000000E+00 -0.16626495392E+03  0.13812640162E+04  0.13712207144E+04 0.  0.
        3    1    3    3  502    0  0.40216137744E+03  0.49884850670E+03  0.16253480005E+03  0.66106064591E+03  0.10100000352E+00 0.  1.
       -3    1    3    3    0  502 -0.40216137744E+03 -0.49884850670E+03 -0.32879975397E+03  0.72020337027E+03  0.10100000352E+00 0. -1.
</event>
<event>
 5   0  0.5875298E-04  0.1418383E+04  0.7818609E-02  0.8940619E-01
        1   -1    0    0  501    0  0.00000000000E+00  0.00000000000E+00  0.87175425275E+03  0.87175425277E+03  0.50400001928E-02 0. -1.
       -1   -1    0    0    0  501  0.00000000000E+00  0.00000000000E+00 -0.57694295729E+03  0.57694295731E+03  0.50400001928E-02 0.  1.
    10030    2    1    2    0    0  0.00000000000E+00  0.00000000000E+00  0.29481129547E+03  0.14486972101E+04  0.14183828491E+04 0.  0.
        1    1    3    3  502    0 -0.26376398136E+03  0.64047666792E+02  0.81660258027E+03  0.86053083362E+03  0.50400001928E-02 0. -1.
       -1    1    3    3    0  502  0.26376398136E+03 -0.64047666792E+02 -0.52179128480E+03  0.58816637646E+03  0.50400001928E-02 0.  1.
</event>
<event>
 5   0  0.6097538E-04  0.1371154E+04  0.7818609E-02  0.8974968E-01
       -1   -1    0    0    0  501  0.00000000000E+00  0.00000000000E+00  0.82612279736E+03  0.82612279737E+03  0.50400001928E-02 0. -1.
        1   -1    0    0  501    0  0.00000000000E+00  0.00000000000E+00 -0.56894168096E+03  0.56894168098E+03  0.50400001928E-02 0.  1.
    10030    2    1    2    0    0  0.00000000000E+00  0.00000000000E+00  0.25718111640E+03  0.13950644784E+04  0.13711538105E+04 0.  0.
        2    1    3    3  502    0 -0.31800195490E+03 -0.36527184669E+03 -0.36512073841E+03  0.60651621489E+03  0.25500000920E-02 0.  1.
       -2    1    3    3    0  502  0.31800195490E+03  0.36527184669E+03  0.62230185481E+03  0.78854826346E+03  0.25500000920E-02 0. -1.
</event>
<event>
 5   0  0.6097538E-04  0.1397417E+04  0.7818609E-02  0.8955690E-01
       -1   -1    0    0    0  501  0.00000000000E+00  0.00000000000E+00  0.93676385064E+03  0.93676385065E+03  0.50400001928E-02 0. -1.
        1   -1    0    0  501    0  0.00000000000E+00  0.00000000000E+00 -0.52114896067E+03  0.52114896070E+03  0.50400001928E-02 0.  1.
    10030    2    1    2    0    0  0.00000000000E+00  0.00000000000E+00  0.41561488996E+03  0.14579128113E+04  0.13974169130E+04 0.  0.
        2    1    3    3  502    0 -0.49740632322E+03 -0.38432137553E+03  0.52610111267E+03  0.81969405929E+03  0.25500000920E-02 0. -1.
       -2    1    3    3    0  502  0.49740632322E+03  0.38432137553E+03 -0.11048622271E+03  0.63821875206E+03  0.25500000920E-02 0.  1.
</event>
<event>
 5   0  0.1108819E-03  0.1385805E+04  0.7818609E-02  0.8964159E-01
       -2   -1    0    0    0  501  0.00000000000E+00  0.00000000000E+00  0.86904778510E+03  0.86904778510E+03  0.25500000920E-02 0. -1.
        2   -1    0    0  501    0  0.00000000000E+00  0.00000000000E+00 -0.55245929809E+03  0.55245929809E+03  0.25500000920E-02 0.  1.
    10030    2    1    2    0    0  0.00000000000E+00  0.00000000000E+00  0.31658848701E+03  0.14215070832E+04  0.13858045019E+04 0.  0.
        3    1    3    3  502    0  0.16031002462E+03  0.45575014591E+03 -0.35119724539E+03  0.59728302744E+03  0.10100000352E+00 0.  1.
       -3    1    3    3    0  502 -0.16031002462E+03 -0.45575014591E+03  0.66778573240E+03  0.82422405576E+03  0.10100000352E+00 0. -1.
</event>
<event>
 5   0  0.1120053E-03  0.1416396E+04  0.7818609E-02  0.8942035E-01
        2   -1    0    0  501    0  0.00000000000E+00  0.00000000000E+00  0.78423684906E+03  0.78423684907E+03  0.25500000920E-02 0. -1.
       -2   -1    0    0    0  501  0.00000000000E+00  0.00000000000E+00 -0.63953155764E+03  0.63953155764E+03  0.25500000920E-02 0.  1.
    10030    2    1    2    0    0  0.00000000000E+00  0.00000000000E+00  0.14470529143E+03  0.14237684067E+04  0.14163957267E+04 0.  0.
        2    1    3    3  502    0 -0.37295905995E+03 -0.22509134073E+03  0.63363142223E+03  0.76893000416E+03  0.25500000920E-02 0. -1.
       -2    1    3    3    0  502  0.37295905995E+03  0.22509134073E+03 -0.48892613080E+03  0.65483840255E+03  0.25500000920E-02 0.  1.
</event>
<event>
 5   0  0.1120053E-03  0.1402569E+04  0.7818609E-02  0.8951961E-01
        2   -1    0    0  501    0  0.00000000000E+00  0.00000000000E+00  0.84626318089E+03  0.84626318089E+03  0.25500000920E-02 0. -1.
       -2   -1    0    0    0  501  0.00000000000E+00  0.00000000000E+00 -0.58114326143E+03  0.58114326144E+03  0.25500000920E-02 0.  1.
    10030    2    1    2    0    0  0.00000000000E+00  0.00000000000E+00  0.26511991946E+03  0.14274064423E+04  0.14025692781E+04 0.  0.
        2    1    3    3  502    0 -0.48781509591E+03 -0.41348189896E+03 -0.16040802011E+03  0.65928869359E+03  0.25500000920E-02 0.  1.
       -2    1    3    3    0  502  0.48781509591E+03  0.41348189896E+03  0.42552793957E+03  0.76811774874E+03  0.25500000920E-02 0. -1.
</event>
<event>
 5   0  0.6194742E-04  0.1390324E+04  0.7818609E-02  0.8960852E-01
       -1   -1    0    0    0  501  0.00000000000E+00  0.00000000000E+00  0.54217299146E+03  0.54217299149E+03  0.50400001928E-02 0. -1.
        1   -1    0    0  501    0  0.00000000000E+00  0.00000000000E+00 -0.89132109447E+03  0.89132109448E+03  0.50400001928E-02 0.  1.
    10030    2    1    2    0    0  0.00000000000E+00  0.00000000000E+00 -0.34914810301E+03  0.14334940860E+04  0.13903240258E+04 0.  0.
        4    1    3    3  502    0 -0.52902370968E+03 -0.44394989341E+03 -0.92795325232E+02  0.69682865795E+03  0.12699999809E+01 0. -1.
       -4    1    3    3    0  502  0.52902370968E+03  0.44394989341E+03 -0.25635277777E+03  0.73666542801E+03  0.12699999809E+01 0.  1.
</event>
<event>
 5   0  0.4176125E-04  0.1395352E+04  0.7818609E-02  0.8957190E-01
       -3   -1    0    0    0  501  0.00000000000E+00  0.00000000000E+00  0.13148689357E+04  0.13148689396E+04  0.10100000352E+00 0. -1.
        3   -1    0    0  501    0  0.00000000000E+00  0.00000000000E+00 -0.37019009038E+03  0.37019010416E+03  0.10100000352E+00 0.  1.
    10030    2    1    2    0    0  0.00000000000E+00  0.00000000000E+00  0.94467884529E+03  0.16850590437E+04  0.13953515185E+04 0.  0.
        4    1    3    3  502    0  0.57252220787E+03 -0.25501649958E+03  0.10221763139E+03  0.63503161388E+03  0.12699999809E+01 0.  1.
       -4    1    3    3    0  502 -0.57252220787E+03  0.25501649958E+03  0.84246121390E+03  0.10500274298E+04  0.12699999809E+01 0. -1.
</event>
<event>
 5   0  0.1175146E-03  0.1425946E+04  0.7818609E-02  0.8935249E-01
       -2   -1    0    0    0  501  0.00000000000E+00  0.00000000000E+00  0.99661567003E+03  0.99661567003E+03  0.25500000920E-02 0.  1.
        2   -1    0    0  501    0  0.00000000000E+00  0.00000000000E+00 -0.51005648987E+03  0.51005648987E+03  0.25500000920E-02 0. -1.
    10030    2    1    2    0    0  0.00000000000E+00  0.00000000000E+00  0.48655918016E+03  0.15066721599E+04  0.14259457078E+04 0.  0.
        1    1    3    3  502    0  0.60265748891E+03 -0.25931234292E+03 -0.51610643468E+02  0.65810530972E+03  0.50400001928E-02 0. -1.
       -1    1    3    3    0  502 -0.60265748891E+03  0.25931234292E+03  0.53816982363E+03  0.84856685018E+03  0.50400001928E-02 0.  1.
</event>
<event>
 5   0  0.1108819E-03  0.1378520E+04  0.7818609E-02  0.8969516E-01
       -2   -1    0    0    0  501  0.00000000000E+00  0.00000000000E+00  0.36561093975E+03  0.36561093976E+03  0.25500000920E-02 0.  1.
        2   -1    0    0  501    0  0.00000000000E+00  0.00000000000E+00 -0.12994113623E+04  0.12994113623E+04  0.25500000920E-02 0. -1.
    10030    2    1    2    0    0  0.00000000000E+00  0.00000000000E+00 -0.93380042253E+03  0.16650223020E+04  0.13785195092E+04 0.  0.
        3    1    3    3  502    0 -0.43334112497E+03 -0.51136694246E+03 -0.27289971554E+03  0.72370915800E+03  0.10100000352E+00 0. -1.
       -3    1    3    3    0  502  0.43334112497E+03  0.51136694246E+03 -0.66090070698E+03  0.94131314403E+03  0.10100000352E+00 0.  1.
</event>
<event>
 5   0  0.6097538E-04  0.1406650E+04  0.7818609E-02  0.8949019E-01
        1   -1    0    0  501    0  0.00000000000E+00  0.00000000000E+00  0.10511627809E+04  0.10511627809E+04  0.50400001928E-02 0. -1.
       -1   -1    0    0    0  501  0.00000000000E+00  0.00000000000E+00 -0.47058952641E+03  0.47058952644E+03  0.50400001928E-02 0.  1.
    10030    2    1    2    0    0  0.00000000000E+00  0.00000000000E+00  0.58057325446E+03  0.15217523073E+04  0.14066501985E+04 0.  0.
        2    1    3    3  502    0 -0.16060251185E+03 -0.68464075537E+03  0.30308992758E+03  0.76576082097E+03  0.25500000920E-02 0. -1.
       -2    1    3    3    0  502  0.16060251185E+03  0.68464075537E+03  0.27748332688E+03  0.75599148634E+03  0.25500000920E-02 0.  1.
</event>
<event>
 5   0  0.1108819E-03  0.1355980E+04  0.7818609E-02  0.8986314E-01
       -2   -1    0    0    0  501  0.00000000000E+00  0.00000000000E+00  0.42450097393E+03  0.42450097394E+03  0.25500000920E-02 0.  1.
        2   -1    0    0  501    0  0.00000000000E+00  0.00000000000E+00 -0.10828489159E+04  0.10828489159E+04  0.25500000920E-02 0. -1.
    10030    2    1    2    0    0  0.00000000000E+00  0.00000000000E+00 -0.65834794196E+03  0.15073498898E+04  0.13559799695E+04 0.  0.
        3    1    3    3  502    0 -0.22862066255E+03  0.56440813336E+03 -0.66051930992E+03  0.89839285244E+03  0.10100000352E+00 0.  1.
       -3    1    3    3    0  502  0.22862066255E+03 -0.56440813336E+03  0.21713679586E+01  0.60895703739E+03  0.10100000352E+00 0. -1.
</event>
<event>
 5   0  0.1120053E-03  0.1396561E+04  0.7818609E-02  0.8956312E-01
       -2   -1    0    0    0  501  0.00000000000E+00  0.00000000000E+00  0.92983895871E+03  0.92983895872E+03  0.25500000920E-02 0.  1.
        2   -1    0    0  501    0  0.00000000000E+00  0.00000000000E+00 -0.52438733354E+03  0.52438733354E+03  0.25500000920E-02 0. -1.
    10030    2    1    2    0    0  0.00000000000E+00  0.00000000000E+00  0.40545162518E+03  0.14542262923E+04  0.13965611654E+04 0.  0.
        2    1    3    3  502    0  0.43496528063E+03  0.51567093049E+03  0.39040231975E+03  0.77943907727E+03  0.25500000920E-02 0.  1.
       -2    1    3    3    0  502 -0.43496528063E+03 -0.51567093049E+03  0.15049305425E+02  0.67478721499E+03  0.25500000920E-02 0. -1.
</event>
<event>
 5   0  0.1095119E-03  0.1397583E+04  0.7818609E-02  0.8955570E-01
        2   -1    0    0  501    0  0.00000000000E+00  0.00000000000E+00  0.10347525264E+04  0.10347525264E+04  0.25500000920E-02 0. -1.
       -2   -1    0    0    0  501  0.00000000000E+00  0.00000000000E+00 -0.47190963948E+03  0.47190963949E+03  0.25500000920E-02 0.  1.
    10030    2    1    2    0    0  0.00000000000E+00  0.00000000000E+00  0.56284288688E+03  0.15066621659E+04  0.13975831878E+04 0.  0.
        5    1    3    3  502    0  0.24606326764E+03  0.15007191666E+03  0.96767254768E+03  0.10096934987E+04  0.46999998093E+01 0. -1.
       -5    1    3    3    0  502 -0.24606326764E+03 -0.15007191666E+03 -0.40482966080E+03  0.49696866713E+03  0.46999998093E+01 0.  1.
</event>
<event>
 5   0  0.6153318E-04  0.1432462E+04  0.7818609E-02  0.8930650E-01
        1   -1    0    0  501    0  0.00000000000E+00  0.00000000000E+00  0.25177746161E+04  0.25177746161E+04  0.50400001928E-02 0. -1.
       -1   -1    0    0    0  501  0.00000000000E+00  0.00000000000E+00 -0.20374609373E+03  0.20374609380E+03  0.50400001928E-02 0.  1.
    10030    2    1    2    0    0  0.00000000000E+00  0.00000000000E+00  0.23140285223E+04  0.27215207099E+04  0.14324618571E+04 0.  0.
        5    1    3    3  502    0 -0.50139298919E+03 -0.14566206765E+03  0.22557893560E+03  0.56878846133E+03  0.46999998093E+01 0.  1.
       -5    1    3    3    0  502  0.50139298919E+03  0.14566206765E+03  0.20884495867E+04  0.21527322485E+04  0.46999998093E+01 0. -1.
</event>
<event>
 5   0  0.6153318E-04  0.1402159E+04  0.7818609E-02  0.8952257E-01
        1   -1    0    0  501    0  0.00000000000E+00  0.00000000000E+00  0.71845390294E+03  0.71845390296E+03  0.50400001928E-02 0.  1.
       -1   -1    0    0    0  501  0.00000000000E+00  0.00000000000E+00 -0.68412554893E+03  0.68412554895E+03  0.50400001928E-02 0. -1.
    10030    2    1    2    0    0  0.00000000000E+00  0.00000000000E+00  0.34328354009E+02  0.14025794519E+04  0.14021592930E+04 0.  0.
        5    1    3    3  502    0 -0.64250405747E+03  0.20592048574E+03  0.20768350394E+03  0.70595271663E+03  0.46999998093E+01 0.  1.
       -5    1    3    3    0  502  0.64250405747E+03 -0.20592048574E+03 -0.17335514993E+03  0.69662673528E+03  0.46999998093E+01 0. -1.
</event>
<event>
 5   0  0.1175146E-03  0.1365205E+04  0.7818609E-02  0.8979397E-01
       -2   -1    0    0    0  501  0.00000000000E+00  0.00000000000E+00  0.56643941605E+03  0.56643941605E+03  0.25500000920E-02 0.  1.
        2   -1    0    0  501    0  0.00000000000E+00  0.00000000000E+00 -0.82258748354E+03  0.82258748355E+03  0.25500000920E-02 0. -1.
    10030    2    1    2    0    0  0.00000000000E+00  0.00000000000E+00 -0.25614806750E+03  0.13890268996E+04  0.13652047082E+04 0.  0.
        1    1    3    3  502    0  0.51154654596E+03 -0.45194885357E+03 -0.13101213417E+03  0.69505525986E+03  0.50400001928E-02 0.  1.
       -1    1    3    3    0  502 -0.51154654596E+03  0.45194885357E+03 -0.12513593333E+03  0.69397163974E+03  0.50400001928E-02 0. -1.
</event>
<event>
 5   0  0.6097538E-04  0.1382783E+04  0.7818609E-02  0.8966376E-01
       -1   -1    0    0    0  501  0.00000000000E+00  0.00000000000E+00  0.38475905910E+03  0.38475905914E+03  0.50400001928E-02 0. -1.
        1   -1    0    0  501    0  0.00000000000E+00  0.00000000000E+00 -0.12423933841E+04  0.12423933841E+04  0.50400001928E-02 0.  1.
    10030    2    1    2    0    0  0.00000000000E+00  0.00000000000E+00 -0.85763432497E+03  0.16271524432E+04  0.13827828601E+04 0.  0.
        2    1    3    3  502    0 -0.55388201363E+02  0.11806795399E+03 -0.12277888930E+04  0.12346956955E+04  0.25500000920E-02 0.  1.
       -2    1    3    3    0  502  0.55388201363E+02 -0.11806795399E+03  0.37015456804E+03  0.39245674775E+03  0.25500000920E-02 0. -1.
</event>
<event>
 5   0  0.1120053E-03  0.1387077E+04  0.7818609E-02  0.8963226E-01
       -2   -1    0    0    0  501  0.00000000000E+00  0.00000000000E+00  0.83029515609E+03  0.83029515609E+03  0.25500000920E-02 0. -1.
        2   -1    0    0  501    0  0.00000000000E+00  0.00000000000E+00 -0.57930699362E+03  0.57930699363E+03  0.25500000920E-02 0.  1.
    10030    2    1    2    0    0  0.00000000000E+00  0.00000000000E+00  0.25098816247E+03  0.14096021497E+04  0.13870772015E+04 0.  0.
        2    1    3    3  502    0 -0.34005227229E+03 -0.34271226253E+03  0.63148377453E+03  0.79489559080E+03  0.25500000920E-02 0. -1.
       -2    1    3    3    0  502  0.34005227229E+03  0.34271226253E+03 -0.38049561206E+03  0.61470655892E+03  0.25500000920E-02 0.  1.
</event>
<event>
 5   0  0.5875298E-04  0.1394571E+04  0.7818609E-02  0.8957758E-01
       -1   -1    0    0    0  501  0.00000000000E+00  0.00000000000E+00  0.36381686536E+03  0.36381686539E+03  0.50400001928E-02 0. -1.
        1   -1    0    0  501    0  0.00000000000E+00  0.00000000000E+00 -0.13364056397E+04  0.13364056397E+04  0.50400001928E-02 0.  1.
    10030    2    1    2    0    0  0.00000000000E+00  0.00000000000E+00 -0.97258877432E+03  0.17002225051E+04  0.13945707737E+04 0.  0.
        1    1    3    3  502    0  0.43469626468E+03  0.79986374326E+02  0.17120965510E+03  0.47399515676E+03  0.50400001928E-02 0. -1.
       -1    1    3    3    0  502 -0.43469626468E+03 -0.79986374326E+02 -0.11437984294E+04  0.12262273483E+04  0.50400001928E-02 0.  1.
</event>
<event>
 5   0  0.1098949E-03  0.1397623E+04  0.7818609E-02  0.8955541E-01
        2   -1    0    0  501    0  0.00000000000E+00  0.00000000000E+00  0.16212377389E+04  0.16212377389E+04  0.25500000920E-02 0. -1.
       -2   -1    0    0    0  501  0.00000000000E+00  0.00000000000E+00 -0.30121270246E+03  0.30121270247E+03  0.25500000920E-02 0.  1.
    10030    2    1    2    0    0  0.00000000000E+00  0.00000000000E+00  0.13200250365E+04  0.19224504414E+04  0.13976228399E+04 0.  0.
        4    1    3    3  502    0  0.65556027723E+03 -0.16337223009E+03  0.90563343942E+03  0.11298775607E+04  0.12699999809E+01 0. -1.
       -4    1    3    3    0  502 -0.65556027723E+03  0.16337223009E+03  0.41439159703E+03  0.79257288071E+03  0.12699999809E+01 0.  1.
</event>
<event>
 5   0  0.6194742E-04  0.1285611E+04  0.7818609E-02  0.9041054E-01
       -1   -1    0    0    0  501  0.00000000000E+00  0.00000000000E+00  0.16428711205E+04  0.16428711205E+04  0.50400001928E-02 0.  1.
        1   -1    0    0  501    0  0.00000000000E+00  0.00000000000E+00 -0.25151015067E+03  0.25151015072E+03  0.50400001928E-02 0. -1.
    10030    2    1    2    0    0  0.00000000000E+00  0.00000000000E+00  0.13913609698E+04  0.18943812712E+04  0.12856107702E+04 0.  0.
        4    1    3    3  502    0  0.88903816568E+02 -0.39231674286E+01 -0.24238754370E+03  0.25821040662E+03  0.12699999809E+01 0. -1.
       -4    1    3    3    0  502 -0.88903816568E+02  0.39231674286E+01  0.16337485135E+04  0.16361708646E+04  0.12699999809E+01 0.  1.
</event>
<event>
 5   0  0.4176125E-04  0.1397074E+04  0.7818609E-02  0.8955940E-01
       -4   -1    0    0    0  501  0.00000000000E+00  0.00000000000E+00  0.99617037095E+03  0.99617118050E+03  0.12699999809E+01 0.  1.
        4   -1    0    0  501    0  0.00000000000E+00  0.00000000000E+00 -0.48982771595E+03  0.48982936234E+03  0.12699999809E+01 0. -1.
    10030    2    1    2    0    0  0.00000000000E+00  0.00000000000E+00  0.50634265500E+03  0.14860005428E+04  0.13970736305E+04 0.  0.
        2    1    3    3  502    0  0.65916621855E+02 -0.17627827588E+03 -0.46235495701E+03  0.49919048254E+03  0.25500000920E-02 0. -1.
       -2    1    3    3    0  502 -0.65916621855E+02  0.17627827588E+03  0.96869761201E+03  0.98681006030E+03  0.25500000920E-02 0.  1.
</event>
<event>
 5   0  0.6194742E-04  0.1382709E+04  0.7818609E-02  0.8966431E-01
       -1   -1    0    0    0  501  0.00000000000E+00  0.00000000000E+00  0.89526856748E+03  0.89526856750E+03  0.50400001928E-02 0.  1.
        1   -1    0    0  501    0  0.00000000000E+00  0.00000000000E+00 -0.53388532694E+03  0.53388532696E+03  0.50400001928E-02 0. -1.
    10030    2    1    2    0    0  0.00000000000E+00  0.00000000000E+00  0.36138324055E+03  0.14291538945E+04  0.13827085765E+04 0.  0.
        4    1    3    3  502    0  0.37351286421E+02 -0.16464208878E+03  0.87363419834E+03  0.88979798910E+03  0.12699999809E+01 0.  1.
       -4    1    3    3    0  502 -0.37351286421E+02  0.16464208878E+03 -0.51225095779E+03  0.53935590537E+03  0.12699999809E+01 0. -1.
</event>
<event>
 5   0  0.6153318E-04  0.1321061E+04  0.7818609E-02  0.9013028E-01
        1   -1    0    0  501    0  0.00000000000E+00  0.00000000000E+00  0.71486901427E+03  0.71486901429E+03  0.50400001928E-02 0.  1.
       -1   -1    0    0    0  501  0.00000000000E+00  0.00000000000E+00 -0.61032263118E+03  0.61032263120E+03  0.50400001928E-02 0. -1.
    10030    2    1    2    0    0  0.00000000000E+00  0.00000000000E+00  0.10454638309E+03  0.13251916455E+04  0.13210612972E+04 0.  0.
        5    1    3    3  502    0 -0.41913014236E+03 -0.17873653438E+03 -0.42740784598E+03  0.62475305662E+03  0.46999998093E+01 0. -1.
       -5    1    3    3    0  502  0.41913014236E+03  0.17873653438E+03  0.53195422907E+03  0.70043858887E+03  0.46999998093E+01 0.  1.
</event>
<event>
 5   0  0.1175146E-03  0.1414645E+04  0.7818609E-02  0.8943285E-01
        2   -1    0    0  501    0  0.00000000000E+00  0.00000000000E+00  0.10655190387E+04  0.10655190387E+04  0.25500000920E-02 0.  1.
       -2   -1    0    0    0  501  0.00000000000E+00  0.00000000000E+00 -0.46954121699E+03  0.46954121699E+03  0.25500000920E-02 0. -1.
    10030    2    1    2    0    0  0.00000000000E+00  0.00000000000E+00  0.59597782172E+03  0.15350602557E+04  0.14146449818E+04 0.  0.
        1    1    3    3  502    0  0.44171859511E+03 -0.20976538882E+03  0.85255690186E+03  0.98283778242E+03  0.50400001928E-02 0.  1.
       -1    1    3    3    0  502 -0.44171859511E+03  0.20976538882E+03 -0.25657908015E+03  0.55222247329E+03  0.50400001928E-02 0. -1.
</event>
<event>
 5   0  0.6114266E-04  0.1405733E+04  0.7818609E-02  0.8949679E-01
        1   -1    0    0  501    0  0.00000000000E+00  0.00000000000E+00  0.36353256419E+03  0.36353256422E+03  0.50400001928E-02 0.  1.
       -1   -1    0    0    0  501  0.00000000000E+00  0.00000000000E+00 -0.13589460991E+04  0.13589460992E+04  0.50400001928E-02 0. -1.
    10030    2    1    2    0    0  0.00000000000E+00  0.00000000000E+00 -0.99541353496E+03  0.17224786634E+04  0.14057327770E+04 0.  0.
        3    1    3    3  502    0  0.33567084936E+03 -0.35693292144E+03  0.11977055990E+03  0.50440165220E+03  0.10100000352E+00 0.  1.
       -3    1    3    3    0  502 -0.33567084936E+03  0.35693292144E+03 -0.11151840949E+04  0.12180770112E+04  0.10100000352E+00 0. -1.
</event>
<event>
 5   0  0.1175146E-03  0.1405249E+04  0.7818609E-02  0.8950028E-01
        2   -1    0    0  501    0  0.00000000000E+00  0.00000000000E+00  0.81647579677E+03  0.81647579678E+03  0.25500000920E-02 0.  1.
       -2   -1    0    0    0  501  0.00000000000E+00  0.00000000000E+00 -0.60464874831E+03  0.60464874831E+03  0.25500000920E-02 0. -1.
    10030    2    1    2    0    0  0.00000000000E+00  0.00000000000E+00  0.21182704846E+03  0.14211245451E+04  0.14052488300E+04 0.  0.
        1    1    3    3  502    0 -0.50346246707E+03  0.10966676176E+03 -0.37716476444E+03  0.63855658633E+03  0.50400001928E-02 0. -1.
       -1    1    3    3    0  502  0.50346246707E+03 -0.10966676176E+03  0.58899181291E+03  0.78256795876E+03  0.50400001928E-02 0.  1.
</event>
<event>
 5   0  0.6114266E-04  0.1409815E+04  0.7818609E-02  0.8946744E-01
        1   -1    0    0  501    0  0.00000000000E+00  0.00000000000E+00  0.12619778885E+04  0.12619778885E+04  0.50400001928E-02 0. -1.
       -1   -1    0    0    0  501  0.00000000000E+00  0.00000000000E+00 -0.39374267227E+03  0.39374267230E+03  0.50400001928E-02 0.  1.
    10030    2    1    2    0    0  0.00000000000E+00  0.00000000000E+00  0.86823521623E+03  0.16557205608E+04  0.14098149470E+04 0.  0.
        3    1    3    3  502    0 -0.22087183894E+02 -0.61765580572E+03  0.36010382360E+02  0.61909877715E+03  0.10100000352E+00 0.  1.
       -3    1    3    3    0  502  0.22087183894E+02  0.61765580572E+03  0.83222483387E+03  0.10366217837E+04  0.10100000352E+00 0. -1.
</event>
<event>
 5   0  0.6153318E-04  0.1400058E+04  0.7818609E-02  0.8953776E-01
       -1   -1    0    0    0  501  0.00000000000E+00  0.00000000000E+00  0.48336748765E+03  0.48336748768E+03  0.50400001928E-02 0.  1.
        1   -1    0    0  501    0  0.00000000000E+00  0.00000000000E+00 -0.10138055966E+04  0.10138055966E+04  0.50400001928E-02 0. -1.
    10030    2    1    2    0    0  0.00000000000E+00  0.00000000000E+00 -0.53043810891E+03  0.14971730843E+04  0.14000580905E+04 0.  0.
        5    1    3    3  502    0  0.63679591453E+03  0.18649158358E+03 -0.50369086449E+03  0.83307546146E+03  0.46999998093E+01 0. -1.
       -5    1    3    3    0  502 -0.63679591453E+03 -0.18649158358E+03 -0.26747244417E+02  0.66409762279E+03  0.46999998093E+01 0.  1.
</event>
<event>
 5   0  0.1098949E-03  0.1394395E+04  0.7818609E-02  0.8957886E-01
        2   -1    0    0  501    0  0.00000000000E+00  0.00000000000E+00  0.50678036167E+03  0.50678036167E+03  0.25500000920E-02 0. -1.
       -2   -1    0    0    0  501  0.00000000000E+00  0.00000000000E+00 -0.95916221997E+03  0.95916221997E+03  0.25500000920E-02 0.  1.
    10030    2    1    2    0    0  0.00000000000E+00  0.00000000000E+00 -0.45238185830E+03  0.14659425816E+04  0.13943953195E+04 0.  0.
        4    1    3    3  502    0 -0.62640236765E+03 -0.19495281923E+03  0.21919343666E+02  0.65640581842E+03  0.12699999809E+01 0. -1.
       -4    1    3    3    0  502  0.62640236765E+03  0.19495281923E+03 -0.47430120197E+03  0.80953676323E+03  0.12699999809E+01 0.  1.
</event>
<event>
 5   0  0.1120053E-03  0.1396029E+04  0.7818609E-02  0.8956698E-01
       -2   -1    0    0    0  501  0.00000000000E+00  0.00000000000E+00  0.50156448490E+03  0.50156448491E+03  0.25500000920E-02 0.  1.
        2   -1    0    0  501    0  0.00000000000E+00  0.00000000000E+00 -0.97140864399E+03  0.97140864399E+03  0.25500000920E-02 0. -1.
    10030    2    1    2    0    0  0.00000000000E+00  0.00000000000E+00 -0.46984415909E+03  0.14729731289E+04  0.13960287621E+04 0.  0.
        2    1    3    3  502    0 -0.22426761056E+03 -0.34156342471E+03  0.36218680233E+03  0.54602272300E+03  0.25500000920E-02 0.  1.
       -2    1    3    3    0  502  0.22426761056E+03  0.34156342471E+03 -0.83203096142E+03  0.92695040590E+03  0.25500000920E-02 0. -1.
</event>
<event>
 5   0  0.6194742E-04  0.1400091E+04  0.7818609E-02  0.8953753E-01
        1   -1    0    0  501    0  0.00000000000E+00  0.00000000000E+00  0.12997863307E+04  0.12997863307E+04  0.50400001928E-02 0. -1.
       -1   -1    0    0    0  501  0.00000000000E+00  0.00000000000E+00 -0.37703408995E+03  0.37703408999E+03  0.50400001928E-02 0.  1.
    10030    2    1    2    0    0  0.00000000000E+00  0.00000000000E+00  0.92275224078E+03  0.16768204207E+04  0.14000910776E+04 0.  0.
        4    1    3    3  502    0  0.40069240829E+03  0.41044247948E+02  0.11471012219E+04  0.12157639008E+04  0.12699999809E+01 0. -1.
       -4    1    3    3    0  502 -0.40069240829E+03 -0.41044247948E+02 -0.22434898110E+03  0.46105651993E+03  0.12699999809E+01 0.  1.
</event>
<event>
 5   0  0.1095119E-03  0.1415245E+04  0.7818609E-02  0.8942857E-01
        2   -1    0    0  501    0  0.00000000000E+00  0.00000000000E+00  0.78756425780E+03  0.78756425780E+03  0.25500000920E-02 0.  1.
       -2   -1    0    0    0  501  0.00000000000E+00  0.00000000000E+00 -0.63579521423E+03  0.63579521423E+03  0.25500000920E-02 0. -1.
    10030    2    1    2    0    0  0.00000000000E+00  0.00000000000E+00  0.15176904357E+03  0.14233594720E+04  0.14152449767E+04 0.  0.
        5    1    3    3  502    0  0.59231057450E+03  0.26552217113E+03 -0.20746414009E+03  0.68146702008E+03  0.46999998093E+01 0. -1.
       -5    1    3    3    0  502 -0.59231057450E+03 -0.26552217113E+03  0.35923318366E+03  0.74189245196E+03  0.46999998093E+01 0.  1.
</event>
<event>
 5   0  0.5875298E-04  0.1432071E+04  0.7818609E-02  0.8930926E-01
        1   -1    0    0  501    0  0.00000000000E+00  0.00000000000E+00  0.79123051728E+03  0.79123051730E+03  0.50400001928E-02 0. -1.
       -1   -1    0    0    0  501  0.00000000000E+00  0.00000000000E+00 -0.64798648525E+03  0.64798648527E+03  0.50400001928E-02 0.  1.
    10030    2    1    2    0    0  0.00000000000E+00  0.00000000000E+00  0.14324403203E+03  0.14392170026E+04  0.14320707831E+04 0.  0.
        1    1    3    3  502    0  0.40239252337E+03 -0.42227132764E+03  0.48899414469E+03  0.76114919074E+03  0.50400001928E-02 0. -1.
       -1    1    3    3    0  502 -0.40239252337E+03  0.42227132764E+03 -0.34575011266E+03  0.67806781183E+03  0.50400001928E-02 0.  1.
</event>
<event>
 5   0  0.1098949E-03  0.1359514E+04  0.7818609E-02  0.8983657E-01
        2   -1    0    0  501    0  0.00000000000E+00  0.00000000000E+00  0.15035435789E+04  0.15035435789E+04  0.25500000920E-02 0. -1.
       -2   -1    0    0    0  501  0.00000000000E+00  0.00000000000E+00 -0.30732023937E+03  0.30732023938E+03  0.25500000920E-02 0.  1.
    10030    2    1    2    0    0  0.00000000000E+00  0.00000000000E+00  0.11962233395E+04  0.18108638183E+04  0.13595136963E+04 0.  0.
        4    1    3    3  502    0 -0.82035987480E+02 -0.51841217799E+03  0.22747899727E+02  0.52535718266E+03  0.12699999809E+01 0.  1.
       -4    1    3    3    0  502  0.82035987480E+02  0.51841217799E+03  0.11734754398E+04  0.12855066356E+04  0.12699999809E+01 0. -1.
</event>
<event>
 5   0  0.6097538E-04  0.1435163E+04  0.7818609E-02  0.8928751E-01
        1   -1    0    0  501    0  0.00000000000E+00  0.00000000000E+00  0.13011542808E+04  0.13011542808E+04  0.50400001928E-02 0.  1.
       -1   -1    0    0    0  501  0.00000000000E+00  0.00000000000E+00 -0.39574366665E+03  0.39574366668E+03  0.50400001928E-02 0. -1.
    10030    2    1    2    0    0  0.00000000000E+00  0.00000000000E+00  0.90541061417E+03  0.16968979475E+04  0.14351634973E+04 0.  0.
        2    1    3    3  502    0  0.42065522515E+03  0.57454423522E+03  0.34780234157E+03  0.79247609773E+03  0.25500000920E-02 0. -1.
       -2    1    3    3    0  502 -0.42065522515E+03 -0.57454423522E+03  0.55760827261E+03  0.90442184978E+03  0.25500000920E-02 0.  1.
</event>
<event>
 5   0  0.6097538E-04  0.1285320E+04  0.7818609E-02  0.9041288E-01
        1   -1    0    0  501    0  0.00000000000E+00  0.00000000000E+00  0.11418706757E+04  0.11418706757E+04  0.50400001928E-02 0. -1.
       -1   -1    0    0    0  501  0.00000000000E+00  0.00000000000E+00 -0.36169755943E+03  0.36169755946E+03  0.50400001928E-02 0.  1.
    10030    2    1    2    0    0  0.00000000000E+00  0.00000000000E+00  0.78017311627E+03  0.15035682352E+04  0.12853199393E+04 0.  0.
        2    1    3    3  502    0  0.61061198388E+03 -0.17493566412E+03  0.27569490598E+03  0.69242845307E+03  0.25500000920E-02 0. -1.
       -2    1    3    3    0  502 -0.61061198388E+03  0.17493566412E+03  0.50447821029E+03  0.81113978210E+03  0.25500000920E-02 0.  1.
</event>
<event>
 5   0  0.1120053E-03  0.1404582E+04  0.7818609E-02  0.8950509E-01
       -2   -1    0    0    0  501  0.00000000000E+00  0.00000000000E+00  0.55451907836E+03  0.55451907837E+03  0.25500000920E-02 0.  1.
        2   -1    0    0  501    0  0.00000000000E+00  0.00000000000E+00 -0.88944190397E+03  0.88944190397E+03  0.25500000920E-02 0. -1.
    10030    2    1    2    0    0  0.00000000000E+00  0.00000000000E+00 -0.33492282561E+03  0.14439609823E+04  0.14045817952E+04 0.  0.
        2    1    3    3  502    0 -0.18793605935E+03  0.35503889350E+03 -0.75966732975E+03  0.85934104417E+03  0.25500000920E-02 0. -1.
       -2    1    3    3    0  502  0.18793605935E+03 -0.35503889350E+03  0.42474450414E+03  0.58461993817E+03  0.25500000920E-02 0.  1.
</event>
<event>
 5   0  0.6153318E-04  0.1408667E+04  0.7818609E-02  0.8947569E-01
        1   -1    0    0  501    0  0.00000000000E+00  0.00000000000E+00  0.81102713386E+03  0.81102713388E+03  0.50400001928E-02 0. -1.
       -1   -1    0    0    0  501  0.00000000000E+00  0.00000000000E+00 -0.61167585027E+03  0.61167585029E+03  0.50400001928E-02 0.  1.
    10030    2    1    2    0    0  0.00000000000E+00  0.00000000000E+00  0.19935128359E+03  0.14227029842E+04  0.14086670461E+04 0.  0.
        5    1    3    3  502    0  0.76747764392E+02 -0.50262954200E+03 -0.39255820321E+03  0.64237894481E+03  0.46999998093E+01 0.  1.
       -5    1    3    3    0  502 -0.76747764392E+02  0.50262954200E+03  0.59190948680E+03  0.78032403936E+03  0.46999998093E+01 0. -1.
</event>
<event>
 5   0  0.6194742E-04  0.1396349E+04  0.7818609E-02  0.8956466E-01
        1   -1    0    0  501    0  0.00000000000E+00  0.00000000000E+00  0.13490579400E+04  0.13490579400E+04  0.50400001928E-02 0.  1.
       -1   -1    0    0    0  501  0.00000000000E+00  0.00000000000E+00 -0.36132449255E+03  0.36132449259E+03  0.50400001928E-02 0. -1.
    10030    2    1    2    0    0  0.00000000000E+00  0.00000000000E+00  0.98773344748E+03  0.17103824326E+04  0.13963490619E+04 0.  0.
        4    1    3    3  502    0 -0.27748383938E+02 -0.23451894834E+03 -0.31091602966E+03  0.39043501424E+03  0.12699999809E+01 0. -1.
       -4    1    3    3    0  502  0.27748383938E+02  0.23451894834E+03  0.12986494771E+04  0.13199474184E+04  0.12699999809E+01 0.  1.
</event>
<event>
 5   0  0.6153318E-04  0.1371800E+04  0.7818609E-02  0.8974488E-01
        1   -1    0    0  501    0  0.00000000000E+00  0.00000000000E+00  0.46109733749E+03  0.46109733752E+03  0.50400001928E-02 0.  1.
       -1   -1    0    0    0  501  0.00000000000E+00  0.00000000000E+00 -0.10203028005E+04  0.10203028005E+04  0.50400001928E-02 0. -1.
    10030    2    1    2    0    0  0.00000000000E+00  0.00000000000E+00 -0.55920546299E+03  0.14814001380E+04  0.13718001382E+04 0.  0.
        5    1    3    3  502    0  0.22874220296E+03  0.63032109830E+03 -0.43538159289E+03  0.79950416121E+03  0.46999998093E+01 0.  1.
       -5    1    3    3    0  502 -0.22874220296E+03 -0.63032109830E+03 -0.12382387010E+03  0.68189597680E+03  0.46999998093E+01 0. -1.
</event>
<event>
 5   0  0.1120053E-03  0.1399844E+04  0.7818609E-02  0.8953931E-01
        2   -1    0    0  501    0  0.00000000000E+00  0.00000000000E+00  0.91362504126E+03  0.91362504127E+03  0.25500000920E-02 0.  1.
       -2   -1    0    0    0  501  0.00000000000E+00  0.00000000000E+00 -0.53620569591E+03  0.53620569591E+03  0.25500000920E-02 0. -1.
    10030    2    1    2    0    0  0.00000000000E+00  0.00000000000E+00  0.37741934536E+03  0.14498307372E+04  0.13998442071E+04 0.  0.
        2    1    3    3  502    0  0.36753124378E+03 -0.57042731151E+03  0.11048902549E+02  0.67866678947E+03  0.25500000920E-02 0. -1.
       -2    1    3    3    0  502 -0.36753124378E+03  0.57042731151E+03  0.36637044281E+03  0.77116394771E+03  0.25500000920E-02 0.  1.
</event>
<event>
 5   0  0.1120053E-03  0.1404213E+04  0.7818609E-02  0.8950775E-01
       -2   -1    0    0    0  501  0.00000000000E+00  0.00000000000E+00  0.39420365568E+03  0.39420365568E+03  0.25500000920E-02 0. -1.
        2   -1    0    0  501    0  0.00000000000E+00  0.00000000000E+00 -0.12505047931E+04  0.12505047931E+04  0.25500000920E-02 0.  1.
    10030    2    1    2    0    0  0.00000000000E+00  0.00000000000E+00 -0.85630113744E+03  0.16447084488E+04  0.14042130336E+04 0.  0.
        2    1    3    3  502    0 -0.81448319599E+02 -0.66039037997E+03 -0.16571282986E+03  0.68571861919E+03  0.25500000920E-02 0.  1.
       -2    1    3    3    0  502  0.81448319599E+02  0.66039037997E+03 -0.69058830759E+03  0.95898982961E+03  0.25500000920E-02 0. -1.
</event>
<event>
 5   0  0.5875298E-04  0.1406242E+04  0.7818609E-02  0.8949312E-01
       -1   -1    0    0    0  501  0.00000000000E+00  0.00000000000E+00  0.38043472661E+03  0.38043472665E+03  0.50400001928E-02 0. -1.
        1   -1    0    0  501    0  0.00000000000E+00  0.00000000000E+00 -0.12995119098E+04  0.12995119098E+04  0.50400001928E-02 0.  1.
    10030    2    1    2    0    0  0.00000000000E+00  0.00000000000E+00 -0.91907718314E+03  0.16799466364E+04  0.14062424516E+04 0.  0.
        1    1    3    3  502    0 -0.68830094328E+03 -0.14338655925E+03 -0.45016514012E+03  0.83484522356E+03  0.50400001928E-02 0.  1.
       -1    1    3    3    0  502  0.68830094328E+03  0.14338655925E+03 -0.46891204302E+03  0.84510141286E+03  0.50400001928E-02 0. -1.
</event>
<event>
 5   0  0.1108819E-03  0.1440671E+04  0.7818609E-02  0.8924894E-01
       -2   -1    0    0    0  501  0.00000000000E+00  0.00000000000E+00  0.93920151769E+03  0.93920151769E+03  0.25500000920E-02 0.  1.
        2   -1    0    0  501    0  0.00000000000E+00  0.00000000000E+00 -0.55247297938E+03  0.55247297938E+03  0.25500000920E-02 0. -1.
    10030    2    1    2    0    0  0.00000000000E+00  0.00000000000E+00  0.38672853831E+03  0.14916744971E+04  0.14406713167E+04 0.  0.
        3    1    3    3  502    0  0.41556079134E+03  0.58179179174E+03  0.10244326307E+03  0.72226525085E+03  0.10100000352E+00 0.  1.
       -3    1    3    3    0  502 -0.41556079134E+03 -0.58179179174E+03  0.28428527524E+03  0.76940924622E+03  0.10100000352E+00 0. -1.
</event>
<event>
 5   0  0.1108819E-03  0.1417820E+04  0.7818609E-02  0.8941020E-01
        2   -1    0    0  501    0  0.00000000000E+00  0.00000000000E+00  0.19978003762E+04  0.19978003762E+04  0.25500000920E-02 0.  1.
       -2   -1    0    0    0  501  0.00000000000E+00  0.00000000000E+00 -0.25155339645E+03  0.25155339647E+03  0.25500000920E-02 0. -1.
    10030    2    1    2    0    0  0.00000000000E+00  0.00000000000E+00  0.17462469798E+04  0.22493537727E+04  0.14178201156E+04 0.  0.
        3    1    3    3  502    0 -0.11836159461E+03  0.68663366785E+03  0.66579562922E+03  0.96372147999E+03  0.10100000352E+00 0.  1.
       -3    1    3    3    0  502  0.11836159461E+03 -0.68663366785E+03  0.10804513505E+04  0.12856322927E+04  0.10100000352E+00 0. -1.
</event>
<event>
 5   0  0.1098949E-03  0.1398170E+04  0.7818609E-02  0.8955144E-01
       -2   -1    0    0    0  501  0.00000000000E+00  0.00000000000E+00  0.14661503229E+04  0.14661503229E+04  0.25500000920E-02 0.  1.
        2   -1    0    0  501    0  0.00000000000E+00  0.00000000000E+00 -0.33333556215E+03  0.33333556216E+03  0.25500000920E-02 0. -1.
    10030    2    1    2    0    0  0.00000000000E+00  0.00000000000E+00  0.11328147607E+04  0.17994858851E+04  0.13981702930E+04 0.  0.
        4    1    3    3  502    0 -0.15381836979E+02  0.46847801133E+03 -0.10112560774E+03  0.47951668318E+03  0.12699999809E+01 0. -1.
       -4    1    3    3    0  502  0.15381836979E+02 -0.46847801133E+03  0.12339403685E+04  0.13199692019E+04  0.12699999809E+01 0.  1.
</event>
<event>
 5   0  0.6194742E-04  0.1393562E+04  0.7818609E-02  0.8958492E-01
        1   -1    0    0  501    0  0.00000000000E+00  0.00000000000E+00  0.25002592049E+03  0.25002592054E+03  0.50400001928E-02 0. -1.
       -1   -1    0    0    0  501  0.00000000000E+00  0.00000000000E+00 -0.19418134174E+04  0.19418134174E+04  0.50400001928E-02 0.  1.
    10030    2    1    2    0    0  0.00000000000E+00  0.00000000000E+00 -0.16917874969E+04  0.21918393379E+04  0.13935618926E+04 0.  0.
        4    1    3    3  502    0 -0.36254151705E+03 -0.24176941264E+03  0.92604273619E+01  0.43586255734E+03  0.12699999809E+01 0. -1.
       -4    1    3    3    0  502  0.36254151705E+03  0.24176941264E+03 -0.17010479242E+04  0.17559767806E+04  0.12699999809E+01 0.  1.
</event>
<event>
 5   0  0.6194742E-04  0.1386014E+04  0.7818609E-02  0.8964005E-01
        1   -1    0    0  501    0  0.00000000000E+00  0.00000000000E+00  0.15478441494E+04  0.15478441494E+04  0.50400001928E-02 0.  1.
       -1   -1    0    0    0  501  0.00000000000E+00  0.00000000000E+00 -0.31027606738E+03  0.31027606742E+03  0.50400001928E-02 0. -1.
    10030    2    1    2    0    0  0.00000000000E+00  0.00000000000E+00  0.12375680820E+04  0.18581202168E+04  0.13860144236E+04 0.  0.
        4    1    3    3  502    0 -0.20072876205E+03 -0.46940265058E+03 -0.94890041890E+01  0.51060996698E+03  0.12699999809E+01 0. -1.
       -4    1    3    3    0  502  0.20072876205E+03  0.46940265058E+03  0.12470570862E+04  0.13475102498E+04  0.12699999809E+01 0.  1.
</event>
<event>
 5   0  0.1095119E-03  0.1509645E+04  0.7818609E-02  0.8878064E-01
       -2   -1    0    0    0  501  0.00000000000E+00  0.00000000000E+00  0.62816822030E+03  0.62816822030E+03  0.25500000920E-02 0.  1.
        2   -1    0    0  501    0  0.00000000000E+00  0.00000000000E+00 -0.90701355260E+03  0.90701355261E+03  0.25500000920E-02 0. -1.
    10030    2    1    2    0    0  0.00000000000E+00  0.00000000000E+00 -0.27884533230E+03  0.15351817729E+04  0.15096451095E+04 0.  0.
        5    1    3    3  502    0  0.19267458187E+02 -0.25052404358E+03 -0.86322197297E+03  0.89905939513E+03  0.46999998093E+01 0. -1.
       -5    1    3    3    0  502 -0.19267458187E+02  0.25052404358E+03  0.58437664067E+03  0.63612237778E+03  0.46999998093E+01 0.  1.
</event>
<event>
 5   0  0.6194742E-04  0.1375670E+04  0.7818609E-02  0.8971620E-01
        1   -1    0    0  501    0  0.00000000000E+00  0.00000000000E+00  0.10034573139E+04  0.10034573139E+04  0.50400001928E-02 0.  1.
       -1   -1    0    0    0  501  0.00000000000E+00  0.00000000000E+00 -0.47148705880E+03  0.47148705882E+03  0.50400001928E-02 0. -1.
    10030    2    1    2    0    0  0.00000000000E+00  0.00000000000E+00  0.53197025508E+03  0.14749443727E+04  0.13756702186E+04 0.  0.
        4    1    3    3  502    0  0.16117234213E+03  0.44869932279E+03  0.79755363131E+03  0.92919374398E+03  0.12699999809E+01 0.  1.
       -4    1    3    3    0  502 -0.16117234213E+03 -0.44869932279E+03 -0.26558337622E+03  0.54575062873E+03  0.12699999809E+01 0. -1.
</event>
<event>
 5   0  0.1108819E-03  0.1205781E+04  0.7818609E-02  0.9107811E-01
       -2   -1    0    0    0  501  0.00000000000E+00  0.00000000000E+00  0.58793305344E+03  0.58793305344E+03  0.25500000920E-02 0. -1.
        2   -1    0    0  501    0  0.00000000000E+00  0.00000000000E+00 -0.61822863240E+03  0.61822863240E+03  0.25500000920E-02 0.  1.
    10030    2    1    2    0    0  0.00000000000E+00  0.00000000000E+00 -0.30295578962E+02  0.12061616858E+04  0.12057811536E+04 0.  0.
        3    1    3    3  502    0  0.20428168306E+03  0.18610185669E+02 -0.58224794403E+03  0.61732489305E+03  0.10100000352E+00 0.  1.
       -3    1    3    3    0  502 -0.20428168306E+03 -0.18610185669E+02  0.55195236507E+03  0.58883679280E+03  0.10100000352E+00 0. -1.
</event>
<event>
 5   0  0.1095119E-03  0.1373142E+04  0.7818609E-02  0.8973493E-01
        2   -1    0    0  501    0  0.00000000000E+00  0.00000000000E+00  0.76509083952E+03  0.76509083953E+03  0.25500000920E-02 0.  1.
       -2   -1    0    0    0  501  0.00000000000E+00  0.00000000000E+00 -0.61610907048E+03  0.61610907049E+03  0.25500000920E-02 0. -1.
    10030    2    1    2    0    0  0.00000000000E+00  0.00000000000E+00  0.14898176904E+03  0.13811999100E+04  0.13731415163E+04 0.  0.
        5    1    3    3  502    0 -0.37465595993E+02  0.62722775281E+03 -0.20378950991E+03  0.66058351412E+03  0.46999998093E+01 0. -1.
       -5    1    3    3    0  502  0.37465595993E+02 -0.62722775281E+03  0.35277127895E+03  0.72061639589E+03  0.46999998093E+01 0.  1.
</event>
<event>
 5   0  0.6194742E-04  0.1394913E+04  0.7818609E-02  0.8957509E-01
        1   -1    0    0  501    0  0.00000000000E+00  0.00000000000E+00  0.41566185666E+03  0.41566185669E+03  0.50400001928E-02 0.  1.
       -1   -1    0    0    0  501  0.00000000000E+00  0.00000000000E+00 -0.11702913317E+04  0.11702913317E+04  0.50400001928E-02 0. -1.
    10030    2    1    2    0    0  0.00000000000E+00  0.00000000000E+00 -0.75462947504E+03  0.15859531884E+04  0.13949128543E+04 0.  0.
        4    1    3    3  502    0 -0.12616927631E+03  0.24132827984E+02 -0.11567243840E+04  0.11638358962E+04  0.12699999809E+01 0. -1.
       -4    1    3    3    0  502  0.12616927631E+03 -0.24132827984E+02  0.40209490900E+03  0.42211729224E+03  0.12699999809E+01 0.  1.
</event>
<event>
 5   0  0.6114266E-04  0.1393273E+04  0.7818609E-02  0.8958702E-01
        1   -1    0    0  501    0  0.00000000000E+00  0.00000000000E+00  0.49812103264E+03  0.49812103267E+03  0.50400001928E-02 0.  1.
       -1   -1    0    0    0  501  0.00000000000E+00  0.00000000000E+00 -0.97426634607E+03  0.97426634608E+03  0.50400001928E-02 0. -1.
    10030    2    1    2    0    0  0.00000000000E+00  0.00000000000E+00 -0.47614531343E+03  0.14723873788E+04  0.13932732085E+04 0.  0.
        3    1    3    3  502    0 -0.18131279605E+03 -0.62997933355E+03  0.11010564587E+02  0.65564436507E+03  0.10100000352E+00 0. -1.
       -3    1    3    3    0  502  0.18131279605E+03  0.62997933355E+03 -0.48715587801E+03  0.81674301368E+03  0.10100000352E+00 0.  1.
</event>
<event>
 5   0  0.6194742E-04  0.1389823E+04  0.7818609E-02  0.8961218E-01
        1   -1    0    0  501    0  0.00000000000E+00  0.00000000000E+00  0.38961695459E+03  0.38961695463E+03  0.50400001928E-02 0.  1.
       -1   -1    0    0    0  501  0.00000000000E+00  0.00000000000E+00 -0.12394282481E+04  0.12394282481E+04  0.50400001928E-02 0. -1.
    10030    2    1    2    0    0  0.00000000000E+00  0.00000000000E+00 -0.84981129354E+03  0.16290452028E+04  0.13898233838E+04 0.  0.
        4    1    3    3  502    0  0.56600176348E+03 -0.15816253558E+03 -0.85958390721E+03  0.10412778161E+04  0.12699999809E+01 0. -1.
       -4    1    3    3    0  502 -0.56600176348E+03  0.15816253558E+03  0.97726136779E+01  0.58776738664E+03  0.12699999809E+01 0.  1.
</event>
<event>
 5   0  0.1095119E-03  0.1400516E+04  0.7818609E-02  0.8953445E-01
       -2   -1    0    0    0  501  0.00000000000E+00  0.00000000000E+00  0.98853025247E+03  0.98853025247E+03  0.25500000920E-02 0.  1.
        2   -1    0    0  501    0  0.00000000000E+00  0.00000000000E+00 -0.49605052363E+03  0.49605052364E+03  0.25500000920E-02 0. -1.
    10030    2    1    2    0    0  0.00000000000E+00  0.00000000000E+00  0.49247972883E+03  0.14845807761E+04  0.14005155470E+04 0.  0.
        5    1    3    3  502    0  0.16853862762E+03  0.16426431709E+03  0.94533451268E+03  0.97420093704E+03  0.46999998093E+01 0.  1.
       -5    1    3    3    0  502 -0.16853862762E+03 -0.16426431709E+03 -0.45285478385E+03  0.51037983906E+03  0.46999998093E+01 0. -1.
</event>
<event>
 5   0  0.6194742E-04  0.1395031E+04  0.7818609E-02  0.8957423E-01
        1   -1    0    0  501    0  0.00000000000E+00  0.00000000000E+00  0.87287054831E+03  0.87287054833E+03  0.50400001928E-02 0. -1.
       -1   -1    0    0    0  501  0.00000000000E+00  0.00000000000E+00 -0.55738830644E+03  0.55738830647E+03  0.50400001928E-02 0.  1.
    10030    2    1    2    0    0  0.00000000000E+00  0.00000000000E+00  0.31548224187E+03  0.14302588548E+04  0.13950309483E+04 0.  0.
        4    1    3    3  502    0 -0.17711450930E+03  0.63536453983E+03 -0.74854684618E+02  0.66382413679E+03  0.12699999809E+01 0.  1.
       -4    1    3    3    0  502  0.17711450930E+03 -0.63536453983E+03  0.39033692649E+03  0.76643471800E+03  0.12699999809E+01 0. -1.
</event>
<event>
 5   0  0.4176125E-04  0.1391446E+04  0.7818609E-02  0.8960034E-01
       -3   -1    0    0    0  501  0.00000000000E+00  0.00000000000E+00  0.72427395747E+03  0.72427396452E+03  0.10100000352E+00 0. -1.
        3   -1    0    0  501    0  0.00000000000E+00  0.00000000000E+00 -0.66829754165E+03  0.66829754928E+03  0.10100000352E+00 0.  1.
    10030    2    1    2    0    0  0.00000000000E+00  0.00000000000E+00  0.55976415821E+02  0.13925715138E+04  0.13914460327E+04 0.  0.
        3    1    3    3  502    0  0.26567425960E+03 -0.25387342826E+03  0.61922486071E+03  0.72005136491E+03  0.10100000352E+00 0. -1.
       -3    1    3    3    0  502 -0.26567425960E+03  0.25387342826E+03 -0.56324844489E+03  0.67252014889E+03  0.10100000352E+00 0.  1.
</event>
<event>
 5   0  0.6097538E-04  0.1400024E+04  0.7818609E-02  0.8953801E-01
       -1   -1    0    0    0  501  0.00000000000E+00  0.00000000000E+00  0.60670887387E+03  0.60670887390E+03  0.50400001928E-02 0.  1.
        1   -1    0    0  501    0  0.00000000000E+00  0.00000000000E+00 -0.80766435315E+03  0.80766435316E+03  0.50400001928E-02 0. -1.
    10030    2    1    2    0    0  0.00000000000E+00  0.00000000000E+00 -0.20095547927E+03  0.14143732271E+04  0.14000244715E+04 0.  0.
        2    1    3    3  502    0  0.13234832917E+03 -0.34458689683E+03 -0.70135162238E+03  0.79255934032E+03  0.25500000920E-02 0. -1.
       -2    1    3    3    0  502 -0.13234832917E+03  0.34458689683E+03  0.50039614311E+03  0.62181388674E+03  0.25500000920E-02 0.  1.
</event>
<event>
 5   0  0.6153318E-04  0.1402592E+04  0.7818609E-02  0.8951945E-01
       -1   -1    0    0    0  501  0.00000000000E+00  0.00000000000E+00  0.55618240376E+03  0.55618240378E+03  0.50400001928E-02 0.  1.
        1   -1    0    0  501    0  0.00000000000E+00  0.00000000000E+00 -0.88427107865E+03  0.88427107867E+03  0.50400001928E-02 0. -1.
    10030    2    1    2    0    0  0.00000000000E+00  0.00000000000E+00 -0.32808867489E+03  0.14404534824E+04  0.14025919066E+04 0.  0.
        5    1    3    3  502    0 -0.50424929173E+03 -0.32478738557E+03  0.20913726331E+03  0.63522805270E+03  0.46999998093E+01 0.  1.
       -5    1    3    3    0  502  0.50424929173E+03  0.32478738557E+03 -0.53722593820E+03  0.80522542975E+03  0.46999998093E+01 0. -1.
</event>
<event>
 5   0  0.1120053E-03  0.1489867E+04  0.7818609E-02  0.8891220E-01
       -2   -1    0    0    0  501  0.00000000000E+00  0.00000000000E+00  0.87076849276E+03  0.87076849276E+03  0.25500000920E-02 0.  1.
        2   -1    0    0  501    0  0.00000000000E+00  0.00000000000E+00 -0.63728262407E+03  0.63728262408E+03  0.25500000920E-02 0. -1.
    10030    2    1    2    0    0  0.00000000000E+00  0.00000000000E+00  0.23348586869E+03  0.15080511168E+04  0.14898666115E+04 0.  0.
        2    1    3    3  502    0  0.73046733514E+03 -0.40304077157E+02  0.25888009486E+03  0.77603211909E+03  0.25500000920E-02 0. -1.
       -2    1    3    3    0  502 -0.73046733514E+03  0.40304077157E+02 -0.25394226177E+02  0.73201899775E+03  0.25500000920E-02 0.  1.
</event>
<event>
 5   0  0.1098949E-03  0.1150797E+04  0.7818609E-02  0.9157049E-01
       -2   -1    0    0    0  501  0.00000000000E+00  0.00000000000E+00  0.10409861857E+04  0.10409861857E+04  0.25500000920E-02 0. -1.
        2   -1    0    0  501    0  0.00000000000E+00  0.00000000000E+00 -0.31804773099E+03  0.31804773100E+03  0.25500000920E-02 0.  1.
    10030    2    1    2    0    0  0.00000000000E+00  0.00000000000E+00  0.72293845472E+03  0.13590339167E+04  0.11507967577E+04 0.  0.
        4    1    3    3  502    0 -0.26803827563E+03  0.11889203789E+03 -0.22319289429E+03  0.36850578671E+03  0.12699999809E+01 0.  1.
       -4    1    3    3    0  502  0.26803827563E+03 -0.11889203789E+03  0.94613134901E+03  0.99052813002E+03  0.12699999809E+01 0. -1.
</event>
<event>
 5   0  0.1108819E-03  0.1427199E+04  0.7818609E-02  0.8934363E-01
       -2   -1    0    0    0  501  0.00000000000E+00  0.00000000000E+00  0.20187483688E+03  0.20187483689E+03  0.25500000920E-02 0. -1.
        2   -1    0    0  501    0  0.00000000000E+00  0.00000000000E+00 -0.25224747890E+04  0.25224747890E+04  0.25500000920E-02 0.  1.
    10030    2    1    2    0    0  0.00000000000E+00  0.00000000000E+00 -0.23205999521E+04  0.27243496259E+04  0.14271989162E+04 0.  0.
        3    1    3    3  502    0  0.49512290062E+02 -0.68868866378E+02 -0.25128180518E+04  0.25142491840E+04  0.10100000352E+00 0.  1.
       -3    1    3    3    0  502 -0.49512290062E+02  0.68868866378E+02  0.19221809969E+03  0.21010044187E+03  0.10100000352E+00 0. -1.
</event>
<event>
 5   0  0.5875298E-04  0.1398410E+04  0.7818609E-02  0.8954970E-01
        1   -1    0    0  501    0  0.00000000000E+00  0.00000000000E+00  0.10075157035E+04  0.10075157035E+04  0.50400001928E-02 0.  1.
       -1   -1    0    0    0  501  0.00000000000E+00  0.00000000000E+00 -0.48524080635E+03  0.48524080637E+03  0.50400001928E-02 0. -1.
    10030    2    1    2    0    0  0.00000000000E+00  0.00000000000E+00  0.52227489712E+03  0.14927565099E+04  0.13984101435E+04 0.  0.
        1    1    3    3  502    0  0.17300478187E+03 -0.53737458275E+03 -0.17923065895E+03  0.59230543292E+03  0.50400001928E-02 0. -1.
       -1    1    3    3    0  502 -0.17300478187E+03  0.53737458275E+03  0.70150555607E+03  0.90045107693E+03  0.50400001928E-02 0.  1.
</event>
<event>
 5   0  0.6114266E-04  0.1402020E+04  0.7818609E-02  0.8952358E-01
       -1   -1    0    0    0  501  0.00000000000E+00  0.00000000000E+00  0.45745549584E+03  0.45745549587E+03  0.50400001928E-02 0.  1.
        1   -1    0    0  501    0  0.00000000000E+00  0.00000000000E+00 -0.10742358562E+04  0.10742358562E+04  0.50400001928E-02 0. -1.
    10030    2    1    2    0    0  0.00000000000E+00  0.00000000000E+00 -0.61678036032E+03  0.15316913520E+04  0.14020201086E+04 0.  0.
        3    1    3    3  502    0  0.18907561934E+03  0.39646072395E+02  0.42779954019E+03  0.46939733454E+03  0.10100000352E+00 0.  1.
       -3    1    3    3    0  502 -0.18907561934E+03 -0.39646072395E+02 -0.10445799005E+04  0.10622940175E+04  0.10100000352E+00 0. -1.
</event>
<event>
 5   0  0.6153318E-04  0.1397487E+04  0.7818609E-02  0.8955640E-01
       -1   -1    0    0    0  501  0.00000000000E+00  0.00000000000E+00  0.10036952934E+04  0.10036952934E+04  0.50400001928E-02 0. -1.
        1   -1    0    0  501    0  0.00000000000E+00  0.00000000000E+00 -0.48644466379E+03  0.48644466382E+03  0.50400001928E-02 0.  1.
    10030    2    1    2    0    0  0.00000000000E+00  0.00000000000E+00  0.51725062960E+03  0.14901399572E+04  0.13974866290E+04 0.  0.
        5    1    3    3  502    0 -0.14465949020E+02  0.48623325547E+03 -0.27621536916E+03  0.55941850395E+03  0.46999998093E+01 0.  1.
       -5    1    3    3    0  502  0.14465949020E+02 -0.48623325547E+03  0.79346599876E+03  0.93072145328E+03  0.46999998093E+01 0. -1.
</event>
<event>
 5   0  0.6153318E-04  0.1401802E+04  0.7818609E-02  0.8952516E-01
       -1   -1    0    0    0  501  0.00000000000E+00  0.00000000000E+00  0.50408572618E+03  0.50408572620E+03  0.50400001928E-02 0.  1.
        1   -1    0    0  501    0  0.00000000000E+00  0.00000000000E+00 -0.97456020218E+03  0.97456020220E+03  0.50400001928E-02 0. -1.
    10030    2    1    2    0    0  0.00000000000E+00  0.00000000000E+00 -0.47047447600E+03  0.14786459284E+04  0.14018015370E+04 0.  0.
        5    1    3    3  502    0 -0.10652830945E+03  0.68558615039E+03 -0.13047966906E+03  0.70599127782E+03  0.46999998093E+01 0.  1.
       -5    1    3    3    0  502  0.10652830945E+03 -0.68558615039E+03 -0.33999480695E+03  0.77265465058E+03  0.46999998093E+01 0. -1.
</event>
<event>
 5   0  0.1120053E-03  0.1393098E+04  0.7818609E-02  0.8958830E-01
       -2   -1    0    0    0  501  0.00000000000E+00  0.00000000000E+00  0.40208532339E+03  0.40208532340E+03  0.25500000920E-02 0.  1.
        2   -1    0    0  501    0  0.00000000000E+00  0.00000000000E+00 -0.12066605091E+04  0.12066605091E+04  0.25500000920E-02 0. -1.
    10030    2    1    2    0    0  0.00000000000E+00  0.00000000000E+00 -0.80457518570E+03  0.16087458325E+04  0.13930979593E+04 0.  0.
        2    1    3    3  502    0 -0.45514620254E+03 -0.25883456994E+03 -0.93277475013E+03  0.10696831936E+04  0.25500000920E-02 0. -1.
       -2    1    3    3    0  502  0.45514620254E+03  0.25883456994E+03  0.12819956443E+03  0.53906263885E+03  0.25500000920E-02 0.  1.
</event>
<event>
 5   0  0.1120053E-03  0.1429996E+04  0.7818609E-02  0.8932388E-01
        2   -1    0    0  501    0  0.00000000000E+00  0.00000000000E+00  0.12112523664E+04  0.12112523665E+04  0.25500000920E-02 0.  1.
       -2   -1    0    0    0  501  0.00000000000E+00  0.00000000000E+00 -0.42206069719E+03  0.42206069720E+03  0.25500000920E-02 0. -1.
    10030    2    1    2    0    0  0.00000000000E+00  0.00000000000E+00  0.78919166925E+03  0.16333130637E+04  0.14299958297E+04 0.  0.
        2    1    3    3  502    0  0.55494784137E+03  0.42734949742E+03  0.23055345756E+03  0.73739378651E+03  0.25500000920E-02 0.  1.
       -2    1    3    3    0  502 -0.55494784137E+03 -0.42734949742E+03  0.55863821170E+03  0.89591927714E+03  0.25500000920E-02 0. -1.
</event>
<event>
 5   0  0.6114266E-04  0.1397551E+04  0.7818609E-02  0.8955593E-01
       -1   -1    0    0    0  501  0.00000000000E+00  0.00000000000E+00  0.33894987630E+03  0.33894987634E+03  0.50400001928E-02 0. -1.
        1   -1    0    0  501    0  0.00000000000E+00  0.00000000000E+00 -0.14405888602E+04  0.14405888602E+04  0.50400001928E-02 0.  1.
    10030    2    1    2    0    0  0.00000000000E+00  0.00000000000E+00 -0.11016389839E+04  0.17795387365E+04  0.13975513100E+04 0.  0.
        3    1    3    3  502    0 -0.37993340839E+02 -0.29463917020E+03  0.25453460570E+03  0.39120788625E+03  0.10100000352E+00 0. -1.
       -3    1    3    3    0  502  0.37993340839E+02  0.29463917020E+03 -0.13561735896E+04  0.13883308503E+04  0.10100000352E+00 0.  1.
</event>
<event>
 5   0  0.5875298E-04  0.1387139E+04  0.7818609E-02  0.8963181E-01
        1   -1    0    0  501    0  0.00000000000E+00  0.00000000000E+00  0.13460176254E+04  0.13460176254E+04  0.50400001928E-02 0. -1.
       -1   -1    0    0    0  501  0.00000000000E+00  0.00000000000E+00 -0.35737935047E+03  0.35737935051E+03  0.50400001928E-02 0.  1.
    10030    2    1    2    0    0  0.00000000000E+00  0.00000000000E+00  0.98863827491E+03  0.17033969759E+04  0.13871393653E+04 0.  0.
        1    1    3    3  502    0 -0.25854441365E+03 -0.16949459304E+03 -0.26809054780E+03  0.40920187285E+03  0.50400001928E-02 0.  1.
       -1    1    3    3    0  502  0.25854441365E+03  0.16949459304E+03  0.12567288227E+04  0.12941951030E+04  0.50400001928E-02 0. -1.
</event>
<event>
 5   0  0.1108819E-03  0.1384462E+04  0.7818609E-02  0.8965143E-01
        2   -1    0    0  501    0  0.00000000000E+00  0.00000000000E+00  0.13500396355E+04  0.13500396355E+04  0.25500000920E-02 0.  1.
       -2   -1    0    0    0  501  0.00000000000E+00  0.00000000000E+00 -0.35494075810E+03  0.35494075811E+03  0.25500000920E-02 0. -1.
    10030    2    1    2    0    0  0.00000000000E+00  0.00000000000E+00  0.99509887736E+03  0.17049803936E+04  0.13844624830E+04 0.  0.
        3    1    3    3  502    0  0.65162831144E+03  0.95653853486E+02  0.75999406945E+03  0.10056640153E+04  0.10100000352E+00 0.  1.
       -3    1    3    3    0  502 -0.65162831144E+03 -0.95653853486E+02  0.23510480791E+03  0.69931637823E+03  0.10100000352E+00 0. -1.
</event>
<event>
 5   0  0.1095119E-03  0.1401444E+04  0.7818609E-02  0.8952774E-01
       -2   -1    0    0    0  501  0.00000000000E+00  0.00000000000E+00  0.43445423797E+03  0.43445423798E+03  0.25500000920E-02 0. -1.
        2   -1    0    0  501    0  0.00000000000E+00  0.00000000000E+00 -0.11301800473E+04  0.11301800473E+04  0.25500000920E-02 0.  1.
    10030    2    1    2    0    0  0.00000000000E+00  0.00000000000E+00 -0.69572580931E+03  0.15646342853E+04  0.14014442711E+04 0.  0.
        5    1    3    3  502    0 -0.46018095179E+03 -0.92798537486E+02 -0.92864070739E+03  0.10405641404E+04  0.46999998093E+01 0.  1.
       -5    1    3    3    0  502  0.46018095179E+03  0.92798537486E+02  0.23291489808E+03  0.52407014482E+03  0.46999998093E+01 0. -1.
</event>
<event>
 5   0  0.6097538E-04  0.1401444E+04  0.7818609E-02  0.8952774E-01
       -1   -1    0    0    0  501  0.00000000000E+00  0.00000000000E+00  0.55552247968E+03  0.55552247971E+03  0.50400001928E-02 0.  1.
        1   -1    0    0  501    0  0.00000000000E+00  0.00000000000E+00 -0.88387245218E+03  0.88387245219E+03  0.50400001928E-02 0. -1.
    10030    2    1    2    0    0  0.00000000000E+00  0.00000000000E+00 -0.32834997249E+03  0.14393949319E+04  0.14014435649E+04 0.  0.
        2    1    3    3  502    0 -0.24919667226E+03 -0.35242190706E+03 -0.73112961280E+03  0.84902926496E+03  0.25500000920E-02 0. -1.
       -2    1    3    3    0  502  0.24919667226E+03  0.35242190706E+03  0.40277964031E+03  0.59036566693E+03  0.25500000920E-02 0.  1.
</event>
<event>
 5   0  0.6097538E-04  0.1286979E+04  0.7818609E-02  0.9039955E-01
        1   -1    0    0  501    0  0.00000000000E+00  0.00000000000E+00  0.66003176898E+03  0.66003176900E+03  0.50400001928E-02 0.  1.
       -1   -1    0    0    0  501  0.00000000000E+00  0.00000000000E+00 -0.62736186698E+03  0.62736186700E+03  0.50400001928E-02 0. -1.
    10030    2    1    2    0    0  0.00000000000E+00  0.00000000000E+00  0.32669902008E+02  0.12873936360E+04  0.12869790408E+04 0.  0.
        2    1    3    3  502    0  0.22763941221E+03 -0.23389917316E+03  0.57108572546E+03  0.65777460504E+03  0.25500000920E-02 0.  1.
       -2    1    3    3    0  502 -0.22763941221E+03  0.23389917316E+03 -0.53841582345E+03  0.62961903096E+03  0.25500000920E-02 0. -1.
</event>
<event>
 5   0  0.6114266E-04  0.1193846E+04  0.7818609E-02  0.9118260E-01
        1   -1    0    0  501    0  0.00000000000E+00  0.00000000000E+00  0.89299513053E+03  0.89299513054E+03  0.50400001928E-02 0. -1.
       -1   -1    0    0    0  501  0.00000000000E+00  0.00000000000E+00 -0.39901377097E+03  0.39901377100E+03  0.50400001928E-02 0.  1.
    10030    2    1    2    0    0  0.00000000000E+00  0.00000000000E+00  0.49398135956E+03  0.12920089015E+04  0.11938464801E+04 0.  0.
        3    1    3    3  502    0  0.19958629520E+03 -0.50594929914E+02  0.85334776670E+03  0.87783652083E+03  0.10100000352E+00 0. -1.
       -3    1    3    3    0  502 -0.19958629520E+03  0.50594929914E+02 -0.35936640714E+03  0.41417238072E+03  0.10100000352E+00 0.  1.
</event>
<event>
 5   0  0.1108819E-03  0.1388806E+04  0.7818609E-02  0.8961962E-01
       -2   -1    0    0    0  501  0.00000000000E+00  0.00000000000E+00  0.54047222606E+03  0.54047222607E+03  0.25500000920E-02 0. -1.
        2   -1    0    0  501    0  0.00000000000E+00  0.00000000000E+00 -0.89217427690E+03  0.89217427691E+03  0.25500000920E-02 0.  1.
    10030    2    1    2    0    0  0.00000000000E+00  0.00000000000E+00 -0.35170205084E+03  0.14326465030E+04  0.13888058431E+04 0.  0.
        3    1    3    3  502    0  0.41747297691E+03 -0.33865823623E+03  0.27759557995E+03  0.60500611867E+03  0.10100000352E+00 0. -1.
       -3    1    3    3    0  502 -0.41747297691E+03  0.33865823623E+03 -0.62929763080E+03  0.82764038431E+03  0.10100000352E+00 0.  1.
</event>
<event>
 5   0  0.6153318E-04  0.1432578E+04  0.7818609E-02  0.8930569E-01
       -1   -1    0    0    0  501  0.00000000000E+00  0.00000000000E+00  0.23596055206E+03  0.23596055212E+03  0.50400001928E-02 0.  1.
        1   -1    0    0  501    0  0.00000000000E+00  0.00000000000E+00 -0.21743889755E+04  0.21743889755E+04  0.50400001928E-02 0. -1.
    10030    2    1    2    0    0  0.00000000000E+00  0.00000000000E+00 -0.19384284234E+04  0.24103495276E+04  0.14325781279E+04 0.  0.
        5    1    3    3  502    0 -0.34075546865E+03 -0.10542619712E+03 -0.20143037297E+04  0.20456467383E+04  0.46999998093E+01 0. -1.
       -5    1    3    3    0  502  0.34075546865E+03  0.10542619712E+03  0.75875306249E+02  0.36470278933E+03  0.46999998093E+01 0.  1.
</event>
<event>
 5   0  0.6097538E-04  0.1406698E+04  0.7818609E-02  0.8948985E-01
        1   -1    0    0  501    0  0.00000000000E+00  0.00000000000E+00  0.15083231884E+04  0.15083231884E+04  0.50400001928E-02 0. -1.
       -1   -1    0    0    0  501  0.00000000000E+00  0.00000000000E+00 -0.32797981718E+03  0.32797981722E+03  0.50400001928E-02 0.  1.
    10030    2    1    2    0    0  0.00000000000E+00  0.00000000000E+00  0.11803433712E+04  0.18363030056E+04  0.14066976414E+04 0.  0.
        2    1    3    3  502    0 -0.36194072617E+01  0.25666891358E+02  0.15076994705E+04  0.15079222735E+04  0.25500000920E-02 0. -1.
       -2    1    3    3    0  502  0.36194072617E+01 -0.25666891358E+02 -0.32735609936E+03  0.32838073210E+03  0.25500000920E-02 0.  1.
</event>
<event>
 5   0  0.1108819E-03  0.1378762E+04  0.7818609E-02  0.8969337E-01
       -2   -1    0    0    0  501  0.00000000000E+00  0.00000000000E+00  0.74194307962E+03  0.74194307963E+03  0.25500000920E-02 0.  1.
        2   -1    0    0  501    0  0.00000000000E+00  0.00000000000E+00 -0.64054248658E+03  0.64054248658E+03  0.25500000920E-02 0. -1.
    10030    2    1    2    0    0  0.00000000000E+00  0.00000000000E+00  0.10140059305E+03  0.13824855662E+04  0.13787618578E+04 0.  0.
        3    1    3    3  502    0  0.15401030857E+03  0.28872154261E+03 -0.55770589840E+03  0.64661826731E+03  0.10100000352E+00 0. -1.
       -3    1    3    3    0  502 -0.15401030857E+03 -0.28872154261E+03  0.65910649145E+03  0.73586729890E+03  0.10100000352E+00 0.  1.
</event>
<event>
 5   0  0.1095119E-03  0.1392461E+04  0.7818609E-02  0.8959294E-01
       -2   -1    0    0    0  501  0.00000000000E+00  0.00000000000E+00  0.71387483002E+03  0.71387483002E+03  0.25500000920E-02 0.  1.
        2   -1    0    0  501    0  0.00000000000E+00  0.00000000000E+00 -0.67902184202E+03  0.67902184202E+03  0.25500000920E-02 0. -1.
    10030    2    1    2    0    0  0.00000000000E+00  0.00000000000E+00  0.34852988000E+02  0.13928966720E+04  0.13924605589E+04 0.  0.
        5    1    3    3  502    0 -0.32091484905E+03  0.61783262925E+03  0.20746261191E+02  0.69653140307E+03  0.46999998093E+01 0.  1.
       -5    1    3    3    0  502  0.32091484905E+03 -0.61783262925E+03  0.14106726809E+02  0.69636526898E+03  0.46999998093E+01 0. -1.
</event>
<event>
 5   0  0.1095119E-03  0.1394359E+04  0.7818609E-02  0.8957912E-01
       -2   -1    0    0    0  501  0.00000000000E+00  0.00000000000E+00  0.24600825416E+03  0.24600825418E+03  0.25500000920E-02 0. -1.
        2   -1    0    0  501    0  0.00000000000E+00  0.00000000000E+00 -0.19757846306E+04  0.19757846306E+04  0.25500000920E-02 0.  1.
    10030    2    1    2    0    0  0.00000000000E+00  0.00000000000E+00 -0.17297763764E+04  0.22217928848E+04  0.13943591038E+04 0.  0.
        5    1    3    3  502    0 -0.16187357218E+03 -0.34060316063E+03  0.69434342311E+02  0.38347983558E+03  0.46999998093E+01 0. -1.
       -5    1    3    3    0  502  0.16187357218E+03  0.34060316063E+03 -0.17992107187E+04  0.18383130492E+04  0.46999998093E+01 0.  1.
</event>
<event>
 5   0  0.1095119E-03  0.1416471E+04  0.7818609E-02  0.8941981E-01
       -2   -1    0    0    0  501  0.00000000000E+00  0.00000000000E+00  0.68933362878E+03  0.68933362879E+03  0.25500000920E-02 0. -1.
        2   -1    0    0  501    0  0.00000000000E+00  0.00000000000E+00 -0.72765601158E+03  0.72765601159E+03  0.25500000920E-02 0.  1.
    10030    2    1    2    0    0  0.00000000000E+00  0.00000000000E+00 -0.38322382799E+02  0.14169896404E+04  0.14164713325E+04 0.  0.
        5    1    3    3  502    0  0.37538217681E+03  0.46317441366E+02 -0.61814450290E+03  0.72469428072E+03  0.46999998093E+01 0.  1.
       -5    1    3    3    0  502 -0.37538217681E+03 -0.46317441366E+02  0.57982212010E+03  0.69229535966E+03  0.46999998093E+01 0. -1.
</event>
<event>
 5   0  0.1120053E-03  0.1390388E+04  0.7818609E-02  0.8960806E-01
       -2   -1    0    0    0  501  0.00000000000E+00  0.00000000000E+00  0.26904797392E+03  0.26904797393E+03  0.25500000920E-02 0. -1.
        2   -1    0    0  501    0  0.00000000000E+00  0.00000000000E+00 -0.17963139423E+04  0.17963139423E+04  0.25500000920E-02 0.  1.
    10030    2    1    2    0    0  0.00000000000E+00  0.00000000000E+00 -0.15272659684E+04  0.20653619163E+04  0.13903878980E+04 0.  0.
        2    1    3    3  502    0  0.16872095714E+03 -0.67272981604E+03 -0.69297672593E+03  0.98043302140E+03  0.25500000920E-02 0.  1.
       -2    1    3    3    0  502 -0.16872095714E+03  0.67272981604E+03 -0.83428924247E+03  0.10849288948E+04  0.25500000920E-02 0. -1.
</event>
<event>
 5   0  0.1098949E-03  0.1589703E+04  0.7818609E-02  0.8826899E-01
        2   -1    0    0  501    0  0.00000000000E+00  0.00000000000E+00  0.68522314383E+03  0.68522314383E+03  0.25500000920E-02 0.  1.
       -2   -1    0    0    0  501  0.00000000000E+00  0.00000000000E+00 -0.92201928035E+03  0.92201928035E+03  0.25500000920E-02 0. -1.
    10030    2    1    2    0    0  0.00000000000E+00  0.00000000000E+00 -0.23679613652E+03  0.16072424242E+04  0.15897030540E+04 0.  0.
        4    1    3    3  502    0 -0.76619936815E+03  0.31680517915E+02 -0.32980364142E+03  0.83476774121E+03  0.12699999809E+01 0.  1.
       -4    1    3    3    0  502  0.76619936815E+03 -0.31680517915E+02  0.93007504900E+02  0.77247468298E+03  0.12699999809E+01 0. -1.
</event>
<event>
 5   0  0.1095119E-03  0.1367087E+04  0.7818609E-02  0.8977993E-01
        2   -1    0    0  501    0  0.00000000000E+00  0.00000000000E+00  0.20244988638E+04  0.20244988638E+04  0.25500000920E-02 0. -1.
       -2   -1    0    0    0  501  0.00000000000E+00  0.00000000000E+00 -0.23078897544E+03  0.23078897546E+03  0.25500000920E-02 0.  1.
    10030    2    1    2    0    0  0.00000000000E+00  0.00000000000E+00  0.17937098884E+04  0.22552878393E+04  0.13670874421E+04 0.  0.
        5    1    3    3  502    0  0.54991803653E+03 -0.29310860667E+03  0.13602053825E+04  0.14961628503E+04  0.46999998093E+01 0. -1.
       -5    1    3    3    0  502 -0.54991803653E+03  0.29310860667E+03  0.43350450591E+03  0.75912498895E+03  0.46999998093E+01 0.  1.
</event>
<event>
 5   0  0.1095119E-03  0.1408917E+04  0.7818609E-02  0.8947389E-01
        2   -1    0    0  501    0  0.00000000000E+00  0.00000000000E+00  0.12781113107E+04  0.12781113107E+04  0.25500000920E-02 0. -1.
       -2   -1    0    0    0  501  0.00000000000E+00  0.00000000000E+00 -0.38827728300E+03  0.38827728301E+03  0.25500000920E-02 0.  1.
    10030    2    1    2    0    0  0.00000000000E+00  0.00000000000E+00  0.88983402767E+03  0.16663885937E+04  0.14089167287E+04 0.  0.
        5    1    3    3  502    0  0.42880993259E+03  0.30771611162E+03 -0.10689680861E+03  0.53853150449E+03  0.46999998093E+01 0.  1.
       -5    1    3    3    0  502 -0.42880993259E+03 -0.30771611162E+03  0.99673083629E+03  0.11278570892E+04  0.46999998093E+01 0. -1.
</event>
<event>
 5   0  0.1175146E-03  0.1404864E+04  0.7818609E-02  0.8950305E-01
        2   -1    0    0  501    0  0.00000000000E+00  0.00000000000E+00  0.57886525956E+03  0.57886525956E+03  0.25500000920E-02 0.  1.
       -2   -1    0    0    0  501  0.00000000000E+00  0.00000000000E+00 -0.85237594666E+03  0.85237594667E+03  0.25500000920E-02 0. -1.
    10030    2    1    2    0    0  0.00000000000E+00  0.00000000000E+00 -0.27351068711E+03  0.14312412062E+04  0.14048641552E+04 0.  0.
        1    1    3    3  502    0  0.50636366427E+03  0.15338100542E+03 -0.60747034897E+03  0.80557440266E+03  0.50400001928E-02 0. -1.
       -1    1    3    3    0  502 -0.50636366427E+03 -0.15338100542E+03  0.33395966186E+03  0.62566680357E+03  0.50400001928E-02 0.  1.
</event>
<event>
 5   0  0.4176125E-04  0.1401656E+04  0.7818609E-02  0.8952621E-01
        3   -1    0    0  501    0  0.00000000000E+00  0.00000000000E+00  0.14953764328E+04  0.14953764362E+04  0.10100000352E+00 0.  1.
       -3   -1    0    0    0  501  0.00000000000E+00  0.00000000000E+00 -0.32845226732E+03  0.32845228285E+03  0.10100000352E+00 0. -1.
    10030    2    1    2    0    0  0.00000000000E+00  0.00000000000E+00  0.11669241655E+04  0.18238287191E+04  0.14016558738E+04 0.  0.
        1    1    3    3  502    0  0.15788006775E+03 -0.64425663243E+03  0.87779439025E+03  0.11002343913E+04  0.50400001928E-02 0.  1.
       -1    1    3    3    0  502 -0.15788006775E+03  0.64425663243E+03  0.28912977523E+03  0.72359432776E+03  0.50400001928E-02 0. -1.
</event>
<event>
 5   0  0.1175146E-03  0.1430316E+04  0.7818609E-02  0.8932162E-01
       -2   -1    0    0    0  501  0.00000000000E+00  0.00000000000E+00  0.31646782713E+03  0.31646782714E+03  0.25500000920E-02 0. -1.
        2   -1    0    0  501    0  0.00000000000E+00  0.00000000000E+00 -0.16161222762E+04  0.16161222762E+04  0.25500000920E-02 0.  1.
    10030    2    1    2    0    0  0.00000000000E+00  0.00000000000E+00 -0.12996544490E+04  0.19325901033E+04  0.14303156367E+04 0.  0.
        1    1    3    3  502    0 -0.22616270333E+03 -0.28060441155E+03 -0.14844506967E+04  0.15275739835E+04  0.50400001928E-02 0.  1.
       -1    1    3    3    0  502  0.22616270333E+03  0.28060441155E+03  0.18479624763E+03  0.40501611983E+03  0.50400001928E-02 0. -1.
</event>
<event>
 5   0  0.6097538E-04  0.1409088E+04  0.7818609E-02  0.8947266E-01
        1   -1    0    0  501    0  0.00000000000E+00  0.00000000000E+00  0.10836418193E+04  0.10836418193E+04  0.50400001928E-02 0.  1.
       -1   -1    0    0    0  501  0.00000000000E+00  0.00000000000E+00 -0.45806866625E+03  0.45806866628E+03  0.50400001928E-02 0. -1.
    10030    2    1    2    0    0  0.00000000000E+00  0.00000000000E+00  0.62557315300E+03  0.15417104855E+04  0.14090881631E+04 0.  0.
        2    1    3    3  502    0 -0.30326889090E+03  0.26074887720E+03 -0.32182179782E+03  0.51335296503E+03  0.25500000920E-02 0. -1.
       -2    1    3    3    0  502  0.30326889090E+03 -0.26074887720E+03  0.94739495082E+03  0.10283575205E+04  0.25500000920E-02 0.  1.
</event>
<event>
 5   0  0.1108819E-03  0.1402619E+04  0.7818609E-02  0.8951925E-01
        2   -1    0    0  501    0  0.00000000000E+00  0.00000000000E+00  0.35029391581E+03  0.35029391582E+03  0.25500000920E-02 0. -1.
       -2   -1    0    0    0  501  0.00000000000E+00  0.00000000000E+00 -0.14040642471E+04  0.14040642471E+04  0.25500000920E-02 0.  1.
    10030    2    1    2    0    0  0.00000000000E+00  0.00000000000E+00 -0.10537703313E+04  0.17543581630E+04  0.14026192116E+04 0.  0.
        3    1    3    3  502    0 -0.61220909120E+03 -0.33765852626E+03 -0.45812789709E+03  0.83587943628E+03  0.10100000352E+00 0.  1.
       -3    1    3    3    0  502  0.61220909120E+03  0.33765852626E+03 -0.59564243424E+03  0.91847872669E+03  0.10100000352E+00 0. -1.
</event>
<event>
 5   0  0.6194742E-04  0.1407683E+04  0.7818609E-02  0.8948276E-01
       -1   -1    0    0    0  501  0.00000000000E+00  0.00000000000E+00  0.11167422946E+04  0.11167422946E+04  0.50400001928E-02 0.  1.
        1   -1    0    0  501    0  0.00000000000E+00  0.00000000000E+00 -0.44360560965E+03  0.44360560968E+03  0.50400001928E-02 0. -1.
    10030    2    1    2    0    0  0.00000000000E+00  0.00000000000E+00  0.67313668490E+03  0.15603479042E+04  0.14076834110E+04 0.  0.
        4    1    3    3  502    0  0.14852055737E+03 -0.50006769200E+03  0.86032220690E+03  0.10061222416E+04  0.12699999809E+01 0.  1.
       -4    1    3    3    0  502 -0.14852055737E+03  0.50006769200E+03 -0.18718552200E+03  0.55422566260E+03  0.12699999809E+01 0. -1.
</event>
<event>
 5   0  0.5875298E-04  0.1386001E+04  0.7818609E-02  0.8964014E-01
        1   -1    0    0  501    0  0.00000000000E+00  0.00000000000E+00  0.14828523988E+04  0.14828523988E+04  0.50400001928E-02 0. -1.
       -1   -1    0    0    0  501  0.00000000000E+00  0.00000000000E+00 -0.32386906765E+03  0.32386906769E+03  0.50400001928E-02 0.  1.
    10030    2    1    2    0    0  0.00000000000E+00  0.00000000000E+00  0.11589833311E+04  0.18067214665E+04  0.13860014775E+04 0.  0.
        1    1    3    3  502    0 -0.33937969464E+03  0.30748860175E+03  0.12574905386E+04  0.13382863191E+04  0.50400001928E-02 0. -1.
       -1    1    3    3    0  502  0.33937969464E+03 -0.30748860175E+03 -0.98507207428E+02  0.46843514736E+03  0.50400001928E-02 0.  1.
</event>
<event>
 5   0  0.6153318E-04  0.1384921E+04  0.7818609E-02  0.8964806E-01
        1   -1    0    0  501    0  0.00000000000E+00  0.00000000000E+00  0.60284614207E+03  0.60284614209E+03  0.50400001928E-02 0. -1.
       -1   -1    0    0    0  501  0.00000000000E+00  0.00000000000E+00 -0.79539672805E+03  0.79539672806E+03  0.50400001928E-02 0.  1.
    10030    2    1    2    0    0  0.00000000000E+00  0.00000000000E+00 -0.19255058598E+03  0.13982428702E+04  0.13849214403E+04 0.  0.
        5    1    3    3  502    0  0.11131926162E+02 -0.38925579614E+02 -0.79418464147E+03  0.79522981287E+03  0.46999998093E+01 0.  1.
       -5    1    3    3    0  502 -0.11131926162E+02  0.38925579614E+02  0.60163405550E+03  0.60301305729E+03  0.46999998093E+01 0. -1.
</event>
<event>
 5   0  0.1098949E-03  0.1408703E+04  0.7818609E-02  0.8947543E-01
       -2   -1    0    0    0  501  0.00000000000E+00  0.00000000000E+00  0.80827979843E+03  0.80827979843E+03  0.25500000920E-02 0. -1.
        2   -1    0    0  501    0  0.00000000000E+00  0.00000000000E+00 -0.61378591171E+03  0.61378591172E+03  0.25500000920E-02 0.  1.
    10030    2    1    2    0    0  0.00000000000E+00  0.00000000000E+00  0.19449388672E+03  0.14220657101E+04  0.14087025989E+04 0.  0.
        4    1    3    3  502    0 -0.53255300082E+03 -0.41603885571E+03  0.29764484184E+03  0.73844098811E+03  0.12699999809E+01 0.  1.
       -4    1    3    3    0  502  0.53255300082E+03  0.41603885571E+03 -0.10315095512E+03  0.68362472204E+03  0.12699999809E+01 0. -1.
</event>
<event>
 5   0  0.6097538E-04  0.1403440E+04  0.7818609E-02  0.8951333E-01
       -1   -1    0    0    0  501  0.00000000000E+00  0.00000000000E+00  0.63173694791E+03  0.63173694793E+03  0.50400001928E-02 0. -1.
        1   -1    0    0  501    0  0.00000000000E+00  0.00000000000E+00 -0.77945518182E+03  0.77945518183E+03  0.50400001928E-02 0.  1.
    10030    2    1    2    0    0  0.00000000000E+00  0.00000000000E+00 -0.14771823390E+03  0.14111921298E+04  0.14034395429E+04 0.  0.
        2    1    3    3  502    0 -0.51985321946E+03  0.27724244057E+03 -0.45714699998E+03  0.74571718515E+03  0.25500000920E-02 0.  1.
       -2    1    3    3    0  502  0.51985321946E+03 -0.27724244057E+03  0.30942876607E+03  0.66547494462E+03  0.25500000920E-02 0. -1.
</event>
<event>
 5   0  0.1120053E-03  0.1405126E+04  0.7818609E-02  0.8950117E-01
       -2   -1    0    0    0  501  0.00000000000E+00  0.00000000000E+00  0.39915311529E+03  0.39915311530E+03  0.25500000920E-02 0. -1.
        2   -1    0    0  501    0  0.00000000000E+00  0.00000000000E+00 -0.12366046919E+04  0.12366046919E+04  0.25500000920E-02 0.  1.
    10030    2    1    2    0    0  0.00000000000E+00  0.00000000000E+00 -0.83745157664E+03  0.16357578072E+04  0.14051257811E+04 0.  0.
        2    1    3    3  502    0  0.61367904779E+02  0.61451420380E+03 -0.80866952412E+03  0.10175166464E+04  0.25500000920E-02 0. -1.
       -2    1    3    3    0  502 -0.61367904779E+02 -0.61451420380E+03 -0.28782052518E+02  0.61824116085E+03  0.25500000920E-02 0.  1.
</event>
<event>
 5   0  0.1175146E-03  0.1396909E+04  0.7818609E-02  0.8956059E-01
        2   -1    0    0  501    0  0.00000000000E+00  0.00000000000E+00  0.47414196958E+03  0.47414196958E+03  0.25500000920E-02 0. -1.
       -2   -1    0    0    0  501  0.00000000000E+00  0.00000000000E+00 -0.10288880294E+04  0.10288880294E+04  0.25500000920E-02 0.  1.
    10030    2    1    2    0    0  0.00000000000E+00  0.00000000000E+00 -0.55474605980E+03  0.15030299990E+04  0.13969094412E+04 0.  0.
        1    1    3    3  502    0  0.39923333123E+03  0.54152529677E+03 -0.47924855216E+03  0.82602425786E+03  0.50400001928E-02 0.  1.
       -1    1    3    3    0  502 -0.39923333123E+03 -0.54152529677E+03 -0.75497507638E+02  0.67700574110E+03  0.50400001928E-02 0. -1.
</event>
<event>
 5   0  0.1095119E-03  0.1369403E+04  0.7818609E-02  0.8976269E-01
        2   -1    0    0  501    0  0.00000000000E+00  0.00000000000E+00  0.11687833750E+04  0.11687833750E+04  0.25500000920E-02 0. -1.
       -2   -1    0    0    0  501  0.00000000000E+00  0.00000000000E+00 -0.40111480320E+03  0.40111480321E+03  0.25500000920E-02 0.  1.
    10030    2    1    2    0    0  0.00000000000E+00  0.00000000000E+00  0.76766857180E+03  0.15698981782E+04  0.13694032473E+04 0.  0.
        5    1    3    3  502    0 -0.25809828554E+03  0.59302104919E+03  0.12619646671E+03  0.65896610534E+03  0.46999998093E+01 0.  1.
       -5    1    3    3    0  502  0.25809828554E+03 -0.59302104919E+03  0.64147210509E+03  0.91093207288E+03  0.46999998093E+01 0. -1.
</event>
<event>
 5   0  0.6097538E-04  0.1559351E+04  0.7818609E-02  0.8845917E-01
        1   -1    0    0  501    0  0.00000000000E+00  0.00000000000E+00  0.11612774549E+04  0.11612774549E+04  0.50400001928E-02 0. -1.
       -1   -1    0    0    0  501  0.00000000000E+00  0.00000000000E+00 -0.52346998699E+03  0.52346998701E+03  0.50400001928E-02 0.  1.
    10030    2    1    2    0    0  0.00000000000E+00  0.00000000000E+00  0.63780746794E+03  0.16847474419E+04  0.15593510115E+04 0.  0.
        2    1    3    3  502    0 -0.43782734972E+03 -0.63522902339E+03  0.44058941434E+03  0.88844118115E+03  0.25500000920E-02 0. -1.
       -2    1    3    3    0  502  0.43782734972E+03  0.63522902339E+03  0.19721805360E+03  0.79630626080E+03  0.25500000920E-02 0.  1.
</event>
<event>
 5   0  0.6194742E-04  0.1279553E+04  0.7818609E-02  0.9045938E-01
        1   -1    0    0  501    0  0.00000000000E+00  0.00000000000E+00  0.82594911751E+03  0.82594911753E+03  0.50400001928E-02 0.  1.
       -1   -1    0    0    0  501  0.00000000000E+00  0.00000000000E+00 -0.49556834065E+03  0.49556834068E+03  0.50400001928E-02 0. -1.
    10030    2    1    2    0    0  0.00000000000E+00  0.00000000000E+00  0.33038077686E+03  0.13215174582E+04  0.12795534122E+04 0.  0.
        4    1    3    3  502    0 -0.31221264551E+02  0.57779963351E+03 -0.11668046495E+03  0.59029071452E+03  0.12699999809E+01 0. -1.
       -4    1    3    3    0  502  0.31221264551E+02 -0.57779963351E+03  0.44706124181E+03  0.73122674368E+03  0.12699999809E+01 0.  1.
</event>
<event>
 5   0  0.1098949E-03  0.1412600E+04  0.7818609E-02  0.8944748E-01
        2   -1    0    0  501    0  0.00000000000E+00  0.00000000000E+00  0.11189151938E+04  0.11189151938E+04  0.25500000920E-02 0.  1.
       -2   -1    0    0    0  501  0.00000000000E+00  0.00000000000E+00 -0.44584252036E+03  0.44584252037E+03  0.25500000920E-02 0. -1.
    10030    2    1    2    0    0  0.00000000000E+00  0.00000000000E+00  0.67307267342E+03  0.15647577142E+04  0.14126003965E+04 0.  0.
        4    1    3    3  502    0 -0.84015085268E+02  0.70008429126E+03  0.38196353504E+03  0.80191913833E+03  0.12699999809E+01 0.  1.
       -4    1    3    3    0  502  0.84015085268E+02 -0.70008429126E+03  0.29110913838E+03  0.76283857583E+03  0.12699999809E+01 0. -1.
</event>
<event>
 5   0  0.1108819E-03  0.1402227E+04  0.7818609E-02  0.8952208E-01
        2   -1    0    0  501    0  0.00000000000E+00  0.00000000000E+00  0.46198964337E+03  0.46198964338E+03  0.25500000920E-02 0. -1.
       -2   -1    0    0    0  501  0.00000000000E+00  0.00000000000E+00 -0.10640063244E+04  0.10640063244E+04  0.25500000920E-02 0.  1.
    10030    2    1    2    0    0  0.00000000000E+00  0.00000000000E+00 -0.60201668100E+03  0.15259959678E+04  0.14022266612E+04 0.  0.
        3    1    3    3  502    0 -0.31061028863E+02  0.53816841960E+03  0.18685774333E+03  0.57053121020E+03  0.10100000352E+00 0. -1.
       -3    1    3    3    0  502  0.31061028863E+02 -0.53816841960E+03 -0.78887442433E+03  0.95546475756E+03  0.10100000352E+00 0.  1.
</event>
<event>
 5   0  0.5875298E-04  0.1406393E+04  0.7818609E-02  0.8949204E-01
       -1   -1    0    0    0  501  0.00000000000E+00  0.00000000000E+00  0.88922294000E+03  0.88922294002E+03  0.50400001928E-02 0. -1.
        1   -1    0    0  501    0  0.00000000000E+00  0.00000000000E+00 -0.55608681668E+03  0.55608681670E+03  0.50400001928E-02 0.  1.
    10030    2    1    2    0    0  0.00000000000E+00  0.00000000000E+00  0.33313612333E+03  0.14453097567E+04  0.14063927674E+04 0.  0.
        1    1    3    3  502    0 -0.42842829235E+03  0.49291208248E+03  0.43449688356E+03  0.78441103038E+03  0.50400001928E-02 0. -1.
       -1    1    3    3    0  502  0.42842829235E+03 -0.49291208248E+03 -0.10136076023E+03  0.66089872634E+03  0.50400001928E-02 0.  1.
</event>
<event>
 5   0  0.6114266E-04  0.1408748E+04  0.7818609E-02  0.8947511E-01
       -1   -1    0    0    0  501  0.00000000000E+00  0.00000000000E+00  0.59787019946E+03  0.59787019948E+03  0.50400001928E-02 0.  1.
        1   -1    0    0  501    0  0.00000000000E+00  0.00000000000E+00 -0.82985011051E+03  0.82985011052E+03  0.50400001928E-02 0. -1.
    10030    2    1    2    0    0  0.00000000000E+00  0.00000000000E+00 -0.23197991105E+03  0.14277203100E+04  0.14087478854E+04 0.  0.
        3    1    3    3  502    0  0.80801713584E+02  0.55745042507E+03  0.31262745619E+03  0.64421722260E+03  0.10100000352E+00 0.  1.
       -3    1    3    3    0  502 -0.80801713584E+02 -0.55745042507E+03 -0.54460736724E+03  0.78350308741E+03  0.10100000352E+00 0. -1.
</event>
<event>
 5   0  0.6097538E-04  0.1386030E+04  0.7818609E-02  0.8963993E-01
        1   -1    0    0  501    0  0.00000000000E+00  0.00000000000E+00  0.10003666797E+04  0.10003666797E+04  0.50400001928E-02 0.  1.
       -1   -1    0    0    0  501  0.00000000000E+00  0.00000000000E+00 -0.48009382678E+03  0.48009382680E+03  0.50400001928E-02 0. -1.
    10030    2    1    2    0    0  0.00000000000E+00  0.00000000000E+00  0.52027285291E+03  0.14804605065E+04  0.13860301114E+04 0.  0.
        2    1    3    3  502    0 -0.13981936099E+03 -0.26567026625E+03  0.92730295048E+03  0.97469015900E+03  0.25500000920E-02 0.  1.
       -2    1    3    3    0  502  0.13981936099E+03  0.26567026625E+03 -0.40703009757E+03  0.50577034750E+03  0.25500000920E-02 0. -1.
</event>
<event>
 5   0  0.6097538E-04  0.1398852E+04  0.7818609E-02  0.8954650E-01
       -1   -1    0    0    0  501  0.00000000000E+00  0.00000000000E+00  0.97778703663E+03  0.97778703665E+03  0.50400001928E-02 0.  1.
        1   -1    0    0  501    0  0.00000000000E+00  0.00000000000E+00 -0.50031027081E+03  0.50031027083E+03  0.50400001928E-02 0. -1.
    10030    2    1    2    0    0  0.00000000000E+00  0.00000000000E+00  0.47747676583E+03  0.14780973075E+04  0.13988522397E+04 0.  0.
        2    1    3    3  502    0 -0.21633614600E+03  0.85510274721E+02 -0.45823713144E+03  0.51390135608E+03  0.25500000920E-02 0. -1.
       -2    1    3    3    0  502  0.21633614600E+03 -0.85510274721E+02  0.93571389726E+03  0.96419595140E+03  0.25500000920E-02 0.  1.
</event>
<event>
 5   0  0.1095119E-03  0.1404146E+04  0.7818609E-02  0.8950823E-01
       -2   -1    0    0    0  501  0.00000000000E+00  0.00000000000E+00  0.88572480273E+03  0.88572480273E+03  0.25500000920E-02 0. -1.
        2   -1    0    0  501    0  0.00000000000E+00  0.00000000000E+00 -0.55650096798E+03  0.55650096798E+03  0.25500000920E-02 0.  1.
    10030    2    1    2    0    0  0.00000000000E+00  0.00000000000E+00  0.32922383475E+03  0.14422257707E+04  0.14041463030E+04 0.  0.
        5    1    3    3  502    0 -0.66301079058E+03 -0.17945387245E+02 -0.71802465856E+02  0.66714543351E+03  0.46999998093E+01 0.  1.
       -5    1    3    3    0  502  0.66301079058E+03  0.17945387245E+02  0.40102630061E+03  0.77508033721E+03  0.46999998093E+01 0. -1.
</event>
<event>
 5   0  0.6153318E-04  0.1385514E+04  0.7818609E-02  0.8964371E-01
       -1   -1    0    0    0  501  0.00000000000E+00  0.00000000000E+00  0.64445946147E+03  0.64445946149E+03  0.50400001928E-02 0.  1.
        1   -1    0    0  501    0  0.00000000000E+00  0.00000000000E+00 -0.74467445061E+03  0.74467445062E+03  0.50400001928E-02 0. -1.
    10030    2    1    2    0    0  0.00000000000E+00  0.00000000000E+00 -0.10021498914E+03  0.13891339121E+04  0.13855143383E+04 0.  0.
        5    1    3    3  502    0  0.34380757371E+03 -0.53033106696E+03  0.23424533754E+03  0.67405315553E+03  0.46999998093E+01 0.  1.
       -5    1    3    3    0  502 -0.34380757371E+03  0.53033106696E+03 -0.33446032668E+03  0.71508075659E+03  0.46999998093E+01 0. -1.
</event>
<event>
 5   0  0.6114266E-04  0.1324067E+04  0.7818609E-02  0.9010695E-01
        1   -1    0    0  501    0  0.00000000000E+00  0.00000000000E+00  0.78128527889E+03  0.78128527891E+03  0.50400001928E-02 0. -1.
       -1   -1    0    0    0  501  0.00000000000E+00  0.00000000000E+00 -0.56098371018E+03  0.56098371020E+03  0.50400001928E-02 0.  1.
    10030    2    1    2    0    0  0.00000000000E+00  0.00000000000E+00  0.22030156871E+03  0.13422689891E+04  0.13240669386E+04 0.  0.
        3    1    3    3  502    0 -0.45876461315E+03 -0.19697811839E+03  0.55089527175E+03  0.74347223219E+03  0.10100000352E+00 0. -1.
       -3    1    3    3    0  502  0.45876461315E+03  0.19697811839E+03 -0.33059370304E+03  0.59879675691E+03  0.10100000352E+00 0.  1.
</event>
<event>
 5   0  0.6153318E-04  0.1393021E+04  0.7818609E-02  0.8958886E-01
        1   -1    0    0  501    0  0.00000000000E+00  0.00000000000E+00  0.13612347746E+04  0.13612347746E+04  0.50400001928E-02 0. -1.
       -1   -1    0    0    0  501  0.00000000000E+00  0.00000000000E+00 -0.35638727151E+03  0.35638727155E+03  0.50400001928E-02 0.  1.
    10030    2    1    2    0    0  0.00000000000E+00  0.00000000000E+00  0.10048475031E+04  0.17176220461E+04  0.13930208143E+04 0.  0.
        5    1    3    3  502    0  0.36405793576E+03  0.93387012027E+02 -0.22059835019E+03  0.43582684258E+03  0.46999998093E+01 0.  1.
       -5    1    3    3    0  502 -0.36405793576E+03 -0.93387012027E+02  0.12254458533E+04  0.12817952036E+04  0.46999998093E+01 0. -1.
</event>
<event>
 5   0  0.5875298E-04  0.1395310E+04  0.7818609E-02  0.8957221E-01
        1   -1    0    0  501    0  0.00000000000E+00  0.00000000000E+00  0.13637947047E+04  0.13637947047E+04  0.50400001928E-02 0. -1.
       -1   -1    0    0    0  501  0.00000000000E+00  0.00000000000E+00 -0.35688816160E+03  0.35688816164E+03  0.50400001928E-02 0.  1.
    10030    2    1    2    0    0  0.00000000000E+00  0.00000000000E+00  0.10069065431E+04  0.17206828663E+04  0.13953095499E+04 0.  0.
        1    1    3    3  502    0 -0.52098670076E+03 -0.45848008500E+03  0.59144343611E+03  0.91183138181E+03  0.50400001928E-02 0. -1.
       -1    1    3    3    0  502  0.52098670076E+03  0.45848008500E+03  0.41546310695E+03  0.80885148450E+03  0.50400001928E-02 0.  1.
</event>
<event>
 5   0  0.1120053E-03  0.1584336E+04  0.7818609E-02  0.8830229E-01
       -2   -1    0    0    0  501  0.00000000000E+00  0.00000000000E+00  0.48147340612E+03  0.48147340613E+03  0.25500000920E-02 0. -1.
        2   -1    0    0  501    0  0.00000000000E+00  0.00000000000E+00 -0.13033538680E+04  0.13033538680E+04  0.25500000920E-02 0.  1.
    10030    2    1    2    0    0  0.00000000000E+00  0.00000000000E+00 -0.82188046186E+03  0.17848272741E+04  0.15843361085E+04 0.  0.
        2    1    3    3  502    0  0.67765604397E+03 -0.41004498175E+03 -0.39601083239E+03  0.88553892086E+03  0.25500000920E-02 0. -1.
       -2    1    3    3    0  502 -0.67765604397E+03  0.41004498175E+03 -0.42586962947E+03  0.89928835325E+03  0.25500000920E-02 0.  1.
</event>
<event>
 5   0  0.1175146E-03  0.1406373E+04  0.7818609E-02  0.8949218E-01
        2   -1    0    0  501    0  0.00000000000E+00  0.00000000000E+00  0.38160940437E+03  0.38160940438E+03  0.25500000920E-02 0. -1.
       -2   -1    0    0    0  501  0.00000000000E+00  0.00000000000E+00 -0.12957526521E+04  0.12957526521E+04  0.25500000920E-02 0.  1.
    10030    2    1    2    0    0  0.00000000000E+00  0.00000000000E+00 -0.91414324773E+03  0.16773620565E+04  0.14063732048E+04 0.  0.
        1    1    3    3  502    0 -0.54930216503E+03  0.43573619466E+03 -0.52099446841E+03  0.87351825166E+03  0.50400001928E-02 0.  1.
       -1    1    3    3    0  502  0.54930216503E+03 -0.43573619466E+03 -0.39314877932E+03  0.80384380482E+03  0.50400001928E-02 0. -1.
</event>
<event>
 5   0  0.6153318E-04  0.1405785E+04  0.7818609E-02  0.8949641E-01
       -1   -1    0    0    0  501  0.00000000000E+00  0.00000000000E+00  0.55483118461E+03  0.55483118463E+03  0.50400001928E-02 0. -1.
        1   -1    0    0  501    0  0.00000000000E+00  0.00000000000E+00 -0.89046580982E+03  0.89046580984E+03  0.50400001928E-02 0.  1.
    10030    2    1    2    0    0  0.00000000000E+00  0.00000000000E+00 -0.33563462521E+03  0.14452969945E+04  0.14057854746E+04 0.  0.
        5    1    3    3  502    0  0.17617781766E+03 -0.63385966824E+03 -0.42219710562E+03  0.78172193807E+03  0.46999998093E+01 0.  1.
       -5    1    3    3    0  502 -0.17617781766E+03  0.63385966824E+03  0.86562480408E+02  0.66357505640E+03  0.46999998093E+01 0. -1.
</event>
<event>
 5   0  0.6097538E-04  0.1379956E+04  0.7818609E-02  0.8968456E-01
       -1   -1    0    0    0  501  0.00000000000E+00  0.00000000000E+00  0.67004351016E+03  0.67004351018E+03  0.50400001928E-02 0. -1.
        1   -1    0    0  501    0  0.00000000000E+00  0.00000000000E+00 -0.71050570818E+03  0.71050570820E+03  0.50400001928E-02 0.  1.
    10030    2    1    2    0    0  0.00000000000E+00  0.00000000000E+00 -0.40462198012E+02  0.13805492184E+04  0.13799561424E+04 0.  0.
        2    1    3    3  502    0  0.16723909357E+02  0.68910947728E+03  0.10083374419E+02  0.68938612929E+03  0.25500000920E-02 0. -1.
       -2    1    3    3    0  502 -0.16723909357E+02 -0.68910947728E+03 -0.50545572432E+02  0.69116308909E+03  0.25500000920E-02 0.  1.
</event>
<event>
 5   0  0.6114266E-04  0.1430712E+04  0.7818609E-02  0.8931883E-01
        1   -1    0    0  501    0  0.00000000000E+00  0.00000000000E+00  0.63492465515E+03  0.63492465517E+03  0.50400001928E-02 0. -1.
       -1   -1    0    0    0  501  0.00000000000E+00  0.00000000000E+00 -0.80597662823E+03  0.80597662824E+03  0.50400001928E-02 0.  1.
    10030    2    1    2    0    0  0.00000000000E+00  0.00000000000E+00 -0.17105197307E+03  0.14409012834E+04  0.14307123160E+04 0.  0.
        3    1    3    3  502    0 -0.51046885630E+03 -0.14291093841E+03  0.39824100844E+03  0.66302179495E+03  0.10100000352E+00 0. -1.
       -3    1    3    3    0  502  0.51046885630E+03  0.14291093841E+03 -0.56929298152E+03  0.77787948846E+03  0.10100000352E+00 0.  1.
</event>
<event>
 5   0  0.1120053E-03  0.1422874E+04  0.7818609E-02  0.8937426E-01
       -2   -1    0    0    0  501  0.00000000000E+00  0.00000000000E+00  0.30074124390E+03  0.30074124391E+03  0.25500000920E-02 0. -1.
        2   -1    0    0  501    0  0.00000000000E+00  0.00000000000E+00 -0.16829835636E+04  0.16829835636E+04  0.25500000920E-02 0.  1.
    10030    2    1    2    0    0  0.00000000000E+00  0.00000000000E+00 -0.13822423197E+04  0.19837248075E+04  0.14228739514E+04 0.  0.
        2    1    3    3  502    0  0.14493783764E+03  0.57853357507E+02 -0.16588267449E+04  0.16661513009E+04  0.25500000920E-02 0.  1.
       -2    1    3    3    0  502 -0.14493783764E+03 -0.57853357507E+02  0.27658442529E+03  0.31757350657E+03  0.25500000920E-02 0. -1.
</event>
<event>
 5   0  0.1108819E-03  0.1405886E+04  0.7818609E-02  0.8949569E-01
        2   -1    0    0  501    0  0.00000000000E+00  0.00000000000E+00  0.94541502190E+03  0.94541502191E+03  0.25500000920E-02 0.  1.
       -2   -1    0    0    0  501  0.00000000000E+00  0.00000000000E+00 -0.52265830585E+03  0.52265830586E+03  0.25500000920E-02 0. -1.
    10030    2    1    2    0    0  0.00000000000E+00  0.00000000000E+00  0.42275671605E+03  0.14680733278E+04  0.14058862169E+04 0.  0.
        3    1    3    3  502    0 -0.10310124082E+03  0.33557588702E+03 -0.42456574390E+03  0.55090572959E+03  0.10100000352E+00 0. -1.
       -3    1    3    3    0  502  0.10310124082E+03 -0.33557588702E+03  0.84732245995E+03  0.91716759817E+03  0.10100000352E+00 0.  1.
</event>
<event>
 5   0  0.5875298E-04  0.1401617E+04  0.7818609E-02  0.8952649E-01
        1   -1    0    0  501    0  0.00000000000E+00  0.00000000000E+00  0.68817221898E+03  0.68817221900E+03  0.50400001928E-02 0.  1.
       -1   -1    0    0    0  501  0.00000000000E+00  0.00000000000E+00 -0.71367701649E+03  0.71367701651E+03  0.50400001928E-02 0. -1.
    10030    2    1    2    0    0  0.00000000000E+00  0.00000000000E+00 -0.25504797511E+02  0.14018492355E+04  0.14016172032E+04 0.  0.
        1    1    3    3  502    0  0.42512105050E+03 -0.40486724388E+03  0.37004755965E+03  0.69396007750E+03  0.50400001928E-02 0.  1.
       -1    1    3    3    0  502 -0.42512105050E+03  0.40486724388E+03 -0.39555235716E+03  0.70788915800E+03  0.50400001928E-02 0. -1.
</event>
<event>
 5   0  0.1120053E-03  0.1352416E+04  0.7818609E-02  0.8989002E-01
        2   -1    0    0  501    0  0.00000000000E+00  0.00000000000E+00  0.13068909863E+04  0.13068909863E+04  0.25500000920E-02 0. -1.
       -2   -1    0    0    0  501  0.00000000000E+00  0.00000000000E+00 -0.34988147451E+03  0.34988147452E+03  0.25500000920E-02 0.  1.
    10030    2    1    2    0    0  0.00000000000E+00  0.00000000000E+00  0.95700951183E+03  0.16567724609E+04  0.13524155357E+04 0.  0.
        2    1    3    3  502    0 -0.58446244034E+03  0.33242876190E+03  0.56643308430E+03  0.87917669720E+03  0.25500000920E-02 0. -1.
       -2    1    3    3    0  502  0.58446244034E+03 -0.33242876190E+03  0.39057642753E+03  0.77759576366E+03  0.25500000920E-02 0.  1.
</event>
<event>
 5   0  0.6194742E-04  0.1399511E+04  0.7818609E-02  0.8954173E-01
        1   -1    0    0  501    0  0.00000000000E+00  0.00000000000E+00  0.30352681021E+03  0.30352681025E+03  0.50400001928E-02 0.  1.
       -1   -1    0    0    0  501  0.00000000000E+00  0.00000000000E+00 -0.16132263696E+04  0.16132263696E+04  0.50400001928E-02 0. -1.
    10030    2    1    2    0    0  0.00000000000E+00  0.00000000000E+00 -0.13096995594E+04  0.19167531799E+04  0.13995105632E+04 0.  0.
        4    1    3    3  502    0  0.50663611663E+03 -0.27574945627E+03 -0.11228204551E+03  0.58764512076E+03  0.12699999809E+01 0.  1.
       -4    1    3    3    0  502 -0.50663611663E+03  0.27574945627E+03 -0.11974175139E+04  0.13291080591E+04  0.12699999809E+01 0. -1.
</event>
<event>
 5   0  0.6114266E-04  0.1391002E+04  0.7818609E-02  0.8960358E-01
        1   -1    0    0  501    0  0.00000000000E+00  0.00000000000E+00  0.73155321906E+03  0.73155321908E+03  0.50400001928E-02 0. -1.
       -1   -1    0    0    0  501  0.00000000000E+00  0.00000000000E+00 -0.66122504006E+03  0.66122504008E+03  0.50400001928E-02 0.  1.
    10030    2    1    2    0    0  0.00000000000E+00  0.00000000000E+00  0.70328178997E+02  0.13927782592E+04  0.13910015192E+04 0.  0.
        3    1    3    3  502    0  0.16064942085E+03  0.62437318515E+03  0.29640189823E+03  0.70958030287E+03  0.10100000352E+00 0. -1.
       -3    1    3    3    0  502 -0.16064942085E+03 -0.62437318515E+03 -0.22607371923E+03  0.68319795629E+03  0.10100000352E+00 0.  1.
</event>
<event>
 5   0  0.1095119E-03  0.1396463E+04  0.7818609E-02  0.8956383E-01
       -2   -1    0    0    0  501  0.00000000000E+00  0.00000000000E+00  0.50113789711E+03  0.50113789712E+03  0.25500000920E-02 0.  1.
        2   -1    0    0  501    0  0.00000000000E+00  0.00000000000E+00 -0.97283997151E+03  0.97283997151E+03  0.25500000920E-02 0. -1.
    10030    2    1    2    0    0  0.00000000000E+00  0.00000000000E+00 -0.47170207439E+03  0.14739778686E+04  0.13964626419E+04 0.  0.
        5    1    3    3  502    0  0.41174615710E+03 -0.56273148354E+03 -0.19774635370E+03  0.72479468186E+03  0.46999998093E+01 0.  1.
       -5    1    3    3    0  502 -0.41174615710E+03  0.56273148354E+03 -0.27395572069E+03  0.74918318677E+03  0.46999998093E+01 0. -1.
</event>
<event>
 5   0  0.1120053E-03  0.1371305E+04  0.7818609E-02  0.8974856E-01
        2   -1    0    0  501    0  0.00000000000E+00  0.00000000000E+00  0.17688157524E+04  0.17688157524E+04  0.25500000920E-02 0.  1.
       -2   -1    0    0    0  501  0.00000000000E+00  0.00000000000E+00 -0.26578182741E+03  0.26578182742E+03  0.25500000920E-02 0. -1.
    10030    2    1    2    0    0  0.00000000000E+00  0.00000000000E+00  0.15030339250E+04  0.20345975798E+04  0.13713046095E+04 0.  0.
        2    1    3    3  502    0  0.31973509564E+03  0.50331096924E+03  0.12537134118E+04  0.13882902370E+04  0.25500000920E-02 0.  1.
       -2    1    3    3    0  502 -0.31973509564E+03 -0.50331096924E+03  0.24932051322E+03  0.64630734288E+03  0.25500000920E-02 0. -1.
</event>
<event>
 5   0  0.4176125E-04  0.1401307E+04  0.7818609E-02  0.8952873E-01
        3   -1    0    0  501    0  0.00000000000E+00  0.00000000000E+00  0.14113669711E+04  0.14113669747E+04  0.10100000352E+00 0.  1.
       -3   -1    0    0    0  501  0.00000000000E+00  0.00000000000E+00 -0.34782954700E+03  0.34782956166E+03  0.10100000352E+00 0. -1.
    10030    2    1    2    0    0  0.00000000000E+00  0.00000000000E+00  0.10635374241E+04  0.17591965364E+04  0.14013067477E+04 0.  0.
        4    1    3    3  502    0 -0.14525469960E+03 -0.42047104545E+03  0.12113303019E+04  0.12904330828E+04  0.12699999809E+01 0.  1.
       -4    1    3    3    0  502  0.14525469960E+03  0.42047104545E+03 -0.14779287782E+03  0.46876345362E+03  0.12699999809E+01 0. -1.
</event>
<event>
 5   0  0.6153318E-04  0.1402062E+04  0.7818609E-02  0.8952327E-01
        1   -1    0    0  501    0  0.00000000000E+00  0.00000000000E+00  0.52277830395E+03  0.52277830397E+03  0.50400001928E-02 0.  1.
       -1   -1    0    0    0  501  0.00000000000E+00  0.00000000000E+00 -0.94006347768E+03  0.94006347769E+03  0.50400001928E-02 0. -1.
    10030    2    1    2    0    0  0.00000000000E+00  0.00000000000E+00 -0.41728517373E+03  0.14628417817E+04  0.14020624672E+04 0.  0.
        5    1    3    3  502    0 -0.23034118875E+03  0.18442056372E+03 -0.87209722810E+03  0.92067566103E+03  0.46999998093E+01 0. -1.
       -5    1    3    3    0  502  0.23034118875E+03 -0.18442056372E+03  0.45481205437E+03  0.54216612063E+03  0.46999998093E+01 0.  1.
</event>
<event>
 5   0  0.6097538E-04  0.1397707E+04  0.7818609E-02  0.8955480E-01
       -1   -1    0    0    0  501  0.00000000000E+00  0.00000000000E+00  0.27565284302E+03  0.27565284306E+03  0.50400001928E-02 0. -1.
        1   -1    0    0  501    0  0.00000000000E+00  0.00000000000E+00 -0.17717810135E+04  0.17717810136E+04  0.50400001928E-02 0.  1.
    10030    2    1    2    0    0  0.00000000000E+00  0.00000000000E+00 -0.14961281705E+04  0.20474338566E+04  0.13977073709E+04 0.  0.
        2    1    3    3  502    0 -0.67866171605E+03  0.11191462123E+03 -0.92919620511E+03  0.11560762063E+04  0.25500000920E-02 0. -1.
       -2    1    3    3    0  502  0.67866171605E+03 -0.11191462123E+03 -0.56693196542E+03  0.89135765028E+03  0.25500000920E-02 0.  1.
</event>
<event>
 5   0  0.5875298E-04  0.1395802E+04  0.7818609E-02  0.8956863E-01
       -1   -1    0    0    0  501  0.00000000000E+00  0.00000000000E+00  0.42344378557E+03  0.42344378560E+03  0.50400001928E-02 0. -1.
        1   -1    0    0  501    0  0.00000000000E+00  0.00000000000E+00 -0.11502494222E+04  0.11502494222E+04  0.50400001928E-02 0.  1.
    10030    2    1    2    0    0  0.00000000000E+00  0.00000000000E+00 -0.72680563662E+03  0.15736932078E+04  0.13958022349E+04 0.  0.
        1    1    3    3  502    0 -0.11023427336E+03 -0.51395797577E+03 -0.88099999348E+03  0.10258973557E+04  0.50400001928E-02 0.  1.
       -1    1    3    3    0  502  0.11023427336E+03  0.51395797577E+03  0.15419435686E+03  0.54779585212E+03  0.50400001928E-02 0. -1.
</event>
<event>
 5   0  0.1120053E-03  0.1401357E+04  0.7818609E-02  0.8952837E-01
        2   -1    0    0  501    0  0.00000000000E+00  0.00000000000E+00  0.13667166489E+04  0.13667166489E+04  0.25500000920E-02 0.  1.
       -2   -1    0    0    0  501  0.00000000000E+00  0.00000000000E+00 -0.35921900996E+03  0.35921900997E+03  0.25500000920E-02 0. -1.
    10030    2    1    2    0    0  0.00000000000E+00  0.00000000000E+00  0.10074976390E+04  0.17259356589E+04  0.14013573442E+04 0.  0.
        2    1    3    3  502    0  0.44546820353E+03 -0.41048613875E+03  0.93746310862E+03  0.11161441979E+04  0.25500000920E-02 0.  1.
       -2    1    3    3    0  502 -0.44546820353E+03  0.41048613875E+03  0.70034530336E+02  0.60979146100E+03  0.25500000920E-02 0. -1.
</event>
<event>
 5   0  0.5875298E-04  0.1389414E+04  0.7818609E-02  0.8961517E-01
       -1   -1    0    0    0  501  0.00000000000E+00  0.00000000000E+00  0.87830931466E+03  0.87830931467E+03  0.50400001928E-02 0.  1.
        1   -1    0    0  501    0  0.00000000000E+00  0.00000000000E+00 -0.54948527286E+03  0.54948527288E+03  0.50400001928E-02 0. -1.
    10030    2    1    2    0    0  0.00000000000E+00  0.00000000000E+00  0.32882404180E+03  0.14277945876E+04  0.13894143132E+04 0.  0.
        1    1    3    3  502    0  0.66341887458E+03  0.15219472266E+03  0.30728565751E+03  0.74680138731E+03  0.50400001928E-02 0.  1.
       -1    1    3    3    0  502 -0.66341887458E+03 -0.15219472266E+03  0.21538384297E+02  0.68099320024E+03  0.50400001928E-02 0. -1.
</event>
<event>
 5   0  0.4176125E-04  0.1403192E+04  0.7818609E-02  0.8951511E-01
        4   -1    0    0  501    0  0.00000000000E+00  0.00000000000E+00  0.49356406389E+03  0.49356569782E+03  0.12699999809E+01 0.  1.
       -4   -1    0    0    0  501  0.00000000000E+00  0.00000000000E+00 -0.99730805113E+03  0.99730885976E+03  0.12699999809E+01 0. -1.
    10030    2    1    2    0    0  0.00000000000E+00  0.00000000000E+00 -0.50374398724E+03  0.14908745576E+04  0.14031924108E+04 0.  0.
        2    1    3    3  502    0 -0.27907373144E+03 -0.63180791563E+03 -0.12099246967E+03  0.70121506512E+03  0.25500000920E-02 0.  1.
       -2    1    3    3    0  502  0.27907373144E+03  0.63180791563E+03 -0.38275151757E+03  0.78965949246E+03  0.25500000920E-02 0. -1.
</event>
<event>
 5   0  0.6114266E-04  0.1380990E+04  0.7818609E-02  0.8967695E-01
       -1   -1    0    0    0  501  0.00000000000E+00  0.00000000000E+00  0.10266497072E+04  0.10266497073E+04  0.50400001928E-02 0. -1.
        1   -1    0    0  501    0  0.00000000000E+00  0.00000000000E+00 -0.46440681817E+03  0.46440681819E+03  0.50400001928E-02 0.  1.
    10030    2    1    2    0    0  0.00000000000E+00  0.00000000000E+00  0.56224288908E+03  0.14910565255E+04  0.13809896798E+04 0.  0.
        3    1    3    3  502    0  0.21290726694E+03 -0.62748417407E+03  0.49080941498E+03  0.82459674088E+03  0.10100000352E+00 0. -1.
       -3    1    3    3    0  502 -0.21290726694E+03  0.62748417407E+03  0.71433474098E+02  0.66645978457E+03  0.10100000352E+00 0.  1.
</event>
<event>
 5   0  0.4176125E-04  0.1379357E+04  0.7818609E-02  0.8968898E-01
        3   -1    0    0  501    0  0.00000000000E+00  0.00000000000E+00  0.47554569197E+03  0.47554570270E+03  0.10100000352E+00 0. -1.
       -3   -1    0    0    0  501  0.00000000000E+00  0.00000000000E+00 -0.10002326222E+04  0.10002326273E+04  0.10100000352E+00 0.  1.
    10030    2    1    2    0    0  0.00000000000E+00  0.00000000000E+00 -0.52468693020E+03  0.14757783300E+04  0.13793568445E+04 0.  0.
        2    1    3    3  502    0 -0.22752813684E+03  0.53519357939E+03 -0.65900942485E+03  0.87891674379E+03  0.25500000920E-02 0.  1.
       -2    1    3    3    0  502  0.22752813684E+03 -0.53519357939E+03  0.13432249465E+03  0.59686158617E+03  0.25500000920E-02 0. -1.
</event>
<event>
 5   0  0.6153318E-04  0.1403016E+04  0.7818609E-02  0.8951638E-01
        1   -1    0    0  501    0  0.00000000000E+00  0.00000000000E+00  0.46712731797E+03  0.46712731800E+03  0.50400001928E-02 0.  1.
       -1   -1    0    0    0  501  0.00000000000E+00  0.00000000000E+00 -0.10534885801E+04  0.10534885801E+04  0.50400001928E-02 0. -1.
    10030    2    1    2    0    0  0.00000000000E+00  0.00000000000E+00 -0.58636126217E+03  0.15206158981E+04  0.14030157447E+04 0.  0.
        5    1    3    3  502    0  0.65675580819E+03  0.84114592467E+02 -0.54430830767E+03  0.85714472527E+03  0.46999998093E+01 0. -1.
       -5    1    3    3    0  502 -0.65675580819E+03 -0.84114592467E+02 -0.42052954497E+02  0.66347117288E+03  0.46999998093E+01 0.  1.
</event>
<event>
 5   0  0.1120053E-03  0.1412797E+04  0.7818609E-02  0.8944607E-01
       -2   -1    0    0    0  501  0.00000000000E+00  0.00000000000E+00  0.20629792759E+03  0.20629792761E+03  0.25500000920E-02 0.  1.
        2   -1    0    0  501    0  0.00000000000E+00  0.00000000000E+00 -0.24188269508E+04  0.24188269508E+04  0.25500000920E-02 0. -1.
    10030    2    1    2    0    0  0.00000000000E+00  0.00000000000E+00 -0.22125290232E+04  0.26251248784E+04  0.14127972072E+04 0.  0.
        2    1    3    3  502    0 -0.12386996856E+02  0.63604913388E+03 -0.16768177323E+04  0.17934407283E+04  0.25500000920E-02 0. -1.
       -2    1    3    3    0  502  0.12386996856E+02 -0.63604913388E+03 -0.53571129088E+03  0.83168415013E+03  0.25500000920E-02 0.  1.
</event>
<event>
 5   0  0.4176125E-04  0.1405222E+04  0.7818609E-02  0.8950048E-01
        3   -1    0    0  501    0  0.00000000000E+00  0.00000000000E+00  0.42690353719E+03  0.42690354914E+03  0.10100000352E+00 0. -1.
       -3   -1    0    0    0  501  0.00000000000E+00  0.00000000000E+00 -0.11563782070E+04  0.11563782114E+04  0.10100000352E+00 0.  1.
    10030    2    1    2    0    0  0.00000000000E+00  0.00000000000E+00 -0.72947466984E+03  0.15832817606E+04  0.14052216336E+04 0.  0.
        4    1    3    3  502    0  0.59691117126E+03  0.21265745565E+03 -0.70673554491E+03  0.94921171672E+03  0.12699999809E+01 0.  1.
       -4    1    3    3    0  502 -0.59691117126E+03 -0.21265745565E+03 -0.22739124929E+02  0.63407004386E+03  0.12699999809E+01 0. -1.
</event>
<event>
 5   0  0.5875298E-04  0.1352863E+04  0.7818609E-02  0.8988664E-01
        1   -1    0    0  501    0  0.00000000000E+00  0.00000000000E+00  0.69598950973E+03  0.69598950975E+03  0.50400001928E-02 0. -1.
       -1   -1    0    0    0  501  0.00000000000E+00  0.00000000000E+00 -0.65742267110E+03  0.65742267112E+03  0.50400001928E-02 0.  1.
    10030    2    1    2    0    0  0.00000000000E+00  0.00000000000E+00  0.38566838631E+02  0.13534121809E+04  0.13528625689E+04 0.  0.
        1    1    3    3  502    0  0.11686365074E+03 -0.65658088610E+03  0.13248286734E+03  0.67993182233E+03  0.50400001928E-02 0. -1.
       -1    1    3    3    0  502 -0.11686365074E+03  0.65658088610E+03 -0.93916028711E+02  0.67348035854E+03  0.50400001928E-02 0.  1.
</event>
<event>
 5   0  0.1120053E-03  0.1282887E+04  0.7818609E-02  0.9043247E-01
       -2   -1    0    0    0  501  0.00000000000E+00  0.00000000000E+00  0.98180583657E+03  0.98180583657E+03  0.25500000920E-02 0.  1.
        2   -1    0    0  501    0  0.00000000000E+00  0.00000000000E+00 -0.41907471549E+03  0.41907471550E+03  0.25500000920E-02 0. -1.
    10030    2    1    2    0    0  0.00000000000E+00  0.00000000000E+00  0.56273112108E+03  0.14008805521E+04  0.12828873709E+04 0.  0.
        2    1    3    3  502    0 -0.13555605451E+03 -0.37802464302E+03 -0.26480949713E+03  0.48104276776E+03  0.25500000920E-02 0. -1.
       -2    1    3    3    0  502  0.13555605451E+03  0.37802464302E+03  0.82754061821E+03  0.91983778430E+03  0.25500000920E-02 0.  1.
</event>
<event>
 5   0  0.6097538E-04  0.1331011E+04  0.7818609E-02  0.9005329E-01
        1   -1    0    0  501    0  0.00000000000E+00  0.00000000000E+00  0.12962977428E+04  0.12962977428E+04  0.50400001928E-02 0. -1.
       -1   -1    0    0    0  501  0.00000000000E+00  0.00000000000E+00 -0.34166328984E+03  0.34166328988E+03  0.50400001928E-02 0.  1.
    10030    2    1    2    0    0  0.00000000000E+00  0.00000000000E+00  0.95463445295E+03  0.16379610327E+04  0.13310106708E+04 0.  0.
        2    1    3    3  502    0 -0.33671134232E+03 -0.41458285831E+03  0.96592523602E+03  0.11037504410E+04  0.25500000920E-02 0. -1.
       -2    1    3    3    0  502  0.33671134232E+03  0.41458285831E+03 -0.11290783070E+02  0.53421059166E+03  0.25500000920E-02 0.  1.
</event>
<event>
 5   0  0.6097538E-04  0.1429835E+04  0.7818609E-02  0.8932501E-01
        1   -1    0    0  501    0  0.00000000000E+00  0.00000000000E+00  0.11629715819E+04  0.11629715819E+04  0.50400001928E-02 0.  1.
       -1   -1    0    0    0  501  0.00000000000E+00  0.00000000000E+00 -0.43948382809E+03  0.43948382812E+03  0.50400001928E-02 0. -1.
    10030    2    1    2    0    0  0.00000000000E+00  0.00000000000E+00  0.72348775381E+03  0.16024554100E+04  0.14298352392E+04 0.  0.
        2    1    3    3  502    0 -0.13396012584E+02  0.53630640666E+03 -0.16785544315E+03  0.56212050734E+03  0.25500000920E-02 0. -1.
       -2    1    3    3    0  502  0.13396012584E+02 -0.53630640666E+03  0.89134319696E+03  0.10403349027E+04  0.25500000920E-02 0.  1.
</event>
<event>
 5   0  0.6194742E-04  0.1469860E+04  0.7818609E-02  0.8904747E-01
       -1   -1    0    0    0  501  0.00000000000E+00  0.00000000000E+00  0.37096380669E+03  0.37096380673E+03  0.50400001928E-02 0. -1.
        1   -1    0    0  501    0  0.00000000000E+00  0.00000000000E+00 -0.14559962234E+04  0.14559962234E+04  0.50400001928E-02 0.  1.
    10030    2    1    2    0    0  0.00000000000E+00  0.00000000000E+00 -0.10850324167E+04  0.18269600301E+04  0.14698597234E+04 0.  0.
        4    1    3    3  502    0 -0.51367934956E+03 -0.17466835939E+03 -0.11586787689E+04  0.12794192480E+04  0.12699999809E+01 0.  1.
       -4    1    3    3    0  502  0.51367934956E+03  0.17466835939E+03  0.73646352181E+02  0.54754078207E+03  0.12699999809E+01 0. -1.
</event>
<event>
 5   0  0.6194742E-04  0.1395598E+04  0.7818609E-02  0.8957011E-01
       -1   -1    0    0    0  501  0.00000000000E+00  0.00000000000E+00  0.79952537868E+03  0.79952537870E+03  0.50400001928E-02 0.  1.
        1   -1    0    0  501    0  0.00000000000E+00  0.00000000000E+00 -0.60901530858E+03  0.60901530860E+03  0.50400001928E-02 0. -1.
    10030    2    1    2    0    0  0.00000000000E+00  0.00000000000E+00  0.19051007010E+03  0.14085406873E+04  0.13955976429E+04 0.  0.
        4    1    3    3  502    0  0.23695389203E+03  0.57487509023E+03 -0.22437282225E+03  0.66103955447E+03  0.12699999809E+01 0.  1.
       -4    1    3    3    0  502 -0.23695389203E+03 -0.57487509023E+03  0.41488289235E+03  0.74750113283E+03  0.12699999809E+01 0. -1.
</event>
<event>
 5   0  0.6153318E-04  0.1395127E+04  0.7818609E-02  0.8957354E-01
       -1   -1    0    0    0  501  0.00000000000E+00  0.00000000000E+00  0.34361926367E+03  0.34361926370E+03  0.50400001928E-02 0.  1.
        1   -1    0    0  501    0  0.00000000000E+00  0.00000000000E+00 -0.14160869654E+04  0.14160869654E+04  0.50400001928E-02 0. -1.
    10030    2    1    2    0    0  0.00000000000E+00  0.00000000000E+00 -0.10724677017E+04  0.17597062291E+04  0.13951268908E+04 0.  0.
        5    1    3    3  502    0  0.39337351989E+03 -0.25070881651E+03  0.11792383262E+03  0.48117123472E+03  0.46999998093E+01 0.  1.
       -5    1    3    3    0  502 -0.39337351989E+03  0.25070881651E+03 -0.11903915344E+04  0.12785349944E+04  0.46999998093E+01 0. -1.
</event>
<event>
 5   0  0.6114266E-04  0.1413476E+04  0.7818609E-02  0.8944121E-01
       -1   -1    0    0    0  501  0.00000000000E+00  0.00000000000E+00  0.47053034677E+03  0.47053034679E+03  0.50400001928E-02 0.  1.
        1   -1    0    0  501    0  0.00000000000E+00  0.00000000000E+00 -0.10615225372E+04  0.10615225372E+04  0.50400001928E-02 0. -1.
    10030    2    1    2    0    0  0.00000000000E+00  0.00000000000E+00 -0.59099219043E+03  0.15320528840E+04  0.14134759532E+04 0.  0.
        3    1    3    3  502    0 -0.18647410392E+02  0.64273079372E+03 -0.61340679138E+03  0.88866107208E+03  0.10100000352E+00 0. -1.
       -3    1    3    3    0  502  0.18647410392E+02 -0.64273079372E+03  0.22414600955E+02  0.64339181192E+03  0.10100000352E+00 0.  1.
</event>
<event>
 5   0  0.1095119E-03  0.1403150E+04  0.7818609E-02  0.8951542E-01
        2   -1    0    0  501    0  0.00000000000E+00  0.00000000000E+00  0.60092400337E+03  0.60092400338E+03  0.25500000920E-02 0. -1.
       -2   -1    0    0    0  501  0.00000000000E+00  0.00000000000E+00 -0.81908424597E+03  0.81908424598E+03  0.25500000920E-02 0.  1.
    10030    2    1    2    0    0  0.00000000000E+00  0.00000000000E+00 -0.21816024260E+03  0.14200082494E+04  0.14031498626E+04 0.  0.
        5    1    3    3  502    0  0.16222298727E+03 -0.12529133673E+03 -0.78808923568E+03  0.81432238705E+03  0.46999998093E+01 0.  1.
       -5    1    3    3    0  502 -0.16222298727E+03  0.12529133673E+03  0.56992899307E+03  0.60568586231E+03  0.46999998093E+01 0. -1.
</event>
<event>
 5   0  0.6153318E-04  0.1407717E+04  0.7818609E-02  0.8948251E-01
        1   -1    0    0  501    0  0.00000000000E+00  0.00000000000E+00  0.72752950160E+03  0.72752950162E+03  0.50400001928E-02 0. -1.
       -1   -1    0    0    0  501  0.00000000000E+00  0.00000000000E+00 -0.68095787144E+03  0.68095787146E+03  0.50400001928E-02 0.  1.
    10030    2    1    2    0    0  0.00000000000E+00  0.00000000000E+00  0.46571630167E+02  0.14084873731E+04  0.14077172171E+04 0.  0.
        5    1    3    3  502    0 -0.76261750831E+02 -0.60023340381E+03  0.38306404337E+03  0.71613975243E+03  0.46999998093E+01 0.  1.
       -5    1    3    3    0  502  0.76261750831E+02  0.60023340381E+03 -0.33649241320E+03  0.69234762065E+03  0.46999998093E+01 0. -1.
</event>
<event>
 5   0  0.1175146E-03  0.1368200E+04  0.7818609E-02  0.8977164E-01
        2   -1    0    0  501    0  0.00000000000E+00  0.00000000000E+00  0.20784776315E+04  0.20784776315E+04  0.25500000920E-02 0. -1.
       -2   -1    0    0    0  501  0.00000000000E+00  0.00000000000E+00 -0.22516133795E+03  0.22516133797E+03  0.25500000920E-02 0.  1.
    10030    2    1    2    0    0  0.00000000000E+00  0.00000000000E+00  0.18533162936E+04  0.23036389695E+04  0.13681999919E+04 0.  0.
        1    1    3    3  502    0 -0.47118080008E+03 -0.10019408809E+03  0.10881877136E+03  0.49385395278E+03  0.50400001928E-02 0.  1.
       -1    1    3    3    0  502  0.47118080008E+03  0.10019408809E+03  0.17444975222E+04  0.18097850167E+04  0.50400001928E-02 0. -1.
</event>
<event>
 5   0  0.6114266E-04  0.1396705E+04  0.7818609E-02  0.8956207E-01
       -1   -1    0    0    0  501  0.00000000000E+00  0.00000000000E+00  0.60840961777E+03  0.60840961779E+03  0.50400001928E-02 0.  1.
        1   -1    0    0  501    0  0.00000000000E+00  0.00000000000E+00 -0.80159141584E+03  0.80159141586E+03  0.50400001928E-02 0. -1.
    10030    2    1    2    0    0  0.00000000000E+00  0.00000000000E+00 -0.19318179807E+03  0.14100010337E+04  0.13967045886E+04 0.  0.
        3    1    3    3  502    0  0.18258642031E+03 -0.26080215731E+01 -0.77706369144E+03  0.79823091485E+03  0.10100000352E+00 0. -1.
       -3    1    3    3    0  502 -0.18258642031E+03  0.26080215731E+01  0.58388189337E+03  0.61177011881E+03  0.10100000352E+00 0.  1.
</event>
<event>
 5   0  0.6194742E-04  0.1400807E+04  0.7818609E-02  0.8953235E-01
       -1   -1    0    0    0  501  0.00000000000E+00  0.00000000000E+00  0.49235961048E+03  0.49235961051E+03  0.50400001928E-02 0.  1.
        1   -1    0    0  501    0  0.00000000000E+00  0.00000000000E+00 -0.99635504015E+03  0.99635504016E+03  0.50400001928E-02 0. -1.
    10030    2    1    2    0    0  0.00000000000E+00  0.00000000000E+00 -0.50399542967E+03  0.14887146507E+04  0.14008068811E+04 0.  0.
        4    1    3    3  502    0  0.16064352614E+03  0.67889289741E+03 -0.31803798648E+03  0.76671486381E+03  0.12699999809E+01 0.  1.
       -4    1    3    3    0  502 -0.16064352614E+03 -0.67889289741E+03 -0.18595744319E+03  0.72199978686E+03  0.12699999809E+01 0. -1.
</event>
<event>
 5   0  0.1175146E-03  0.1415410E+04  0.7818609E-02  0.8942739E-01
       -2   -1    0    0    0  501  0.00000000000E+00  0.00000000000E+00  0.76734913132E+03  0.76734913132E+03  0.25500000920E-02 0.  1.
        2   -1    0    0  501    0  0.00000000000E+00  0.00000000000E+00 -0.65269650969E+03  0.65269650969E+03  0.25500000920E-02 0. -1.
    10030    2    1    2    0    0  0.00000000000E+00  0.00000000000E+00  0.11465262163E+03  0.14200456410E+04  0.14154096223E+04 0.  0.
        1    1    3    3  502    0  0.51265764860E+03  0.94199307682E+02  0.53759532516E+03  0.74879911050E+03  0.50400001928E-02 0.  1.
       -1    1    3    3    0  502 -0.51265764860E+03 -0.94199307682E+02 -0.42294270352E+03  0.67124653051E+03  0.50400001928E-02 0. -1.
</event>
<event>
 5   0  0.1108819E-03  0.1400256E+04  0.7818609E-02  0.8953633E-01
        2   -1    0    0  501    0  0.00000000000E+00  0.00000000000E+00  0.58282890979E+03  0.58282890980E+03  0.25500000920E-02 0. -1.
       -2   -1    0    0    0  501  0.00000000000E+00  0.00000000000E+00 -0.84103482523E+03  0.84103482523E+03  0.25500000920E-02 0.  1.
    10030    2    1    2    0    0  0.00000000000E+00  0.00000000000E+00 -0.25820591543E+03  0.14238637350E+04  0.14002562770E+04 0.  0.
        3    1    3    3  502    0  0.50527859850E+03 -0.46478513567E+03 -0.26870451446E+03  0.73724745556E+03  0.10100000352E+00 0.  1.
       -3    1    3    3    0  502 -0.50527859850E+03  0.46478513567E+03  0.10498599030E+02  0.68661627946E+03  0.10100000352E+00 0. -1.
</event>
<event>
 5   0  0.1175146E-03  0.1410258E+04  0.7818609E-02  0.8946427E-01
        2   -1    0    0  501    0  0.00000000000E+00  0.00000000000E+00  0.62737692428E+03  0.62737692429E+03  0.25500000920E-02 0.  1.
       -2   -1    0    0    0  501  0.00000000000E+00  0.00000000000E+00 -0.79251654470E+03  0.79251654470E+03  0.25500000920E-02 0. -1.
    10030    2    1    2    0    0  0.00000000000E+00  0.00000000000E+00 -0.16513962041E+03  0.14198934690E+04  0.14102575542E+04 0.  0.
        1    1    3    3  502    0  0.44685243402E+03  0.53331236145E+03  0.32700092811E+02  0.69654035687E+03  0.50400001928E-02 0.  1.
       -1    1    3    3    0  502 -0.44685243402E+03 -0.53331236145E+03 -0.19783971322E+03  0.72335311212E+03  0.50400001928E-02 0. -1.
</event>
<event>
 5   0  0.1108819E-03  0.1397280E+04  0.7818609E-02  0.8955790E-01
       -2   -1    0    0    0  501  0.00000000000E+00  0.00000000000E+00  0.20752159209E+03  0.20752159211E+03  0.25500000920E-02 0.  1.
        2   -1    0    0  501    0  0.00000000000E+00  0.00000000000E+00 -0.23520342730E+04  0.23520342730E+04  0.25500000920E-02 0. -1.
    10030    2    1    2    0    0  0.00000000000E+00  0.00000000000E+00 -0.21445126809E+04  0.25595558651E+04  0.13972800679E+04 0.  0.
        3    1    3    3  502    0 -0.12260214888E+03 -0.68252047801E+03 -0.91647254608E+03  0.11492551622E+04  0.10100000352E+00 0. -1.
       -3    1    3    3    0  502  0.12260214888E+03  0.68252047801E+03 -0.12280401348E+04  0.14103007030E+04  0.10100000352E+00 0.  1.
</event>
<event>
 5   0  0.1120053E-03  0.1398024E+04  0.7818609E-02  0.8955250E-01
        2   -1    0    0  501    0  0.00000000000E+00  0.00000000000E+00  0.56523400697E+03  0.56523400698E+03  0.25500000920E-02 0. -1.
       -2   -1    0    0    0  501  0.00000000000E+00  0.00000000000E+00 -0.86445204365E+03  0.86445204366E+03  0.25500000920E-02 0.  1.
    10030    2    1    2    0    0  0.00000000000E+00  0.00000000000E+00 -0.29921803668E+03  0.14296860506E+04  0.13980238803E+04 0.  0.
        2    1    3    3  502    0  0.33956328251E+03 -0.50243313478E+03 -0.50515443008E+03  0.78925488658E+03  0.25500000920E-02 0.  1.
       -2    1    3    3    0  502 -0.33956328251E+03  0.50243313478E+03  0.20593639340E+03  0.64043116405E+03  0.25500000920E-02 0. -1.
</event>
<event>
 5   0  0.1175146E-03  0.1408680E+04  0.7818609E-02  0.8947560E-01
        2   -1    0    0  501    0  0.00000000000E+00  0.00000000000E+00  0.17703227590E+04  0.17703227590E+04  0.25500000920E-02 0.  1.
       -2   -1    0    0    0  501  0.00000000000E+00  0.00000000000E+00 -0.28022838162E+03  0.28022838164E+03  0.25500000920E-02 0. -1.
    10030    2    1    2    0    0  0.00000000000E+00  0.00000000000E+00  0.14900943774E+04  0.20505511407E+04  0.14086797815E+04 0.  0.
        1    1    3    3  502    0  0.72464634135E+02 -0.13762660936E+03 -0.25491700958E+03  0.29862164792E+03  0.50400001928E-02 0. -1.
       -1    1    3    3    0  502 -0.72464634135E+02  0.13762660936E+03  0.17450113870E+04  0.17519294928E+04  0.50400001928E-02 0.  1.
</event>
<event>
 5   0  0.6153318E-04  0.1394922E+04  0.7818609E-02  0.8957502E-01
       -1   -1    0    0    0  501  0.00000000000E+00  0.00000000000E+00  0.50591583539E+03  0.50591583541E+03  0.50400001928E-02 0. -1.
        1   -1    0    0  501    0  0.00000000000E+00  0.00000000000E+00 -0.96152787766E+03  0.96152787768E+03  0.50400001928E-02 0.  1.
    10030    2    1    2    0    0  0.00000000000E+00  0.00000000000E+00 -0.45561204227E+03  0.14674437131E+04  0.13949224774E+04 0.  0.
        5    1    3    3  502    0 -0.22238369814E+03 -0.44235820344E+03 -0.74456182264E+03  0.89416423943E+03  0.46999998093E+01 0.  1.
       -5    1    3    3    0  502  0.22238369814E+03  0.44235820344E+03  0.28894978036E+03  0.57327947366E+03  0.46999998093E+01 0. -1.
</event>
<event>
 5   0  0.6153318E-04  0.1397918E+04  0.7818609E-02  0.8955327E-01
       -1   -1    0    0    0  501  0.00000000000E+00  0.00000000000E+00  0.37573400002E+03  0.37573400005E+03  0.50400001928E-02 0.  1.
        1   -1    0    0  501    0  0.00000000000E+00  0.00000000000E+00 -0.13002377539E+04  0.13002377539E+04  0.50400001928E-02 0. -1.
    10030    2    1    2    0    0  0.00000000000E+00  0.00000000000E+00 -0.92450375385E+03  0.16759717539E+04  0.13979177834E+04 0.  0.
        5    1    3    3  502    0 -0.60886361847E+03 -0.32367217996E+03 -0.59917330491E+03  0.91351481942E+03  0.46999998093E+01 0. -1.
       -5    1    3    3    0  502  0.60886361847E+03  0.32367217996E+03 -0.32533044894E+03  0.76245693451E+03  0.46999998093E+01 0.  1.
</event>
<event>
 5   0  0.1120053E-03  0.1402430E+04  0.7818609E-02  0.8952062E-01
        2   -1    0    0  501    0  0.00000000000E+00  0.00000000000E+00  0.13069465827E+04  0.13069465827E+04  0.25500000920E-02 0.  1.
       -2   -1    0    0    0  501  0.00000000000E+00  0.00000000000E+00 -0.37622223642E+03  0.37622223643E+03  0.25500000920E-02 0. -1.
    10030    2    1    2    0    0  0.00000000000E+00  0.00000000000E+00  0.93072434627E+03  0.16831688191E+04  0.14024298431E+04 0.  0.
        2    1    3    3  502    0  0.10456068276E+03 -0.67122346115E+03  0.25669468154E+03  0.72619971820E+03  0.25500000920E-02 0. -1.
       -2    1    3    3    0  502 -0.10456068276E+03  0.67122346115E+03  0.67402966473E+03  0.95696910093E+03  0.25500000920E-02 0.  1.
</event>
<event>
 5   0  0.6114266E-04  0.1414409E+04  0.7818609E-02  0.8943454E-01
       -1   -1    0    0    0  501  0.00000000000E+00  0.00000000000E+00  0.45075849787E+03  0.45075849790E+03  0.50400001928E-02 0.  1.
        1   -1    0    0  501    0  0.00000000000E+00  0.00000000000E+00 -0.11095487716E+04  0.11095487716E+04  0.50400001928E-02 0. -1.
    10030    2    1    2    0    0  0.00000000000E+00  0.00000000000E+00 -0.65879027376E+03  0.15603072695E+04  0.14144094706E+04 0.  0.
        3    1    3    3  502    0 -0.14325820862E+03 -0.68162380069E+03 -0.46452374245E+03  0.83720740411E+03  0.10100000352E+00 0. -1.
       -3    1    3    3    0  502  0.14325820862E+03  0.68162380069E+03 -0.19426653132E+03  0.72309986544E+03  0.10100000352E+00 0.  1.
</event>
<event>
 5   0  0.6153318E-04  0.1398434E+04  0.7818609E-02  0.8954953E-01
       -1   -1    0    0    0  501  0.00000000000E+00  0.00000000000E+00  0.68094820658E+03  0.68094820660E+03  0.50400001928E-02 0. -1.
        1   -1    0    0  501    0  0.00000000000E+00  0.00000000000E+00 -0.71797607839E+03  0.71797607841E+03  0.50400001928E-02 0.  1.
    10030    2    1    2    0    0  0.00000000000E+00  0.00000000000E+00 -0.37027871814E+02  0.13989242850E+04  0.13984341572E+04 0.  0.
        5    1    3    3  502    0  0.67307686012E+03  0.13515519766E+03 -0.15116148837E+03  0.70297316638E+03  0.46999998093E+01 0.  1.
       -5    1    3    3    0  502 -0.67307686012E+03 -0.13515519766E+03  0.11413361655E+03  0.69595111863E+03  0.46999998093E+01 0. -1.
</event>
<event>
 5   0  0.4176125E-04  0.1394067E+04  0.7818609E-02  0.8958124E-01
       -4   -1    0    0    0  501  0.00000000000E+00  0.00000000000E+00  0.11804116962E+04  0.11804123794E+04  0.12699999809E+01 0. -1.
        4   -1    0    0  501    0  0.00000000000E+00  0.00000000000E+00 -0.41159698621E+03  0.41159894553E+03  0.12699999809E+01 0.  1.
    10030    2    1    2    0    0  0.00000000000E+00  0.00000000000E+00  0.76881471001E+03  0.15920113249E+04  0.13940674304E+04 0.  0.
        4    1    3    3  502    0  0.11208070239E+03 -0.54677747057E+03 -0.92401517000E+02  0.56574494201E+03  0.12699999809E+01 0.  1.
       -4    1    3    3    0  502 -0.11208070239E+03  0.54677747057E+03  0.86121622701E+03  0.10262663829E+04  0.12699999809E+01 0. -1.
</event>
<event>
 5   0  0.1108819E-03  0.1480988E+04  0.7818609E-02  0.8897195E-01
       -2   -1    0    0    0  501  0.00000000000E+00  0.00000000000E+00  0.11165838124E+04  0.11165838124E+04  0.25500000920E-02 0. -1.
        2   -1    0    0  501    0  0.00000000000E+00  0.00000000000E+00 -0.49107916820E+03  0.49107916821E+03  0.25500000920E-02 0.  1.
    10030    2    1    2    0    0  0.00000000000E+00  0.00000000000E+00  0.62550464419E+03  0.16076629806E+04  0.14809875757E+04 0.  0.
        3    1    3    3  502    0 -0.20579901919E+03 -0.10615867493E+01  0.10849150691E+04  0.11042622337E+04  0.10100000352E+00 0. -1.
       -3    1    3    3    0  502  0.20579901919E+03  0.10615867493E+01 -0.45941042494E+03  0.50340074693E+03  0.10100000352E+00 0.  1.
</event>
<event>
 5   0  0.6153318E-04  0.1393758E+04  0.7818609E-02  0.8958349E-01
        1   -1    0    0  501    0  0.00000000000E+00  0.00000000000E+00  0.69014484407E+03  0.69014484409E+03  0.50400001928E-02 0.  1.
       -1   -1    0    0    0  501  0.00000000000E+00  0.00000000000E+00 -0.70367896542E+03  0.70367896543E+03  0.50400001928E-02 0. -1.
    10030    2    1    2    0    0  0.00000000000E+00  0.00000000000E+00 -0.13534121350E+02  0.13938238095E+04  0.13937580994E+04 0.  0.
        5    1    3    3  502    0  0.36125973683E+03  0.58701620983E+03 -0.10934719505E+03  0.69790796465E+03  0.46999998093E+01 0. -1.
       -5    1    3    3    0  502 -0.36125973683E+03 -0.58701620983E+03  0.95813073696E+02  0.69591584487E+03  0.46999998093E+01 0.  1.
</event>
<event>
 5   0  0.1120053E-03  0.1432437E+04  0.7818609E-02  0.8930668E-01
        2   -1    0    0  501    0  0.00000000000E+00  0.00000000000E+00  0.50473347073E+03  0.50473347074E+03  0.25500000920E-02 0. -1.
       -2   -1    0    0    0  501  0.00000000000E+00  0.00000000000E+00 -0.10163170398E+04  0.10163170398E+04  0.25500000920E-02 0.  1.
    10030    2    1    2    0    0  0.00000000000E+00  0.00000000000E+00 -0.51158356908E+03  0.15210505106E+04  0.14324374009E+04 0.  0.
        2    1    3    3  502    0 -0.47503147415E+03 -0.24258887904E+03 -0.76334056199E+03  0.93123202225E+03  0.25500000920E-02 0.  1.
       -2    1    3    3    0  502  0.47503147415E+03  0.24258887904E+03  0.25175699291E+03  0.58981848831E+03  0.25500000920E-02 0. -1.
</event>
<event>
 5   0  0.5875298E-04  0.1415293E+04  0.7818609E-02  0.8942823E-01
        1   -1    0    0  501    0  0.00000000000E+00  0.00000000000E+00  0.46645986399E+03  0.46645986401E+03  0.50400001928E-02 0. -1.
       -1   -1    0    0    0  501  0.00000000000E+00  0.00000000000E+00 -0.10735399074E+04  0.10735399074E+04  0.50400001928E-02 0.  1.
    10030    2    1    2    0    0  0.00000000000E+00  0.00000000000E+00 -0.60708004344E+03  0.15399997714E+04  0.14152925906E+04 0.  0.
        1    1    3    3  502    0  0.40444950452E+03  0.36355019715E+03  0.18914275632E+03  0.57578045282E+03  0.50400001928E-02 0. -1.
       -1    1    3    3    0  502 -0.40444950452E+03 -0.36355019715E+03 -0.79622279975E+03  0.96421931863E+03  0.50400001928E-02 0.  1.
</event>
<event>
 5   0  0.4176125E-04  0.1407364E+04  0.7818609E-02  0.8948506E-01
        3   -1    0    0  501    0  0.00000000000E+00  0.00000000000E+00  0.70757315571E+03  0.70757316292E+03  0.10100000352E+00 0.  1.
       -3   -1    0    0    0  501  0.00000000000E+00  0.00000000000E+00 -0.69981192712E+03  0.69981193441E+03  0.10100000352E+00 0. -1.
    10030    2    1    2    0    0  0.00000000000E+00  0.00000000000E+00  0.77612285935E+01  0.14073850973E+04  0.14073636970E+04 0.  0.
        3    1    3    3  502    0  0.18786177067E+03  0.57570282406E+03 -0.35451337754E+03  0.70171613318E+03  0.10100000352E+00 0. -1.
       -3    1    3    3    0  502 -0.18786177067E+03 -0.57570282406E+03  0.36227460613E+03  0.70566896415E+03  0.10100000352E+00 0.  1.
</event>
<event>
 5   0  0.1108819E-03  0.1385432E+04  0.7818609E-02  0.8964431E-01
        2   -1    0    0  501    0  0.00000000000E+00  0.00000000000E+00  0.10915111880E+04  0.10915111880E+04  0.25500000920E-02 0.  1.
       -2   -1    0    0    0  501  0.00000000000E+00  0.00000000000E+00 -0.43962503746E+03  0.43962503747E+03  0.25500000920E-02 0. -1.
    10030    2    1    2    0    0  0.00000000000E+00  0.00000000000E+00  0.65188615055E+03  0.15311362255E+04  0.13854322747E+04 0.  0.
        3    1    3    3  502    0  0.11098144528E+03 -0.41421680995E+02 -0.42834804480E+03  0.44442625321E+03  0.10100000352E+00 0. -1.
       -3    1    3    3    0  502 -0.11098144528E+03  0.41421680995E+02  0.10802341954E+04  0.10867099723E+04  0.10100000352E+00 0.  1.
</event>
<event>
 5   0  0.6097538E-04  0.1377678E+04  0.7818609E-02  0.8970137E-01
       -1   -1    0    0    0  501  0.00000000000E+00  0.00000000000E+00  0.25549536323E+03  0.25549536328E+03  0.50400001928E-02 0. -1.
        1   -1    0    0  501    0  0.00000000000E+00  0.00000000000E+00 -0.18571725773E+04  0.18571725773E+04  0.50400001928E-02 0.  1.
    10030    2    1    2    0    0  0.00000000000E+00  0.00000000000E+00 -0.16016772141E+04  0.21126679406E+04  0.13776777305E+04 0.  0.
        2    1    3    3  502    0  0.27426335188E+03  0.58382729810E+02  0.16401167538E+03  0.32485190317E+03  0.25500000920E-02 0. -1.
       -2    1    3    3    0  502 -0.27426335188E+03 -0.58382729810E+02 -0.17656888895E+04  0.17878160374E+04  0.25500000920E-02 0.  1.
</event>
<event>
 5   0  0.6114266E-04  0.1410724E+04  0.7818609E-02  0.8946092E-01
        1   -1    0    0  501    0  0.00000000000E+00  0.00000000000E+00  0.17773421120E+04  0.17773421120E+04  0.50400001928E-02 0.  1.
       -1   -1    0    0    0  501  0.00000000000E+00  0.00000000000E+00 -0.27993254618E+03  0.27993254623E+03  0.50400001928E-02 0. -1.
    10030    2    1    2    0    0  0.00000000000E+00  0.00000000000E+00  0.14974095658E+04  0.20572746582E+04  0.14107244988E+04 0.  0.
        3    1    3    3  502    0  0.26227030372E+03 -0.11903977744E+03 -0.19027034955E+03  0.34519414385E+03  0.10100000352E+00 0. -1.
       -3    1    3    3    0  502 -0.26227030372E+03  0.11903977744E+03  0.16876799154E+04  0.17120805144E+04  0.10100000352E+00 0.  1.
</event>
<event>
 5   0  0.6153318E-04  0.1254647E+04  0.7818609E-02  0.9066325E-01
       -1   -1    0    0    0  501  0.00000000000E+00  0.00000000000E+00  0.29024106116E+03  0.29024106121E+03  0.50400001928E-02 0.  1.
        1   -1    0    0  501    0  0.00000000000E+00  0.00000000000E+00 -0.13558884986E+04  0.13558884987E+04  0.50400001928E-02 0. -1.
    10030    2    1    2    0    0  0.00000000000E+00  0.00000000000E+00 -0.10656474375E+04  0.16461295599E+04  0.12546465904E+04 0.  0.
        5    1    3    3  502    0  0.14714864349E+03  0.60971399601E+03 -0.54649315171E+03  0.83191389884E+03  0.46999998093E+01 0. -1.
       -5    1    3    3    0  502 -0.14714864349E+03 -0.60971399601E+03 -0.51915428577E+03  0.81421566102E+03  0.46999998093E+01 0.  1.
</event>
<event>
 5   0  0.6097538E-04  0.1402425E+04  0.7818609E-02  0.8952065E-01
        1   -1    0    0  501    0  0.00000000000E+00  0.00000000000E+00  0.77573150695E+03  0.77573150696E+03  0.50400001928E-02 0.  1.
       -1   -1    0    0    0  501  0.00000000000E+00  0.00000000000E+00 -0.63385243603E+03  0.63385243605E+03  0.50400001928E-02 0. -1.
    10030    2    1    2    0    0  0.00000000000E+00  0.00000000000E+00  0.14187907092E+03  0.14095839430E+04  0.14024254781E+04 0.  0.
        2    1    3    3  502    0  0.49604193785E+03 -0.62401336539E+02 -0.42324868946E+03  0.65505036757E+03  0.25500000920E-02 0. -1.
       -2    1    3    3    0  502 -0.49604193785E+03  0.62401336539E+02  0.56512776039E+03  0.75453357545E+03  0.25500000920E-02 0.  1.
</event>
<event>
 5   0  0.1098949E-03  0.1408932E+04  0.7818609E-02  0.8947378E-01
        2   -1    0    0  501    0  0.00000000000E+00  0.00000000000E+00  0.69606372180E+03  0.69606372180E+03  0.25500000920E-02 0. -1.
       -2   -1    0    0    0  501  0.00000000000E+00  0.00000000000E+00 -0.71296983942E+03  0.71296983942E+03  0.25500000920E-02 0.  1.
    10030    2    1    2    0    0  0.00000000000E+00  0.00000000000E+00 -0.16906117622E+02  0.14090335612E+04  0.14089321346E+04 0.  0.
        4    1    3    3  502    0  0.17471446874E+03  0.13861343608E+03  0.65982554274E+03  0.69649852118E+03  0.12699999809E+01 0. -1.
       -4    1    3    3    0  502 -0.17471446874E+03 -0.13861343608E+03 -0.67673166037E+03  0.71253504005E+03  0.12699999809E+01 0.  1.
</event>
<event>
 5   0  0.6194742E-04  0.1417616E+04  0.7818609E-02  0.8941165E-01
       -1   -1    0    0    0  501  0.00000000000E+00  0.00000000000E+00  0.16457257180E+04  0.16457257180E+04  0.50400001928E-02 0. -1.
        1   -1    0    0  501    0  0.00000000000E+00  0.00000000000E+00 -0.30528095726E+03  0.30528095730E+03  0.50400001928E-02 0.  1.
    10030    2    1    2    0    0  0.00000000000E+00  0.00000000000E+00  0.13404447608E+04  0.19510066753E+04  0.14176159178E+04 0.  0.
        4    1    3    3  502    0 -0.61826783702E+03 -0.23914073602E+03  0.10155611156E+04  0.12127693112E+04  0.12699999809E+01 0.  1.
       -4    1    3    3    0  502  0.61826783702E+03  0.23914073602E+03  0.32488364518E+03  0.73823736408E+03  0.12699999809E+01 0. -1.
</event>
<event>
 5   0  0.6153318E-04  0.1421874E+04  0.7818609E-02  0.8938136E-01
       -1   -1    0    0    0  501  0.00000000000E+00  0.00000000000E+00  0.25952018900E+03  0.25952018905E+03  0.50400001928E-02 0. -1.
        1   -1    0    0  501    0  0.00000000000E+00  0.00000000000E+00 -0.19475598390E+04  0.19475598390E+04  0.50400001928E-02 0.  1.
    10030    2    1    2    0    0  0.00000000000E+00  0.00000000000E+00 -0.16880396500E+04  0.22070800281E+04  0.14218735493E+04 0.  0.
        5    1    3    3  502    0 -0.24246956831E+03  0.59950989576E+03 -0.13024031358E+04  0.14541250375E+04  0.46999998093E+01 0.  1.
       -5    1    3    3    0  502  0.24246956831E+03 -0.59950989576E+03 -0.38563651424E+03  0.75295499054E+03  0.46999998093E+01 0. -1.
</event>
<event>
 5   0  0.4176125E-04  0.1377419E+04  0.7818609E-02  0.8970328E-01
        4   -1    0    0  501    0  0.00000000000E+00  0.00000000000E+00  0.54265413294E+03  0.54265561906E+03  0.12699999809E+01 0. -1.
       -4   -1    0    0    0  501  0.00000000000E+00  0.00000000000E+00 -0.87407222379E+03  0.87407314642E+03  0.12699999809E+01 0.  1.
    10030    2    1    2    0    0  0.00000000000E+00  0.00000000000E+00 -0.33141809085E+03  0.14167287655E+04  0.13774187613E+04 0.  0.
        5    1    3    3  502    0 -0.50991898532E+03  0.17204192665E+03  0.27630274571E+03  0.60496371246E+03  0.46999998093E+01 0. -1.
       -5    1    3    3    0  502  0.50991898532E+03 -0.17204192665E+03 -0.60772083656E+03  0.81176505302E+03  0.46999998093E+01 0.  1.
</event>
<event>
 5   0  0.1175146E-03  0.1394036E+04  0.7818609E-02  0.8958147E-01
       -2   -1    0    0    0  501  0.00000000000E+00  0.00000000000E+00  0.34049225412E+03  0.34049225413E+03  0.25500000920E-02 0. -1.
        2   -1    0    0  501    0  0.00000000000E+00  0.00000000000E+00 -0.14268578759E+04  0.14268578759E+04  0.25500000920E-02 0.  1.
    10030    2    1    2    0    0  0.00000000000E+00  0.00000000000E+00 -0.10863656218E+04  0.17673501301E+04  0.13940359457E+04 0.  0.
        1    1    3    3  502    0 -0.62891861711E+02  0.65992077826E+03 -0.81622461177E+03  0.10515100745E+04  0.50400001928E-02 0.  1.
       -1    1    3    3    0  502  0.62891861711E+02 -0.65992077826E+03 -0.27014101003E+03  0.71584005558E+03  0.50400001928E-02 0. -1.
</event>
<event>
 5   0  0.1108819E-03  0.1399267E+04  0.7818609E-02  0.8954349E-01
       -2   -1    0    0    0  501  0.00000000000E+00  0.00000000000E+00  0.45140538096E+03  0.45140538096E+03  0.25500000920E-02 0. -1.
        2   -1    0    0  501    0  0.00000000000E+00  0.00000000000E+00 -0.10843620163E+04  0.10843620163E+04  0.25500000920E-02 0.  1.
    10030    2    1    2    0    0  0.00000000000E+00  0.00000000000E+00 -0.63295663535E+03  0.15357673973E+04  0.13992667352E+04 0.  0.
        3    1    3    3  502    0  0.15199510031E+01 -0.25180896309E+03  0.39994360152E+03  0.47261502171E+03  0.10100000352E+00 0. -1.
       -3    1    3    3    0  502 -0.15199510031E+01  0.25180896309E+03 -0.10329002369E+04  0.10631523756E+04  0.10100000352E+00 0.  1.
</event>
<event>
 5   0  0.1108819E-03  0.1405371E+04  0.7818609E-02  0.8949940E-01
        2   -1    0    0  501    0  0.00000000000E+00  0.00000000000E+00  0.40588260351E+03  0.40588260352E+03  0.25500000920E-02 0. -1.
       -2   -1    0    0    0  501  0.00000000000E+00  0.00000000000E+00 -0.12165258178E+04  0.12165258178E+04  0.25500000920E-02 0.  1.
    10030    2    1    2    0    0  0.00000000000E+00  0.00000000000E+00 -0.81064321424E+03  0.16224084213E+04  0.14053706503E+04 0.  0.
        3    1    3    3  502    0 -0.42893953789E+03 -0.13429059986E+03  0.21822648414E+03  0.49964577548E+03  0.10100000352E+00 0. -1.
       -3    1    3    3    0  502  0.42893953789E+03  0.13429059986E+03 -0.10288696984E+04  0.11227626458E+04  0.10100000352E+00 0.  1.
</event>
<event>
 5   0  0.6194742E-04  0.1397796E+04  0.7818609E-02  0.8955416E-01
       -1   -1    0    0    0  501  0.00000000000E+00  0.00000000000E+00  0.57500920566E+03  0.57500920568E+03  0.50400001928E-02 0.  1.
        1   -1    0    0  501    0  0.00000000000E+00  0.00000000000E+00 -0.84947910640E+03  0.84947910641E+03  0.50400001928E-02 0. -1.
    10030    2    1    2    0    0  0.00000000000E+00  0.00000000000E+00 -0.27446990073E+03  0.14244883121E+04  0.13977958452E+04 0.  0.
        4    1    3    3  502    0 -0.15599207551E+03 -0.34651350397E+03  0.46052513043E+03  0.59706795653E+03  0.12699999809E+01 0.  1.
       -4    1    3    3    0  502  0.15599207551E+03  0.34651350397E+03 -0.73499503117E+03  0.82742035556E+03  0.12699999809E+01 0. -1.
</event>
<event>
 5   0  0.1175146E-03  0.1391603E+04  0.7818609E-02  0.8959919E-01
       -2   -1    0    0    0  501  0.00000000000E+00  0.00000000000E+00  0.41040627999E+03  0.41040628000E+03  0.25500000920E-02 0.  1.
        2   -1    0    0  501    0  0.00000000000E+00  0.00000000000E+00 -0.11796601660E+04  0.11796601660E+04  0.25500000920E-02 0. -1.
    10030    2    1    2    0    0  0.00000000000E+00  0.00000000000E+00 -0.76925388603E+03  0.15900664460E+04  0.13916033061E+04 0.  0.
        1    1    3    3  502    0 -0.15675015649E+03 -0.45186000598E+03  0.19280838382E+03  0.51567736955E+03  0.50400001928E-02 0.  1.
       -1    1    3    3    0  502  0.15675015649E+03  0.45186000598E+03 -0.96206226985E+03  0.10743890765E+04  0.50400001928E-02 0. -1.
</event>
<event>
 5   0  0.6097538E-04  0.1448220E+04  0.7818609E-02  0.8919636E-01
       -1   -1    0    0    0  501  0.00000000000E+00  0.00000000000E+00  0.55553095898E+03  0.55553095900E+03  0.50400001928E-02 0.  1.
        1   -1    0    0  501    0  0.00000000000E+00  0.00000000000E+00 -0.94384493071E+03  0.94384493073E+03  0.50400001928E-02 0. -1.
    10030    2    1    2    0    0  0.00000000000E+00  0.00000000000E+00 -0.38831397173E+03  0.14993758897E+04  0.14482197064E+04 0.  0.
        2    1    3    3  502    0  0.36943895587E+03  0.43610874407E+03 -0.65445009981E+03  0.86889637583E+03  0.25500000920E-02 0. -1.
       -2    1    3    3    0  502 -0.36943895587E+03 -0.43610874407E+03  0.26613612808E+03  0.63047951390E+03  0.25500000920E-02 0.  1.
</event>
<event>
 5   0  0.5875298E-04  0.1373541E+04  0.7818609E-02  0.8973197E-01
       -1   -1    0    0    0  501  0.00000000000E+00  0.00000000000E+00  0.14960036224E+04  0.14960036224E+04  0.50400001928E-02 0. -1.
        1   -1    0    0  501    0  0.00000000000E+00  0.00000000000E+00 -0.31527576080E+03  0.31527576084E+03  0.50400001928E-02 0.  1.
    10030    2    1    2    0    0  0.00000000000E+00  0.00000000000E+00  0.11807278616E+04  0.18112793833E+04  0.13735409426E+04 0.  0.
        1    1    3    3  502    0  0.62985132929E+03 -0.25030341536E+03  0.44417807697E+03  0.81034477899E+03  0.50400001928E-02 0. -1.
       -1    1    3    3    0  502 -0.62985132929E+03  0.25030341536E+03  0.73654978467E+03  0.10009346043E+04  0.50400001928E-02 0.  1.
</event>
<event>
 5   0  0.6153318E-04  0.1404582E+04  0.7818609E-02  0.8950509E-01
        1   -1    0    0  501    0  0.00000000000E+00  0.00000000000E+00  0.11003868536E+04  0.11003868536E+04  0.50400001928E-02 0.  1.
       -1   -1    0    0    0  501  0.00000000000E+00  0.00000000000E+00 -0.44821730505E+03  0.44821730508E+03  0.50400001928E-02 0. -1.
    10030    2    1    2    0    0  0.00000000000E+00  0.00000000000E+00  0.65216954851E+03  0.15486041587E+04  0.14045816887E+04 0.  0.
        5    1    3    3  502    0 -0.52959667472E+03 -0.31890082517E+03  0.69344654833E+03  0.92901053791E+03  0.46999998093E+01 0.  1.
       -5    1    3    3    0  502  0.52959667472E+03  0.31890082517E+03 -0.41276999815E+02  0.61959362075E+03  0.46999998093E+01 0. -1.
</event>
<event>
 5   0  0.1120053E-03  0.1408692E+04  0.7818609E-02  0.8947551E-01
        2   -1    0    0  501    0  0.00000000000E+00  0.00000000000E+00  0.68515961438E+03  0.68515961439E+03  0.25500000920E-02 0. -1.
       -2   -1    0    0    0  501  0.00000000000E+00  0.00000000000E+00 -0.72406963659E+03  0.72406963659E+03  0.25500000920E-02 0.  1.
    10030    2    1    2    0    0  0.00000000000E+00  0.00000000000E+00 -0.38910022203E+02  0.14092292510E+04  0.14086919791E+04 0.  0.
        2    1    3    3  502    0 -0.15976178199E+03 -0.64668044219E+03 -0.24841749159E+03  0.71093647496E+03  0.25500000920E-02 0. -1.
       -2    1    3    3    0  502  0.15976178199E+03  0.64668044219E+03  0.20950746939E+03  0.69829277602E+03  0.25500000920E-02 0.  1.
</event>
<event>
 5   0  0.1175146E-03  0.1389021E+04  0.7818609E-02  0.8961805E-01
       -2   -1    0    0    0  501  0.00000000000E+00  0.00000000000E+00  0.63705498694E+03  0.63705498694E+03  0.25500000920E-02 0.  1.
        2   -1    0    0  501    0  0.00000000000E+00  0.00000000000E+00 -0.75714740936E+03  0.75714740936E+03  0.25500000920E-02 0. -1.
    10030    2    1    2    0    0  0.00000000000E+00  0.00000000000E+00 -0.12009242242E+03  0.13942023963E+04  0.13890205657E+04 0.  0.
        1    1    3    3  502    0  0.29004497087E+03 -0.21969979100E+03  0.53372676335E+03  0.64595537093E+03  0.50400001928E-02 0.  1.
       -1    1    3    3    0  502 -0.29004497087E+03  0.21969979100E+03 -0.65381918576E+03  0.74824702538E+03  0.50400001928E-02 0. -1.
</event>
<event>
 5   0  0.1095119E-03  0.1340638E+04  0.7818609E-02  0.8997945E-01
        2   -1    0    0  501    0  0.00000000000E+00  0.00000000000E+00  0.12388196831E+04  0.12388196832E+04  0.25500000920E-02 0.  1.
       -2   -1    0    0    0  501  0.00000000000E+00  0.00000000000E+00 -0.36270612909E+03  0.36270612910E+03  0.25500000920E-02 0. -1.
    10030    2    1    2    0    0  0.00000000000E+00  0.00000000000E+00  0.87611355406E+03  0.16015258123E+04  0.13406378958E+04 0.  0.
        5    1    3    3  502    0 -0.34268425766E+03  0.52002335857E+03  0.14192945721E+03  0.63876666689E+03  0.46999998093E+01 0. -1.
       -5    1    3    3    0  502  0.34268425766E+03 -0.52002335857E+03  0.73418409685E+03  0.96275914536E+03  0.46999998093E+01 0.  1.
</event>
<event>
 5   0  0.4176125E-04  0.1379609E+04  0.7818609E-02  0.8968712E-01
        3   -1    0    0  501    0  0.00000000000E+00  0.00000000000E+00  0.91474541569E+03  0.91474542127E+03  0.10100000352E+00 0.  1.
       -3   -1    0    0    0  501  0.00000000000E+00  0.00000000000E+00 -0.52017786269E+03  0.52017787250E+03  0.10100000352E+00 0. -1.
    10030    2    1    2    0    0  0.00000000000E+00  0.00000000000E+00  0.39456755300E+03  0.14349232938E+04  0.13796091132E+04 0.  0.
        1    1    3    3  502    0 -0.15325506039E+01 -0.11608438879E+03  0.90451135179E+03  0.91193131297E+03  0.50400001928E-02 0.  1.
       -1    1    3    3    0  502  0.15325506039E+01  0.11608438879E+03 -0.50994379879E+03  0.52299198080E+03  0.50400001928E-02 0. -1.
</event>
<event>
 5   0  0.4176125E-04  0.1464058E+04  0.7818609E-02  0.8908712E-01
       -4   -1    0    0    0  501  0.00000000000E+00  0.00000000000E+00  0.60486336578E+03  0.60486469906E+03  0.12699999809E+01 0.  1.
        4   -1    0    0  501    0  0.00000000000E+00  0.00000000000E+00 -0.88592708339E+03  0.88592799368E+03  0.12699999809E+01 0. -1.
    10030    2    1    2    0    0  0.00000000000E+00  0.00000000000E+00 -0.28106371760E+03  0.14907926927E+04  0.14640580724E+04 0.  0.
        5    1    3    3  502    0 -0.53317909969E+02  0.61085204322E+03  0.26659594271E+03  0.66863929357E+03  0.46999998093E+01 0.  1.
       -5    1    3    3    0  502  0.53317909969E+02 -0.61085204322E+03 -0.54765966031E+03  0.82215339917E+03  0.46999998093E+01 0. -1.
</event>
<event>
 5   0  0.1098949E-03  0.1304655E+04  0.7818609E-02  0.9025882E-01
       -2   -1    0    0    0  501  0.00000000000E+00  0.00000000000E+00  0.62927479146E+03  0.62927479147E+03  0.25500000920E-02 0.  1.
        2   -1    0    0  501    0  0.00000000000E+00  0.00000000000E+00 -0.67622496648E+03  0.67622496648E+03  0.25500000920E-02 0. -1.
    10030    2    1    2    0    0  0.00000000000E+00  0.00000000000E+00 -0.46950175015E+02  0.13054997580E+04  0.13046552415E+04 0.  0.
        4    1    3    3  502    0 -0.63840834566E+02  0.64508783293E+03  0.49481280401E+02  0.65012612189E+03  0.12699999809E+01 0.  1.
       -4    1    3    3    0  502  0.63840834566E+02 -0.64508783293E+03 -0.96431455416E+02  0.65537363606E+03  0.12699999809E+01 0. -1.
</event>
<event>
 5   0  0.1175146E-03  0.1405826E+04  0.7818609E-02  0.8949612E-01
        2   -1    0    0  501    0  0.00000000000E+00  0.00000000000E+00  0.17594620733E+04  0.17594620733E+04  0.25500000920E-02 0.  1.
       -2   -1    0    0    0  501  0.00000000000E+00  0.00000000000E+00 -0.28081700190E+03  0.28081700191E+03  0.25500000920E-02 0. -1.
    10030    2    1    2    0    0  0.00000000000E+00  0.00000000000E+00  0.14786450714E+04  0.20402790752E+04  0.14058262544E+04 0.  0.
        1    1    3    3  502    0  0.27623702966E+03  0.62143966532E+03  0.48136313008E+03  0.83318942457E+03  0.50400001928E-02 0.  1.
       -1    1    3    3    0  502 -0.27623702966E+03 -0.62143966532E+03  0.99728194137E+03  0.12070896507E+04  0.50400001928E-02 0. -1.
</event>
<event>
 5   0  0.5875298E-04  0.1372244E+04  0.7818609E-02  0.8974159E-01
        1   -1    0    0  501    0  0.00000000000E+00  0.00000000000E+00  0.17647960978E+04  0.17647960978E+04  0.50400001928E-02 0. -1.
       -1   -1    0    0    0  501  0.00000000000E+00  0.00000000000E+00 -0.26675225123E+03  0.26675225128E+03  0.50400001928E-02 0.  1.
    10030    2    1    2    0    0  0.00000000000E+00  0.00000000000E+00  0.14980438465E+04  0.20315483491E+04  0.13722439027E+04 0.  0.
        1    1    3    3  502    0  0.40063793336E+03 -0.19918344791E+03 -0.21069916408E+02  0.44791599767E+03  0.50400001928E-02 0.  1.
       -1    1    3    3    0  502 -0.40063793336E+03  0.19918344791E+03  0.15191137629E+04  0.15836323514E+04  0.50400001928E-02 0. -1.
</event>
<event>
 5   0  0.6153318E-04  0.1383484E+04  0.7818609E-02  0.8965861E-01
        1   -1    0    0  501    0  0.00000000000E+00  0.00000000000E+00  0.13235281394E+04  0.13235281394E+04  0.50400001928E-02 0. -1.
       -1   -1    0    0    0  501  0.00000000000E+00  0.00000000000E+00 -0.36153886171E+03  0.36153886175E+03  0.50400001928E-02 0.  1.
    10030    2    1    2    0    0  0.00000000000E+00  0.00000000000E+00  0.96198927769E+03  0.16850670012E+04  0.13834838011E+04 0.  0.
        5    1    3    3  502    0  0.24002490821E+03 -0.18420302427E+03  0.12386401649E+04  0.12750663742E+04  0.46999998093E+01 0. -1.
       -5    1    3    3    0  502 -0.24002490821E+03  0.18420302427E+03 -0.27665088716E+03  0.41000062692E+03  0.46999998093E+01 0.  1.
</event>
<event>
 5   0  0.1095119E-03  0.1410585E+04  0.7818609E-02  0.8946192E-01
       -2   -1    0    0    0  501  0.00000000000E+00  0.00000000000E+00  0.29149961813E+03  0.29149961814E+03  0.25500000920E-02 0.  1.
        2   -1    0    0  501    0  0.00000000000E+00  0.00000000000E+00 -0.17064774306E+04  0.17064774306E+04  0.25500000920E-02 0. -1.
    10030    2    1    2    0    0  0.00000000000E+00  0.00000000000E+00 -0.14149778124E+04  0.19979770487E+04  0.14105850125E+04 0.  0.
        5    1    3    3  502    0 -0.93295451583E+02  0.14702930755E+03 -0.16755288275E+04  0.16845594678E+04  0.46999998093E+01 0. -1.
       -5    1    3    3    0  502  0.93295451583E+02 -0.14702930755E+03  0.26055101510E+03  0.31341758093E+03  0.46999998093E+01 0.  1.
</event>
<event>
 5   0  0.1095119E-03  0.1421757E+04  0.7818609E-02  0.8938218E-01
        2   -1    0    0  501    0  0.00000000000E+00  0.00000000000E+00  0.10821932307E+04  0.10821932307E+04  0.25500000920E-02 0. -1.
       -2   -1    0    0    0  501  0.00000000000E+00  0.00000000000E+00 -0.46696698104E+03  0.46696698105E+03  0.25500000920E-02 0.  1.
    10030    2    1    2    0    0  0.00000000000E+00  0.00000000000E+00  0.61522624969E+03  0.15491602118E+04  0.14217573715E+04 0.  0.
        5    1    3    3  502    0 -0.13454210223E+03 -0.42787253574E+03  0.90853042476E+03  0.10132255952E+04  0.46999998093E+01 0. -1.
       -5    1    3    3    0  502  0.13454210223E+03  0.42787253574E+03 -0.29330417507E+03  0.53593461656E+03  0.46999998093E+01 0.  1.
</event>
<event>
 5   0  0.1095119E-03  0.1397622E+04  0.7818609E-02  0.8955541E-01
       -2   -1    0    0    0  501  0.00000000000E+00  0.00000000000E+00  0.96914845684E+03  0.96914845684E+03  0.25500000920E-02 0. -1.
        2   -1    0    0  501    0  0.00000000000E+00  0.00000000000E+00 -0.50388268767E+03  0.50388268767E+03  0.25500000920E-02 0.  1.
    10030    2    1    2    0    0  0.00000000000E+00  0.00000000000E+00  0.46526576917E+03  0.14730311445E+04  0.13976224514E+04 0.  0.
        5    1    3    3  502    0 -0.15647571899E+03 -0.52401885557E+03  0.69111496450E+03  0.88132990178E+03  0.46999998093E+01 0. -1.
       -5    1    3    3    0  502  0.15647571899E+03  0.52401885557E+03 -0.22584919533E+03  0.59170124273E+03  0.46999998093E+01 0.  1.
</event>
<event>
 5   0  0.1098949E-03  0.1391167E+04  0.7818609E-02  0.8960237E-01
        2   -1    0    0  501    0  0.00000000000E+00  0.00000000000E+00  0.83362675175E+03  0.83362675176E+03  0.25500000920E-02 0. -1.
       -2   -1    0    0    0  501  0.00000000000E+00  0.00000000000E+00 -0.58039953529E+03  0.58039953530E+03  0.25500000920E-02 0.  1.
    10030    2    1    2    0    0  0.00000000000E+00  0.00000000000E+00  0.25322721646E+03  0.14140262871E+04  0.13911672500E+04 0.  0.
        4    1    3    3  502    0  0.15049961048E+03 -0.44210879110E+03  0.65056869404E+03  0.80084427605E+03  0.12699999809E+01 0. -1.
       -4    1    3    3    0  502 -0.15049961048E+03  0.44210879110E+03 -0.39734147758E+03  0.61318201101E+03  0.12699999809E+01 0.  1.
</event>
<event>
 5   0  0.1098949E-03  0.1408688E+04  0.7818609E-02  0.8947553E-01
        2   -1    0    0  501    0  0.00000000000E+00  0.00000000000E+00  0.17182325496E+04  0.17182325496E+04  0.25500000920E-02 0. -1.
       -2   -1    0    0    0  501  0.00000000000E+00  0.00000000000E+00 -0.28872730721E+03  0.28872730722E+03  0.25500000920E-02 0.  1.
    10030    2    1    2    0    0  0.00000000000E+00  0.00000000000E+00  0.14295052424E+04  0.20069598569E+04  0.14086882653E+04 0.  0.
        4    1    3    3  502    0  0.26768333832E+02 -0.64509804228E+03  0.31372766247E+03  0.71784029348E+03  0.12699999809E+01 0.  1.
       -4    1    3    3    0  502 -0.26768333832E+02  0.64509804228E+03  0.11157775800E+04  0.12891195634E+04  0.12699999809E+01 0. -1.
</event>
<event>
 5   0  0.6153318E-04  0.1399822E+04  0.7818609E-02  0.8953948E-01
        1   -1    0    0  501    0  0.00000000000E+00  0.00000000000E+00  0.10822107865E+04  0.10822107865E+04  0.50400001928E-02 0.  1.
       -1   -1    0    0    0  501  0.00000000000E+00  0.00000000000E+00 -0.45266156228E+03  0.45266156231E+03  0.50400001928E-02 0. -1.
    10030    2    1    2    0    0  0.00000000000E+00  0.00000000000E+00  0.62954922419E+03  0.15348723488E+04  0.13998217391E+04 0.  0.
        5    1    3    3  502    0  0.93167909537E+02  0.32752523976E+03 -0.35569224616E+03  0.49243487491E+03  0.46999998093E+01 0. -1.
       -5    1    3    3    0  502 -0.93167909537E+02 -0.32752523976E+03  0.98524147034E+03  0.10424374739E+04  0.46999998093E+01 0.  1.
</event>
<event>
 5   0  0.1108819E-03  0.1400980E+04  0.7818609E-02  0.8953110E-01
       -2   -1    0    0    0  501  0.00000000000E+00  0.00000000000E+00  0.24111423943E+03  0.24111423944E+03  0.25500000920E-02 0.  1.
        2   -1    0    0  501    0  0.00000000000E+00  0.00000000000E+00 -0.20350763649E+04  0.20350763649E+04  0.25500000920E-02 0. -1.
    10030    2    1    2    0    0  0.00000000000E+00  0.00000000000E+00 -0.17939621255E+04  0.22761906043E+04  0.14009795001E+04 0.  0.
        3    1    3    3  502    0 -0.18065722154E+03 -0.35549175360E+03  0.38710820062E+02  0.40063693834E+03  0.10100000352E+00 0.  1.
       -3    1    3    3    0  502  0.18065722154E+03  0.35549175360E+03 -0.18326729455E+04  0.18755536660E+04  0.10100000352E+00 0. -1.
</event>
<event>
 5   0  0.1120053E-03  0.1396709E+04  0.7818609E-02  0.8956204E-01
        2   -1    0    0  501    0  0.00000000000E+00  0.00000000000E+00  0.27898375256E+04  0.27898375256E+04  0.25500000920E-02 0.  1.
       -2   -1    0    0    0  501  0.00000000000E+00  0.00000000000E+00 -0.17481280547E+03  0.17481280548E+03  0.25500000920E-02 0. -1.
    10030    2    1    2    0    0  0.00000000000E+00  0.00000000000E+00  0.26150247201E+04  0.29646503311E+04  0.13967094539E+04 0.  0.
        2    1    3    3  502    0 -0.53471104370E+03 -0.12491520274E+03  0.39164312614E+03  0.67446574886E+03  0.25500000920E-02 0. -1.
       -2    1    3    3    0  502  0.53471104370E+03  0.12491520274E+03  0.22233815940E+04  0.22901845822E+04  0.25500000920E-02 0.  1.
</event>
<event>
 5   0  0.6114266E-04  0.1367949E+04  0.7818609E-02  0.8977351E-01
        1   -1    0    0  501    0  0.00000000000E+00  0.00000000000E+00  0.10068105873E+04  0.10068105873E+04  0.50400001928E-02 0.  1.
       -1   -1    0    0    0  501  0.00000000000E+00  0.00000000000E+00 -0.46465649796E+03  0.46465649799E+03  0.50400001928E-02 0. -1.
    10030    2    1    2    0    0  0.00000000000E+00  0.00000000000E+00  0.54215408934E+03  0.14714670853E+04  0.13679489488E+04 0.  0.
        3    1    3    3  502    0 -0.50733698843E+03  0.41678012511E+03  0.64938562279E+02  0.65978293369E+03  0.10100000352E+00 0. -1.
       -3    1    3    3    0  502  0.50733698843E+03 -0.41678012511E+03  0.47721552706E+03  0.81168415162E+03  0.10100000352E+00 0.  1.
</event>
<event>
 5   0  0.1095119E-03  0.1394443E+04  0.7818609E-02  0.8957851E-01
       -2   -1    0    0    0  501  0.00000000000E+00  0.00000000000E+00  0.48415910460E+03  0.48415910461E+03  0.25500000920E-02 0. -1.
        2   -1    0    0  501    0  0.00000000000E+00  0.00000000000E+00 -0.10040460244E+04  0.10040460244E+04  0.25500000920E-02 0.  1.
    10030    2    1    2    0    0  0.00000000000E+00  0.00000000000E+00 -0.51988691981E+03  0.14882051290E+04  0.13944432927E+04 0.  0.
        5    1    3    3  502    0 -0.18320138097E+03  0.13217798607E+02 -0.97774321591E+03  0.99485744830E+03  0.46999998093E+01 0.  1.
       -5    1    3    3    0  502  0.18320138097E+03 -0.13217798607E+02  0.45785629610E+03  0.49334768072E+03  0.46999998093E+01 0. -1.
</event>
<event>
 5   0  0.1120053E-03  0.1434148E+04  0.7818609E-02  0.8929465E-01
       -2   -1    0    0    0  501  0.00000000000E+00  0.00000000000E+00  0.34487309134E+03  0.34487309135E+03  0.25500000920E-02 0.  1.
        2   -1    0    0  501    0  0.00000000000E+00  0.00000000000E+00 -0.14909686022E+04  0.14909686022E+04  0.25500000920E-02 0. -1.
    10030    2    1    2    0    0  0.00000000000E+00  0.00000000000E+00 -0.11460955109E+04  0.18358416936E+04  0.14341477622E+04 0.  0.
        2    1    3    3  502    0 -0.23243330948E+03 -0.67285647408E+03 -0.46267830130E+03  0.84901842652E+03  0.25500000920E-02 0.  1.
       -2    1    3    3    0  502  0.23243330948E+03  0.67285647408E+03 -0.68341720960E+03  0.98682326708E+03  0.25500000920E-02 0. -1.
</event>
<event>
 5   0  0.5875298E-04  0.1376812E+04  0.7818609E-02  0.8970776E-01
        1   -1    0    0  501    0  0.00000000000E+00  0.00000000000E+00  0.67261617635E+03  0.67261617637E+03  0.50400001928E-02 0.  1.
       -1   -1    0    0    0  501  0.00000000000E+00  0.00000000000E+00 -0.70456694345E+03  0.70456694347E+03  0.50400001928E-02 0. -1.
    10030    2    1    2    0    0  0.00000000000E+00  0.00000000000E+00 -0.31950767105E+02  0.13771831198E+04  0.13768124397E+04 0.  0.
        1    1    3    3  502    0  0.66848533870E+03  0.72860058885E+02 -0.16339853375E+03  0.69201178971E+03  0.50400001928E-02 0. -1.
       -1    1    3    3    0  502 -0.66848533870E+03 -0.72860058885E+02  0.13144776664E+03  0.68517133012E+03  0.50400001928E-02 0.  1.
</event>
<event>
 5   0  0.1095119E-03  0.1414385E+04  0.7818609E-02  0.8943471E-01
       -2   -1    0    0    0  501  0.00000000000E+00  0.00000000000E+00  0.31972262402E+03  0.31972262403E+03  0.25500000920E-02 0.  1.
        2   -1    0    0  501    0  0.00000000000E+00  0.00000000000E+00 -0.15642353379E+04  0.15642353379E+04  0.25500000920E-02 0. -1.
    10030    2    1    2    0    0  0.00000000000E+00  0.00000000000E+00 -0.12445127138E+04  0.18839579619E+04  0.14143852754E+04 0.  0.
        5    1    3    3  502    0 -0.26437719461E+03  0.33336185281E+03 -0.13746569499E+04  0.14390028652E+04  0.46999998093E+01 0. -1.
       -5    1    3    3    0  502  0.26437719461E+03 -0.33336185281E+03  0.13014423608E+03  0.44495509675E+03  0.46999998093E+01 0.  1.
</event>
<event>
 5   0  0.4176125E-04  0.1368360E+04  0.7818609E-02  0.8977045E-01
       -4   -1    0    0    0  501  0.00000000000E+00  0.00000000000E+00  0.79396053803E+03  0.79396155376E+03  0.12699999809E+01 0. -1.
        4   -1    0    0  501    0  0.00000000000E+00  0.00000000000E+00 -0.58957631821E+03  0.58957768606E+03  0.12699999809E+01 0.  1.
    10030    2    1    2    0    0  0.00000000000E+00  0.00000000000E+00  0.20438421981E+03  0.13835392398E+04  0.13683595722E+04 0.  0.
        4    1    3    3  502    0  0.44308594155E+03  0.42409651633E+03 -0.20434991206E+03  0.64648550349E+03  0.12699999809E+01 0.  1.
       -4    1    3    3    0  502 -0.44308594155E+03 -0.42409651633E+03  0.40873413188E+03  0.73705373632E+03  0.12699999809E+01 0. -1.
</event>
<event>
 5   0  0.1108819E-03  0.1389546E+04  0.7818609E-02  0.8961421E-01
        2   -1    0    0  501    0  0.00000000000E+00  0.00000000000E+00  0.26764309118E+04  0.26764309118E+04  0.25500000920E-02 0.  1.
       -2   -1    0    0    0  501  0.00000000000E+00  0.00000000000E+00 -0.18035566557E+03  0.18035566559E+03  0.25500000920E-02 0. -1.
    10030    2    1    2    0    0  0.00000000000E+00  0.00000000000E+00  0.24960752462E+04  0.28567865774E+04  0.13895459380E+04 0.  0.
        3    1    3    3  502    0 -0.34205247884E+03  0.49530437692E+03  0.19613630890E+04  0.20516509209E+04  0.10100000352E+00 0.  1.
       -3    1    3    3    0  502  0.34205247884E+03 -0.49530437692E+03  0.53471215722E+03  0.80513565649E+03  0.10100000352E+00 0. -1.
</event>
<event>
 5   0  0.6097538E-04  0.1378499E+04  0.7818609E-02  0.8969531E-01
        1   -1    0    0  501    0  0.00000000000E+00  0.00000000000E+00  0.93487752256E+03  0.93487752258E+03  0.50400001928E-02 0.  1.
       -1   -1    0    0    0  501  0.00000000000E+00  0.00000000000E+00 -0.50815736892E+03  0.50815736895E+03  0.50400001928E-02 0. -1.
    10030    2    1    2    0    0  0.00000000000E+00  0.00000000000E+00  0.42672015364E+03  0.14430348915E+04  0.13784990419E+04 0.  0.
        2    1    3    3  502    0 -0.66053468787E+03 -0.19396516104E+03  0.24864794212E+03  0.73195242789E+03  0.25500000920E-02 0.  1.
       -2    1    3    3    0  502  0.66053468787E+03  0.19396516104E+03  0.17807221152E+03  0.71108246364E+03  0.25500000920E-02 0. -1.
</event>
<event>
 5   0  0.6153318E-04  0.1368223E+04  0.7818609E-02  0.8977147E-01
       -1   -1    0    0    0  501  0.00000000000E+00  0.00000000000E+00  0.63188661184E+03  0.63188661186E+03  0.50400001928E-02 0. -1.
        1   -1    0    0  501    0  0.00000000000E+00  0.00000000000E+00 -0.74065268949E+03  0.74065268951E+03  0.50400001928E-02 0.  1.
    10030    2    1    2    0    0  0.00000000000E+00  0.00000000000E+00 -0.10876607766E+03  0.13725393014E+04  0.13682229621E+04 0.  0.
        5    1    3    3  502    0 -0.57275077485E+03 -0.36813748231E+03  0.12292969403E+02  0.68098594924E+03  0.46999998093E+01 0. -1.
       -5    1    3    3    0  502  0.57275077485E+03  0.36813748231E+03 -0.12105904706E+03  0.69155335213E+03  0.46999998093E+01 0.  1.
</event>
<event>
 5   0  0.1120053E-03  0.1411222E+04  0.7818609E-02  0.8945735E-01
        2   -1    0    0  501    0  0.00000000000E+00  0.00000000000E+00  0.12401336893E+04  0.12401336893E+04  0.25500000920E-02 0.  1.
       -2   -1    0    0    0  501  0.00000000000E+00  0.00000000000E+00 -0.40147852602E+03  0.40147852603E+03  0.25500000920E-02 0. -1.
    10030    2    1    2    0    0  0.00000000000E+00  0.00000000000E+00  0.83865516327E+03  0.16416122153E+04  0.14112222301E+04 0.  0.
        2    1    3    3  502    0  0.89159024862E+02  0.13292627301E+03  0.12187375748E+04  0.12292029946E+04  0.25500000920E-02 0.  1.
       -2    1    3    3    0  502 -0.89159024862E+02 -0.13292627301E+03 -0.38008241151E+03  0.41240922070E+03  0.25500000920E-02 0. -1.
</event>
<event>
 5   0  0.1175146E-03  0.1401903E+04  0.7818609E-02  0.8952442E-01
        2   -1    0    0  501    0  0.00000000000E+00  0.00000000000E+00  0.51523349538E+03  0.51523349538E+03  0.25500000920E-02 0. -1.
       -2   -1    0    0    0  501  0.00000000000E+00  0.00000000000E+00 -0.95361203813E+03  0.95361203813E+03  0.25500000920E-02 0.  1.
    10030    2    1    2    0    0  0.00000000000E+00  0.00000000000E+00 -0.43837854275E+03  0.14688455335E+04  0.14019027978E+04 0.  0.
        1    1    3    3  502    0 -0.45664118733E+03 -0.52505331455E+03 -0.30766507297E+03  0.76082846571E+03  0.50400001928E-02 0.  1.
       -1    1    3    3    0  502  0.45664118733E+03  0.52505331455E+03 -0.13071346978E+03  0.70801706780E+03  0.50400001928E-02 0. -1.
</event>
<event>
 5   0  0.6097538E-04  0.1419569E+04  0.7818609E-02  0.8939774E-01
       -1   -1    0    0    0  501  0.00000000000E+00  0.00000000000E+00  0.36720012460E+03  0.36720012464E+03  0.50400001928E-02 0.  1.
        1   -1    0    0  501    0  0.00000000000E+00  0.00000000000E+00 -0.13719882346E+04  0.13719882346E+04  0.50400001928E-02 0. -1.
    10030    2    1    2    0    0  0.00000000000E+00  0.00000000000E+00 -0.10047881100E+04  0.17391883592E+04  0.14195693019E+04 0.  0.
        2    1    3    3  502    0  0.44224376859E+02 -0.47116888780E+03 -0.11504964470E+04  0.12440249157E+04  0.25500000920E-02 0. -1.
       -2    1    3    3    0  502 -0.44224376859E+02  0.47116888780E+03  0.14570833700E+03  0.49516344354E+03  0.25500000920E-02 0.  1.
</event>
<event>
 5   0  0.6114266E-04  0.1388389E+04  0.7818609E-02  0.8962266E-01
       -1   -1    0    0    0  501  0.00000000000E+00  0.00000000000E+00  0.34671215510E+03  0.34671215514E+03  0.50400001928E-02 0.  1.
        1   -1    0    0  501    0  0.00000000000E+00  0.00000000000E+00 -0.13899311900E+04  0.13899311900E+04  0.50400001928E-02 0. -1.
    10030    2    1    2    0    0  0.00000000000E+00  0.00000000000E+00 -0.10432190349E+04  0.17366433451E+04  0.13883890497E+04 0.  0.
        3    1    3    3  502    0 -0.38461042211E+03  0.57790787000E+03 -0.51932177286E+03  0.86694740150E+03  0.10100000352E+00 0.  1.
       -3    1    3    3    0  502  0.38461042211E+03 -0.57790787000E+03 -0.52389726201E+03  0.86969594361E+03  0.10100000352E+00 0. -1.
</event>
<event>
 5   0  0.1120053E-03  0.1405221E+04  0.7818609E-02  0.8950048E-01
        2   -1    0    0  501    0  0.00000000000E+00  0.00000000000E+00  0.81299913106E+03  0.81299913106E+03  0.25500000920E-02 0. -1.
       -2   -1    0    0    0  501  0.00000000000E+00  0.00000000000E+00 -0.60721012617E+03  0.60721012617E+03  0.25500000920E-02 0.  1.
    10030    2    1    2    0    0  0.00000000000E+00  0.00000000000E+00  0.20578900489E+03  0.14202092572E+04  0.14052207015E+04 0.  0.
        2    1    3    3  502    0  0.51111396999E+03  0.28505715905E+03  0.49584260146E+03  0.76704299728E+03  0.25500000920E-02 0. -1.
       -2    1    3    3    0  502 -0.51111396999E+03 -0.28505715905E+03 -0.29005359657E+03  0.65316625995E+03  0.25500000920E-02 0.  1.
</event>
<event>
 5   0  0.5875298E-04  0.1426928E+04  0.7818609E-02  0.8934554E-01
        1   -1    0    0  501    0  0.00000000000E+00  0.00000000000E+00  0.69340219887E+03  0.69340219888E+03  0.50400001928E-02 0.  1.
       -1   -1    0    0    0  501  0.00000000000E+00  0.00000000000E+00 -0.73410597507E+03  0.73410597508E+03  0.50400001928E-02 0. -1.
    10030    2    1    2    0    0  0.00000000000E+00  0.00000000000E+00 -0.40703776201E+02  0.14275081740E+04  0.14269277450E+04 0.  0.
        1    1    3    3  502    0 -0.56964891944E+03 -0.42273326037E+03  0.56016549300E+02  0.71157652762E+03  0.50400001928E-02 0.  1.
       -1    1    3    3    0  502  0.56964891944E+03  0.42273326037E+03 -0.96720325501E+02  0.71593164634E+03  0.50400001928E-02 0. -1.
</event>
<event>
 5   0  0.5875298E-04  0.1400717E+04  0.7818609E-02  0.8953299E-01
        1   -1    0    0  501    0  0.00000000000E+00  0.00000000000E+00  0.85641590053E+03  0.85641590054E+03  0.50400001928E-02 0. -1.
       -1   -1    0    0    0  501  0.00000000000E+00  0.00000000000E+00 -0.57273837366E+03  0.57273837369E+03  0.50400001928E-02 0.  1.
    10030    2    1    2    0    0  0.00000000000E+00  0.00000000000E+00  0.28367752687E+03  0.14291542742E+04  0.14007173163E+04 0.  0.
        1    1    3    3  502    0 -0.33444698959E+03 -0.44030929618E+03 -0.29674286692E+03  0.62752162850E+03  0.50400001928E-02 0.  1.
       -1    1    3    3    0  502  0.33444698959E+03  0.44030929618E+03  0.58042039378E+03  0.80163264572E+03  0.50400001928E-02 0. -1.
</event>
<event>
 5   0  0.6097538E-04  0.1405584E+04  0.7818609E-02  0.8949786E-01
        1   -1    0    0  501    0  0.00000000000E+00  0.00000000000E+00  0.12240540383E+04  0.12240540383E+04  0.50400001928E-02 0.  1.
       -1   -1    0    0    0  501  0.00000000000E+00  0.00000000000E+00 -0.40350900668E+03  0.40350900671E+03  0.50400001928E-02 0. -1.
    10030    2    1    2    0    0  0.00000000000E+00  0.00000000000E+00  0.82054503166E+03  0.16275630451E+04  0.14055843328E+04 0.  0.
        2    1    3    3  502    0 -0.94073276858E+02  0.69599380648E+03  0.44001272206E+03  0.82877521419E+03  0.25500000920E-02 0.  1.
       -2    1    3    3    0  502  0.94073276858E+02 -0.69599380648E+03  0.38053230959E+03  0.79878783086E+03  0.25500000920E-02 0. -1.
</event>
<event>
 5   0  0.1098949E-03  0.1519829E+04  0.7818609E-02  0.8871373E-01
       -2   -1    0    0    0  501  0.00000000000E+00  0.00000000000E+00  0.34913977282E+03  0.34913977283E+03  0.25500000920E-02 0.  1.
        2   -1    0    0  501    0  0.00000000000E+00  0.00000000000E+00 -0.16539793047E+04  0.16539793047E+04  0.25500000920E-02 0. -1.
    10030    2    1    2    0    0  0.00000000000E+00  0.00000000000E+00 -0.13048395319E+04  0.20031190775E+04  0.15198288834E+04 0.  0.
        4    1    3    3  502    0 -0.63064168373E+03  0.42284381694E+03 -0.61152980116E+03  0.97492365721E+03  0.12699999809E+01 0. -1.
       -4    1    3    3    0  502  0.63064168373E+03 -0.42284381694E+03 -0.69330973073E+03  0.10281954203E+04  0.12699999809E+01 0.  1.
</event>
<event>
 5   0  0.4176125E-04  0.1153282E+04  0.7818609E-02  0.9154761E-01
       -4   -1    0    0    0  501  0.00000000000E+00  0.00000000000E+00  0.67088387576E+03  0.67088507783E+03  0.12699999809E+01 0. -1.
        4   -1    0    0  501    0  0.00000000000E+00  0.00000000000E+00 -0.49563444330E+03  0.49563607040E+03  0.12699999809E+01 0.  1.
    10030    2    1    2    0    0  0.00000000000E+00  0.00000000000E+00  0.17524943246E+03  0.11665211482E+04  0.11532819368E+04 0.  0.
        1    1    3    3  502    0  0.21476123171E+02  0.37644276650E+03  0.52891788903E+03  0.64955716737E+03  0.50400001928E-02 0. -1.
       -1    1    3    3    0  502 -0.21476123171E+02 -0.37644276650E+03 -0.35366845657E+03  0.51696398087E+03  0.50400001928E-02 0.  1.
</event>
<event>
 5   0  0.1098949E-03  0.1396002E+04  0.7818609E-02  0.8956718E-01
       -2   -1    0    0    0  501  0.00000000000E+00  0.00000000000E+00  0.34959651145E+03  0.34959651146E+03  0.25500000920E-02 0. -1.
        2   -1    0    0  501    0  0.00000000000E+00  0.00000000000E+00 -0.13936210904E+04  0.13936210904E+04  0.25500000920E-02 0.  1.
    10030    2    1    2    0    0  0.00000000000E+00  0.00000000000E+00 -0.10440245790E+04  0.17432176019E+04  0.13960015351E+04 0.  0.
        4    1    3    3  502    0  0.24595858057E+03  0.47913217442E+03  0.32426104906E+02  0.53955197071E+03  0.12699999809E+01 0. -1.
       -4    1    3    3    0  502 -0.24595858057E+03 -0.47913217442E+03 -0.10764506839E+04  0.12036656312E+04  0.12699999809E+01 0.  1.
</event>
<event>
 5   0  0.1175146E-03  0.1405868E+04  0.7818609E-02  0.8949582E-01
       -2   -1    0    0    0  501  0.00000000000E+00  0.00000000000E+00  0.24042356678E+03  0.24042356679E+03  0.25500000920E-02 0.  1.
        2   -1    0    0  501    0  0.00000000000E+00  0.00000000000E+00 -0.20551889982E+04  0.20551889982E+04  0.25500000920E-02 0. -1.
    10030    2    1    2    0    0  0.00000000000E+00  0.00000000000E+00 -0.18147654314E+04  0.22956125650E+04  0.14058675178E+04 0.  0.
        1    1    3    3  502    0  0.36459804818E+03  0.40468650581E+03 -0.16328904251E+04  0.17213465790E+04  0.50400001928E-02 0. -1.
       -1    1    3    3    0  502 -0.36459804818E+03 -0.40468650581E+03 -0.18187500635E+03  0.57426598600E+03  0.50400001928E-02 0.  1.
</event>
<event>
 5   0  0.4176125E-04  0.1395124E+04  0.7818609E-02  0.8957356E-01
        4   -1    0    0  501    0  0.00000000000E+00  0.00000000000E+00  0.32024791177E+03  0.32025042997E+03  0.12699999809E+01 0.  1.
       -4   -1    0    0    0  501  0.00000000000E+00  0.00000000000E+00 -0.15194164941E+04  0.15194170248E+04  0.12699999809E+01 0. -1.
    10030    2    1    2    0    0  0.00000000000E+00  0.00000000000E+00 -0.11991685823E+04  0.18396674548E+04  0.13951240287E+04 0.  0.
        2    1    3    3  502    0 -0.40267034023E+03 -0.36463161052E+03 -0.11766205822E+04  0.12959689845E+04  0.25500000920E-02 0. -1.
       -2    1    3    3    0  502  0.40267034023E+03  0.36463161052E+03 -0.22548000089E+02  0.54369847030E+03  0.25500000920E-02 0.  1.
</event>
<event>
 5   0  0.1108819E-03  0.1402911E+04  0.7818609E-02  0.8951714E-01
       -2   -1    0    0    0  501  0.00000000000E+00  0.00000000000E+00  0.57774684693E+03  0.57774684694E+03  0.25500000920E-02 0.  1.
        2   -1    0    0  501    0  0.00000000000E+00  0.00000000000E+00 -0.85165305975E+03  0.85165305975E+03  0.25500000920E-02 0. -1.
    10030    2    1    2    0    0  0.00000000000E+00  0.00000000000E+00 -0.27390621282E+03  0.14293999067E+04  0.14029110734E+04 0.  0.
        3    1    3    3  502    0  0.66093184793E+03 -0.15536870924E+03  0.42640492111E+02  0.68028564970E+03  0.10100000352E+00 0.  1.
       -3    1    3    3    0  502 -0.66093184793E+03  0.15536870924E+03 -0.31654670493E+03  0.74911425699E+03  0.10100000352E+00 0. -1.
</event>
<event>
 5   0  0.1098949E-03  0.1362797E+04  0.7818609E-02  0.8981197E-01
        2   -1    0    0  501    0  0.00000000000E+00  0.00000000000E+00  0.57752375475E+03  0.57752375476E+03  0.25500000920E-02 0. -1.
       -2   -1    0    0    0  501  0.00000000000E+00  0.00000000000E+00 -0.80395679952E+03  0.80395679953E+03  0.25500000920E-02 0.  1.
    10030    2    1    2    0    0  0.00000000000E+00  0.00000000000E+00 -0.22643304477E+03  0.13814805543E+04  0.13627973430E+04 0.  0.
        4    1    3    3  502    0  0.20493587706E+03  0.76414021293E+02 -0.76740457230E+03  0.79796566771E+03  0.12699999809E+01 0.  1.
       -4    1    3    3    0  502 -0.20493587706E+03 -0.76414021293E+02  0.54097152753E+03  0.58351488658E+03  0.12699999809E+01 0. -1.
</event>
<event>
 5   0  0.6114266E-04  0.1397746E+04  0.7818609E-02  0.8955452E-01
        1   -1    0    0  501    0  0.00000000000E+00  0.00000000000E+00  0.11317804554E+04  0.11317804554E+04  0.50400001928E-02 0. -1.
       -1   -1    0    0    0  501  0.00000000000E+00  0.00000000000E+00 -0.43155290463E+03  0.43155290466E+03  0.50400001928E-02 0.  1.
    10030    2    1    2    0    0  0.00000000000E+00  0.00000000000E+00  0.70022755075E+03  0.15633333601E+04  0.13977455319E+04 0.  0.
        3    1    3    3  502    0  0.32440286468E+03  0.56127439348E+03  0.64211092925E+03  0.91245417366E+03  0.10100000352E+00 0. -1.
       -3    1    3    3    0  502 -0.32440286468E+03 -0.56127439348E+03  0.58116621503E+02  0.65087918639E+03  0.10100000352E+00 0.  1.
</event>
<event>
 5   0  0.6097538E-04  0.1398581E+04  0.7818609E-02  0.8954847E-01
       -1   -1    0    0    0  501  0.00000000000E+00  0.00000000000E+00  0.24261684737E+03  0.24261684743E+03  0.50400001928E-02 0. -1.
        1   -1    0    0  501    0  0.00000000000E+00  0.00000000000E+00 -0.20155526029E+04  0.20155526029E+04  0.50400001928E-02 0.  1.
    10030    2    1    2    0    0  0.00000000000E+00  0.00000000000E+00 -0.17729357556E+04  0.22581694504E+04  0.13985807353E+04 0.  0.
        2    1    3    3  502    0  0.58096297981E+03 -0.27735394910E+03 -0.44557501905E+03  0.78293058096E+03  0.25500000920E-02 0.  1.
       -2    1    3    3    0  502 -0.58096297981E+03  0.27735394910E+03 -0.13273607365E+04  0.14752388694E+04  0.25500000920E-02 0. -1.
</event>
<event>
 5   0  0.6153318E-04  0.1389534E+04  0.7818609E-02  0.8961429E-01
        1   -1    0    0  501    0  0.00000000000E+00  0.00000000000E+00  0.13269559419E+04  0.13269559419E+04  0.50400001928E-02 0.  1.
       -1   -1    0    0    0  501  0.00000000000E+00  0.00000000000E+00 -0.36376592980E+03  0.36376592984E+03  0.50400001928E-02 0. -1.
    10030    2    1    2    0    0  0.00000000000E+00  0.00000000000E+00  0.96319001212E+03  0.16907218718E+04  0.13895342559E+04 0.  0.
        5    1    3    3  502    0 -0.34644532007E+03 -0.59391991769E+03  0.36044363704E+03  0.77634202121E+03  0.46999998093E+01 0.  1.
       -5    1    3    3    0  502  0.34644532007E+03  0.59391991769E+03  0.60274637508E+03  0.91437985055E+03  0.46999998093E+01 0. -1.
</event>
<event>
 5   0  0.1098949E-03  0.1393602E+04  0.7818609E-02  0.8958463E-01
        2   -1    0    0  501    0  0.00000000000E+00  0.00000000000E+00  0.16844691119E+04  0.16844691119E+04  0.25500000920E-02 0.  1.
       -2   -1    0    0    0  501  0.00000000000E+00  0.00000000000E+00 -0.28824001455E+03  0.28824001456E+03  0.25500000920E-02 0. -1.
    10030    2    1    2    0    0  0.00000000000E+00  0.00000000000E+00  0.13962290973E+04  0.19727091264E+04  0.13936016667E+04 0.  0.
        4    1    3    3  502    0  0.48689563755E+03 -0.48220419087E+03  0.51938778153E+03  0.85985668809E+03  0.12699999809E+01 0.  1.
       -4    1    3    3    0  502 -0.48689563755E+03  0.48220419087E+03  0.87684131579E+03  0.11128524383E+04  0.12699999809E+01 0. -1.
</event>
<event>
 5   0  0.5875298E-04  0.1417570E+04  0.7818609E-02  0.8941198E-01
        1   -1    0    0  501    0  0.00000000000E+00  0.00000000000E+00  0.71920418654E+03  0.71920418656E+03  0.50400001928E-02 0.  1.
       -1   -1    0    0    0  501  0.00000000000E+00  0.00000000000E+00 -0.69851682366E+03  0.69851682367E+03  0.50400001928E-02 0. -1.
    10030    2    1    2    0    0  0.00000000000E+00  0.00000000000E+00  0.20687362884E+02  0.14177210102E+04  0.14175700674E+04 0.  0.
        1    1    3    3  502    0 -0.56993673029E+03 -0.38731242576E+03 -0.15561805193E+03  0.70643879409E+03  0.50400001928E-02 0. -1.
       -1    1    3    3    0  502  0.56993673029E+03  0.38731242576E+03  0.17630541481E+03  0.71128221614E+03  0.50400001928E-02 0.  1.
</event>
<event>
 5   0  0.6153318E-04  0.1341970E+04  0.7818609E-02  0.8996929E-01
       -1   -1    0    0    0  501  0.00000000000E+00  0.00000000000E+00  0.41415168786E+03  0.41415168789E+03  0.50400001928E-02 0.  1.
        1   -1    0    0  501    0  0.00000000000E+00  0.00000000000E+00 -0.10870922020E+04  0.10870922020E+04  0.50400001928E-02 0. -1.
    10030    2    1    2    0    0  0.00000000000E+00  0.00000000000E+00 -0.67294051411E+03  0.15012438899E+04  0.13419702982E+04 0.  0.
        5    1    3    3  502    0 -0.23699625567E+03  0.35362346240E+03 -0.91666009970E+03  0.10106951107E+04  0.46999998093E+01 0. -1.
       -5    1    3    3    0  502  0.23699625567E+03 -0.35362346240E+03  0.24371958559E+03  0.49054877919E+03  0.46999998093E+01 0.  1.
</event>
<event>
 5   0  0.5875298E-04  0.1382583E+04  0.7818609E-02  0.8966523E-01
       -1   -1    0    0    0  501  0.00000000000E+00  0.00000000000E+00  0.33663376659E+03  0.33663376662E+03  0.50400001928E-02 0. -1.
        1   -1    0    0  501    0  0.00000000000E+00  0.00000000000E+00 -0.14195965970E+04  0.14195965970E+04  0.50400001928E-02 0.  1.
    10030    2    1    2    0    0  0.00000000000E+00  0.00000000000E+00 -0.10829628304E+04  0.17562303636E+04  0.13825833060E+04 0.  0.
        1    1    3    3  502    0  0.33598174812E+03 -0.37258901115E+03  0.62627440185E+02  0.50559717423E+03  0.50400001928E-02 0. -1.
       -1    1    3    3    0  502 -0.33598174812E+03  0.37258901115E+03 -0.11455902706E+04  0.12506331894E+04  0.50400001928E-02 0.  1.
</event>
<event>
 5   0  0.6097538E-04  0.1399538E+04  0.7818609E-02  0.8954153E-01
        1   -1    0    0  501    0  0.00000000000E+00  0.00000000000E+00  0.61800781136E+03  0.61800781138E+03  0.50400001928E-02 0. -1.
       -1   -1    0    0    0  501  0.00000000000E+00  0.00000000000E+00 -0.79234678764E+03  0.79234678766E+03  0.50400001928E-02 0.  1.
    10030    2    1    2    0    0  0.00000000000E+00  0.00000000000E+00 -0.17433897629E+03  0.14103545990E+04  0.13995377867E+04 0.  0.
        2    1    3    3  502    0  0.14876011972E+03 -0.15540656671E+03  0.58385665963E+03  0.62222935739E+03  0.25500000920E-02 0. -1.
       -2    1    3    3    0  502 -0.14876011972E+03  0.15540656671E+03 -0.75819563592E+03  0.78812524165E+03  0.25500000920E-02 0.  1.
</event>
<event>
 5   0  0.1095119E-03  0.1406889E+04  0.7818609E-02  0.8948847E-01
        2   -1    0    0  501    0  0.00000000000E+00  0.00000000000E+00  0.75709549194E+03  0.75709549194E+03  0.25500000920E-02 0.  1.
       -2   -1    0    0    0  501  0.00000000000E+00  0.00000000000E+00 -0.65359514072E+03  0.65359514073E+03  0.25500000920E-02 0. -1.
    10030    2    1    2    0    0  0.00000000000E+00  0.00000000000E+00  0.10350035122E+03  0.14106906327E+04  0.14068886731E+04 0.  0.
        5    1    3    3  502    0  0.40486784667E+03 -0.27301355701E+03  0.55943599978E+03  0.74259349810E+03  0.46999998093E+01 0.  1.
       -5    1    3    3    0  502 -0.40486784667E+03  0.27301355701E+03 -0.45593564857E+03  0.66809713456E+03  0.46999998093E+01 0. -1.
</event>
<event>
 5   0  0.1098949E-03  0.1411826E+04  0.7818609E-02  0.8945303E-01
        2   -1    0    0  501    0  0.00000000000E+00  0.00000000000E+00  0.12390593925E+04  0.12390593925E+04  0.25500000920E-02 0. -1.
       -2   -1    0    0    0  501  0.00000000000E+00  0.00000000000E+00 -0.40217027175E+03  0.40217027176E+03  0.25500000920E-02 0.  1.
    10030    2    1    2    0    0  0.00000000000E+00  0.00000000000E+00  0.83688912078E+03  0.16412296643E+04  0.14118255595E+04 0.  0.
        4    1    3    3  502    0 -0.54109528819E+03  0.13054373323E+03  0.92313752158E+03  0.10779658036E+04  0.12699999809E+01 0. -1.
       -4    1    3    3    0  502  0.54109528819E+03 -0.13054373323E+03 -0.86248400794E+02  0.56326386066E+03  0.12699999809E+01 0.  1.
</event>
<event>
 5   0  0.6114266E-04  0.1413408E+04  0.7818609E-02  0.8944170E-01
       -1   -1    0    0    0  501  0.00000000000E+00  0.00000000000E+00  0.97594302566E+03  0.97594302567E+03  0.50400001928E-02 0. -1.
        1   -1    0    0  501    0  0.00000000000E+00  0.00000000000E+00 -0.51174173114E+03  0.51174173117E+03  0.50400001928E-02 0.  1.
    10030    2    1    2    0    0  0.00000000000E+00  0.00000000000E+00  0.46420129451E+03  0.14876847568E+04  0.14134083253E+04 0.  0.
        3    1    3    3  502    0 -0.53014103268E+02 -0.50379274178E+02  0.97194927183E+03  0.97469685729E+03  0.10100000352E+00 0. -1.
       -3    1    3    3    0  502  0.53014103268E+02  0.50379274178E+02 -0.50774797731E+03  0.51298789954E+03  0.10100000352E+00 0.  1.
</event>
<event>
 5   0  0.6097538E-04  0.1322522E+04  0.7818609E-02  0.9011893E-01
       -1   -1    0    0    0  501  0.00000000000E+00  0.00000000000E+00  0.96539342911E+03  0.96539342912E+03  0.50400001928E-02 0. -1.
        1   -1    0    0  501    0  0.00000000000E+00  0.00000000000E+00 -0.45294072225E+03  0.45294072228E+03  0.50400001928E-02 0.  1.
    10030    2    1    2    0    0  0.00000000000E+00  0.00000000000E+00  0.51245270686E+03  0.14183341514E+04  0.13225218290E+04 0.  0.
        2    1    3    3  502    0 -0.16930354069E+03 -0.63380883560E+03  0.16721542290E+03  0.67700688817E+03  0.25500000920E-02 0.  1.
       -2    1    3    3    0  502  0.16930354069E+03  0.63380883560E+03  0.34523728396E+03  0.74132726323E+03  0.25500000920E-02 0. -1.
</event>
<event>
 5   0  0.1098949E-03  0.1389755E+04  0.7818609E-02  0.8961268E-01
        2   -1    0    0  501    0  0.00000000000E+00  0.00000000000E+00  0.87380493797E+03  0.87380493797E+03  0.25500000920E-02 0. -1.
       -2   -1    0    0    0  501  0.00000000000E+00  0.00000000000E+00 -0.55258896298E+03  0.55258896298E+03  0.25500000920E-02 0.  1.
    10030    2    1    2    0    0  0.00000000000E+00  0.00000000000E+00  0.32121597499E+03  0.14263939010E+04  0.13897553231E+04 0.  0.
        4    1    3    3  502    0 -0.14253112462E+03  0.66850503007E+03  0.28896191326E+03  0.74210154084E+03  0.12699999809E+01 0. -1.
       -4    1    3    3    0  502  0.14253112462E+03 -0.66850503007E+03  0.32254061731E+02  0.68429236011E+03  0.12699999809E+01 0.  1.
</event>
<event>
 5   0  0.5875298E-04  0.1399690E+04  0.7818609E-02  0.8954043E-01
        1   -1    0    0  501    0  0.00000000000E+00  0.00000000000E+00  0.39477770919E+03  0.39477770922E+03  0.50400001928E-02 0.  1.
       -1   -1    0    0    0  501  0.00000000000E+00  0.00000000000E+00 -0.12406557197E+04  0.12406557197E+04  0.50400001928E-02 0. -1.
    10030    2    1    2    0    0  0.00000000000E+00  0.00000000000E+00 -0.84587801055E+03  0.16354334290E+04  0.13996902843E+04 0.  0.
        1    1    3    3  502    0 -0.28392107690E+02 -0.19943152204E+03 -0.12060490899E+04  0.12227564970E+04  0.50400001928E-02 0. -1.
       -1    1    3    3    0  502  0.28392107690E+02  0.19943152204E+03  0.36017107933E+03  0.41267693196E+03  0.50400001928E-02 0.  1.
</event>
<event>
 5   0  0.1175146E-03  0.1190536E+04  0.7818609E-02  0.9121181E-01
        2   -1    0    0  501    0  0.00000000000E+00  0.00000000000E+00  0.11066698876E+04  0.11066698877E+04  0.25500000920E-02 0.  1.
       -2   -1    0    0    0  501  0.00000000000E+00  0.00000000000E+00 -0.32018959837E+03  0.32018959838E+03  0.25500000920E-02 0. -1.
    10030    2    1    2    0    0  0.00000000000E+00  0.00000000000E+00  0.78648028927E+03  0.14268594860E+04  0.11905363277E+04 0.  0.
        1    1    3    3  502    0 -0.26215123126E+02 -0.95233042124E+02  0.10967794918E+04  0.11012183337E+04  0.50400001928E-02 0.  1.
       -1    1    3    3    0  502  0.26215123126E+02  0.95233042124E+02 -0.31029920248E+03  0.32564115231E+03  0.50400001928E-02 0. -1.
</event>
<event>
 5   0  0.5875298E-04  0.1396875E+04  0.7818609E-02  0.8956084E-01
        1   -1    0    0  501    0  0.00000000000E+00  0.00000000000E+00  0.62181345758E+03  0.62181345760E+03  0.50400001928E-02 0. -1.
       -1   -1    0    0    0  501  0.00000000000E+00  0.00000000000E+00 -0.78450328610E+03  0.78450328612E+03  0.50400001928E-02 0.  1.
    10030    2    1    2    0    0  0.00000000000E+00  0.00000000000E+00 -0.16268982852E+03  0.14063167437E+04  0.13968746556E+04 0.  0.
        1    1    3    3  502    0 -0.34284176568E+03 -0.60664141067E+03 -0.33479634104E+02  0.69762107434E+03  0.50400001928E-02 0. -1.
       -1    1    3    3    0  502  0.34284176568E+03  0.60664141067E+03 -0.12921019442E+03  0.70869566938E+03  0.50400001928E-02 0.  1.
</event>
<event>
 5   0  0.5875298E-04  0.1394448E+04  0.7818609E-02  0.8957847E-01
        1   -1    0    0  501    0  0.00000000000E+00  0.00000000000E+00  0.15027750581E+04  0.15027750581E+04  0.50400001928E-02 0.  1.
       -1   -1    0    0    0  501  0.00000000000E+00  0.00000000000E+00 -0.32348225739E+03  0.32348225742E+03  0.50400001928E-02 0. -1.
    10030    2    1    2    0    0  0.00000000000E+00  0.00000000000E+00  0.11792928007E+04  0.18262573155E+04  0.13944476586E+04 0.  0.
        1    1    3    3  502    0  0.18552064953E+03 -0.39429257851E+03 -0.12317224201E+03  0.45283103923E+03  0.50400001928E-02 0. -1.
       -1    1    3    3    0  502 -0.18552064953E+03  0.39429257851E+03  0.13024650427E+04  0.13734262763E+04  0.50400001928E-02 0.  1.
</event>
<event>
 5   0  0.1095119E-03  0.1403098E+04  0.7818609E-02  0.8951579E-01
        2   -1    0    0  501    0  0.00000000000E+00  0.00000000000E+00  0.12054061068E+04  0.12054061068E+04  0.25500000920E-02 0.  1.
       -2   -1    0    0    0  501  0.00000000000E+00  0.00000000000E+00 -0.40830300956E+03  0.40830300957E+03  0.25500000920E-02 0. -1.
    10030    2    1    2    0    0  0.00000000000E+00  0.00000000000E+00  0.79710309723E+03  0.16137091164E+04  0.14030979170E+04 0.  0.
        5    1    3    3  502    0 -0.33463665820E+03  0.50917647926E+03  0.79846134727E+03  0.10043928480E+04  0.46999998093E+01 0. -1.
       -5    1    3    3    0  502  0.33463665820E+03 -0.50917647926E+03 -0.13582500434E+01  0.60931626835E+03  0.46999998093E+01 0.  1.
</event>
<event>
 5   0  0.6153318E-04  0.1441423E+04  0.7818609E-02  0.8924368E-01
        1   -1    0    0  501    0  0.00000000000E+00  0.00000000000E+00  0.56250346530E+03  0.56250346533E+03  0.50400001928E-02 0.  1.
       -1   -1    0    0    0  501  0.00000000000E+00  0.00000000000E+00 -0.92341675785E+03  0.92341675787E+03  0.50400001928E-02 0. -1.
    10030    2    1    2    0    0  0.00000000000E+00  0.00000000000E+00 -0.36091329255E+03  0.14859202232E+04  0.14414230833E+04 0.  0.
        5    1    3    3  502    0 -0.12847352019E+03  0.70188965328E+03 -0.76096593682E+02  0.71761222979E+03  0.46999998093E+01 0.  1.
       -5    1    3    3    0  502  0.12847352019E+03 -0.70188965328E+03 -0.28481669887E+03  0.76830799340E+03  0.46999998093E+01 0. -1.
</event>
<event>
 5   0  0.1108819E-03  0.1404892E+04  0.7818609E-02  0.8950285E-01
       -2   -1    0    0    0  501  0.00000000000E+00  0.00000000000E+00  0.31114594582E+03  0.31114594583E+03  0.25500000920E-02 0.  1.
        2   -1    0    0  501    0  0.00000000000E+00  0.00000000000E+00 -0.15858488642E+04  0.15858488642E+04  0.25500000920E-02 0. -1.
    10030    2    1    2    0    0  0.00000000000E+00  0.00000000000E+00 -0.12747029184E+04  0.18969948100E+04  0.14048920881E+04 0.  0.
        3    1    3    3  502    0  0.24106048897E+03 -0.35348282795E+03  0.11490020982E+03  0.44301505326E+03  0.10100000352E+00 0.  1.
       -3    1    3    3    0  502 -0.24106048897E+03  0.35348282795E+03 -0.13896031282E+04  0.14539797568E+04  0.10100000352E+00 0. -1.
</event>
<event>
 5   0  0.1098949E-03  0.1398456E+04  0.7818609E-02  0.8954937E-01
        2   -1    0    0  501    0  0.00000000000E+00  0.00000000000E+00  0.63162071091E+03  0.63162071092E+03  0.25500000920E-02 0.  1.
       -2   -1    0    0    0  501  0.00000000000E+00  0.00000000000E+00 -0.77407183472E+03  0.77407183472E+03  0.25500000920E-02 0. -1.
    10030    2    1    2    0    0  0.00000000000E+00  0.00000000000E+00 -0.14245112381E+03  0.14056925456E+04  0.13984560094E+04 0.  0.
        4    1    3    3  502    0  0.19787310598E+03  0.53643481953E+03 -0.47580319106E+03  0.74384566356E+03  0.12699999809E+01 0. -1.
       -4    1    3    3    0  502 -0.19787310598E+03 -0.53643481953E+03  0.33335206726E+03  0.66184688208E+03  0.12699999809E+01 0.  1.
</event>
<event>
 5   0  0.1108819E-03  0.1387193E+04  0.7818609E-02  0.8963142E-01
        2   -1    0    0  501    0  0.00000000000E+00  0.00000000000E+00  0.18873935510E+04  0.18873935510E+04  0.25500000920E-02 0.  1.
       -2   -1    0    0    0  501  0.00000000000E+00  0.00000000000E+00 -0.25488904685E+03  0.25488904686E+03  0.25500000920E-02 0. -1.
    10030    2    1    2    0    0  0.00000000000E+00  0.00000000000E+00  0.16325045041E+04  0.21422825978E+04  0.13871927671E+04 0.  0.
        3    1    3    3  502    0 -0.17606976733E+03 -0.59647086430E+03  0.12904843053E+04  0.14325249762E+04  0.10100000352E+00 0.  1.
       -3    1    3    3    0  502  0.17606976733E+03  0.59647086430E+03  0.34202019885E+03  0.70975762169E+03  0.10100000352E+00 0. -1.
</event>
<event>
 5   0  0.1175146E-03  0.1357228E+04  0.7818609E-02  0.8985374E-01
       -2   -1    0    0    0  501  0.00000000000E+00  0.00000000000E+00  0.10576445697E+04  0.10576445697E+04  0.25500000920E-02 0.  1.
        2   -1    0    0  501    0  0.00000000000E+00  0.00000000000E+00 -0.43541774506E+03  0.43541774507E+03  0.25500000920E-02 0. -1.
    10030    2    1    2    0    0  0.00000000000E+00  0.00000000000E+00  0.62222682465E+03  0.14930623148E+04  0.13572283723E+04 0.  0.
        1    1    3    3  502    0 -0.26389897492E+03  0.51315128551E+03 -0.81771861759E+02  0.58279803378E+03  0.50400001928E-02 0. -1.
       -1    1    3    3    0  502  0.26389897492E+03 -0.51315128551E+03  0.70399868641E+03  0.91026428101E+03  0.50400001928E-02 0.  1.
</event>
<event>
 5   0  0.6097538E-04  0.1386597E+04  0.7818609E-02  0.8963578E-01
        1   -1    0    0  501    0  0.00000000000E+00  0.00000000000E+00  0.12487822177E+04  0.12487822177E+04  0.50400001928E-02 0.  1.
       -1   -1    0    0    0  501  0.00000000000E+00  0.00000000000E+00 -0.38490503730E+03  0.38490503733E+03  0.50400001928E-02 0. -1.
    10030    2    1    2    0    0  0.00000000000E+00  0.00000000000E+00  0.86387718043E+03  0.16336872551E+04  0.13865966481E+04 0.  0.
        2    1    3    3  502    0  0.16221200058E+02 -0.65245603188E+03  0.15637953816E+03  0.67113080754E+03  0.25500000920E-02 0. -1.
       -2    1    3    3    0  502 -0.16221200058E+02  0.65245603188E+03  0.70749764227E+03  0.96255644753E+03  0.25500000920E-02 0.  1.
</event>
<event>
 5   0  0.6194742E-04  0.1403009E+04  0.7818609E-02  0.8951644E-01
       -1   -1    0    0    0  501  0.00000000000E+00  0.00000000000E+00  0.40956548736E+03  0.40956548739E+03  0.50400001928E-02 0.  1.
        1   -1    0    0  501    0  0.00000000000E+00  0.00000000000E+00 -0.12015375561E+04  0.12015375561E+04  0.50400001928E-02 0. -1.
    10030    2    1    2    0    0  0.00000000000E+00  0.00000000000E+00 -0.79197206871E+03  0.16111030435E+04  0.14030086454E+04 0.  0.
        4    1    3    3  502    0 -0.56506953757E+03  0.10196247390E+03  0.66783798233E+02  0.57806713882E+03  0.12699999809E+01 0.  1.
       -4    1    3    3    0  502  0.56506953757E+03 -0.10196247390E+03 -0.85875586694E+03  0.10330359046E+04  0.12699999809E+01 0. -1.
</event>
<event>
 5   0  0.1095119E-03  0.1418674E+04  0.7818609E-02  0.8940411E-01
       -2   -1    0    0    0  501  0.00000000000E+00  0.00000000000E+00  0.57710655029E+03  0.57710655030E+03  0.25500000920E-02 0.  1.
        2   -1    0    0  501    0  0.00000000000E+00  0.00000000000E+00 -0.87186548718E+03  0.87186548718E+03  0.25500000920E-02 0. -1.
    10030    2    1    2    0    0  0.00000000000E+00  0.00000000000E+00 -0.29475893689E+03  0.14489720375E+04  0.14186744287E+04 0.  0.
        5    1    3    3  502    0 -0.41453270059E+03 -0.44319588643E+03  0.22772012978E+03  0.64818091696E+03  0.46999998093E+01 0.  1.
       -5    1    3    3    0  502  0.41453270059E+03  0.44319588643E+03 -0.52247906667E+03  0.80079112052E+03  0.46999998093E+01 0. -1.
</event>
<event>
 5   0  0.5875298E-04  0.1399720E+04  0.7818609E-02  0.8954021E-01
        1   -1    0    0  501    0  0.00000000000E+00  0.00000000000E+00  0.36882466997E+03  0.36882467001E+03  0.50400001928E-02 0.  1.
       -1   -1    0    0    0  501  0.00000000000E+00  0.00000000000E+00 -0.13280127167E+04  0.13280127167E+04  0.50400001928E-02 0. -1.
    10030    2    1    2    0    0  0.00000000000E+00  0.00000000000E+00 -0.95918804669E+03  0.16968373867E+04  0.13997197605E+04 0.  0.
        1    1    3    3  502    0  0.10265894125E+03  0.20899488260E+03 -0.12796790694E+04  0.13006906780E+04  0.50400001928E-02 0. -1.
       -1    1    3    3    0  502 -0.10265894125E+03 -0.20899488260E+03  0.32049102268E+03  0.39614670870E+03  0.50400001928E-02 0.  1.
</event>
<event>
 5   0  0.6194742E-04  0.1395949E+04  0.7818609E-02  0.8956756E-01
        1   -1    0    0  501    0  0.00000000000E+00  0.00000000000E+00  0.14650513342E+04  0.14650513343E+04  0.50400001928E-02 0.  1.
       -1   -1    0    0    0  501  0.00000000000E+00  0.00000000000E+00 -0.33252650876E+03  0.33252650880E+03  0.50400001928E-02 0. -1.
    10030    2    1    2    0    0  0.00000000000E+00  0.00000000000E+00  0.11325248255E+04  0.17975778431E+04  0.13959490039E+04 0.  0.
        4    1    3    3  502    0 -0.44241528405E+02 -0.69437480075E+03  0.63741485083E+03  0.94361696769E+03  0.12699999809E+01 0. -1.
       -4    1    3    3    0  502  0.44241528405E+02  0.69437480075E+03  0.49510997466E+03  0.85396087537E+03  0.12699999809E+01 0.  1.
</event>
<event>
 5   0  0.6153318E-04  0.1449435E+04  0.7818609E-02  0.8918792E-01
        1   -1    0    0  501    0  0.00000000000E+00  0.00000000000E+00  0.48487340716E+03  0.48487340718E+03  0.50400001928E-02 0. -1.
       -1   -1    0    0    0  501  0.00000000000E+00  0.00000000000E+00 -0.10832013117E+04  0.10832013117E+04  0.50400001928E-02 0.  1.
    10030    2    1    2    0    0  0.00000000000E+00  0.00000000000E+00 -0.59832790454E+03  0.15680747189E+04  0.14494350771E+04 0.  0.
        5    1    3    3  502    0 -0.43503222534E+03 -0.20586295449E+03 -0.88532511147E+03  0.10076979885E+04  0.46999998093E+01 0.  1.
       -5    1    3    3    0  502  0.43503222534E+03  0.20586295449E+03  0.28699720694E+03  0.56037673034E+03  0.46999998093E+01 0. -1.
</event>
<event>
 5   0  0.1098949E-03  0.1329988E+04  0.7818609E-02  0.9006117E-01
        2   -1    0    0  501    0  0.00000000000E+00  0.00000000000E+00  0.83546074772E+03  0.83546074773E+03  0.25500000920E-02 0.  1.
       -2   -1    0    0    0  501  0.00000000000E+00  0.00000000000E+00 -0.52930904799E+03  0.52930904800E+03  0.25500000920E-02 0. -1.
    10030    2    1    2    0    0  0.00000000000E+00  0.00000000000E+00  0.30615169973E+03  0.13647697957E+04  0.13299878692E+04 0.  0.
        4    1    3    3  502    0  0.49765160985E+03  0.54748109163E+02  0.60219863539E+03  0.78313427304E+03  0.12699999809E+01 0. -1.
       -4    1    3    3    0  502 -0.49765160985E+03 -0.54748109163E+02 -0.29604693566E+03  0.58163552269E+03  0.12699999809E+01 0.  1.
</event>
<event>
 5   0  0.5875298E-04  0.1400457E+04  0.7818609E-02  0.8953487E-01
       -1   -1    0    0    0  501  0.00000000000E+00  0.00000000000E+00  0.68002750895E+03  0.68002750897E+03  0.50400001928E-02 0. -1.
        1   -1    0    0  501    0  0.00000000000E+00  0.00000000000E+00 -0.72103008213E+03  0.72103008215E+03  0.50400001928E-02 0.  1.
    10030    2    1    2    0    0  0.00000000000E+00  0.00000000000E+00 -0.41002573187E+02  0.14010575911E+04  0.14004574833E+04 0.  0.
        1    1    3    3  502    0  0.42573919446E+03  0.50574434198E+03 -0.25144450237E+03  0.70728745143E+03  0.50400001928E-02 0.  1.
       -1    1    3    3    0  502 -0.42573919446E+03 -0.50574434198E+03  0.21044192919E+03  0.69377013969E+03  0.50400001928E-02 0. -1.
</event>
<event>
 5   0  0.1120053E-03  0.1387166E+04  0.7818609E-02  0.8963161E-01
        2   -1    0    0  501    0  0.00000000000E+00  0.00000000000E+00  0.56296595318E+03  0.56296595319E+03  0.25500000920E-02 0.  1.
       -2   -1    0    0    0  501  0.00000000000E+00  0.00000000000E+00 -0.85450517040E+03  0.85450517041E+03  0.25500000920E-02 0. -1.
    10030    2    1    2    0    0  0.00000000000E+00  0.00000000000E+00 -0.29153921722E+03  0.14174711236E+04  0.13871659133E+04 0.  0.
        2    1    3    3  502    0  0.51022098588E+03 -0.46018850636E+03 -0.49052994562E+02  0.68884331463E+03  0.25500000920E-02 0.  1.
       -2    1    3    3    0  502 -0.51022098588E+03  0.46018850636E+03 -0.24248622266E+03  0.72862780897E+03  0.25500000920E-02 0. -1.
</event>
<event>
 5   0  0.1095119E-03  0.1400514E+04  0.7818609E-02  0.8953447E-01
        2   -1    0    0  501    0  0.00000000000E+00  0.00000000000E+00  0.19072056427E+04  0.19072056427E+04  0.25500000920E-02 0.  1.
       -2   -1    0    0    0  501  0.00000000000E+00  0.00000000000E+00 -0.25710909788E+03  0.25710909790E+03  0.25500000920E-02 0. -1.
    10030    2    1    2    0    0  0.00000000000E+00  0.00000000000E+00  0.16500965448E+04  0.21643147406E+04  0.14005140803E+04 0.  0.
        5    1    3    3  502    0  0.85361258711E+02 -0.28200150343E+03 -0.15662945071E+03  0.33371584807E+03  0.46999998093E+01 0. -1.
       -5    1    3    3    0  502 -0.85361258711E+02  0.28200150343E+03  0.18067259955E+04  0.18305988925E+04  0.46999998093E+01 0.  1.
</event>
<event>
 5   0  0.6114266E-04  0.1429578E+04  0.7818609E-02  0.8932683E-01
       -1   -1    0    0    0  501  0.00000000000E+00  0.00000000000E+00  0.55239431709E+03  0.55239431712E+03  0.50400001928E-02 0. -1.
        1   -1    0    0  501    0  0.00000000000E+00  0.00000000000E+00 -0.92492485227E+03  0.92492485228E+03  0.50400001928E-02 0.  1.
    10030    2    1    2    0    0  0.00000000000E+00  0.00000000000E+00 -0.37253053518E+03  0.14773191694E+04  0.14295778848E+04 0.  0.
        3    1    3    3  502    0 -0.14507087601E+03  0.63815478583E+03 -0.48333027884E+03  0.81356945517E+03  0.10100000352E+00 0.  1.
       -3    1    3    3    0  502  0.14507087601E+03 -0.63815478583E+03  0.11079974367E+03  0.66374971423E+03  0.10100000352E+00 0. -1.
</event>
<event>
 5   0  0.6153318E-04  0.1390692E+04  0.7818609E-02  0.8960584E-01
       -1   -1    0    0    0  501  0.00000000000E+00  0.00000000000E+00  0.29598927663E+03  0.29598927667E+03  0.50400001928E-02 0.  1.
        1   -1    0    0  501    0  0.00000000000E+00  0.00000000000E+00 -0.16335262748E+04  0.16335262748E+04  0.50400001928E-02 0. -1.
    10030    2    1    2    0    0  0.00000000000E+00  0.00000000000E+00 -0.13375369982E+04  0.19295155515E+04  0.13906922887E+04 0.  0.
        5    1    3    3  502    0  0.61017686188E+03  0.31719607960E+03 -0.81131175022E+03  0.10635685223E+04  0.46999998093E+01 0. -1.
       -5    1    3    3    0  502 -0.61017686188E+03 -0.31719607960E+03 -0.52622524794E+03  0.86594702913E+03  0.46999998093E+01 0.  1.
</event>
<event>
 5   0  0.1120053E-03  0.1394585E+04  0.7818609E-02  0.8957747E-01
       -2   -1    0    0    0  501  0.00000000000E+00  0.00000000000E+00  0.13339119161E+04  0.13339119161E+04  0.25500000920E-02 0. -1.
        2   -1    0    0  501    0  0.00000000000E+00  0.00000000000E+00 -0.36450461887E+03  0.36450461888E+03  0.25500000920E-02 0.  1.
    10030    2    1    2    0    0  0.00000000000E+00  0.00000000000E+00  0.96940729722E+03  0.16984165350E+04  0.13945853213E+04 0.  0.
        2    1    3    3  502    0  0.47484169814E+03 -0.44983030047E+03  0.77900169981E+03  0.10171851286E+04  0.25500000920E-02 0. -1.
       -2    1    3    3    0  502 -0.47484169814E+03  0.44983030047E+03  0.19040559741E+03  0.68123140638E+03  0.25500000920E-02 0.  1.
</event>
<event>
 5   0  0.6194742E-04  0.1389063E+04  0.7818609E-02  0.8961773E-01
       -1   -1    0    0    0  501  0.00000000000E+00  0.00000000000E+00  0.76990049724E+03  0.76990049726E+03  0.50400001928E-02 0. -1.
        1   -1    0    0  501    0  0.00000000000E+00  0.00000000000E+00 -0.62654115918E+03  0.62654115920E+03  0.50400001928E-02 0.  1.
    10030    2    1    2    0    0  0.00000000000E+00  0.00000000000E+00  0.14335933807E+03  0.13964416565E+04  0.13890634975E+04 0.  0.
        4    1    3    3  502    0 -0.62732569110E+03 -0.91366297253E+02  0.35688962663E+03  0.72750061270E+03  0.12699999809E+01 0. -1.
       -4    1    3    3    0  502  0.62732569110E+03  0.91366297253E+02 -0.21353028856E+03  0.66894104375E+03  0.12699999809E+01 0.  1.
</event>
<event>
 5   0  0.1108819E-03  0.1395431E+04  0.7818609E-02  0.8957133E-01
        2   -1    0    0  501    0  0.00000000000E+00  0.00000000000E+00  0.71088953881E+03  0.71088953882E+03  0.25500000920E-02 0. -1.
       -2   -1    0    0    0  501  0.00000000000E+00  0.00000000000E+00 -0.68478546805E+03  0.68478546805E+03  0.25500000920E-02 0.  1.
    10030    2    1    2    0    0  0.00000000000E+00  0.00000000000E+00  0.26104070766E+02  0.13956750069E+04  0.13954308662E+04 0.  0.
        3    1    3    3  502    0  0.37497202347E+03  0.45899592902E+03 -0.35515030114E+03  0.69095081434E+03  0.10100000352E+00 0.  1.
       -3    1    3    3    0  502 -0.37497202347E+03 -0.45899592902E+03  0.38125437190E+03  0.70472419253E+03  0.10100000352E+00 0. -1.
</event>
<event>
 5   0  0.1095119E-03  0.1387081E+04  0.7818609E-02  0.8963223E-01
        2   -1    0    0  501    0  0.00000000000E+00  0.00000000000E+00  0.13061010742E+04  0.13061010742E+04  0.25500000920E-02 0. -1.
       -2   -1    0    0    0  501  0.00000000000E+00  0.00000000000E+00 -0.36827055145E+03  0.36827055146E+03  0.25500000920E-02 0.  1.
    10030    2    1    2    0    0  0.00000000000E+00  0.00000000000E+00  0.93783052278E+03  0.16743716257E+04  0.13870811986E+04 0.  0.
        5    1    3    3  502    0  0.16268712987E+03  0.67411936230E+03  0.45864013432E+03  0.83143062228E+03  0.46999998093E+01 0. -1.
       -5    1    3    3    0  502 -0.16268712987E+03 -0.67411936230E+03  0.47919038846E+03  0.84294100342E+03  0.46999998093E+01 0.  1.
</event>
<event>
 5   0  0.1175146E-03  0.1392531E+04  0.7818609E-02  0.8959243E-01
        2   -1    0    0  501    0  0.00000000000E+00  0.00000000000E+00  0.15263961203E+04  0.15263961203E+04  0.25500000920E-02 0. -1.
       -2   -1    0    0    0  501  0.00000000000E+00  0.00000000000E+00 -0.31760147048E+03  0.31760147049E+03  0.25500000920E-02 0.  1.
    10030    2    1    2    0    0  0.00000000000E+00  0.00000000000E+00  0.12087946498E+04  0.18439975908E+04  0.13925310084E+04 0.  0.
        1    1    3    3  502    0 -0.33915559264E+03 -0.17008636922E+02 -0.20050831857E+03  0.39435947508E+03  0.50400001928E-02 0.  1.
       -1    1    3    3    0  502  0.33915559264E+03  0.17008636922E+02  0.14093029684E+04  0.14496381157E+04  0.50400001928E-02 0. -1.
</event>
<event>
 5   0  0.6194742E-04  0.1403898E+04  0.7818609E-02  0.8951002E-01
        1   -1    0    0  501    0  0.00000000000E+00  0.00000000000E+00  0.77961676455E+03  0.77961676457E+03  0.50400001928E-02 0. -1.
       -1   -1    0    0    0  501  0.00000000000E+00  0.00000000000E+00 -0.63201858273E+03  0.63201858275E+03  0.50400001928E-02 0.  1.
    10030    2    1    2    0    0  0.00000000000E+00  0.00000000000E+00  0.14759818183E+03  0.14116353473E+04  0.14038978348E+04 0.  0.
        4    1    3    3  502    0 -0.16954781618E+03 -0.56694035453E+03  0.45345502537E+03  0.74551384998E+03  0.12699999809E+01 0. -1.
       -4    1    3    3    0  502  0.16954781618E+03  0.56694035453E+03 -0.30585684355E+03  0.66612149734E+03  0.12699999809E+01 0.  1.
</event>
<event>
 5   0  0.1175146E-03  0.1399798E+04  0.7818609E-02  0.8953964E-01
        2   -1    0    0  501    0  0.00000000000E+00  0.00000000000E+00  0.19860248249E+04  0.19860248249E+04  0.25500000920E-02 0.  1.
       -2   -1    0    0    0  501  0.00000000000E+00  0.00000000000E+00 -0.24665296624E+03  0.24665296625E+03  0.25500000920E-02 0. -1.
    10030    2    1    2    0    0  0.00000000000E+00  0.00000000000E+00  0.17393718587E+04  0.22326777912E+04  0.13997984342E+04 0.  0.
        1    1    3    3  502    0  0.30298672365E+03 -0.43242364805E+03  0.16024623519E+04  0.16872097544E+04  0.50400001928E-02 0.  1.
       -1    1    3    3    0  502 -0.30298672365E+03  0.43242364805E+03  0.13690950684E+03  0.54546803682E+03  0.50400001928E-02 0. -1.
</event>
<event>
 5   0  0.5875298E-04  0.1435009E+04  0.7818609E-02  0.8928860E-01
        1   -1    0    0  501    0  0.00000000000E+00  0.00000000000E+00  0.73858274109E+03  0.73858274111E+03  0.50400001928E-02 0. -1.
       -1   -1    0    0    0  501  0.00000000000E+00  0.00000000000E+00 -0.69702822116E+03  0.69702822118E+03  0.50400001928E-02 0.  1.
    10030    2    1    2    0    0  0.00000000000E+00  0.00000000000E+00  0.41554519932E+02  0.14356109623E+04  0.14350094275E+04 0.  0.
        1    1    3    3  502    0 -0.50689580839E+03 -0.17059945741E+02  0.52851203667E+03  0.73250213327E+03  0.50400001928E-02 0. -1.
       -1    1    3    3    0  502  0.50689580839E+03  0.17059945741E+02 -0.48695751673E+03  0.70310882902E+03  0.50400001928E-02 0.  1.
</event>
<event>
 5   0  0.1098949E-03  0.1406198E+04  0.7818609E-02  0.8949344E-01
        2   -1    0    0  501    0  0.00000000000E+00  0.00000000000E+00  0.42572472480E+03  0.42572472481E+03  0.25500000920E-02 0. -1.
       -2   -1    0    0    0  501  0.00000000000E+00  0.00000000000E+00 -0.11611920748E+04  0.11611920748E+04  0.25500000920E-02 0.  1.
    10030    2    1    2    0    0  0.00000000000E+00  0.00000000000E+00 -0.73546735002E+03  0.15869167996E+04  0.14061979612E+04 0.  0.
        4    1    3    3  502    0 -0.43107649547E+02 -0.66263702432E+03 -0.62851724487E+03  0.91432031337E+03  0.12699999809E+01 0.  1.
       -4    1    3    3    0  502  0.43107649547E+02  0.66263702432E+03 -0.10695010515E+03  0.67259648627E+03  0.12699999809E+01 0. -1.
</event>
<event>
 5   0  0.5875298E-04  0.1405623E+04  0.7818609E-02  0.8949758E-01
       -1   -1    0    0    0  501  0.00000000000E+00  0.00000000000E+00  0.48645525053E+03  0.48645525056E+03  0.50400001928E-02 0.  1.
        1   -1    0    0  501    0  0.00000000000E+00  0.00000000000E+00 -0.10153946521E+04  0.10153946521E+04  0.50400001928E-02 0. -1.
    10030    2    1    2    0    0  0.00000000000E+00  0.00000000000E+00 -0.52893940153E+03  0.15018499026E+04  0.14056230788E+04 0.  0.
        1    1    3    3  502    0 -0.49249388241E+03  0.46138798987E+03 -0.47415711705E+03  0.82477516517E+03  0.50400001928E-02 0. -1.
       -1    1    3    3    0  502  0.49249388241E+03 -0.46138798987E+03 -0.54782284488E+02  0.67707473747E+03  0.50400001928E-02 0.  1.
</event>
<event>
 5   0  0.1095119E-03  0.1324539E+04  0.7818609E-02  0.9010329E-01
        2   -1    0    0  501    0  0.00000000000E+00  0.00000000000E+00  0.29685752702E+03  0.29685752704E+03  0.25500000920E-02 0. -1.
       -2   -1    0    0    0  501  0.00000000000E+00  0.00000000000E+00 -0.14774786440E+04  0.14774786440E+04  0.25500000920E-02 0.  1.
    10030    2    1    2    0    0  0.00000000000E+00  0.00000000000E+00 -0.11806211170E+04  0.17743361711E+04  0.13245386465E+04 0.  0.
        5    1    3    3  502    0 -0.52615628066E+03 -0.22223093422E+03 -0.10393255068E+04  0.11859370215E+04  0.46999998093E+01 0.  1.
       -5    1    3    3    0  502  0.52615628066E+03  0.22223093422E+03 -0.14129561021E+03  0.58839914961E+03  0.46999998093E+01 0. -1.
</event>
<event>
 5   0  0.1095119E-03  0.1391636E+04  0.7818609E-02  0.8959895E-01
       -2   -1    0    0    0  501  0.00000000000E+00  0.00000000000E+00  0.46250426420E+03  0.46250426420E+03  0.25500000920E-02 0.  1.
        2   -1    0    0  501    0  0.00000000000E+00  0.00000000000E+00 -0.10468282256E+04  0.10468282256E+04  0.25500000920E-02 0. -1.
    10030    2    1    2    0    0  0.00000000000E+00  0.00000000000E+00 -0.58432396141E+03  0.15093324898E+04  0.13916357544E+04 0.  0.
        5    1    3    3  502    0 -0.22809296678E+03  0.30309832321E+03  0.34047634006E+03  0.50974623409E+03  0.46999998093E+01 0.  1.
       -5    1    3    3    0  502  0.22809296678E+03 -0.30309832321E+03 -0.92480030147E+03  0.99958625572E+03  0.46999998093E+01 0. -1.
</event>
<event>
 5   0  0.1120053E-03  0.1293400E+04  0.7818609E-02  0.9034816E-01
        2   -1    0    0  501    0  0.00000000000E+00  0.00000000000E+00  0.67871385714E+03  0.67871385715E+03  0.25500000920E-02 0.  1.
       -2   -1    0    0    0  501  0.00000000000E+00  0.00000000000E+00 -0.61619579091E+03  0.61619579091E+03  0.25500000920E-02 0. -1.
    10030    2    1    2    0    0  0.00000000000E+00  0.00000000000E+00  0.62518066234E+02  0.12949096481E+04  0.12933995856E+04 0.  0.
        2    1    3    3  502    0 -0.41556108435E+03 -0.37938868482E+03 -0.28785097298E+03  0.63204823522E+03  0.25500000920E-02 0. -1.
       -2    1    3    3    0  502  0.41556108435E+03  0.37938868482E+03  0.35036903921E+03  0.66286141284E+03  0.25500000920E-02 0.  1.
</event>
<event>
 5   0  0.1120053E-03  0.1397228E+04  0.7818609E-02  0.8955827E-01
       -2   -1    0    0    0  501  0.00000000000E+00  0.00000000000E+00  0.80163863895E+03  0.80163863895E+03  0.25500000920E-02 0.  1.
        2   -1    0    0  501    0  0.00000000000E+00  0.00000000000E+00 -0.60882996246E+03  0.60882996246E+03  0.25500000920E-02 0. -1.
    10030    2    1    2    0    0  0.00000000000E+00  0.00000000000E+00  0.19280867649E+03  0.14104686014E+04  0.13972281452E+04 0.  0.
        2    1    3    3  502    0 -0.45632763281E+03 -0.46352845084E+03  0.35370810523E+03  0.74040729124E+03  0.25500000920E-02 0.  1.
       -2    1    3    3    0  502  0.45632763281E+03  0.46352845084E+03 -0.16089942875E+03  0.67006131017E+03  0.25500000920E-02 0. -1.
</event>
<event>
 5   0  0.1175146E-03  0.1395339E+04  0.7818609E-02  0.8957200E-01
       -2   -1    0    0    0  501  0.00000000000E+00  0.00000000000E+00  0.45068485991E+03  0.45068485991E+03  0.25500000920E-02 0.  1.
        2   -1    0    0  501    0  0.00000000000E+00  0.00000000000E+00 -0.10800064357E+04  0.10800064357E+04  0.25500000920E-02 0. -1.
    10030    2    1    2    0    0  0.00000000000E+00  0.00000000000E+00 -0.62932157575E+03  0.15306912956E+04  0.13953387390E+04 0.  0.
        1    1    3    3  502    0 -0.94876784102E+02  0.33343957313E+03 -0.97883177726E+03  0.10384099389E+04  0.50400001928E-02 0. -1.
       -1    1    3    3    0  502  0.94876784102E+02 -0.33343957313E+03  0.34951020152E+03  0.49228135663E+03  0.50400001928E-02 0.  1.
</event>
<event>
 5   0  0.6114266E-04  0.1421599E+04  0.7818609E-02  0.8938331E-01
        1   -1    0    0  501    0  0.00000000000E+00  0.00000000000E+00  0.64222230557E+03  0.64222230559E+03  0.50400001928E-02 0.  1.
       -1   -1    0    0    0  501  0.00000000000E+00  0.00000000000E+00 -0.78669964383E+03  0.78669964385E+03  0.50400001928E-02 0. -1.
    10030    2    1    2    0    0  0.00000000000E+00  0.00000000000E+00 -0.14447733826E+03  0.14289219494E+04  0.14215991827E+04 0.  0.
        3    1    3    3  502    0 -0.33810684305E+03  0.49269339024E+03  0.31467665459E+03  0.67534022630E+03  0.10100000352E+00 0.  1.
       -3    1    3    3    0  502  0.33810684305E+03 -0.49269339024E+03 -0.45915399285E+03  0.75358172314E+03  0.10100000352E+00 0. -1.
</event>
<event>
 5   0  0.6114266E-04  0.1453434E+04  0.7818609E-02  0.8916023E-01
       -1   -1    0    0    0  501  0.00000000000E+00  0.00000000000E+00  0.41284011892E+03  0.41284011895E+03  0.50400001928E-02 0. -1.
        1   -1    0    0  501    0  0.00000000000E+00  0.00000000000E+00 -0.12792310916E+04  0.12792310916E+04  0.50400001928E-02 0.  1.
    10030    2    1    2    0    0  0.00000000000E+00  0.00000000000E+00 -0.86639097267E+03  0.16920712105E+04  0.14534344375E+04 0.  0.
        3    1    3    3  502    0  0.23813376613E+03  0.61810536134E+03 -0.78120009492E+03  0.10242243537E+04  0.10100000352E+00 0.  1.
       -3    1    3    3    0  502 -0.23813376613E+03 -0.61810536134E+03 -0.85190877747E+02  0.66784685680E+03  0.10100000352E+00 0. -1.
</event>
<event>
 5   0  0.4176125E-04  0.1394656E+04  0.7818609E-02  0.8957696E-01
        3   -1    0    0  501    0  0.00000000000E+00  0.00000000000E+00  0.53228966338E+03  0.53228967296E+03  0.10100000352E+00 0. -1.
       -3   -1    0    0    0  501  0.00000000000E+00  0.00000000000E+00 -0.91353678878E+03  0.91353679437E+03  0.10100000352E+00 0.  1.
    10030    2    1    2    0    0  0.00000000000E+00  0.00000000000E+00 -0.38124712541E+03  0.14458264673E+04  0.13946558009E+04 0.  0.
        3    1    3    3  502    0  0.14214472911E+03  0.18287452557E+03  0.49124616967E+03  0.54311235075E+03  0.10100000352E+00 0. -1.
       -3    1    3    3    0  502 -0.14214472911E+03 -0.18287452557E+03 -0.87249329508E+03  0.90271411658E+03  0.10100000352E+00 0.  1.
</event>
<event>
 5   0  0.1108819E-03  0.1385427E+04  0.7818609E-02  0.8964435E-01
       -2   -1    0    0    0  501  0.00000000000E+00  0.00000000000E+00  0.27520406017E+03  0.27520406018E+03  0.25500000920E-02 0.  1.
        2   -1    0    0  501    0  0.00000000000E+00  0.00000000000E+00 -0.17436230771E+04  0.17436230771E+04  0.25500000920E-02 0. -1.
    10030    2    1    2    0    0  0.00000000000E+00  0.00000000000E+00 -0.14684190169E+04  0.20188271373E+04  0.13854272269E+04 0.  0.
        3    1    3    3  502    0  0.34423470620E+03 -0.18961725592E+03  0.97026073578E+02  0.40480403389E+03  0.10100000352E+00 0.  1.
       -3    1    3    3    0  502 -0.34423470620E+03  0.18961725592E+03 -0.15654450905E+04  0.16140231034E+04  0.10100000352E+00 0. -1.
</event>
<event>
 5   0  0.5875298E-04  0.1400489E+04  0.7818609E-02  0.8953465E-01
        1   -1    0    0  501    0  0.00000000000E+00  0.00000000000E+00  0.65366822615E+03  0.65366822617E+03  0.50400001928E-02 0.  1.
       -1   -1    0    0    0  501  0.00000000000E+00  0.00000000000E+00 -0.75013928501E+03  0.75013928502E+03  0.50400001928E-02 0. -1.
    10030    2    1    2    0    0  0.00000000000E+00  0.00000000000E+00 -0.96471058858E+02  0.14038075112E+04  0.14004887944E+04 0.  0.
        1    1    3    3  502    0  0.28967967861E+03 -0.36355646124E+03 -0.57316974717E+03  0.73797776105E+03  0.50400001928E-02 0. -1.
       -1    1    3    3    0  502 -0.28967967861E+03  0.36355646124E+03  0.47669868831E+03  0.66582975014E+03  0.50400001928E-02 0.  1.
</event>
<event>
 5   0  0.1120053E-03  0.1426134E+04  0.7818609E-02  0.8935115E-01
       -2   -1    0    0    0  501  0.00000000000E+00  0.00000000000E+00  0.81392447440E+03  0.81392447440E+03  0.25500000920E-02 0.  1.
        2   -1    0    0  501    0  0.00000000000E+00  0.00000000000E+00 -0.62470767962E+03  0.62470767962E+03  0.25500000920E-02 0. -1.
    10030    2    1    2    0    0  0.00000000000E+00  0.00000000000E+00  0.18921679478E+03  0.14386321540E+04  0.14261344534E+04 0.  0.
        2    1    3    3  502    0  0.37468543872E+03 -0.58584559384E+03  0.25366268214E+03  0.74023576929E+03  0.25500000920E-02 0.  1.
       -2    1    3    3    0  502 -0.37468543872E+03  0.58584559384E+03 -0.64445887367E+02  0.69839638474E+03  0.25500000920E-02 0. -1.
</event>
<event>
 5   0  0.6194742E-04  0.1415158E+04  0.7818609E-02  0.8942919E-01
       -1   -1    0    0    0  501  0.00000000000E+00  0.00000000000E+00  0.95860419868E+03  0.95860419870E+03  0.50400001928E-02 0.  1.
        1   -1    0    0  501    0  0.00000000000E+00  0.00000000000E+00 -0.52228841759E+03  0.52228841761E+03  0.50400001928E-02 0. -1.
    10030    2    1    2    0    0  0.00000000000E+00  0.00000000000E+00  0.43631578110E+03  0.14808926163E+04  0.14151577581E+04 0.  0.
        4    1    3    3  502    0 -0.24398913631E+03 -0.66217785781E+03  0.27208861740E+03  0.75633593239E+03  0.12699999809E+01 0. -1.
       -4    1    3    3    0  502  0.24398913631E+03  0.66217785781E+03  0.16422716369E+03  0.72455668391E+03  0.12699999809E+01 0.  1.
</event>
<event>
 5   0  0.5875298E-04  0.1272676E+04  0.7818609E-02  0.9051518E-01
       -1   -1    0    0    0  501  0.00000000000E+00  0.00000000000E+00  0.99465592639E+03  0.99465592640E+03  0.50400001928E-02 0.  1.
        1   -1    0    0  501    0  0.00000000000E+00  0.00000000000E+00 -0.40710165722E+03  0.40710165725E+03  0.50400001928E-02 0. -1.
    10030    2    1    2    0    0  0.00000000000E+00  0.00000000000E+00  0.58755426917E+03  0.14017575836E+04  0.12726760405E+04 0.  0.
        1    1    3    3  502    0  0.99687087524E+02 -0.59238497098E+03  0.62560164243E+02  0.60396294873E+03  0.50400001928E-02 0.  1.
       -1    1    3    3    0  502 -0.99687087524E+02  0.59238497098E+03  0.52499410493E+03  0.79779463491E+03  0.50400001928E-02 0. -1.
</event>
<event>
 5   0  0.6097538E-04  0.1380800E+04  0.7818609E-02  0.8967835E-01
        1   -1    0    0  501    0  0.00000000000E+00  0.00000000000E+00  0.40983999714E+03  0.40983999717E+03  0.50400001928E-02 0. -1.
       -1   -1    0    0    0  501  0.00000000000E+00  0.00000000000E+00 -0.11630202479E+04  0.11630202479E+04  0.50400001928E-02 0.  1.
    10030    2    1    2    0    0  0.00000000000E+00  0.00000000000E+00 -0.75318025075E+03  0.15728602451E+04  0.13808000798E+04 0.  0.
        2    1    3    3  502    0 -0.10688454711E+03  0.39460889956E+03 -0.10103108133E+04  0.10898937698E+04  0.25500000920E-02 0.  1.
       -2    1    3    3    0  502  0.10688454711E+03 -0.39460889956E+03  0.25713056254E+03  0.48296647526E+03  0.25500000920E-02 0. -1.
</event>
<event>
 5   0  0.6114266E-04  0.1403436E+04  0.7818609E-02  0.8951335E-01
       -1   -1    0    0    0  501  0.00000000000E+00  0.00000000000E+00  0.12737253782E+04  0.12737253782E+04  0.50400001928E-02 0.  1.
        1   -1    0    0  501    0  0.00000000000E+00  0.00000000000E+00 -0.38658911206E+03  0.38658911209E+03  0.50400001928E-02 0. -1.
    10030    2    1    2    0    0  0.00000000000E+00  0.00000000000E+00  0.88713626615E+03  0.16603144903E+04  0.14034363014E+04 0.  0.
        3    1    3    3  502    0 -0.42430318395E+03  0.99480784039E+02  0.10942146003E+04  0.11778095007E+04  0.10100000352E+00 0.  1.
       -3    1    3    3    0  502  0.42430318395E+03 -0.99480784039E+02 -0.20707833415E+03  0.48250498959E+03  0.10100000352E+00 0. -1.
</event>
<event>
 5   0  0.1098949E-03  0.1388272E+04  0.7818609E-02  0.8962352E-01
       -2   -1    0    0    0  501  0.00000000000E+00  0.00000000000E+00  0.32425666316E+03  0.32425666317E+03  0.25500000920E-02 0. -1.
        2   -1    0    0  501    0  0.00000000000E+00  0.00000000000E+00 -0.14859358074E+04  0.14859358074E+04  0.25500000920E-02 0.  1.
    10030    2    1    2    0    0  0.00000000000E+00  0.00000000000E+00 -0.11616791443E+04  0.18101924706E+04  0.13882717120E+04 0.  0.
        4    1    3    3  502    0 -0.47064284210E+03  0.15472685465E+03  0.53108528439E+02  0.49826420006E+03  0.12699999809E+01 0. -1.
       -4    1    3    3    0  502  0.47064284210E+03 -0.15472685465E+03 -0.12147876727E+04  0.13119282705E+04  0.12699999809E+01 0.  1.
</event>
<event>
 5   0  0.1098949E-03  0.1402928E+04  0.7818609E-02  0.8951702E-01
        2   -1    0    0  501    0  0.00000000000E+00  0.00000000000E+00  0.13010702542E+04  0.13010702542E+04  0.25500000920E-02 0. -1.
       -2   -1    0    0    0  501  0.00000000000E+00  0.00000000000E+00 -0.37819014415E+03  0.37819014416E+03  0.25500000920E-02 0.  1.
    10030    2    1    2    0    0  0.00000000000E+00  0.00000000000E+00  0.92288011000E+03  0.16792603983E+04  0.14029282904E+04 0.  0.
        4    1    3    3  502    0  0.14790894210E+03  0.62968681865E+03  0.13656124028E+03  0.66108481300E+03  0.12699999809E+01 0.  1.
       -4    1    3    3    0  502 -0.14790894210E+03 -0.62968681865E+03  0.78631886973E+03  0.10181755853E+04  0.12699999809E+01 0. -1.
</event>
<event>
 5   0  0.6097538E-04  0.1400314E+04  0.7818609E-02  0.8953591E-01
        1   -1    0    0  501    0  0.00000000000E+00  0.00000000000E+00  0.38119087385E+03  0.38119087389E+03  0.50400001928E-02 0.  1.
       -1   -1    0    0    0  501  0.00000000000E+00  0.00000000000E+00 -0.12860217297E+04  0.12860217297E+04  0.50400001928E-02 0. -1.
    10030    2    1    2    0    0  0.00000000000E+00  0.00000000000E+00 -0.90483085587E+03  0.16672126036E+04  0.14003138891E+04 0.  0.
        2    1    3    3  502    0  0.48046468790E+03 -0.50097943444E+03 -0.56149041121E+03  0.89280355731E+03  0.25500000920E-02 0.  1.
       -2    1    3    3    0  502 -0.48046468790E+03  0.50097943444E+03 -0.34334044465E+03  0.77440904631E+03  0.25500000920E-02 0. -1.
</event>
<event>
 5   0  0.1098949E-03  0.1393459E+04  0.7818609E-02  0.8958567E-01
       -2   -1    0    0    0  501  0.00000000000E+00  0.00000000000E+00  0.57319793928E+03  0.57319793928E+03  0.25500000920E-02 0.  1.
        2   -1    0    0  501    0  0.00000000000E+00  0.00000000000E+00 -0.84688401302E+03  0.84688401303E+03  0.25500000920E-02 0. -1.
    10030    2    1    2    0    0  0.00000000000E+00  0.00000000000E+00 -0.27368607375E+03  0.14200819523E+04  0.13934592510E+04 0.  0.
        4    1    3    3  502    0  0.48429640799E+03 -0.46890765663E+02  0.37137169653E+03  0.61209501270E+03  0.12699999809E+01 0.  1.
       -4    1    3    3    0  502 -0.48429640799E+03  0.46890765663E+02 -0.64505777027E+03  0.80798693961E+03  0.12699999809E+01 0. -1.
</event>
<event>
 5   0  0.1175146E-03  0.1298345E+04  0.7818609E-02  0.9030879E-01
        2   -1    0    0  501    0  0.00000000000E+00  0.00000000000E+00  0.95148027354E+03  0.95148027355E+03  0.25500000920E-02 0.  1.
       -2   -1    0    0    0  501  0.00000000000E+00  0.00000000000E+00 -0.44291485269E+03  0.44291485270E+03  0.25500000920E-02 0. -1.
    10030    2    1    2    0    0  0.00000000000E+00  0.00000000000E+00  0.50856542085E+03  0.13943951262E+04  0.12983447080E+04 0.  0.
        1    1    3    3  502    0  0.34625242628E+03 -0.48854865158E+03 -0.14971842752E+02  0.59899472766E+03  0.50400001928E-02 0. -1.
       -1    1    3    3    0  502 -0.34625242628E+03  0.48854865158E+03  0.52353726360E+03  0.79540039859E+03  0.50400001928E-02 0.  1.
</event>
<event>
 5   0  0.1098949E-03  0.1409716E+04  0.7818609E-02  0.8946815E-01
        2   -1    0    0  501    0  0.00000000000E+00  0.00000000000E+00  0.14713409810E+04  0.14713409810E+04  0.25500000920E-02 0. -1.
       -2   -1    0    0    0  501  0.00000000000E+00  0.00000000000E+00 -0.33766811714E+03  0.33766811715E+03  0.25500000920E-02 0.  1.
    10030    2    1    2    0    0  0.00000000000E+00  0.00000000000E+00  0.11336728638E+04  0.18090090981E+04  0.14097161966E+04 0.  0.
        4    1    3    3  502    0 -0.23171406816E+03 -0.58092987901E+03  0.14972823088E+03  0.64311048019E+03  0.12699999809E+01 0.  1.
       -4    1    3    3    0  502  0.23171406816E+03  0.58092987901E+03  0.98394463294E+03  0.11658986179E+04  0.12699999809E+01 0. -1.
</event>
<event>
 5   0  0.6114266E-04  0.1431787E+04  0.7818609E-02  0.8931125E-01
       -1   -1    0    0    0  501  0.00000000000E+00  0.00000000000E+00  0.61018732682E+03  0.61018732684E+03  0.50400001928E-02 0.  1.
        1   -1    0    0  501    0  0.00000000000E+00  0.00000000000E+00 -0.83991185853E+03  0.83991185854E+03  0.50400001928E-02 0. -1.
    10030    2    1    2    0    0  0.00000000000E+00  0.00000000000E+00 -0.22972453171E+03  0.14500991854E+04  0.14317870956E+04 0.  0.
        3    1    3    3  502    0  0.51243956107E+02 -0.78318350023E+01  0.60828394499E+03  0.61048886035E+03  0.10100000352E+00 0.  1.
       -3    1    3    3    0  502 -0.51243956107E+02  0.78318350023E+01 -0.83800847670E+03  0.83961032503E+03  0.10100000352E+00 0. -1.
</event>
<event>
 5   0  0.1095119E-03  0.1397742E+04  0.7818609E-02  0.8955455E-01
        2   -1    0    0  501    0  0.00000000000E+00  0.00000000000E+00  0.10216368417E+04  0.10216368417E+04  0.25500000920E-02 0.  1.
       -2   -1    0    0    0  501  0.00000000000E+00  0.00000000000E+00 -0.47807665399E+03  0.47807665399E+03  0.25500000920E-02 0. -1.
    10030    2    1    2    0    0  0.00000000000E+00  0.00000000000E+00  0.54356018775E+03  0.14997134957E+04  0.13977420690E+04 0.  0.
        5    1    3    3  502    0 -0.49819402354E+03 -0.48536430855E+03  0.19882838052E+03  0.72341593292E+03  0.46999998093E+01 0.  1.
       -5    1    3    3    0  502  0.49819402354E+03  0.48536430855E+03  0.34473180723E+03  0.77629756281E+03  0.46999998093E+01 0. -1.
</event>
<event>
 5   0  0.6153318E-04  0.1420364E+04  0.7818609E-02  0.8939209E-01
       -1   -1    0    0    0  501  0.00000000000E+00  0.00000000000E+00  0.25524180375E+03  0.25524180380E+03  0.50400001928E-02 0. -1.
        1   -1    0    0  501    0  0.00000000000E+00  0.00000000000E+00 -0.19760016373E+04  0.19760016373E+04  0.50400001928E-02 0.  1.
    10030    2    1    2    0    0  0.00000000000E+00  0.00000000000E+00 -0.17207598335E+04  0.22312434411E+04  0.14203636467E+04 0.  0.
        5    1    3    3  502    0 -0.20029792451E+03  0.26866378410E+03 -0.18439622973E+04  0.18741714252E+04  0.46999998093E+01 0.  1.
       -5    1    3    3    0  502  0.20029792451E+03 -0.26866378410E+03  0.12320246372E+03  0.35707201587E+03  0.46999998093E+01 0. -1.
</event>
<event>
 5   0  0.6114266E-04  0.1409675E+04  0.7818609E-02  0.8946845E-01
       -1   -1    0    0    0  501  0.00000000000E+00  0.00000000000E+00  0.36078697751E+03  0.36078697754E+03  0.50400001928E-02 0.  1.
        1   -1    0    0  501    0  0.00000000000E+00  0.00000000000E+00 -0.13769783686E+04  0.13769783686E+04  0.50400001928E-02 0. -1.
    10030    2    1    2    0    0  0.00000000000E+00  0.00000000000E+00 -0.10161913911E+04  0.17377653462E+04  0.14096749466E+04 0.  0.
        3    1    3    3  502    0  0.26471049591E+03 -0.65306197948E+03 -0.52696340738E+03  0.87991592701E+03  0.10100000352E+00 0. -1.
       -3    1    3    3    0  502 -0.26471049591E+03  0.65306197948E+03 -0.48922798371E+03  0.85784941915E+03  0.10100000352E+00 0.  1.
</event>
<event>
 5   0  0.1095119E-03  0.1410200E+04  0.7818609E-02  0.8946468E-01
        2   -1    0    0  501    0  0.00000000000E+00  0.00000000000E+00  0.27724392531E+03  0.27724392532E+03  0.25500000920E-02 0. -1.
       -2   -1    0    0    0  501  0.00000000000E+00  0.00000000000E+00 -0.17932436707E+04  0.17932436707E+04  0.25500000920E-02 0.  1.
    10030    2    1    2    0    0  0.00000000000E+00  0.00000000000E+00 -0.15159997454E+04  0.20704875961E+04  0.14101998643E+04 0.  0.
        5    1    3    3  502    0 -0.36248496302E+03 -0.47094753639E+03 -0.13150678554E+04  0.14431259421E+04  0.46999998093E+01 0.  1.
       -5    1    3    3    0  502  0.36248496302E+03  0.47094753639E+03 -0.20093189004E+03  0.62736165398E+03  0.46999998093E+01 0. -1.
</event>
<event>
 5   0  0.5875298E-04  0.1367402E+04  0.7818609E-02  0.8977758E-01
       -1   -1    0    0    0  501  0.00000000000E+00  0.00000000000E+00  0.26801205781E+03  0.26801205786E+03  0.50400001928E-02 0.  1.
        1   -1    0    0  501    0  0.00000000000E+00  0.00000000000E+00 -0.17441276640E+04  0.17441276640E+04  0.50400001928E-02 0. -1.
    10030    2    1    2    0    0  0.00000000000E+00  0.00000000000E+00 -0.14761156062E+04  0.20121397219E+04  0.13674022735E+04 0.  0.
        1    1    3    3  502    0  0.20207888852E+03 -0.43582472507E+03 -0.14539238573E+04  0.15312327226E+04  0.50400001928E-02 0. -1.
       -1    1    3    3    0  502 -0.20207888852E+03  0.43582472507E+03 -0.22191748944E+02  0.48090699923E+03  0.50400001928E-02 0.  1.
</event>
<event>
 5   0  0.6194742E-04  0.1443794E+04  0.7818609E-02  0.8922714E-01
       -1   -1    0    0    0  501  0.00000000000E+00  0.00000000000E+00  0.14120644969E+04  0.14120644969E+04  0.50400001928E-02 0. -1.
        1   -1    0    0  501    0  0.00000000000E+00  0.00000000000E+00 -0.36905923394E+03  0.36905923397E+03  0.50400001928E-02 0.  1.
    10030    2    1    2    0    0  0.00000000000E+00  0.00000000000E+00  0.10430052629E+04  0.17811237308E+04  0.14437942257E+04 0.  0.
        4    1    3    3  502    0 -0.49090770805E+03  0.26816036317E+03 -0.41439895191E+02  0.56090929392E+03  0.12699999809E+01 0.  1.
       -4    1    3    3    0  502  0.49090770805E+03 -0.26816036317E+03  0.10844451581E+04  0.12202144369E+04  0.12699999809E+01 0. -1.
</event>
<event>
 5   0  0.6153318E-04  0.1401880E+04  0.7818609E-02  0.8952459E-01
        1   -1    0    0  501    0  0.00000000000E+00  0.00000000000E+00  0.98240422282E+03  0.98240422284E+03  0.50400001928E-02 0.  1.
       -1   -1    0    0    0  501  0.00000000000E+00  0.00000000000E+00 -0.50011648449E+03  0.50011648452E+03  0.50400001928E-02 0. -1.
    10030    2    1    2    0    0  0.00000000000E+00  0.00000000000E+00  0.48228773833E+03  0.14825207074E+04  0.14018795188E+04 0.  0.
        5    1    3    3  502    0 -0.16801045886E+03 -0.37375842049E+03 -0.36022508682E+03  0.54562539745E+03  0.46999998093E+01 0. -1.
       -5    1    3    3    0  502  0.16801045886E+03  0.37375842049E+03  0.84251282515E+03  0.93689530990E+03  0.46999998093E+01 0.  1.
</event>
<event>
 5   0  0.6194742E-04  0.1405413E+04  0.7818609E-02  0.8949910E-01
       -1   -1    0    0    0  501  0.00000000000E+00  0.00000000000E+00  0.40877702253E+03  0.40877702256E+03  0.50400001928E-02 0.  1.
        1   -1    0    0  501    0  0.00000000000E+00  0.00000000000E+00 -0.12079849089E+04  0.12079849089E+04  0.50400001928E-02 0. -1.
    10030    2    1    2    0    0  0.00000000000E+00  0.00000000000E+00 -0.79920788636E+03  0.16167619315E+04  0.14054130700E+04 0.  0.
        4    1    3    3  502    0 -0.56561553995E+03 -0.23846120627E+03 -0.79311224766E+03  0.10029024560E+04  0.12699999809E+01 0. -1.
       -4    1    3    3    0  502  0.56561553995E+03  0.23846120627E+03 -0.60956387032E+01  0.61385947548E+03  0.12699999809E+01 0.  1.
</event>
<event>
 5   0  0.5875298E-04  0.1378314E+04  0.7818609E-02  0.8969668E-01
        1   -1    0    0  501    0  0.00000000000E+00  0.00000000000E+00  0.13928532206E+04  0.13928532206E+04  0.50400001928E-02 0. -1.
       -1   -1    0    0    0  501  0.00000000000E+00  0.00000000000E+00 -0.34098144024E+03  0.34098144028E+03  0.50400001928E-02 0.  1.
    10030    2    1    2    0    0  0.00000000000E+00  0.00000000000E+00  0.10518717804E+04  0.17338346609E+04  0.13783136033E+04 0.  0.
        1    1    3    3  502    0 -0.10653850597E+03  0.33203702135E+03 -0.22181140124E+03  0.41327876130E+03  0.50400001928E-02 0.  1.
       -1    1    3    3    0  502  0.10653850597E+03 -0.33203702135E+03  0.12736831816E+04  0.13205558996E+04  0.50400001928E-02 0. -1.
</event>
<event>
 5   0  0.1098949E-03  0.1397462E+04  0.7818609E-02  0.8955658E-01
        2   -1    0    0  501    0  0.00000000000E+00  0.00000000000E+00  0.91008043549E+03  0.91008043550E+03  0.25500000920E-02 0.  1.
       -2   -1    0    0    0  501  0.00000000000E+00  0.00000000000E+00 -0.53646332460E+03  0.53646332460E+03  0.25500000920E-02 0. -1.
    10030    2    1    2    0    0  0.00000000000E+00  0.00000000000E+00  0.37361711089E+03  0.14465437601E+04  0.13974616647E+04 0.  0.
        4    1    3    3  502    0 -0.48853509581E+03 -0.16546279449E+03  0.67472209629E+03  0.84929146724E+03  0.12699999809E+01 0.  1.
       -4    1    3    3    0  502  0.48853509581E+03  0.16546279449E+03 -0.30110498540E+03  0.59725229286E+03  0.12699999809E+01 0. -1.
</event>
<event>
 5   0  0.6194742E-04  0.1407290E+04  0.7818609E-02  0.8948559E-01
       -1   -1    0    0    0  501  0.00000000000E+00  0.00000000000E+00  0.42528407931E+03  0.42528407934E+03  0.50400001928E-02 0. -1.
        1   -1    0    0  501    0  0.00000000000E+00  0.00000000000E+00 -0.11642005443E+04  0.11642005444E+04  0.50400001928E-02 0.  1.
    10030    2    1    2    0    0  0.00000000000E+00  0.00000000000E+00 -0.73891646504E+03  0.15894846237E+04  0.14072895319E+04 0.  0.
        4    1    3    3  502    0  0.12524727799E+03 -0.63500985523E+03 -0.57697287513E+02  0.64981150095E+03  0.12699999809E+01 0. -1.
       -4    1    3    3    0  502 -0.12524727799E+03  0.63500985523E+03 -0.68121917753E+03  0.93967312275E+03  0.12699999809E+01 0.  1.
</event>
<event>
 5   0  0.5875298E-04  0.1415223E+04  0.7818609E-02  0.8942872E-01
       -1   -1    0    0    0  501  0.00000000000E+00  0.00000000000E+00  0.39819140440E+03  0.39819140443E+03  0.50400001928E-02 0. -1.
        1   -1    0    0  501    0  0.00000000000E+00  0.00000000000E+00 -0.12574707826E+04  0.12574707826E+04  0.50400001928E-02 0.  1.
    10030    2    1    2    0    0  0.00000000000E+00  0.00000000000E+00 -0.85927937817E+03  0.16556621870E+04  0.14152230311E+04 0.  0.
        1    1    3    3  502    0 -0.12427325713E+03  0.67969596315E+03 -0.25112579621E+03  0.73518338549E+03  0.50400001928E-02 0.  1.
       -1    1    3    3    0  502  0.12427325713E+03 -0.67969596315E+03 -0.60815358197E+03  0.92047880152E+03  0.50400001928E-02 0. -1.
</event>
<event>
 5   0  0.6114266E-04  0.1388344E+04  0.7818609E-02  0.8962299E-01
        1   -1    0    0  501    0  0.00000000000E+00  0.00000000000E+00  0.55768739368E+03  0.55768739370E+03  0.50400001928E-02 0. -1.
       -1   -1    0    0    0  501  0.00000000000E+00  0.00000000000E+00 -0.86405869104E+03  0.86405869105E+03  0.50400001928E-02 0.  1.
    10030    2    1    2    0    0  0.00000000000E+00  0.00000000000E+00 -0.30637129736E+03  0.14217460848E+04  0.13883438183E+04 0.  0.
        3    1    3    3  502    0 -0.37598274041E+03 -0.36889926708E+03  0.30982603307E+03  0.61109890468E+03  0.10100000352E+00 0. -1.
       -3    1    3    3    0  502  0.37598274041E+03  0.36889926708E+03 -0.61619733043E+03  0.81064718008E+03  0.10100000352E+00 0.  1.
</event>
<event>
 5   0  0.6114266E-04  0.1395930E+04  0.7818609E-02  0.8956770E-01
       -1   -1    0    0    0  501  0.00000000000E+00  0.00000000000E+00  0.48136059755E+03  0.48136059757E+03  0.50400001928E-02 0.  1.
        1   -1    0    0  501    0  0.00000000000E+00  0.00000000000E+00 -0.10120385608E+04  0.10120385608E+04  0.50400001928E-02 0. -1.
    10030    2    1    2    0    0  0.00000000000E+00  0.00000000000E+00 -0.53067796325E+03  0.14933991584E+04  0.13959304945E+04 0.  0.
        3    1    3    3  502    0 -0.52591414019E+03 -0.69034686260E+02  0.21999312109E+03  0.57423728047E+03  0.10100000352E+00 0.  1.
       -3    1    3    3    0  502  0.52591414019E+03  0.69034686260E+02 -0.75067108434E+03  0.91916187792E+03  0.10100000352E+00 0. -1.
</event>
<event>
 5   0  0.1098949E-03  0.1303559E+04  0.7818609E-02  0.9026747E-01
       -2   -1    0    0    0  501  0.00000000000E+00  0.00000000000E+00  0.61161180029E+03  0.61161180029E+03  0.25500000920E-02 0.  1.
        2   -1    0    0  501    0  0.00000000000E+00  0.00000000000E+00 -0.69458554790E+03  0.69458554791E+03  0.25500000920E-02 0. -1.
    10030    2    1    2    0    0  0.00000000000E+00  0.00000000000E+00 -0.82973747614E+02  0.13061973482E+04  0.13035593081E+04 0.  0.
        4    1    3    3  502    0 -0.49337588280E+02  0.62931557530E+03  0.12114627925E+03  0.64276770672E+03  0.12699999809E+01 0.  1.
       -4    1    3    3    0  502  0.49337588280E+02 -0.62931557530E+03 -0.20412002686E+03  0.66342964148E+03  0.12699999809E+01 0. -1.
</event>
<event>
 5   0  0.6097538E-04  0.1393870E+04  0.7818609E-02  0.8958268E-01
        1   -1    0    0  501    0  0.00000000000E+00  0.00000000000E+00  0.10721755550E+04  0.10721755550E+04  0.50400001928E-02 0.  1.
       -1   -1    0    0    0  501  0.00000000000E+00  0.00000000000E+00 -0.45302152047E+03  0.45302152050E+03  0.50400001928E-02 0. -1.
    10030    2    1    2    0    0  0.00000000000E+00  0.00000000000E+00  0.61915403453E+03  0.15251970755E+04  0.13938702955E+04 0.  0.
        2    1    3    3  502    0 -0.85171157396E+02 -0.55485415628E+03  0.76153162566E+03  0.94606959452E+03  0.25500000920E-02 0.  1.
       -2    1    3    3    0  502  0.85171157396E+02  0.55485415628E+03 -0.14237759112E+03  0.57912748100E+03  0.25500000920E-02 0. -1.
</event>
<event>
 5   0  0.6194742E-04  0.1420691E+04  0.7818609E-02  0.8938976E-01
       -1   -1    0    0    0  501  0.00000000000E+00  0.00000000000E+00  0.46186473972E+03  0.46186473975E+03  0.50400001928E-02 0.  1.
        1   -1    0    0  501    0  0.00000000000E+00  0.00000000000E+00 -0.10925072440E+04  0.10925072440E+04  0.50400001928E-02 0. -1.
    10030    2    1    2    0    0  0.00000000000E+00  0.00000000000E+00 -0.63064250424E+03  0.15543719837E+04  0.14206907811E+04 0.  0.
        4    1    3    3  502    0 -0.48014374983E+03  0.18699711173E+03 -0.85029166639E+03  0.99423511863E+03  0.12699999809E+01 0. -1.
       -4    1    3    3    0  502  0.48014374983E+03 -0.18699711173E+03  0.21964916215E+03  0.56013686509E+03  0.12699999809E+01 0.  1.
</event>
<event>
 5   0  0.1098949E-03  0.1428544E+04  0.7818609E-02  0.8933412E-01
        2   -1    0    0  501    0  0.00000000000E+00  0.00000000000E+00  0.67266975460E+03  0.67266975460E+03  0.25500000920E-02 0. -1.
       -2   -1    0    0    0  501  0.00000000000E+00  0.00000000000E+00 -0.75844745330E+03  0.75844745330E+03  0.25500000920E-02 0.  1.
    10030    2    1    2    0    0  0.00000000000E+00  0.00000000000E+00 -0.85777698700E+02  0.14311172079E+04  0.14285442412E+04 0.  0.
        4    1    3    3  502    0 -0.33274554311E+03  0.11054195449E+03 -0.66629892627E+03  0.75292429381E+03  0.12699999809E+01 0.  1.
       -4    1    3    3    0  502  0.33274554311E+03 -0.11054195449E+03  0.58052122757E+03  0.67819291409E+03  0.12699999809E+01 0. -1.
</event>
<event>
 5   0  0.1095119E-03  0.1389239E+04  0.7818609E-02  0.8961645E-01
       -2   -1    0    0    0  501  0.00000000000E+00  0.00000000000E+00  0.25579230073E+03  0.25579230074E+03  0.25500000920E-02 0. -1.
        2   -1    0    0  501    0  0.00000000000E+00  0.00000000000E+00 -0.18862825376E+04  0.18862825376E+04  0.25500000920E-02 0.  1.
    10030    2    1    2    0    0  0.00000000000E+00  0.00000000000E+00 -0.16304902369E+04  0.21420748384E+04  0.13892394324E+04 0.  0.
        5    1    3    3  502    0  0.61736939524E+03 -0.26655971144E+03 -0.54695631040E+03  0.86682313388E+03  0.46999998093E+01 0. -1.
       -5    1    3    3    0  502 -0.61736939524E+03  0.26655971144E+03 -0.10835339265E+04  0.12752517045E+04  0.46999998093E+01 0.  1.
</event>
<event>
 5   0  0.6194742E-04  0.1397362E+04  0.7818609E-02  0.8955730E-01
        1   -1    0    0  501    0  0.00000000000E+00  0.00000000000E+00  0.10746699910E+04  0.10746699910E+04  0.50400001928E-02 0. -1.
       -1   -1    0    0    0  501  0.00000000000E+00  0.00000000000E+00 -0.45423752803E+03  0.45423752806E+03  0.50400001928E-02 0.  1.
    10030    2    1    2    0    0  0.00000000000E+00  0.00000000000E+00  0.62043246300E+03  0.15289075191E+04  0.13973624300E+04 0.  0.
        4    1    3    3  502    0 -0.35632848954E+03 -0.45639427591E+03  0.73803417472E+03  0.93806278228E+03  0.12699999809E+01 0. -1.
       -4    1    3    3    0  502  0.35632848954E+03  0.45639427591E+03 -0.11760171172E+03  0.59084473683E+03  0.12699999809E+01 0.  1.
</event>
<event>
 5   0  0.1098949E-03  0.1416305E+04  0.7818609E-02  0.8942100E-01
       -2   -1    0    0    0  501  0.00000000000E+00  0.00000000000E+00  0.37023965941E+03  0.37023965942E+03  0.25500000920E-02 0.  1.
        2   -1    0    0  501    0  0.00000000000E+00  0.00000000000E+00 -0.13544730508E+04  0.13544730508E+04  0.25500000920E-02 0. -1.
    10030    2    1    2    0    0  0.00000000000E+00  0.00000000000E+00 -0.98423339141E+03  0.17247127102E+04  0.14163045450E+04 0.  0.
        4    1    3    3  502    0 -0.68122946528E+03  0.92028739705E+02 -0.69926101149E+03  0.98056639163E+03  0.12699999809E+01 0. -1.
       -4    1    3    3    0  502  0.68122946528E+03 -0.92028739705E+02 -0.28497237992E+03  0.74414631862E+03  0.12699999809E+01 0.  1.
</event>
<event>
 5   0  0.1108819E-03  0.1420868E+04  0.7818609E-02  0.8938850E-01
       -2   -1    0    0    0  501  0.00000000000E+00  0.00000000000E+00  0.70350493274E+03  0.70350493274E+03  0.25500000920E-02 0. -1.
        2   -1    0    0  501    0  0.00000000000E+00  0.00000000000E+00 -0.71743176267E+03  0.71743176268E+03  0.25500000920E-02 0.  1.
    10030    2    1    2    0    0  0.00000000000E+00  0.00000000000E+00 -0.13926829933E+02  0.14209366954E+04  0.14208684442E+04 0.  0.
        3    1    3    3  502    0 -0.26023142738E+03 -0.14390428267E+03  0.63827137098E+03  0.70414429741E+03  0.10100000352E+00 0. -1.
       -3    1    3    3    0  502  0.26023142738E+03  0.14390428267E+03 -0.65219820091E+03  0.71679239801E+03  0.10100000352E+00 0.  1.
</event>
<event>
 5   0  0.6153318E-04  0.1396463E+04  0.7818609E-02  0.8956383E-01
       -1   -1    0    0    0  501  0.00000000000E+00  0.00000000000E+00  0.50595395652E+03  0.50595395655E+03  0.50400001928E-02 0. -1.
        1   -1    0    0  501    0  0.00000000000E+00  0.00000000000E+00 -0.96357964522E+03  0.96357964523E+03  0.50400001928E-02 0.  1.
    10030    2    1    2    0    0  0.00000000000E+00  0.00000000000E+00 -0.45762568870E+03  0.14695336018E+04  0.13964625794E+04 0.  0.
        5    1    3    3  502    0  0.48563770032E+03 -0.50163150319E+03 -0.23425073037E+03  0.73646020642E+03  0.46999998093E+01 0. -1.
       -5    1    3    3    0  502 -0.48563770032E+03  0.50163150319E+03 -0.22337495833E+03  0.73307339535E+03  0.46999998093E+01 0.  1.
</event>
<event>
 5   0  0.1120053E-03  0.1394678E+04  0.7818609E-02  0.8957680E-01
       -2   -1    0    0    0  501  0.00000000000E+00  0.00000000000E+00  0.49369902569E+03  0.49369902570E+03  0.25500000920E-02 0. -1.
        2   -1    0    0  501    0  0.00000000000E+00  0.00000000000E+00 -0.98497551568E+03  0.98497551568E+03  0.25500000920E-02 0.  1.
    10030    2    1    2    0    0  0.00000000000E+00  0.00000000000E+00 -0.49127648999E+03  0.14786745414E+04  0.13946776723E+04 0.  0.
        2    1    3    3  502    0  0.14160714999E+01 -0.18008560077E+03 -0.95989483933E+03  0.97664268361E+03  0.25500000920E-02 0.  1.
       -2    1    3    3    0  502 -0.14160714999E+01  0.18008560077E+03  0.46861834935E+03  0.50203185777E+03  0.25500000920E-02 0. -1.
</event>
<event>
 5   0  0.6153318E-04  0.1391157E+04  0.7818609E-02  0.8960245E-01
       -1   -1    0    0    0  501  0.00000000000E+00  0.00000000000E+00  0.75850975218E+03  0.75850975219E+03  0.50400001928E-02 0.  1.
        1   -1    0    0  501    0  0.00000000000E+00  0.00000000000E+00 -0.63786816900E+03  0.63786816902E+03  0.50400001928E-02 0. -1.
    10030    2    1    2    0    0  0.00000000000E+00  0.00000000000E+00  0.12064158317E+03  0.13963779212E+04  0.13911566796E+04 0.  0.
        5    1    3    3  502    0  0.68298232175E+03 -0.86323986775E+02  0.16014480996E+03  0.70681336481E+03  0.46999998093E+01 0.  1.
       -5    1    3    3    0  502 -0.68298232175E+03  0.86323986775E+02 -0.39503226786E+02  0.68956455640E+03  0.46999998093E+01 0. -1.
</event>
<event>
 5   0  0.1120053E-03  0.1420133E+04  0.7818609E-02  0.8939373E-01
        2   -1    0    0  501    0  0.00000000000E+00  0.00000000000E+00  0.51671241958E+03  0.51671241959E+03  0.25500000920E-02 0.  1.
       -2   -1    0    0    0  501  0.00000000000E+00  0.00000000000E+00 -0.97577398517E+03  0.97577398517E+03  0.25500000920E-02 0. -1.
    10030    2    1    2    0    0  0.00000000000E+00  0.00000000000E+00 -0.45906156558E+03  0.14924864048E+04  0.14201331443E+04 0.  0.
        2    1    3    3  502    0  0.41538441351E+03  0.44180480281E+03 -0.61775458722E+03  0.86565375573E+03  0.25500000920E-02 0. -1.
       -2    1    3    3    0  502 -0.41538441351E+03 -0.44180480281E+03  0.15869302163E+03  0.62683264903E+03  0.25500000920E-02 0.  1.
</event>
<event>
 5   0  0.6114266E-04  0.1411007E+04  0.7818609E-02  0.8945889E-01
        1   -1    0    0  501    0  0.00000000000E+00  0.00000000000E+00  0.56254644351E+03  0.56254644353E+03  0.50400001928E-02 0. -1.
       -1   -1    0    0    0  501  0.00000000000E+00  0.00000000000E+00 -0.88479007005E+03  0.88479007007E+03  0.50400001928E-02 0.  1.
    10030    2    1    2    0    0  0.00000000000E+00  0.00000000000E+00 -0.32224362655E+03  0.14473365136E+04  0.14110074517E+04 0.  0.
        3    1    3    3  502    0  0.75528989864E+02 -0.12475166388E+03 -0.86916057011E+03  0.88131022506E+03  0.10100000352E+00 0.  1.
       -3    1    3    3    0  502 -0.75528989864E+02  0.12475166388E+03  0.54691694357E+03  0.56602628854E+03  0.10100000352E+00 0. -1.
</event>
<event>
 5   0  0.1108819E-03  0.1401364E+04  0.7818609E-02  0.8952832E-01
        2   -1    0    0  501    0  0.00000000000E+00  0.00000000000E+00  0.62164657358E+03  0.62164657358E+03  0.25500000920E-02 0.  1.
       -2   -1    0    0    0  501  0.00000000000E+00  0.00000000000E+00 -0.78976537981E+03  0.78976537982E+03  0.25500000920E-02 0. -1.
    10030    2    1    2    0    0  0.00000000000E+00  0.00000000000E+00 -0.16811880623E+03  0.14114119534E+04  0.14013635393E+04 0.  0.
        3    1    3    3  502    0 -0.51864572286E+03 -0.45334140344E+03  0.45090791947E+02  0.69032239109E+03  0.10100000352E+00 0. -1.
       -3    1    3    3    0  502  0.51864572286E+03  0.45334140344E+03 -0.21320959818E+03  0.72108956231E+03  0.10100000352E+00 0.  1.
</event>
<event>
 5   0  0.6194742E-04  0.1425856E+04  0.7818609E-02  0.8935312E-01
       -1   -1    0    0    0  501  0.00000000000E+00  0.00000000000E+00  0.29778818661E+03  0.29778818665E+03  0.50400001928E-02 0. -1.
        1   -1    0    0  501    0  0.00000000000E+00  0.00000000000E+00 -0.17068049114E+04  0.17068049115E+04  0.50400001928E-02 0.  1.
    10030    2    1    2    0    0  0.00000000000E+00  0.00000000000E+00 -0.14090167248E+04  0.20045930981E+04  0.14258560089E+04 0.  0.
        4    1    3    3  502    0 -0.69856947987E+03  0.13921284499E+03 -0.66268014548E+03  0.97289574083E+03  0.12699999809E+01 0.  1.
       -4    1    3    3    0  502  0.69856947987E+03 -0.13921284499E+03 -0.74633657935E+03  0.10316973573E+04  0.12699999809E+01 0. -1.
</event>
<event>
 5   0  0.5875298E-04  0.1401507E+04  0.7818609E-02  0.8952728E-01
       -1   -1    0    0    0  501  0.00000000000E+00  0.00000000000E+00  0.78693144166E+03  0.78693144168E+03  0.50400001928E-02 0. -1.
        1   -1    0    0  501    0  0.00000000000E+00  0.00000000000E+00 -0.62401345150E+03  0.62401345153E+03  0.50400001928E-02 0.  1.
    10030    2    1    2    0    0  0.00000000000E+00  0.00000000000E+00  0.16291799016E+03  0.14109448932E+04  0.14015074813E+04 0.  0.
        1    1    3    3  502    0  0.46891131632E+03  0.22801676045E+03 -0.38986697864E+03  0.65104971137E+03  0.50400001928E-02 0.  1.
       -1    1    3    3    0  502 -0.46891131632E+03 -0.22801676045E+03  0.55278496880E+03  0.75989518183E+03  0.50400001928E-02 0. -1.
</event>
<event>
 5   0  0.1120053E-03  0.1401298E+04  0.7818609E-02  0.8952880E-01
        2   -1    0    0  501    0  0.00000000000E+00  0.00000000000E+00  0.17024425703E+04  0.17024425703E+04  0.25500000920E-02 0.  1.
       -2   -1    0    0    0  501  0.00000000000E+00  0.00000000000E+00 -0.28835570867E+03  0.28835570869E+03  0.25500000920E-02 0. -1.
    10030    2    1    2    0    0  0.00000000000E+00  0.00000000000E+00  0.14140868616E+04  0.19907982790E+04  0.14012980181E+04 0.  0.
        2    1    3    3  502    0 -0.39638921506E+03  0.52448661121E+03  0.36284415699E+03  0.75091044568E+03  0.25500000920E-02 0.  1.
       -2    1    3    3    0  502  0.39638921506E+03 -0.52448661121E+03  0.10512427046E+04  0.12398878333E+04  0.25500000920E-02 0. -1.
</event>
<event>
 5   0  0.6114266E-04  0.1368571E+04  0.7818609E-02  0.8976888E-01
        1   -1    0    0  501    0  0.00000000000E+00  0.00000000000E+00  0.92275098634E+03  0.92275098635E+03  0.50400001928E-02 0. -1.
       -1   -1    0    0    0  501  0.00000000000E+00  0.00000000000E+00 -0.50744670687E+03  0.50744670690E+03  0.50400001928E-02 0.  1.
    10030    2    1    2    0    0  0.00000000000E+00  0.00000000000E+00  0.41530427946E+03  0.14301976933E+04  0.13685714440E+04 0.  0.
        3    1    3    3  502    0  0.54490179752E+03  0.33222723513E+03  0.46565815251E+03  0.79001925919E+03  0.10100000352E+00 0. -1.
       -3    1    3    3    0  502 -0.54490179752E+03 -0.33222723513E+03 -0.50353873042E+02  0.64017843406E+03  0.10100000352E+00 0.  1.
</event>
<event>
 5   0  0.1098949E-03  0.1397962E+04  0.7818609E-02  0.8955295E-01
        2   -1    0    0  501    0  0.00000000000E+00  0.00000000000E+00  0.46437002136E+03  0.46437002137E+03  0.25500000920E-02 0.  1.
       -2   -1    0    0    0  501  0.00000000000E+00  0.00000000000E+00 -0.10521234904E+04  0.10521234904E+04  0.25500000920E-02 0. -1.
    10030    2    1    2    0    0  0.00000000000E+00  0.00000000000E+00 -0.58775346906E+03  0.15164935118E+04  0.13979622423E+04 0.  0.
        4    1    3    3  502    0 -0.50905322303E+03  0.37804582255E+03 -0.61295798077E+03  0.88191435350E+03  0.12699999809E+01 0. -1.
       -4    1    3    3    0  502  0.50905322303E+03 -0.37804582255E+03  0.25204511705E+02  0.63457915829E+03  0.12699999809E+01 0.  1.
</event>
<event>
 5   0  0.1108819E-03  0.1510304E+04  0.7818609E-02  0.8877629E-01
       -2   -1    0    0    0  501  0.00000000000E+00  0.00000000000E+00  0.45306952477E+03  0.45306952477E+03  0.25500000920E-02 0. -1.
        2   -1    0    0  501    0  0.00000000000E+00  0.00000000000E+00 -0.12586475737E+04  0.12586475737E+04  0.25500000920E-02 0.  1.
    10030    2    1    2    0    0  0.00000000000E+00  0.00000000000E+00 -0.80557804888E+03  0.17117170984E+04  0.15103044171E+04 0.  0.
        3    1    3    3  502    0  0.76661659501E+02 -0.23585897058E+03 -0.12111754600E+04  0.12363059772E+04  0.10100000352E+00 0.  1.
       -3    1    3    3    0  502 -0.76661659501E+02  0.23585897058E+03  0.40559741117E+03  0.47541112123E+03  0.10100000352E+00 0. -1.
</event>
<event>
 5   0  0.1095119E-03  0.1403277E+04  0.7818609E-02  0.8951450E-01
        2   -1    0    0  501    0  0.00000000000E+00  0.00000000000E+00  0.10038062844E+04  0.10038062844E+04  0.25500000920E-02 0. -1.
       -2   -1    0    0    0  501  0.00000000000E+00  0.00000000000E+00 -0.49042998144E+03  0.49042998144E+03  0.25500000920E-02 0.  1.
    10030    2    1    2    0    0  0.00000000000E+00  0.00000000000E+00  0.51337630293E+03  0.14942362658E+04  0.14032771607E+04 0.  0.
        5    1    3    3  502    0 -0.28852286165E+03 -0.16592528014E+03 -0.40100289556E+03  0.52115453805E+03  0.46999998093E+01 0.  1.
       -5    1    3    3    0  502  0.28852286165E+03  0.16592528014E+03  0.91437919849E+03  0.97308172777E+03  0.46999998093E+01 0. -1.
</event>
<event>
 5   0  0.6194742E-04  0.1393448E+04  0.7818609E-02  0.8958575E-01
       -1   -1    0    0    0  501  0.00000000000E+00  0.00000000000E+00  0.58229628257E+03  0.58229628259E+03  0.50400001928E-02 0. -1.
        1   -1    0    0  501    0  0.00000000000E+00  0.00000000000E+00 -0.83363809089E+03  0.83363809091E+03  0.50400001928E-02 0.  1.
    10030    2    1    2    0    0  0.00000000000E+00  0.00000000000E+00 -0.25134180832E+03  0.14159343735E+04  0.13934480419E+04 0.  0.
        4    1    3    3  502    0  0.39284033242E+03 -0.55051107793E+03 -0.29581479956E+03  0.73816934523E+03  0.12699999809E+01 0.  1.
       -4    1    3    3    0  502 -0.39284033242E+03  0.55051107793E+03  0.44472991241E+02  0.67776502827E+03  0.12699999809E+01 0. -1.
</event>
<event>
 5   0  0.6114266E-04  0.1404629E+04  0.7818609E-02  0.8950475E-01
       -1   -1    0    0    0  501  0.00000000000E+00  0.00000000000E+00  0.87353332019E+03  0.87353332021E+03  0.50400001928E-02 0. -1.
        1   -1    0    0  501    0  0.00000000000E+00  0.00000000000E+00 -0.56465561399E+03  0.56465561402E+03  0.50400001928E-02 0.  1.
    10030    2    1    2    0    0  0.00000000000E+00  0.00000000000E+00  0.30887770620E+03  0.14381889342E+04  0.14046287670E+04 0.  0.
        3    1    3    3  502    0  0.46135497555E+02 -0.31096672013E+03 -0.48859232499E+03  0.58099161388E+03  0.10100000352E+00 0.  1.
       -3    1    3    3    0  502 -0.46135497555E+02  0.31096672013E+03  0.79747003119E+03  0.85719732034E+03  0.10100000352E+00 0. -1.
</event>
<event>
 5   0  0.6153318E-04  0.1283965E+04  0.7818609E-02  0.9042378E-01
        1   -1    0    0  501    0  0.00000000000E+00  0.00000000000E+00  0.92335555818E+03  0.92335555819E+03  0.50400001928E-02 0.  1.
       -1   -1    0    0    0  501  0.00000000000E+00  0.00000000000E+00 -0.44635218929E+03  0.44635218932E+03  0.50400001928E-02 0. -1.
    10030    2    1    2    0    0  0.00000000000E+00  0.00000000000E+00  0.47700336889E+03  0.13697077475E+04  0.12839653810E+04 0.  0.
        5    1    3    3  502    0  0.31425241903E+03 -0.20060590513E+03  0.79601242238E+03  0.87900806516E+03  0.46999998093E+01 0.  1.
       -5    1    3    3    0  502 -0.31425241903E+03  0.20060590513E+03 -0.31900905349E+03  0.49069968234E+03  0.46999998093E+01 0. -1.
</event>
<event>
 5   0  0.1098949E-03  0.1402464E+04  0.7818609E-02  0.8952037E-01
       -2   -1    0    0    0  501  0.00000000000E+00  0.00000000000E+00  0.73109856512E+03  0.73109856513E+03  0.25500000920E-02 0. -1.
        2   -1    0    0  501    0  0.00000000000E+00  0.00000000000E+00 -0.67258557993E+03  0.67258557994E+03  0.25500000920E-02 0.  1.
    10030    2    1    2    0    0  0.00000000000E+00  0.00000000000E+00  0.58512985193E+02  0.14036841451E+04  0.14024640493E+04 0.  0.
        4    1    3    3  502    0  0.46258259863E+03 -0.28024983186E+03 -0.41745242774E+03  0.68322088020E+03  0.12699999809E+01 0.  1.
       -4    1    3    3    0  502 -0.46258259863E+03  0.28024983186E+03  0.47596541293E+03  0.72046326487E+03  0.12699999809E+01 0. -1.
</event>
<event>
 5   0  0.1175146E-03  0.1346878E+04  0.7818609E-02  0.8993195E-01
       -2   -1    0    0    0  501  0.00000000000E+00  0.00000000000E+00  0.27444908317E+03  0.27444908318E+03  0.25500000920E-02 0. -1.
        2   -1    0    0  501    0  0.00000000000E+00  0.00000000000E+00 -0.16524748659E+04  0.16524748659E+04  0.25500000920E-02 0.  1.
    10030    2    1    2    0    0  0.00000000000E+00  0.00000000000E+00 -0.13780257827E+04  0.19269239491E+04  0.13468781859E+04 0.  0.
        1    1    3    3  502    0 -0.17921491911E+03 -0.36131237684E+03 -0.14605822348E+04  0.15152442329E+04  0.50400001928E-02 0.  1.
       -1    1    3    3    0  502  0.17921491911E+03  0.36131237684E+03  0.82556452043E+02  0.41167971615E+03  0.50400001928E-02 0. -1.
</event>
<event>
 5   0  0.1095119E-03  0.1325755E+04  0.7818609E-02  0.9009387E-01
       -2   -1    0    0    0  501  0.00000000000E+00  0.00000000000E+00  0.35003655265E+03  0.35003655266E+03  0.25500000920E-02 0. -1.
        2   -1    0    0  501    0  0.00000000000E+00  0.00000000000E+00 -0.12553160638E+04  0.12553160638E+04  0.25500000920E-02 0.  1.
    10030    2    1    2    0    0  0.00000000000E+00  0.00000000000E+00 -0.90527951119E+03  0.16053526165E+04  0.13257548906E+04 0.  0.
        5    1    3    3  502    0  0.80474086919E+02  0.15588715392E+03  0.32139486745E+03  0.36618797665E+03  0.46999998093E+01 0. -1.
       -5    1    3    3    0  502 -0.80474086919E+02 -0.15588715392E+03 -0.12266743786E+04  0.12391646398E+04  0.46999998093E+01 0.  1.
</event>
<event>
 5   0  0.1098949E-03  0.1397170E+04  0.7818609E-02  0.8955869E-01
        2   -1    0    0  501    0  0.00000000000E+00  0.00000000000E+00  0.13821720423E+04  0.13821720423E+04  0.25500000920E-02 0.  1.
       -2   -1    0    0    0  501  0.00000000000E+00  0.00000000000E+00 -0.35308277529E+03  0.35308277530E+03  0.25500000920E-02 0. -1.
    10030    2    1    2    0    0  0.00000000000E+00  0.00000000000E+00  0.10290892670E+04  0.17352548176E+04  0.13971701981E+04 0.  0.
        4    1    3    3  502    0  0.33910969529E+03  0.58334341907E+03  0.73925207207E+03  0.10008896887E+04  0.12699999809E+01 0. -1.
       -4    1    3    3    0  502 -0.33910969529E+03 -0.58334341907E+03  0.28983719489E+03  0.73436512884E+03  0.12699999809E+01 0.  1.
</event>
<event>
 5   0  0.1120053E-03  0.1413448E+04  0.7818609E-02  0.8944141E-01
        2   -1    0    0  501    0  0.00000000000E+00  0.00000000000E+00  0.10601885752E+04  0.10601885752E+04  0.25500000920E-02 0.  1.
       -2   -1    0    0    0  501  0.00000000000E+00  0.00000000000E+00 -0.47110378000E+03  0.47110378001E+03  0.25500000920E-02 0. -1.
    10030    2    1    2    0    0  0.00000000000E+00  0.00000000000E+00  0.58908479521E+03  0.15312923552E+04  0.14134480469E+04 0.  0.
        2    1    3    3  502    0 -0.29959569116E+03  0.32699585167E+03 -0.30158386661E+03  0.53631771719E+03  0.25500000920E-02 0. -1.
       -2    1    3    3    0  502  0.29959569116E+03 -0.32699585167E+03  0.89066866182E+03  0.99497463803E+03  0.25500000920E-02 0.  1.
</event>
<event>
 5   0  0.1095119E-03  0.1402354E+04  0.7818609E-02  0.8952116E-01
        2   -1    0    0  501    0  0.00000000000E+00  0.00000000000E+00  0.11177058593E+04  0.11177058593E+04  0.25500000920E-02 0.  1.
       -2   -1    0    0    0  501  0.00000000000E+00  0.00000000000E+00 -0.43987358359E+03  0.43987358359E+03  0.25500000920E-02 0. -1.
    10030    2    1    2    0    0  0.00000000000E+00  0.00000000000E+00  0.67783227572E+03  0.15575794429E+04  0.14023541375E+04 0.  0.
        5    1    3    3  502    0 -0.43773391823E+03  0.53966395524E+03  0.44298375829E+03  0.82407819281E+03  0.46999998093E+01 0.  1.
       -5    1    3    3    0  502  0.43773391823E+03 -0.53966395524E+03  0.23484851743E+03  0.73350125010E+03  0.46999998093E+01 0. -1.
</event>
<event>
 5   0  0.1095119E-03  0.1461678E+04  0.7818609E-02  0.8910344E-01
       -2   -1    0    0    0  501  0.00000000000E+00  0.00000000000E+00  0.11080178306E+04  0.11080178306E+04  0.25500000920E-02 0. -1.
        2   -1    0    0  501    0  0.00000000000E+00  0.00000000000E+00 -0.48205521140E+03  0.48205521141E+03  0.25500000920E-02 0.  1.
    10030    2    1    2    0    0  0.00000000000E+00  0.00000000000E+00  0.62596261922E+03  0.15900730420E+04  0.14616781719E+04 0.  0.
        5    1    3    3  502    0  0.47059738251E+03  0.14264716096E+03 -0.27515087279E+03  0.56350705563E+03  0.46999998093E+01 0.  1.
       -5    1    3    3    0  502 -0.47059738251E+03 -0.14264716096E+03  0.90111349200E+03  0.10265659864E+04  0.46999998093E+01 0. -1.
</event>
<event>
 5   0  0.6097538E-04  0.1392497E+04  0.7818609E-02  0.8959267E-01
       -1   -1    0    0    0  501  0.00000000000E+00  0.00000000000E+00  0.40832748942E+03  0.40832748945E+03  0.50400001928E-02 0.  1.
        1   -1    0    0  501    0  0.00000000000E+00  0.00000000000E+00 -0.11871894864E+04  0.11871894864E+04  0.50400001928E-02 0. -1.
    10030    2    1    2    0    0  0.00000000000E+00  0.00000000000E+00 -0.77886199698E+03  0.15955169759E+04  0.13924971849E+04 0.  0.
        2    1    3    3  502    0 -0.53194855047E+03  0.35245404014E+03 -0.70313090251E+02  0.64197900388E+03  0.25500000920E-02 0. -1.
       -2    1    3    3    0  502  0.53194855047E+03 -0.35245404014E+03 -0.70854890673E+03  0.95353797197E+03  0.25500000920E-02 0.  1.
</event>
<event>
 5   0  0.6097538E-04  0.1404310E+04  0.7818609E-02  0.8950704E-01
        1   -1    0    0  501    0  0.00000000000E+00  0.00000000000E+00  0.14442024414E+04  0.14442024414E+04  0.50400001928E-02 0. -1.
       -1   -1    0    0    0  501  0.00000000000E+00  0.00000000000E+00 -0.34137998501E+03  0.34137998505E+03  0.50400001928E-02 0.  1.
    10030    2    1    2    0    0  0.00000000000E+00  0.00000000000E+00  0.11028224564E+04  0.17855824265E+04  0.14043102333E+04 0.  0.
        2    1    3    3  502    0  0.40397732109E+03  0.12312900567E+03  0.12646582124E+04  0.13333112248E+04  0.25500000920E-02 0. -1.
       -2    1    3    3    0  502 -0.40397732109E+03 -0.12312900567E+03 -0.16183575594E+03  0.45227120171E+03  0.25500000920E-02 0.  1.
</event>
<event>
 5   0  0.4176125E-04  0.1414486E+04  0.7818609E-02  0.8943399E-01
        4   -1    0    0  501    0  0.00000000000E+00  0.00000000000E+00  0.89044478590E+03  0.89044569157E+03  0.12699999809E+01 0.  1.
       -4   -1    0    0    0  501  0.00000000000E+00  0.00000000000E+00 -0.56173136210E+03  0.56173279774E+03  0.12699999809E+01 0. -1.
    10030    2    1    2    0    0  0.00000000000E+00  0.00000000000E+00  0.32871342380E+03  0.14521784893E+04  0.14144857192E+04 0.  0.
        5    1    3    3  502    0 -0.72838449209E+02 -0.26247001444E+03 -0.50570251910E+03  0.57441542109E+03  0.46999998093E+01 0. -1.
       -5    1    3    3    0  502  0.72838449209E+02  0.26247001444E+03  0.83441594290E+03  0.87776306822E+03  0.46999998093E+01 0.  1.
</event>
<event>
 5   0  0.6153318E-04  0.1419949E+04  0.7818609E-02  0.8939504E-01
        1   -1    0    0  501    0  0.00000000000E+00  0.00000000000E+00  0.19188942309E+04  0.19188942309E+04  0.50400001928E-02 0. -1.
       -1   -1    0    0    0  501  0.00000000000E+00  0.00000000000E+00 -0.26268452137E+03  0.26268452142E+03  0.50400001928E-02 0.  1.
    10030    2    1    2    0    0  0.00000000000E+00  0.00000000000E+00  0.16562097096E+04  0.21815787524E+04  0.14199490310E+04 0.  0.
        5    1    3    3  502    0 -0.81548179958E+02 -0.10738971697E+03  0.18990156459E+04  0.19038028181E+04  0.46999998093E+01 0. -1.
       -5    1    3    3    0  502  0.81548179958E+02  0.10738971697E+03 -0.24280593629E+03  0.27777593428E+03  0.46999998093E+01 0.  1.
</event>
<event>
 5   0  0.1108819E-03  0.1398303E+04  0.7818609E-02  0.8955048E-01
       -2   -1    0    0    0  501  0.00000000000E+00  0.00000000000E+00  0.47078283763E+03  0.47078283764E+03  0.25500000920E-02 0. -1.
        2   -1    0    0  501    0  0.00000000000E+00  0.00000000000E+00 -0.10382981640E+04  0.10382981640E+04  0.25500000920E-02 0.  1.
    10030    2    1    2    0    0  0.00000000000E+00  0.00000000000E+00 -0.56751532633E+03  0.15090810016E+04  0.13983031945E+04 0.  0.
        3    1    3    3  502    0  0.58662866059E+03  0.19733941760E+03 -0.63469091328E+03  0.88651485987E+03  0.10100000352E+00 0.  1.
       -3    1    3    3    0  502 -0.58662866059E+03 -0.19733941760E+03  0.67175586945E+02  0.62256614174E+03  0.10100000352E+00 0. -1.
</event>
<event>
 5   0  0.5875298E-04  0.1394111E+04  0.7818609E-02  0.8958092E-01
       -1   -1    0    0    0  501  0.00000000000E+00  0.00000000000E+00  0.63176005445E+03  0.63176005447E+03  0.50400001928E-02 0. -1.
        1   -1    0    0  501    0  0.00000000000E+00  0.00000000000E+00 -0.76910002556E+03  0.76910002558E+03  0.50400001928E-02 0.  1.
    10030    2    1    2    0    0  0.00000000000E+00  0.00000000000E+00 -0.13733997111E+03  0.14008600800E+04  0.13941114361E+04 0.  0.
        1    1    3    3  502    0 -0.71175869407E+02 -0.32911974547E+03 -0.68195296414E+03  0.76055614952E+03  0.50400001928E-02 0.  1.
       -1    1    3    3    0  502  0.71175869407E+02  0.32911974547E+03  0.54461299303E+03  0.64030393053E+03  0.50400001928E-02 0. -1.
</event>
<event>
 5   0  0.6097538E-04  0.1404724E+04  0.7818609E-02  0.8950406E-01
        1   -1    0    0  501    0  0.00000000000E+00  0.00000000000E+00  0.65020515570E+03  0.65020515572E+03  0.50400001928E-02 0. -1.
       -1   -1    0    0    0  501  0.00000000000E+00  0.00000000000E+00 -0.75870290492E+03  0.75870290493E+03  0.50400001928E-02 0.  1.
    10030    2    1    2    0    0  0.00000000000E+00  0.00000000000E+00 -0.10849774922E+03  0.14089080606E+04  0.14047242298E+04 0.  0.
        2    1    3    3  502    0 -0.57847299224E+03  0.15072830906E+02 -0.45349771179E+03  0.73519954270E+03  0.25500000920E-02 0.  1.
       -2    1    3    3    0  502  0.57847299224E+03 -0.15072830906E+02  0.34499996257E+03  0.67370851795E+03  0.25500000920E-02 0. -1.
</event>
<event>
 5   0  0.6153318E-04  0.1398182E+04  0.7818609E-02  0.8955136E-01
       -1   -1    0    0    0  501  0.00000000000E+00  0.00000000000E+00  0.23313990967E+03  0.23313990972E+03  0.50400001928E-02 0.  1.
        1   -1    0    0  501    0  0.00000000000E+00  0.00000000000E+00 -0.20962865580E+04  0.20962865580E+04  0.50400001928E-02 0. -1.
    10030    2    1    2    0    0  0.00000000000E+00  0.00000000000E+00 -0.18631466483E+04  0.23294264677E+04  0.13981817605E+04 0.  0.
        5    1    3    3  502    0  0.52523530141E+03 -0.11597894726E+03 -0.18764834186E+03  0.56969924368E+03  0.46999998093E+01 0.  1.
       -5    1    3    3    0  502 -0.52523530141E+03  0.11597894726E+03 -0.16754983065E+04  0.17597272241E+04  0.46999998093E+01 0. -1.
</event>
<event>
 5   0  0.1120053E-03  0.1396928E+04  0.7818609E-02  0.8956045E-01
       -2   -1    0    0    0  501  0.00000000000E+00  0.00000000000E+00  0.61617462861E+03  0.61617462862E+03  0.25500000920E-02 0.  1.
        2   -1    0    0  501    0  0.00000000000E+00  0.00000000000E+00 -0.79174357369E+03  0.79174357369E+03  0.25500000920E-02 0. -1.
    10030    2    1    2    0    0  0.00000000000E+00  0.00000000000E+00 -0.17556894508E+03  0.14079182023E+04  0.13969284913E+04 0.  0.
        2    1    3    3  502    0  0.65957797187E+02  0.43076667694E+03  0.46235026694E+03  0.63535669535E+03  0.25500000920E-02 0.  1.
       -2    1    3    3    0  502 -0.65957797187E+02 -0.43076667694E+03 -0.63791921202E+03  0.77256150696E+03  0.25500000920E-02 0. -1.
</event>
<event>
 5   0  0.1098949E-03  0.1378480E+04  0.7818609E-02  0.8969545E-01
        2   -1    0    0  501    0  0.00000000000E+00  0.00000000000E+00  0.18472063848E+04  0.18472063848E+04  0.25500000920E-02 0.  1.
       -2   -1    0    0    0  501  0.00000000000E+00  0.00000000000E+00 -0.25717310306E+03  0.25717310307E+03  0.25500000920E-02 0. -1.
    10030    2    1    2    0    0  0.00000000000E+00  0.00000000000E+00  0.15900332817E+04  0.21043794878E+04  0.13784800296E+04 0.  0.
        4    1    3    3  502    0  0.31586319755E+03  0.30942993008E+03 -0.12108177694E+02  0.44233998469E+03  0.12699999809E+01 0. -1.
       -4    1    3    3    0  502 -0.31586319755E+03 -0.30942993008E+03  0.16021414594E+04  0.16620395032E+04  0.12699999809E+01 0.  1.
</event>
<event>
 5   0  0.6114266E-04  0.1398668E+04  0.7818609E-02  0.8954783E-01
       -1   -1    0    0    0  501  0.00000000000E+00  0.00000000000E+00  0.30023729468E+03  0.30023729472E+03  0.50400001928E-02 0. -1.
        1   -1    0    0  501    0  0.00000000000E+00  0.00000000000E+00 -0.16289388228E+04  0.16289388228E+04  0.50400001928E-02 0.  1.
    10030    2    1    2    0    0  0.00000000000E+00  0.00000000000E+00 -0.13287015281E+04  0.19291761175E+04  0.13986682028E+04 0.  0.
        3    1    3    3  502    0  0.59568015294E+03  0.35907900652E+03 -0.76472324665E+03  0.10337186424E+04  0.10100000352E+00 0.  1.
       -3    1    3    3    0  502 -0.59568015294E+03 -0.35907900652E+03 -0.56397828147E+03  0.89545747509E+03  0.10100000352E+00 0. -1.
</event>
<event>
 5   0  0.1120053E-03  0.1396980E+04  0.7818609E-02  0.8956007E-01
        2   -1    0    0  501    0  0.00000000000E+00  0.00000000000E+00  0.55277115892E+03  0.55277115892E+03  0.25500000920E-02 0.  1.
       -2   -1    0    0    0  501  0.00000000000E+00  0.00000000000E+00 -0.88262255316E+03  0.88262255316E+03  0.25500000920E-02 0. -1.
    10030    2    1    2    0    0  0.00000000000E+00  0.00000000000E+00 -0.32985139425E+03  0.14353937121E+04  0.13969800165E+04 0.  0.
        2    1    3    3  502    0 -0.12893024670E+03 -0.60857976910E+03 -0.49130131558E+03  0.79269750004E+03  0.25500000920E-02 0. -1.
       -2    1    3    3    0  502  0.12893024670E+03  0.60857976910E+03  0.16144992134E+03  0.64269621205E+03  0.25500000920E-02 0.  1.
</event>
<event>
 5   0  0.6153318E-04  0.1396737E+04  0.7818609E-02  0.8956184E-01
        1   -1    0    0  501    0  0.00000000000E+00  0.00000000000E+00  0.10117344788E+04  0.10117344788E+04  0.50400001928E-02 0.  1.
       -1   -1    0    0    0  501  0.00000000000E+00  0.00000000000E+00 -0.48206165632E+03  0.48206165635E+03  0.50400001928E-02 0. -1.
    10030    2    1    2    0    0  0.00000000000E+00  0.00000000000E+00  0.52967282243E+03  0.14937961351E+04  0.13967367663E+04 0.  0.
        5    1    3    3  502    0  0.46023800141E+03 -0.48691573895E+03  0.54197482784E+02  0.67220935126E+03  0.46999998093E+01 0. -1.
       -5    1    3    3    0  502 -0.46023800141E+03  0.48691573895E+03  0.47547533965E+03  0.82158678385E+03  0.46999998093E+01 0.  1.
</event>
<event>
 5   0  0.4176125E-04  0.1400539E+04  0.7818609E-02  0.8953429E-01
       -3   -1    0    0    0  501  0.00000000000E+00  0.00000000000E+00  0.90632750163E+03  0.90632750726E+03  0.10100000352E+00 0.  1.
        3   -1    0    0  501    0  0.00000000000E+00  0.00000000000E+00 -0.54105964364E+03  0.54105965307E+03  0.10100000352E+00 0. -1.
    10030    2    1    2    0    0  0.00000000000E+00  0.00000000000E+00  0.36526785799E+03  0.14473871603E+04  0.14005388191E+04 0.  0.
        5    1    3    3  502    0 -0.70783287876E+02 -0.61186435386E+03  0.52689370445E+03  0.81057222205E+03  0.46999998093E+01 0.  1.
       -5    1    3    3    0  502  0.70783287876E+02  0.61186435386E+03 -0.16162584646E+03  0.63681493828E+03  0.46999998093E+01 0. -1.
</event>
<event>
 5   0  0.6194742E-04  0.1407856E+04  0.7818609E-02  0.8948151E-01
       -1   -1    0    0    0  501  0.00000000000E+00  0.00000000000E+00  0.94424533140E+03  0.94424533141E+03  0.50400001928E-02 0. -1.
        1   -1    0    0  501    0  0.00000000000E+00  0.00000000000E+00 -0.52477346152E+03  0.52477346155E+03  0.50400001928E-02 0.  1.
    10030    2    1    2    0    0  0.00000000000E+00  0.00000000000E+00  0.41947186987E+03  0.14690187930E+04  0.14078563721E+04 0.  0.
        4    1    3    3  502    0 -0.59612438707E+02  0.25129339519E+03 -0.47354939056E+03  0.53940027023E+03  0.12699999809E+01 0.  1.
       -4    1    3    3    0  502  0.59612438707E+02 -0.25129339519E+03  0.89302126044E+03  0.92961852273E+03  0.12699999809E+01 0. -1.
</event>
<event>
 5   0  0.6097538E-04  0.1312145E+04  0.7818609E-02  0.9019989E-01
        1   -1    0    0  501    0  0.00000000000E+00  0.00000000000E+00  0.50513237069E+03  0.50513237071E+03  0.50400001928E-02 0.  1.
       -1   -1    0    0    0  501  0.00000000000E+00  0.00000000000E+00 -0.85211555531E+03  0.85211555533E+03  0.50400001928E-02 0. -1.
    10030    2    1    2    0    0  0.00000000000E+00  0.00000000000E+00 -0.34698318463E+03  0.13572479260E+04  0.13121450386E+04 0.  0.
        2    1    3    3  502    0  0.14890268436E+03  0.42350798038E+03 -0.66837211954E+03  0.80514117336E+03  0.25500000920E-02 0. -1.
       -2    1    3    3    0  502 -0.14890268436E+03 -0.42350798038E+03  0.32138893492E+03  0.55210675267E+03  0.25500000920E-02 0.  1.
</event>
<event>
 5   0  0.6153318E-04  0.1397399E+04  0.7818609E-02  0.8955703E-01
       -1   -1    0    0    0  501  0.00000000000E+00  0.00000000000E+00  0.39010418979E+03  0.39010418982E+03  0.50400001928E-02 0.  1.
        1   -1    0    0  501    0  0.00000000000E+00  0.00000000000E+00 -0.12514124382E+04  0.12514124382E+04  0.50400001928E-02 0. -1.
    10030    2    1    2    0    0  0.00000000000E+00  0.00000000000E+00 -0.86130824839E+03  0.16415166280E+04  0.13973993492E+04 0.  0.
        5    1    3    3  502    0 -0.46321773433E+03  0.31292826372E+03  0.61687552598E+02  0.56242529439E+03  0.46999998093E+01 0.  1.
       -5    1    3    3    0  502  0.46321773433E+03 -0.31292826372E+03 -0.92299580099E+03  0.10790913336E+04  0.46999998093E+01 0. -1.
</event>
<event>
 5   0  0.5875298E-04  0.1408955E+04  0.7818609E-02  0.8947362E-01
       -1   -1    0    0    0  501  0.00000000000E+00  0.00000000000E+00  0.55731297084E+03  0.55731297087E+03  0.50400001928E-02 0.  1.
        1   -1    0    0  501    0  0.00000000000E+00  0.00000000000E+00 -0.89050219728E+03  0.89050219729E+03  0.50400001928E-02 0. -1.
    10030    2    1    2    0    0  0.00000000000E+00  0.00000000000E+00 -0.33318922643E+03  0.14478151682E+04  0.14089548256E+04 0.  0.
        1    1    3    3  502    0  0.36365743074E+03 -0.15555294109E+03  0.43244629812E+03  0.58604884199E+03  0.50400001928E-02 0.  1.
       -1    1    3    3    0  502 -0.36365743074E+03  0.15555294109E+03 -0.76563552456E+03  0.86176632616E+03  0.50400001928E-02 0. -1.
</event>
<event>
 5   0  0.1108819E-03  0.1481190E+04  0.7818609E-02  0.8897058E-01
        2   -1    0    0  501    0  0.00000000000E+00  0.00000000000E+00  0.23828538066E+04  0.23828538066E+04  0.25500000920E-02 0.  1.
       -2   -1    0    0    0  501  0.00000000000E+00  0.00000000000E+00 -0.23017825982E+03  0.23017825983E+03  0.25500000920E-02 0. -1.
    10030    2    1    2    0    0  0.00000000000E+00  0.00000000000E+00  0.21526755468E+04  0.26130320664E+04  0.14811902547E+04 0.  0.
        3    1    3    3  502    0 -0.47766265187E+03  0.41473989820E+03  0.17557284911E+04  0.18662136365E+04  0.10100000352E+00 0.  1.
       -3    1    3    3    0  502  0.47766265187E+03 -0.41473989820E+03  0.39694705566E+03  0.74681842998E+03  0.10100000352E+00 0. -1.
</event>
<event>
 5   0  0.1108819E-03  0.1426701E+04  0.7818609E-02  0.8934715E-01
        2   -1    0    0  501    0  0.00000000000E+00  0.00000000000E+00  0.33504739357E+03  0.33504739358E+03  0.25500000920E-02 0. -1.
       -2   -1    0    0    0  501  0.00000000000E+00  0.00000000000E+00 -0.15187966938E+04  0.15187966938E+04  0.25500000920E-02 0.  1.
    10030    2    1    2    0    0  0.00000000000E+00  0.00000000000E+00 -0.11837493003E+04  0.18538440874E+04  0.14267009128E+04 0.  0.
        3    1    3    3  502    0  0.48683598487E+03  0.51580866003E+03 -0.49290723990E+03  0.86372762331E+03  0.10100000352E+00 0.  1.
       -3    1    3    3    0  502 -0.48683598487E+03 -0.51580866003E+03 -0.69084206037E+03  0.99011646411E+03  0.10100000352E+00 0. -1.
</event>
<event>
 5   0  0.6153318E-04  0.1344252E+04  0.7818609E-02  0.8995191E-01
       -1   -1    0    0    0  501  0.00000000000E+00  0.00000000000E+00  0.17325142176E+03  0.17325142183E+03  0.50400001928E-02 0.  1.
        1   -1    0    0  501    0  0.00000000000E+00  0.00000000000E+00 -0.26075021094E+04  0.26075021094E+04  0.50400001928E-02 0. -1.
    10030    2    1    2    0    0  0.00000000000E+00  0.00000000000E+00 -0.24342506876E+04  0.27807535312E+04  0.13442521308E+04 0.  0.
        5    1    3    3  502    0  0.22307259260E+03  0.58926803266E+03 -0.73316805758E+03  0.96672420397E+03  0.46999998093E+01 0.  1.
       -5    1    3    3    0  502 -0.22307259260E+03 -0.58926803266E+03 -0.17010826301E+04  0.18140293273E+04  0.46999998093E+01 0. -1.
</event>
<event>
 5   0  0.6114266E-04  0.1403692E+04  0.7818609E-02  0.8951150E-01
        1   -1    0    0  501    0  0.00000000000E+00  0.00000000000E+00  0.50725067433E+03  0.50725067435E+03  0.50400001928E-02 0. -1.
       -1   -1    0    0    0  501  0.00000000000E+00  0.00000000000E+00 -0.97109365856E+03  0.97109365857E+03  0.50400001928E-02 0.  1.
    10030    2    1    2    0    0  0.00000000000E+00  0.00000000000E+00 -0.46384298423E+03  0.14783443329E+04  0.14036921502E+04 0.  0.
        3    1    3    3  502    0  0.16697638461E+03 -0.48431963890E+03  0.27332230358E+03  0.58064767068E+03  0.10100000352E+00 0. -1.
       -3    1    3    3    0  502 -0.16697638461E+03  0.48431963890E+03 -0.73716528781E+03  0.89769666224E+03  0.10100000352E+00 0.  1.
</event>
<event>
 5   0  0.6114266E-04  0.1404582E+04  0.7818609E-02  0.8950508E-01
       -1   -1    0    0    0  501  0.00000000000E+00  0.00000000000E+00  0.43332205304E+03  0.43332205307E+03  0.50400001928E-02 0.  1.
        1   -1    0    0  501    0  0.00000000000E+00  0.00000000000E+00 -0.11382128087E+04  0.11382128088E+04  0.50400001928E-02 0. -1.
    10030    2    1    2    0    0  0.00000000000E+00  0.00000000000E+00 -0.70489075570E+03  0.15715348618E+04  0.14045820889E+04 0.  0.
        3    1    3    3  502    0 -0.34691416501E+03  0.60628936003E+03 -0.27117190204E+03  0.74931331006E+03  0.10100000352E+00 0. -1.
       -3    1    3    3    0  502  0.34691416501E+03 -0.60628936003E+03 -0.43371885366E+03  0.82222155177E+03  0.10100000352E+00 0.  1.
</event>
<event>
 5   0  0.1120053E-03  0.1408766E+04  0.7818609E-02  0.8947497E-01
        2   -1    0    0  501    0  0.00000000000E+00  0.00000000000E+00  0.78843045929E+03  0.78843045929E+03  0.25500000920E-02 0.  1.
       -2   -1    0    0    0  501  0.00000000000E+00  0.00000000000E+00 -0.62929542153E+03  0.62929542154E+03  0.25500000920E-02 0. -1.
    10030    2    1    2    0    0  0.00000000000E+00  0.00000000000E+00  0.15913503775E+03  0.14177258808E+04  0.14087663798E+04 0.  0.
        2    1    3    3  502    0 -0.26570371836E+03 -0.55814143142E+03  0.41940638652E+03  0.74700872851E+03  0.25500000920E-02 0.  1.
       -2    1    3    3    0  502  0.26570371836E+03  0.55814143142E+03 -0.26027134877E+03  0.67071715232E+03  0.25500000920E-02 0. -1.
</event>
<event>
 5   0  0.1120053E-03  0.1413872E+04  0.7818609E-02  0.8943838E-01
        2   -1    0    0  501    0  0.00000000000E+00  0.00000000000E+00  0.42265766810E+03  0.42265766811E+03  0.25500000920E-02 0. -1.
       -2   -1    0    0    0  501  0.00000000000E+00  0.00000000000E+00 -0.11824198225E+04  0.11824198225E+04  0.25500000920E-02 0.  1.
    10030    2    1    2    0    0  0.00000000000E+00  0.00000000000E+00 -0.75976215441E+03  0.16050774906E+04  0.14138724199E+04 0.  0.
        2    1    3    3  502    0  0.25343849944E+03  0.55469285464E+03  0.26024692381E+02  0.61040357191E+03  0.25500000920E-02 0. -1.
       -2    1    3    3    0  502 -0.25343849944E+03 -0.55469285464E+03 -0.78578684679E+03  0.99467391872E+03  0.25500000920E-02 0.  1.
</event>
<event>
 5   0  0.6194742E-04  0.1386316E+04  0.7818609E-02  0.8963784E-01
       -1   -1    0    0    0  501  0.00000000000E+00  0.00000000000E+00  0.38112248098E+03  0.38112248101E+03  0.50400001928E-02 0.  1.
        1   -1    0    0  501    0  0.00000000000E+00  0.00000000000E+00 -0.12606655892E+04  0.12606655892E+04  0.50400001928E-02 0. -1.
    10030    2    1    2    0    0  0.00000000000E+00  0.00000000000E+00 -0.87954310818E+03  0.16417880702E+04  0.13863159771E+04 0.  0.
        4    1    3    3  502    0  0.18621437340E+03  0.48662055955E+03  0.10162898313E+03  0.53085348727E+03  0.12699999809E+01 0.  1.
       -4    1    3    3    0  502 -0.18621437340E+03 -0.48662055955E+03 -0.98117209131E+03  0.11109345829E+04  0.12699999809E+01 0. -1.
</event>
<event>
 5   0  0.1175146E-03  0.1395738E+04  0.7818609E-02  0.8956909E-01
       -2   -1    0    0    0  501  0.00000000000E+00  0.00000000000E+00  0.46153051046E+03  0.46153051046E+03  0.25500000920E-02 0. -1.
        2   -1    0    0  501    0  0.00000000000E+00  0.00000000000E+00 -0.10552311522E+04  0.10552311522E+04  0.25500000920E-02 0.  1.
    10030    2    1    2    0    0  0.00000000000E+00  0.00000000000E+00 -0.59370064170E+03  0.15167616626E+04  0.13957383312E+04 0.  0.
        1    1    3    3  502    0 -0.48828690105E+03  0.36610829386E+02  0.24351512057E+03  0.54686750181E+03  0.50400001928E-02 0. -1.
       -1    1    3    3    0  502  0.48828690105E+03 -0.36610829386E+02 -0.83721576227E+03  0.96989416082E+03  0.50400001928E-02 0.  1.
</event>
<event>
 5   0  0.4176125E-04  0.1390095E+04  0.7818609E-02  0.8961019E-01
        3   -1    0    0  501    0  0.00000000000E+00  0.00000000000E+00  0.37868370375E+03  0.37868371722E+03  0.10100000352E+00 0.  1.
       -3   -1    0    0    0  501  0.00000000000E+00  0.00000000000E+00 -0.12757120181E+04  0.12757120221E+04  0.10100000352E+00 0. -1.
    10030    2    1    2    0    0  0.00000000000E+00  0.00000000000E+00 -0.89702831436E+03  0.16543957393E+04  0.13900954879E+04 0.  0.
        3    1    3    3  502    0  0.59506280906E+03  0.31772447004E+03 -0.24921510701E+03  0.71913612436E+03  0.10100000352E+00 0.  1.
       -3    1    3    3    0  502 -0.59506280906E+03 -0.31772447004E+03 -0.64781320735E+03  0.93525961498E+03  0.10100000352E+00 0. -1.
</event>
<event>
 5   0  0.1095119E-03  0.1416160E+04  0.7818609E-02  0.8942203E-01
        2   -1    0    0  501    0  0.00000000000E+00  0.00000000000E+00  0.10830369175E+04  0.10830369175E+04  0.25500000920E-02 0.  1.
       -2   -1    0    0    0  501  0.00000000000E+00  0.00000000000E+00 -0.46293673502E+03  0.46293673503E+03  0.25500000920E-02 0. -1.
    10030    2    1    2    0    0  0.00000000000E+00  0.00000000000E+00  0.62010018251E+03  0.15459736526E+04  0.14161604069E+04 0.  0.
        5    1    3    3  502    0 -0.26186507409E+03  0.56469904585E+03 -0.58372351907E+02  0.62521016537E+03  0.46999998093E+01 0.  1.
       -5    1    3    3    0  502  0.26186507409E+03 -0.56469904585E+03  0.67847253442E+03  0.92076348720E+03  0.46999998093E+01 0. -1.
</event>
<event>
 5   0  0.1095119E-03  0.1413806E+04  0.7818609E-02  0.8943885E-01
        2   -1    0    0  501    0  0.00000000000E+00  0.00000000000E+00  0.92095005660E+03  0.92095005660E+03  0.25500000920E-02 0. -1.
       -2   -1    0    0    0  501  0.00000000000E+00  0.00000000000E+00 -0.54260452089E+03  0.54260452090E+03  0.25500000920E-02 0.  1.
    10030    2    1    2    0    0  0.00000000000E+00  0.00000000000E+00  0.37834553571E+03  0.14635545775E+04  0.14138057352E+04 0.  0.
        5    1    3    3  502    0  0.18221343386E+03  0.59238100896E+03 -0.16274936867E+03  0.64080140625E+03  0.46999998093E+01 0.  1.
       -5    1    3    3    0  502 -0.18221343386E+03 -0.59238100896E+03  0.54109490438E+03  0.82275317125E+03  0.46999998093E+01 0. -1.
</event>
<event>
 5   0  0.1120053E-03  0.1376166E+04  0.7818609E-02  0.8971254E-01
        2   -1    0    0  501    0  0.00000000000E+00  0.00000000000E+00  0.19174694744E+04  0.19174694744E+04  0.25500000920E-02 0.  1.
       -2   -1    0    0    0  501  0.00000000000E+00  0.00000000000E+00 -0.24691817833E+03  0.24691817834E+03  0.25500000920E-02 0. -1.
    10030    2    1    2    0    0  0.00000000000E+00  0.00000000000E+00  0.16705512960E+04  0.21643876527E+04  0.13761657889E+04 0.  0.
        2    1    3    3  502    0  0.61038557826E+03  0.26965628230E+03  0.57128966001E+03  0.87844006078E+03  0.25500000920E-02 0. -1.
       -2    1    3    3    0  502 -0.61038557826E+03 -0.26965628230E+03  0.10992616360E+04  0.12859475919E+04  0.25500000920E-02 0.  1.
</event>
<event>
 5   0  0.6153318E-04  0.1384291E+04  0.7818609E-02  0.8965269E-01
        1   -1    0    0  501    0  0.00000000000E+00  0.00000000000E+00  0.25659542216E+03  0.25659542221E+03  0.50400001928E-02 0. -1.
       -1   -1    0    0    0  501  0.00000000000E+00  0.00000000000E+00 -0.18670063717E+04  0.18670063717E+04  0.50400001928E-02 0.  1.
    10030    2    1    2    0    0  0.00000000000E+00  0.00000000000E+00 -0.16104109495E+04  0.21236017939E+04  0.13842908483E+04 0.  0.
        5    1    3    3  502    0  0.22845083814E+03  0.24848714659E+03 -0.17321551211E+04  0.17647433528E+04  0.46999998093E+01 0.  1.
       -5    1    3    3    0  502 -0.22845083814E+03 -0.24848714659E+03  0.12174417160E+03  0.35885844115E+03  0.46999998093E+01 0. -1.
</event>
<event>
 5   0  0.1095119E-03  0.1393716E+04  0.7818609E-02  0.8958380E-01
        2   -1    0    0  501    0  0.00000000000E+00  0.00000000000E+00  0.11655641871E+04  0.11655641871E+04  0.25500000920E-02 0. -1.
       -2   -1    0    0    0  501  0.00000000000E+00  0.00000000000E+00 -0.41663188133E+03  0.41663188134E+03  0.25500000920E-02 0.  1.
    10030    2    1    2    0    0  0.00000000000E+00  0.00000000000E+00  0.74893230572E+03  0.15821960684E+04  0.13937161836E+04 0.  0.
        5    1    3    3  502    0  0.44088429774E+03  0.53905960086E+03  0.40284460616E+03  0.80453097143E+03  0.46999998093E+01 0.  1.
       -5    1    3    3    0  502 -0.44088429774E+03 -0.53905960086E+03  0.34608769956E+03  0.77766509698E+03  0.46999998093E+01 0. -1.
</event>
<event>
 5   0  0.6114266E-04  0.1421719E+04  0.7818609E-02  0.8938245E-01
        1   -1    0    0  501    0  0.00000000000E+00  0.00000000000E+00  0.16897708243E+04  0.16897708244E+04  0.50400001928E-02 0.  1.
       -1   -1    0    0    0  501  0.00000000000E+00  0.00000000000E+00 -0.29904725217E+03  0.29904725222E+03  0.50400001928E-02 0. -1.
    10030    2    1    2    0    0  0.00000000000E+00  0.00000000000E+00  0.13907235722E+04  0.19888180766E+04  0.14217191310E+04 0.  0.
        3    1    3    3  502    0  0.10733302453E+03  0.56826677927E+03  0.11710732565E+03  0.59005224049E+03  0.10100000352E+00 0. -1.
       -3    1    3    3    0  502 -0.10733302453E+03 -0.56826677927E+03  0.12736162465E+04  0.13987658361E+04  0.10100000352E+00 0.  1.
</event>
<event>
 5   0  0.1098949E-03  0.1395410E+04  0.7818609E-02  0.8957148E-01
       -2   -1    0    0    0  501  0.00000000000E+00  0.00000000000E+00  0.27365608577E+03  0.27365608578E+03  0.25500000920E-02 0.  1.
        2   -1    0    0  501    0  0.00000000000E+00  0.00000000000E+00 -0.17788469142E+04  0.17788469142E+04  0.25500000920E-02 0. -1.
    10030    2    1    2    0    0  0.00000000000E+00  0.00000000000E+00 -0.15051908284E+04  0.20525030000E+04  0.13954100239E+04 0.  0.
        4    1    3    3  502    0  0.15551275560E+03 -0.21353368631E+03  0.19725475062E+03  0.32968454905E+03  0.12699999809E+01 0.  1.
       -4    1    3    3    0  502 -0.15551275560E+03  0.21353368631E+03 -0.17024455790E+04  0.17228184509E+04  0.12699999809E+01 0. -1.
</event>
<event>
 5   0  0.6097538E-04  0.1381437E+04  0.7818609E-02  0.8967366E-01
        1   -1    0    0  501    0  0.00000000000E+00  0.00000000000E+00  0.14332999806E+04  0.14332999806E+04  0.50400001928E-02 0.  1.
       -1   -1    0    0    0  501  0.00000000000E+00  0.00000000000E+00 -0.33286265347E+03  0.33286265351E+03  0.50400001928E-02 0. -1.
    10030    2    1    2    0    0  0.00000000000E+00  0.00000000000E+00  0.11004373271E+04  0.17661626341E+04  0.13814369834E+04 0.  0.
        2    1    3    3  502    0 -0.29888532655E+03  0.33643421033E+03  0.12201455927E+04  0.13004905551E+04  0.25500000920E-02 0.  1.
       -2    1    3    3    0  502  0.29888532655E+03 -0.33643421033E+03 -0.11970826565E+03  0.46567207902E+03  0.25500000920E-02 0. -1.
</event>
<event>
 5   0  0.5875298E-04  0.1393717E+04  0.7818609E-02  0.8958379E-01
       -1   -1    0    0    0  501  0.00000000000E+00  0.00000000000E+00  0.57718057761E+03  0.57718057763E+03  0.50400001928E-02 0. -1.
        1   -1    0    0  501    0  0.00000000000E+00  0.00000000000E+00 -0.84135101284E+03  0.84135101285E+03  0.50400001928E-02 0.  1.
    10030    2    1    2    0    0  0.00000000000E+00  0.00000000000E+00 -0.26417043523E+03  0.14185315905E+04  0.13937165617E+04 0.  0.
        1    1    3    3  502    0 -0.13326533345E+03 -0.44757361384E+03  0.39435678407E+03  0.61122750435E+03  0.50400001928E-02 0. -1.
       -1    1    3    3    0  502  0.13326533345E+03  0.44757361384E+03 -0.65852721930E+03  0.80730408614E+03  0.50400001928E-02 0.  1.
</event>
<event>
 5   0  0.1095119E-03  0.1403811E+04  0.7818609E-02  0.8951065E-01
        2   -1    0    0  501    0  0.00000000000E+00  0.00000000000E+00  0.95680688516E+03  0.95680688516E+03  0.25500000920E-02 0. -1.
       -2   -1    0    0    0  501  0.00000000000E+00  0.00000000000E+00 -0.51491183638E+03  0.51491183638E+03  0.25500000920E-02 0.  1.
    10030    2    1    2    0    0  0.00000000000E+00  0.00000000000E+00  0.44189504878E+03  0.14717187215E+04  0.14038107996E+04 0.  0.
        5    1    3    3  502    0 -0.56993279721E+02 -0.44748488263E+03 -0.34279909589E+03  0.56659003191E+03  0.46999998093E+01 0.  1.
       -5    1    3    3    0  502  0.56993279721E+02  0.44748488263E+03  0.78469414468E+03  0.90512868964E+03  0.46999998093E+01 0. -1.
</event>
<event>
 5   0  0.6153318E-04  0.1407896E+04  0.7818609E-02  0.8948123E-01
       -1   -1    0    0    0  501  0.00000000000E+00  0.00000000000E+00  0.89615508097E+03  0.89615508099E+03  0.50400001928E-02 0. -1.
        1   -1    0    0  501    0  0.00000000000E+00  0.00000000000E+00 -0.55296549678E+03  0.55296549680E+03  0.50400001928E-02 0.  1.
    10030    2    1    2    0    0  0.00000000000E+00  0.00000000000E+00  0.34318958419E+03  0.14491205778E+04  0.14078960751E+04 0.  0.
        5    1    3    3  502    0 -0.57249482952E+02 -0.63710553227E+03 -0.13084533497E+03  0.65293457117E+03  0.46999998093E+01 0.  1.
       -5    1    3    3    0  502  0.57249482952E+02  0.63710553227E+03  0.47403491916E+03  0.79618600662E+03  0.46999998093E+01 0. -1.
</event>
<event>
 5   0  0.1108819E-03  0.1502469E+04  0.7818609E-02  0.8882813E-01
       -2   -1    0    0    0  501  0.00000000000E+00  0.00000000000E+00  0.15165394046E+04  0.15165394046E+04  0.25500000920E-02 0. -1.
        2   -1    0    0  501    0  0.00000000000E+00  0.00000000000E+00 -0.37213211888E+03  0.37213211889E+03  0.25500000920E-02 0.  1.
    10030    2    1    2    0    0  0.00000000000E+00  0.00000000000E+00  0.11444072858E+04  0.18886715235E+04  0.15024686646E+04 0.  0.
        3    1    3    3  502    0  0.15915577995E+03  0.35422727823E+03  0.13805782277E+04  0.14341561212E+04  0.10100000352E+00 0. -1.
       -3    1    3    3    0  502 -0.15915577995E+03 -0.35422727823E+03 -0.23617094195E+03  0.45451540233E+03  0.10100000352E+00 0.  1.
</event>
<event>
 5   0  0.1175146E-03  0.1400118E+04  0.7818609E-02  0.8953733E-01
       -2   -1    0    0    0  501  0.00000000000E+00  0.00000000000E+00  0.24442041102E+03  0.24442041103E+03  0.25500000920E-02 0. -1.
        2   -1    0    0  501    0  0.00000000000E+00  0.00000000000E+00 -0.20050794798E+04  0.20050794798E+04  0.25500000920E-02 0.  1.
    10030    2    1    2    0    0  0.00000000000E+00  0.00000000000E+00 -0.17606590688E+04  0.22494998909E+04  0.14001176388E+04 0.  0.
        1    1    3    3  502    0 -0.13870813647E+03 -0.32681608932E+03 -0.18497054223E+04  0.18834698969E+04  0.50400001928E-02 0.  1.
       -1    1    3    3    0  502  0.13870813647E+03  0.32681608932E+03  0.89046353481E+02  0.36602999393E+03  0.50400001928E-02 0. -1.
</event>
<event>
 5   0  0.6097538E-04  0.1403503E+04  0.7818609E-02  0.8951287E-01
        1   -1    0    0  501    0  0.00000000000E+00  0.00000000000E+00  0.87811521796E+03  0.87811521797E+03  0.50400001928E-02 0.  1.
       -1   -1    0    0    0  501  0.00000000000E+00  0.00000000000E+00 -0.56080925095E+03  0.56080925097E+03  0.50400001928E-02 0. -1.
    10030    2    1    2    0    0  0.00000000000E+00  0.00000000000E+00  0.31730596700E+03  0.14389244689E+04  0.14035029571E+04 0.  0.
        2    1    3    3  502    0  0.59182518459E+03  0.28888381756E+02  0.54412547168E+03  0.80446511215E+03  0.25500000920E-02 0.  1.
       -2    1    3    3    0  502 -0.59182518459E+03 -0.28888381756E+02 -0.22681950467E+03  0.63445935680E+03  0.25500000920E-02 0. -1.
</event>
<event>
 5   0  0.6097538E-04  0.1234170E+04  0.7818609E-02  0.9083463E-01
        1   -1    0    0  501    0  0.00000000000E+00  0.00000000000E+00  0.39023397665E+03  0.39023397669E+03  0.50400001928E-02 0.  1.
       -1   -1    0    0    0  501  0.00000000000E+00  0.00000000000E+00 -0.97580877367E+03  0.97580877368E+03  0.50400001928E-02 0. -1.
    10030    2    1    2    0    0  0.00000000000E+00  0.00000000000E+00 -0.58557479702E+03  0.13660427504E+04  0.12341697424E+04 0.  0.
        2    1    3    3  502    0 -0.61564723926E+03 -0.32276902181E+02 -0.32270141412E+03  0.69584446847E+03  0.25500000920E-02 0.  1.
       -2    1    3    3    0  502  0.61564723926E+03  0.32276902181E+02 -0.26287338289E+03  0.67019828190E+03  0.25500000920E-02 0. -1.
</event>
<event>
 5   0  0.1108819E-03  0.1633838E+04  0.7818609E-02  0.8800025E-01
        2   -1    0    0  501    0  0.00000000000E+00  0.00000000000E+00  0.12041715490E+04  0.12041715490E+04  0.25500000920E-02 0. -1.
       -2   -1    0    0    0  501  0.00000000000E+00  0.00000000000E+00 -0.55420404905E+03  0.55420404906E+03  0.25500000920E-02 0.  1.
    10030    2    1    2    0    0  0.00000000000E+00  0.00000000000E+00  0.64996749992E+03  0.17583755980E+04  0.16338381171E+04 0.  0.
        3    1    3    3  502    0 -0.33202615881E+03  0.42001663944E+03  0.98902469022E+03  0.11246444752E+04  0.10100000352E+00 0. -1.
       -3    1    3    3    0  502  0.33202615881E+03 -0.42001663944E+03 -0.33905719030E+03  0.63373112283E+03  0.10100000352E+00 0.  1.
</event>
<event>
 5   0  0.1095119E-03  0.1390628E+04  0.7818609E-02  0.8960630E-01
        2   -1    0    0  501    0  0.00000000000E+00  0.00000000000E+00  0.47245782659E+03  0.47245782660E+03  0.25500000920E-02 0.  1.
       -2   -1    0    0    0  501  0.00000000000E+00  0.00000000000E+00 -0.10232906858E+04  0.10232906858E+04  0.25500000920E-02 0. -1.
    10030    2    1    2    0    0  0.00000000000E+00  0.00000000000E+00 -0.55083285923E+03  0.14957485124E+04  0.13906281939E+04 0.  0.
        5    1    3    3  502    0 -0.53278192630E+03  0.45891133215E+02  0.20255929348E+03  0.57185219635E+03  0.46999998093E+01 0.  1.
       -5    1    3    3    0  502  0.53278192630E+03 -0.45891133215E+02 -0.75339215271E+03  0.92389631607E+03  0.46999998093E+01 0. -1.
</event>
<event>
 5   0  0.6194742E-04  0.1392394E+04  0.7818609E-02  0.8959343E-01
       -1   -1    0    0    0  501  0.00000000000E+00  0.00000000000E+00  0.34463251652E+03  0.34463251656E+03  0.50400001928E-02 0. -1.
        1   -1    0    0  501    0  0.00000000000E+00  0.00000000000E+00 -0.14063968208E+04  0.14063968208E+04  0.50400001928E-02 0.  1.
    10030    2    1    2    0    0  0.00000000000E+00  0.00000000000E+00 -0.10617643042E+04  0.17510293373E+04  0.13923937311E+04 0.  0.
        4    1    3    3  502    0  0.31872475496E+03  0.35450566645E+03 -0.11689397237E+04  0.12624109582E+04  0.12699999809E+01 0. -1.
       -4    1    3    3    0  502 -0.31872475496E+03 -0.35450566645E+03  0.10717541943E+03  0.48861837910E+03  0.12699999809E+01 0.  1.
</event>
<event>
 5   0  0.6194742E-04  0.1443971E+04  0.7818609E-02  0.8922591E-01
        1   -1    0    0  501    0  0.00000000000E+00  0.00000000000E+00  0.16808817102E+04  0.16808817102E+04  0.50400001928E-02 0. -1.
       -1   -1    0    0    0  501  0.00000000000E+00  0.00000000000E+00 -0.31011284134E+03  0.31011284138E+03  0.50400001928E-02 0.  1.
    10030    2    1    2    0    0  0.00000000000E+00  0.00000000000E+00  0.13707688689E+04  0.19909945516E+04  0.14439709182E+04 0.  0.
        4    1    3    3  502    0 -0.18547968995E+02  0.70768685073E+03  0.88085160714E+03  0.11300733925E+04  0.12699999809E+01 0.  1.
       -4    1    3    3    0  502  0.18547968995E+02 -0.70768685073E+03  0.48991726171E+03  0.86092115903E+03  0.12699999809E+01 0. -1.
</event>
<event>
 5   0  0.5875298E-04  0.1403996E+04  0.7818609E-02  0.8950931E-01
        1   -1    0    0  501    0  0.00000000000E+00  0.00000000000E+00  0.86598877485E+03  0.86598877486E+03  0.50400001928E-02 0.  1.
       -1   -1    0    0    0  501  0.00000000000E+00  0.00000000000E+00 -0.56906208979E+03  0.56906208981E+03  0.50400001928E-02 0. -1.
    10030    2    1    2    0    0  0.00000000000E+00  0.00000000000E+00  0.29692668506E+03  0.14350508647E+04  0.14039962706E+04 0.  0.
        1    1    3    3  502    0  0.16530879051E+03 -0.68019909046E+03  0.94343309369E+02  0.70632744456E+03  0.50400001928E-02 0.  1.
       -1    1    3    3    0  502 -0.16530879051E+03  0.68019909046E+03  0.20258337569E+03  0.72872342011E+03  0.50400001928E-02 0. -1.
</event>
<event>
 5   0  0.5875298E-04  0.1408313E+04  0.7818609E-02  0.8947823E-01
       -1   -1    0    0    0  501  0.00000000000E+00  0.00000000000E+00  0.75109943224E+03  0.75109943226E+03  0.50400001928E-02 0. -1.
        1   -1    0    0  501    0  0.00000000000E+00  0.00000000000E+00 -0.66014767508E+03  0.66014767510E+03  0.50400001928E-02 0.  1.
    10030    2    1    2    0    0  0.00000000000E+00  0.00000000000E+00  0.90951757162E+02  0.14112471074E+04  0.14083132378E+04 0.  0.
        1    1    3    3  502    0  0.12131845322E+03  0.28927483413E+03  0.67721641067E+03  0.74633783480E+03  0.50400001928E-02 0. -1.
       -1    1    3    3    0  502 -0.12131845322E+03 -0.28927483413E+03 -0.58626465351E+03  0.66490927256E+03  0.50400001928E-02 0.  1.
</event>
<event>
 5   0  0.6097538E-04  0.1384986E+04  0.7818609E-02  0.8964759E-01
       -1   -1    0    0    0  501  0.00000000000E+00  0.00000000000E+00  0.10915629366E+04  0.10915629366E+04  0.50400001928E-02 0.  1.
        1   -1    0    0  501    0  0.00000000000E+00  0.00000000000E+00 -0.43932098904E+03  0.43932098907E+03  0.50400001928E-02 0. -1.
    10030    2    1    2    0    0  0.00000000000E+00  0.00000000000E+00  0.65224194758E+03  0.15308839257E+04  0.13849859334E+04 0.  0.
        2    1    3    3  502    0  0.62417337505E+03 -0.11170614720E+03  0.63378736472E+03  0.89652500753E+03  0.25500000920E-02 0.  1.
       -2    1    3    3    0  502 -0.62417337505E+03  0.11170614720E+03  0.18454582857E+02  0.63435891818E+03  0.25500000920E-02 0. -1.
</event>
<event>
 5   0  0.6153318E-04  0.1392396E+04  0.7818609E-02  0.8959341E-01
        1   -1    0    0  501    0  0.00000000000E+00  0.00000000000E+00  0.94966125818E+03  0.94966125819E+03  0.50400001928E-02 0.  1.
       -1   -1    0    0    0  501  0.00000000000E+00  0.00000000000E+00 -0.51038345007E+03  0.51038345009E+03  0.50400001928E-02 0. -1.
    10030    2    1    2    0    0  0.00000000000E+00  0.00000000000E+00  0.43927780811E+03  0.14600447083E+04  0.13923956182E+04 0.  0.
        5    1    3    3  502    0 -0.52802977612E+03  0.21346297314E+03 -0.20017151976E+03  0.60371567206E+03  0.46999998093E+01 0. -1.
       -5    1    3    3    0  502  0.52802977612E+03 -0.21346297314E+03  0.63944932787E+03  0.85632903623E+03  0.46999998093E+01 0.  1.
</event>
<event>
 5   0  0.6097538E-04  0.1405396E+04  0.7818609E-02  0.8949922E-01
       -1   -1    0    0    0  501  0.00000000000E+00  0.00000000000E+00  0.23102944851E+03  0.23102944856E+03  0.50400001928E-02 0. -1.
        1   -1    0    0  501    0  0.00000000000E+00  0.00000000000E+00 -0.21373216424E+04  0.21373216424E+04  0.50400001928E-02 0.  1.
    10030    2    1    2    0    0  0.00000000000E+00  0.00000000000E+00 -0.19062921939E+04  0.23683510910E+04  0.14053956602E+04 0.  0.
        2    1    3    3  502    0 -0.34606676973E+03 -0.51716177205E+03 -0.40302757987E+03  0.74138366432E+03  0.25500000920E-02 0. -1.
       -2    1    3    3    0  502  0.34606676973E+03  0.51716177205E+03 -0.15032646140E+04  0.16269674267E+04  0.25500000920E-02 0.  1.
</event>
<event>
 5   0  0.1175146E-03  0.1429796E+04  0.7818609E-02  0.8932529E-01
       -2   -1    0    0    0  501  0.00000000000E+00  0.00000000000E+00  0.48625738176E+03  0.48625738177E+03  0.25500000920E-02 0. -1.
        2   -1    0    0  501    0  0.00000000000E+00  0.00000000000E+00 -0.10510462196E+04  0.10510462197E+04  0.25500000920E-02 0.  1.
    10030    2    1    2    0    0  0.00000000000E+00  0.00000000000E+00 -0.56478883789E+03  0.15373036014E+04  0.14297957657E+04 0.  0.
        1    1    3    3  502    0 -0.47263620287E+03  0.52672328136E+03 -0.17350464854E+03  0.72864686816E+03  0.50400001928E-02 0. -1.
       -1    1    3    3    0  502  0.47263620287E+03 -0.52672328136E+03 -0.39128418935E+03  0.80865673326E+03  0.50400001928E-02 0.  1.
</event>
<event>
 5   0  0.1175146E-03  0.1401204E+04  0.7818609E-02  0.8952947E-01
       -2   -1    0    0    0  501  0.00000000000E+00  0.00000000000E+00  0.51675787661E+03  0.51675787661E+03  0.25500000920E-02 0. -1.
        2   -1    0    0  501    0  0.00000000000E+00  0.00000000000E+00 -0.94985192010E+03  0.94985192011E+03  0.25500000920E-02 0.  1.
    10030    2    1    2    0    0  0.00000000000E+00  0.00000000000E+00 -0.43309404350E+03  0.14666097967E+04  0.14012044267E+04 0.  0.
        1    1    3    3  502    0 -0.30945495786E+03 -0.56982238657E+03  0.61135553492E+02  0.65130444426E+03  0.50400001928E-02 0. -1.
       -1    1    3    3    0  502  0.30945495786E+03  0.56982238657E+03 -0.49422959699E+03  0.81530535246E+03  0.50400001928E-02 0.  1.
</event>
<event>
 5   0  0.1120053E-03  0.1400193E+04  0.7818609E-02  0.8953679E-01
       -2   -1    0    0    0  501  0.00000000000E+00  0.00000000000E+00  0.22931517377E+03  0.22931517379E+03  0.25500000920E-02 0. -1.
        2   -1    0    0  501    0  0.00000000000E+00  0.00000000000E+00 -0.21373867064E+04  0.21373867064E+04  0.25500000920E-02 0.  1.
    10030    2    1    2    0    0  0.00000000000E+00  0.00000000000E+00 -0.19080715326E+04  0.23667018802E+04  0.14001931353E+04 0.  0.
        2    1    3    3  502    0  0.42852745808E+03  0.15255863830E+03 -0.18535781315E+04  0.19085758591E+04  0.25500000920E-02 0.  1.
       -2    1    3    3    0  502 -0.42852745808E+03 -0.15255863830E+03 -0.54493401176E+02  0.45812602112E+03  0.25500000920E-02 0. -1.
</event>
<event>
 5   0  0.6194742E-04  0.1398446E+04  0.7818609E-02  0.8954944E-01
        1   -1    0    0  501    0  0.00000000000E+00  0.00000000000E+00  0.11175637858E+04  0.11175637858E+04  0.50400001928E-02 0.  1.
       -1   -1    0    0    0  501  0.00000000000E+00  0.00000000000E+00 -0.43748080409E+03  0.43748080412E+03  0.50400001928E-02 0. -1.
    10030    2    1    2    0    0  0.00000000000E+00  0.00000000000E+00  0.68008298172E+03  0.15550445899E+04  0.13984458569E+04 0.  0.
        4    1    3    3  502    0  0.58238959621E+03 -0.38510126994E+03  0.38209819003E+03  0.79591536586E+03  0.12699999809E+01 0.  1.
       -4    1    3    3    0  502 -0.58238959621E+03  0.38510126994E+03  0.29798479170E+03  0.75912922409E+03  0.12699999809E+01 0. -1.
</event>
<event>
 5   0  0.6194742E-04  0.1397446E+04  0.7818609E-02  0.8955669E-01
        1   -1    0    0  501    0  0.00000000000E+00  0.00000000000E+00  0.32612482895E+03  0.32612482898E+03  0.50400001928E-02 0.  1.
       -1   -1    0    0    0  501  0.00000000000E+00  0.00000000000E+00 -0.14970161272E+04  0.14970161272E+04  0.50400001928E-02 0. -1.
    10030    2    1    2    0    0  0.00000000000E+00  0.00000000000E+00 -0.11708912982E+04  0.18231409561E+04  0.13974464261E+04 0.  0.
        4    1    3    3  502    0  0.53109366551E+03 -0.40892347272E+03 -0.32802254994E+03  0.74624345508E+03  0.12699999809E+01 0. -1.
       -4    1    3    3    0  502 -0.53109366551E+03  0.40892347272E+03 -0.84286874827E+03  0.10768975011E+04  0.12699999809E+01 0.  1.
</event>
<event>
 5   0  0.5875298E-04  0.1403582E+04  0.7818609E-02  0.8951229E-01
        1   -1    0    0  501    0  0.00000000000E+00  0.00000000000E+00  0.65897955723E+03  0.65897955725E+03  0.50400001928E-02 0.  1.
       -1   -1    0    0    0  501  0.00000000000E+00  0.00000000000E+00 -0.74738423343E+03  0.74738423345E+03  0.50400001928E-02 0. -1.
    10030    2    1    2    0    0  0.00000000000E+00  0.00000000000E+00 -0.88404676202E+02  0.14063637907E+04  0.14035824611E+04 0.  0.
        1    1    3    3  502    0 -0.44582216385E+03  0.26828486501E+03 -0.51606733384E+03  0.73284354651E+03  0.50400001928E-02 0. -1.
       -1    1    3    3    0  502  0.44582216385E+03 -0.26828486501E+03  0.42766265764E+03  0.67352024419E+03  0.50400001928E-02 0.  1.
</event>
<event>
 5   0  0.6097538E-04  0.1409185E+04  0.7818609E-02  0.8947197E-01
        1   -1    0    0  501    0  0.00000000000E+00  0.00000000000E+00  0.14342898502E+04  0.14342898502E+04  0.50400001928E-02 0.  1.
       -1   -1    0    0    0  501  0.00000000000E+00  0.00000000000E+00 -0.34612983152E+03  0.34612983156E+03  0.50400001928E-02 0. -1.
    10030    2    1    2    0    0  0.00000000000E+00  0.00000000000E+00  0.10881600187E+04  0.17804196818E+04  0.14091848768E+04 0.  0.
        2    1    3    3  502    0 -0.15914751672E+02 -0.66560358097E+03  0.25275078078E+03  0.71215473285E+03  0.25500000920E-02 0. -1.
       -2    1    3    3    0  502  0.15914751672E+02  0.66560358097E+03  0.83540923792E+03  0.10682649489E+04  0.25500000920E-02 0.  1.
</event>
<event>
 5   0  0.6097538E-04  0.1446304E+04  0.7818609E-02  0.8920967E-01
       -1   -1    0    0    0  501  0.00000000000E+00  0.00000000000E+00  0.58675987426E+03  0.58675987428E+03  0.50400001928E-02 0. -1.
        1   -1    0    0  501    0  0.00000000000E+00  0.00000000000E+00 -0.89124845006E+03  0.89124845008E+03  0.50400001928E-02 0.  1.
    10030    2    1    2    0    0  0.00000000000E+00  0.00000000000E+00 -0.30448857580E+03  0.14780083244E+04  0.14463040186E+04 0.  0.
        2    1    3    3  502    0  0.55891058881E+03  0.28284516906E+03 -0.52150490382E+03  0.81507656122E+03  0.25500000920E-02 0.  1.
       -2    1    3    3    0  502 -0.55891058881E+03 -0.28284516906E+03  0.21701632802E+03  0.66293176314E+03  0.25500000920E-02 0. -1.
</event>
<event>
 5   0  0.1108819E-03  0.1398756E+04  0.7818609E-02  0.8954719E-01
       -2   -1    0    0    0  501  0.00000000000E+00  0.00000000000E+00  0.30508049784E+03  0.30508049785E+03  0.25500000920E-02 0. -1.
        2   -1    0    0  501    0  0.00000000000E+00  0.00000000000E+00 -0.16032814140E+04  0.16032814140E+04  0.25500000920E-02 0.  1.
    10030    2    1    2    0    0  0.00000000000E+00  0.00000000000E+00 -0.12982009162E+04  0.19083619119E+04  0.13987564362E+04 0.  0.
        3    1    3    3  502    0 -0.22929644448E+03  0.92108905328E+02 -0.15417387582E+04  0.15614158058E+04  0.10100000352E+00 0.  1.
       -3    1    3    3    0  502  0.22929644448E+03 -0.92108905328E+02  0.24353784196E+03  0.34694610613E+03  0.10100000352E+00 0. -1.
</event>
<event>
 5   0  0.1175146E-03  0.1402022E+04  0.7818609E-02  0.8952356E-01
       -2   -1    0    0    0  501  0.00000000000E+00  0.00000000000E+00  0.42116073537E+03  0.42116073538E+03  0.25500000920E-02 0. -1.
        2   -1    0    0  501    0  0.00000000000E+00  0.00000000000E+00 -0.11668149207E+04  0.11668149207E+04  0.25500000920E-02 0.  1.
    10030    2    1    2    0    0  0.00000000000E+00  0.00000000000E+00 -0.74565418530E+03  0.15879756560E+04  0.14020222966E+04 0.  0.
        1    1    3    3  502    0  0.48326559910E+03  0.44305378777E+03 -0.65388044773E+03  0.92596000890E+03  0.50400001928E-02 0. -1.
       -1    1    3    3    0  502 -0.48326559910E+03 -0.44305378777E+03 -0.91773737562E+02  0.66201564715E+03  0.50400001928E-02 0.  1.
</event>
<event>
 5   0  0.1108819E-03  0.1362338E+04  0.7818609E-02  0.8981541E-01
       -2   -1    0    0    0  501  0.00000000000E+00  0.00000000000E+00  0.26317850228E+03  0.26317850230E+03  0.25500000920E-02 0.  1.
        2   -1    0    0  501    0  0.00000000000E+00  0.00000000000E+00 -0.17630281780E+04  0.17630281780E+04  0.25500000920E-02 0. -1.
    10030    2    1    2    0    0  0.00000000000E+00  0.00000000000E+00 -0.14998496757E+04  0.20262066803E+04  0.13623378662E+04 0.  0.
        3    1    3    3  502    0 -0.13976463050E+03  0.95550213053E+02  0.23138639859E+03  0.28671182537E+03  0.10100000352E+00 0.  1.
       -3    1    3    3    0  502  0.13976463050E+03 -0.95550213053E+02 -0.17312360743E+04  0.17394948549E+04  0.10100000352E+00 0. -1.
</event>
<event>
 5   0  0.5875298E-04  0.1409277E+04  0.7818609E-02  0.8947131E-01
       -1   -1    0    0    0  501  0.00000000000E+00  0.00000000000E+00  0.26453290749E+03  0.26453290754E+03  0.50400001928E-02 0.  1.
        1   -1    0    0  501    0  0.00000000000E+00  0.00000000000E+00 -0.18769513097E+04  0.18769513097E+04  0.50400001928E-02 0. -1.
    10030    2    1    2    0    0  0.00000000000E+00  0.00000000000E+00 -0.16124184022E+04  0.21414842172E+04  0.14092769596E+04 0.  0.
        1    1    3    3  502    0 -0.57755907405E+03 -0.55911721039E+02 -0.14136822300E+04  0.15281354822E+04  0.50400001928E-02 0. -1.
       -1    1    3    3    0  502  0.57755907405E+03  0.55911721039E+02 -0.19873617217E+03  0.61334873500E+03  0.50400001928E-02 0.  1.
</event>
<event>
 5   0  0.1120053E-03  0.1421297E+04  0.7818609E-02  0.8938545E-01
       -2   -1    0    0    0  501  0.00000000000E+00  0.00000000000E+00  0.74207589307E+03  0.74207589308E+03  0.25500000920E-02 0.  1.
        2   -1    0    0  501    0  0.00000000000E+00  0.00000000000E+00 -0.68055191566E+03  0.68055191567E+03  0.25500000920E-02 0. -1.
    10030    2    1    2    0    0  0.00000000000E+00  0.00000000000E+00  0.61523977406E+02  0.14226278087E+04  0.14212968312E+04 0.  0.
        2    1    3    3  502    0 -0.45109757116E+03 -0.39644299877E+03 -0.34954789737E+03  0.69486675165E+03  0.25500000920E-02 0. -1.
       -2    1    3    3    0  502  0.45109757116E+03  0.39644299877E+03  0.41107187478E+03  0.72776105710E+03  0.25500000920E-02 0.  1.
</event>
<event>
 5   0  0.1120053E-03  0.1429830E+04  0.7818609E-02  0.8932505E-01
       -2   -1    0    0    0  501  0.00000000000E+00  0.00000000000E+00  0.41201742035E+03  0.41201742036E+03  0.25500000920E-02 0.  1.
        2   -1    0    0  501    0  0.00000000000E+00  0.00000000000E+00 -0.12404897665E+04  0.12404897665E+04  0.25500000920E-02 0. -1.
    10030    2    1    2    0    0  0.00000000000E+00  0.00000000000E+00 -0.82847234616E+03  0.16525071869E+04  0.14298299110E+04 0.  0.
        2    1    3    3  502    0 -0.17754702025E+02 -0.69873192978E+03 -0.24063751031E+03  0.73922117834E+03  0.25500000920E-02 0. -1.
       -2    1    3    3    0  502  0.17754702025E+02  0.69873192978E+03 -0.58783483585E+03  0.91328600853E+03  0.25500000920E-02 0.  1.
</event>
<event>
 5   0  0.5875298E-04  0.1531319E+04  0.7818609E-02  0.8863889E-01
        1   -1    0    0  501    0  0.00000000000E+00  0.00000000000E+00  0.14524806225E+04  0.14524806225E+04  0.50400001928E-02 0. -1.
       -1   -1    0    0    0  501  0.00000000000E+00  0.00000000000E+00 -0.40360934583E+03  0.40360934587E+03  0.50400001928E-02 0.  1.
    10030    2    1    2    0    0  0.00000000000E+00  0.00000000000E+00  0.10488712767E+04  0.18560899684E+04  0.15313193709E+04 0.  0.
        1    1    3    3  502    0  0.53799831181E+02  0.76785169737E+01 -0.40126870363E+03  0.40493203626E+03  0.50400001928E-02 0.  1.
       -1    1    3    3    0  502 -0.53799831181E+02 -0.76785169737E+01  0.14501399803E+04  0.14511579321E+04  0.50400001928E-02 0. -1.
</event>
<event>
 5   0  0.6194742E-04  0.1378252E+04  0.7818609E-02  0.8969713E-01
       -1   -1    0    0    0  501  0.00000000000E+00  0.00000000000E+00  0.92685277955E+03  0.92685277957E+03  0.50400001928E-02 0.  1.
        1   -1    0    0  501    0  0.00000000000E+00  0.00000000000E+00 -0.51237335514E+03  0.51237335516E+03  0.50400001928E-02 0. -1.
    10030    2    1    2    0    0  0.00000000000E+00  0.00000000000E+00  0.41447942442E+03  0.14392261347E+04  0.13782520356E+04 0.  0.
        4    1    3    3  502    0  0.33968863406E+03  0.19573958779E+01  0.83334930609E+03  0.89992492930E+03  0.12699999809E+01 0.  1.
       -4    1    3    3    0  502 -0.33968863406E+03 -0.19573958779E+01 -0.41886988167E+03  0.53930120543E+03  0.12699999809E+01 0. -1.
</event>
<event>
 5   0  0.6153318E-04  0.1402904E+04  0.7818609E-02  0.8951719E-01
       -1   -1    0    0    0  501  0.00000000000E+00  0.00000000000E+00  0.75310645573E+03  0.75310645574E+03  0.50400001928E-02 0.  1.
        1   -1    0    0  501    0  0.00000000000E+00  0.00000000000E+00 -0.65334082762E+03  0.65334082764E+03  0.50400001928E-02 0. -1.
    10030    2    1    2    0    0  0.00000000000E+00  0.00000000000E+00  0.99765628106E+02  0.14064472834E+04  0.14029044089E+04 0.  0.
        5    1    3    3  502    0  0.63487493997E+03 -0.20122150053E+03  0.27056783117E+03  0.71887782198E+03  0.46999998093E+01 0.  1.
       -5    1    3    3    0  502 -0.63487493997E+03  0.20122150053E+03 -0.17080220306E+03  0.68756946140E+03  0.46999998093E+01 0. -1.
</event>
<event>
 5   0  0.1098949E-03  0.1297558E+04  0.7818609E-02  0.9031504E-01
        2   -1    0    0  501    0  0.00000000000E+00  0.00000000000E+00  0.13718653245E+04  0.13718653245E+04  0.25500000920E-02 0. -1.
       -2   -1    0    0    0  501  0.00000000000E+00  0.00000000000E+00 -0.30681865277E+03  0.30681865278E+03  0.25500000920E-02 0.  1.
    10030    2    1    2    0    0  0.00000000000E+00  0.00000000000E+00  0.10650466717E+04  0.16786839773E+04  0.12975575065E+04 0.  0.
        4    1    3    3  502    0  0.40499479417E+03  0.47993403374E+03  0.74334431664E+03  0.97309806599E+03  0.12699999809E+01 0. -1.
       -4    1    3    3    0  502 -0.40499479417E+03 -0.47993403374E+03  0.32170235509E+03  0.70558591129E+03  0.12699999809E+01 0.  1.
</event>
<event>
 5   0  0.6153318E-04  0.1444100E+04  0.7818609E-02  0.8922501E-01
       -1   -1    0    0    0  501  0.00000000000E+00  0.00000000000E+00  0.52800402535E+03  0.52800402537E+03  0.50400001928E-02 0. -1.
        1   -1    0    0  501    0  0.00000000000E+00  0.00000000000E+00 -0.98740996706E+03  0.98740996707E+03  0.50400001928E-02 0.  1.
    10030    2    1    2    0    0  0.00000000000E+00  0.00000000000E+00 -0.45940594171E+03  0.15154139924E+04  0.14441003252E+04 0.  0.
        5    1    3    3  502    0  0.22426355015E+03 -0.55848219057E+03  0.18891770122E+03  0.63079987709E+03  0.46999998093E+01 0. -1.
       -5    1    3    3    0  502 -0.22426355015E+03  0.55848219057E+03 -0.64832364292E+03  0.88461411535E+03  0.46999998093E+01 0.  1.
</event>
<event>
 5   0  0.1108819E-03  0.1404165E+04  0.7818609E-02  0.8950809E-01
        2   -1    0    0  501    0  0.00000000000E+00  0.00000000000E+00  0.82753767569E+03  0.82753767569E+03  0.25500000920E-02 0.  1.
       -2   -1    0    0    0  501  0.00000000000E+00  0.00000000000E+00 -0.59564627972E+03  0.59564627972E+03  0.25500000920E-02 0. -1.
    10030    2    1    2    0    0  0.00000000000E+00  0.00000000000E+00  0.23189139597E+03  0.14231839554E+04  0.14041648591E+04 0.  0.
        3    1    3    3  502    0 -0.40937041989E+02  0.70013309722E+03  0.14890589384E+03  0.71696246112E+03  0.10100000352E+00 0. -1.
       -3    1    3    3    0  502  0.40937041989E+02 -0.70013309722E+03  0.82985502129E+02  0.70622149429E+03  0.10100000352E+00 0.  1.
</event>
<event>
 5   0  0.6153318E-04  0.1424204E+04  0.7818609E-02  0.8936482E-01
        1   -1    0    0  501    0  0.00000000000E+00  0.00000000000E+00  0.12281529533E+04  0.12281529533E+04  0.50400001928E-02 0.  1.
       -1   -1    0    0    0  501  0.00000000000E+00  0.00000000000E+00 -0.41288795489E+03  0.41288795492E+03  0.50400001928E-02 0. -1.
    10030    2    1    2    0    0  0.00000000000E+00  0.00000000000E+00  0.81526499842E+03  0.16410409082E+04  0.14242044252E+04 0.  0.
        5    1    3    3  502    0  0.10807028057E+03 -0.60422683383E+03  0.82355873553E+03  0.10271515629E+04  0.46999998093E+01 0.  1.
       -5    1    3    3    0  502 -0.10807028057E+03  0.60422683383E+03 -0.82937371105E+01  0.61388934535E+03  0.46999998093E+01 0. -1.
</event>
<event>
 5   0  0.6114266E-04  0.1400764E+04  0.7818609E-02  0.8953266E-01
        1   -1    0    0  501    0  0.00000000000E+00  0.00000000000E+00  0.17655009846E+04  0.17655009846E+04  0.50400001928E-02 0.  1.
       -1   -1    0    0    0  501  0.00000000000E+00  0.00000000000E+00 -0.27784447830E+03  0.27784447835E+03  0.50400001928E-02 0. -1.
    10030    2    1    2    0    0  0.00000000000E+00  0.00000000000E+00  0.14876565063E+04  0.20433454629E+04  0.14007636490E+04 0.  0.
        3    1    3    3  502    0 -0.85951542805E+02  0.58654294178E+03  0.19974798258E+03  0.62555539883E+03  0.10100000352E+00 0. -1.
       -3    1    3    3    0  502  0.85951542805E+02 -0.58654294178E+03  0.12879085237E+04  0.14177900641E+04  0.10100000352E+00 0.  1.
</event>
<event>
 5   0  0.6114266E-04  0.1408996E+04  0.7818609E-02  0.8947333E-01
        1   -1    0    0  501    0  0.00000000000E+00  0.00000000000E+00  0.10358127961E+04  0.10358127961E+04  0.50400001928E-02 0.  1.
       -1   -1    0    0    0  501  0.00000000000E+00  0.00000000000E+00 -0.47915719161E+03  0.47915719164E+03  0.50400001928E-02 0. -1.
    10030    2    1    2    0    0  0.00000000000E+00  0.00000000000E+00  0.55665560444E+03  0.15149699877E+04  0.14089956003E+04 0.  0.
        3    1    3    3  502    0 -0.55900041467E+03 -0.21100797278E+03  0.67964482672E+03  0.90494360535E+03  0.10100000352E+00 0.  1.
       -3    1    3    3    0  502  0.55900041467E+03  0.21100797278E+03 -0.12298922227E+03  0.61002638236E+03  0.10100000352E+00 0. -1.
</event>
<event>
 5   0  0.6153318E-04  0.1351619E+04  0.7818609E-02  0.8989603E-01
       -1   -1    0    0    0  501  0.00000000000E+00  0.00000000000E+00  0.41302680083E+03  0.41302680086E+03  0.50400001928E-02 0.  1.
        1   -1    0    0  501    0  0.00000000000E+00  0.00000000000E+00 -0.11057845857E+04  0.11057845857E+04  0.50400001928E-02 0. -1.
    10030    2    1    2    0    0  0.00000000000E+00  0.00000000000E+00 -0.69275778490E+03  0.15188113866E+04  0.13516192806E+04 0.  0.
        5    1    3    3  502    0  0.54145031219E+03  0.34548891656E+03 -0.58253070169E+03  0.86711887330E+03  0.46999998093E+01 0. -1.
       -5    1    3    3    0  502 -0.54145031219E+03 -0.34548891656E+03 -0.11022708321E+03  0.65169251331E+03  0.46999998093E+01 0.  1.
</event>
<event>
 5   0  0.1098949E-03  0.1401695E+04  0.7818609E-02  0.8952593E-01
        2   -1    0    0  501    0  0.00000000000E+00  0.00000000000E+00  0.28505376798E+03  0.28505376799E+03  0.25500000920E-02 0. -1.
       -2   -1    0    0    0  501  0.00000000000E+00  0.00000000000E+00 -0.17231381491E+04  0.17231381491E+04  0.25500000920E-02 0.  1.
    10030    2    1    2    0    0  0.00000000000E+00  0.00000000000E+00 -0.14380843811E+04  0.20081919171E+04  0.14016947202E+04 0.  0.
        4    1    3    3  502    0 -0.42836873962E+03  0.49858101981E+03 -0.10673434673E+04  0.12535176506E+04  0.12699999809E+01 0.  1.
       -4    1    3    3    0  502  0.42836873962E+03 -0.49858101981E+03 -0.37074091388E+03  0.75467426650E+03  0.12699999809E+01 0. -1.
</event>
<event>
 5   0  0.1108819E-03  0.1397884E+04  0.7818609E-02  0.8955352E-01
       -2   -1    0    0    0  501  0.00000000000E+00  0.00000000000E+00  0.57825867943E+03  0.57825867944E+03  0.25500000920E-02 0.  1.
        2   -1    0    0  501    0  0.00000000000E+00  0.00000000000E+00 -0.84481201057E+03  0.84481201058E+03  0.25500000920E-02 0. -1.
    10030    2    1    2    0    0  0.00000000000E+00  0.00000000000E+00 -0.26655333114E+03  0.14230706900E+04  0.13978839403E+04 0.  0.
        3    1    3    3  502    0  0.20795162207E+03  0.50224394683E+03  0.31398780260E+03  0.62775887858E+03  0.10100000352E+00 0.  1.
       -3    1    3    3    0  502 -0.20795162207E+03 -0.50224394683E+03 -0.58054113374E+03  0.79531181144E+03  0.10100000352E+00 0. -1.
</event>
<event>
 5   0  0.1120053E-03  0.1397934E+04  0.7818609E-02  0.8955315E-01
       -2   -1    0    0    0  501  0.00000000000E+00  0.00000000000E+00  0.61396075395E+03  0.61396075396E+03  0.25500000920E-02 0.  1.
        2   -1    0    0  501    0  0.00000000000E+00  0.00000000000E+00 -0.79574331344E+03  0.79574331345E+03  0.25500000920E-02 0. -1.
    10030    2    1    2    0    0  0.00000000000E+00  0.00000000000E+00 -0.18178255949E+03  0.14097040674E+04  0.13979344258E+04 0.  0.
        2    1    3    3  502    0  0.22343924469E+03  0.58712763569E+03 -0.39992072787E+03  0.74470164848E+03  0.25500000920E-02 0. -1.
       -2    1    3    3    0  502 -0.22343924469E+03 -0.58712763569E+03  0.21813816838E+03  0.66500241892E+03  0.25500000920E-02 0.  1.
</event>
<event>
 5   0  0.1175146E-03  0.1373399E+04  0.7818609E-02  0.8973302E-01
        2   -1    0    0  501    0  0.00000000000E+00  0.00000000000E+00  0.13904274327E+04  0.13904274327E+04  0.25500000920E-02 0.  1.
       -2   -1    0    0    0  501  0.00000000000E+00  0.00000000000E+00 -0.33914464493E+03  0.33914464494E+03  0.25500000920E-02 0. -1.
    10030    2    1    2    0    0  0.00000000000E+00  0.00000000000E+00  0.10512827878E+04  0.17295720777E+04  0.13733987301E+04 0.  0.
        1    1    3    3  502    0  0.39951171136E+03 -0.52214971305E+03  0.27596819088E+03  0.71302761009E+03  0.50400001928E-02 0. -1.
       -1    1    3    3    0  502 -0.39951171136E+03  0.52214971305E+03  0.77531459693E+03  0.10165444676E+04  0.50400001928E-02 0.  1.
</event>
<event>
 5   0  0.1095119E-03  0.1397090E+04  0.7818609E-02  0.8955927E-01
        2   -1    0    0  501    0  0.00000000000E+00  0.00000000000E+00  0.51730935358E+03  0.51730935359E+03  0.25500000920E-02 0. -1.
       -2   -1    0    0    0  501  0.00000000000E+00  0.00000000000E+00 -0.94327580819E+03  0.94327580819E+03  0.25500000920E-02 0.  1.
    10030    2    1    2    0    0  0.00000000000E+00  0.00000000000E+00 -0.42596645460E+03  0.14605851618E+04  0.13970904031E+04 0.  0.
        5    1    3    3  502    0  0.60108592516E+01 -0.25178192347E+03  0.46817482206E+03  0.53163899539E+03  0.46999998093E+01 0. -1.
       -5    1    3    3    0  502 -0.60108592516E+01  0.25178192347E+03 -0.89414127666E+03  0.92894616639E+03  0.46999998093E+01 0.  1.
</event>
<event>
 5   0  0.1108819E-03  0.1396433E+04  0.7818609E-02  0.8956405E-01
       -2   -1    0    0    0  501  0.00000000000E+00  0.00000000000E+00  0.27898262183E+03  0.27898262184E+03  0.25500000920E-02 0.  1.
        2   -1    0    0  501    0  0.00000000000E+00  0.00000000000E+00 -0.17474432122E+04  0.17474432122E+04  0.25500000920E-02 0. -1.
    10030    2    1    2    0    0  0.00000000000E+00  0.00000000000E+00 -0.14684605904E+04  0.20264258340E+04  0.13964330114E+04 0.  0.
        3    1    3    3  502    0 -0.31447373385E+03 -0.12820252435E+02 -0.16386648734E+04  0.16686163926E+04  0.10100000352E+00 0. -1.
       -3    1    3    3    0  502  0.31447373385E+03  0.12820252435E+02  0.17020428309E+03  0.35780944138E+03  0.10100000352E+00 0.  1.
</event>
<event>
 5   0  0.5875298E-04  0.1331755E+04  0.7818609E-02  0.9004755E-01
        1   -1    0    0  501    0  0.00000000000E+00  0.00000000000E+00  0.10583930268E+04  0.10583930268E+04  0.50400001928E-02 0.  1.
       -1   -1    0    0    0  501  0.00000000000E+00  0.00000000000E+00 -0.41893019954E+03  0.41893019957E+03  0.50400001928E-02 0. -1.
    10030    2    1    2    0    0  0.00000000000E+00  0.00000000000E+00  0.63946282726E+03  0.14773232264E+04  0.13317549353E+04 0.  0.
        1    1    3    3  502    0  0.53169042909E+03 -0.39800950731E+03  0.26668709603E+03  0.71570125577E+03  0.50400001928E-02 0.  1.
       -1    1    3    3    0  502 -0.53169042909E+03  0.39800950731E+03  0.37277573123E+03  0.76162197061E+03  0.50400001928E-02 0. -1.
</event>
<event>
 5   0  0.6114266E-04  0.1400458E+04  0.7818609E-02  0.8953487E-01
       -1   -1    0    0    0  501  0.00000000000E+00  0.00000000000E+00  0.68593383313E+03  0.68593383315E+03  0.50400001928E-02 0.  1.
        1   -1    0    0  501    0  0.00000000000E+00  0.00000000000E+00 -0.71482158606E+03  0.71482158608E+03  0.50400001928E-02 0. -1.
    10030    2    1    2    0    0  0.00000000000E+00  0.00000000000E+00 -0.28887752934E+02  0.14007554192E+04  0.14004575118E+04 0.  0.
        3    1    3    3  502    0 -0.47591936785E+03  0.47460911477E+03  0.18198334606E+03  0.69632679466E+03  0.10100000352E+00 0. -1.
       -3    1    3    3    0  502  0.47591936785E+03 -0.47460911477E+03 -0.21087109899E+03  0.70442862457E+03  0.10100000352E+00 0.  1.
</event>
<event>
 5   0  0.6153318E-04  0.1403309E+04  0.7818609E-02  0.8951427E-01
        1   -1    0    0  501    0  0.00000000000E+00  0.00000000000E+00  0.13644249542E+04  0.13644249542E+04  0.50400001928E-02 0. -1.
       -1   -1    0    0    0  501  0.00000000000E+00  0.00000000000E+00 -0.36082535651E+03  0.36082535655E+03  0.50400001928E-02 0.  1.
    10030    2    1    2    0    0  0.00000000000E+00  0.00000000000E+00  0.10035995977E+04  0.17252503108E+04  0.14033091186E+04 0.  0.
        5    1    3    3  502    0 -0.26965406000E+03  0.43794289358E+03  0.10885670231E+04  0.12039549593E+04  0.46999998093E+01 0. -1.
       -5    1    3    3    0  502  0.26965406000E+03 -0.43794289358E+03 -0.84967425426E+02  0.52129535150E+03  0.46999998093E+01 0.  1.
</event>
<event>
 5   0  0.6114266E-04  0.1400858E+04  0.7818609E-02  0.8953198E-01
       -1   -1    0    0    0  501  0.00000000000E+00  0.00000000000E+00  0.92912448259E+03  0.92912448261E+03  0.50400001928E-02 0. -1.
        1   -1    0    0  501    0  0.00000000000E+00  0.00000000000E+00 -0.52802502350E+03  0.52802502352E+03  0.50400001928E-02 0.  1.
    10030    2    1    2    0    0  0.00000000000E+00  0.00000000000E+00  0.40109945910E+03  0.14571495061E+04  0.14008582752E+04 0.  0.
        3    1    3    3  502    0  0.17353653091E+03  0.33629239849E+03 -0.41253533125E+03  0.55981507176E+03  0.10100000352E+00 0.  1.
       -3    1    3    3    0  502 -0.17353653091E+03 -0.33629239849E+03  0.81363479034E+03  0.89733443437E+03  0.10100000352E+00 0. -1.
</event>
<event>
 5   0  0.1120053E-03  0.1408921E+04  0.7818609E-02  0.8947386E-01
        2   -1    0    0  501    0  0.00000000000E+00  0.00000000000E+00  0.10206144071E+04  0.10206144071E+04  0.25500000920E-02 0.  1.
       -2   -1    0    0    0  501  0.00000000000E+00  0.00000000000E+00 -0.48624123903E+03  0.48624123903E+03  0.25500000920E-02 0. -1.
    10030    2    1    2    0    0  0.00000000000E+00  0.00000000000E+00  0.53437316803E+03  0.15068556461E+04  0.14089213092E+04 0.  0.
        2    1    3    3  502    0  0.69772373496E+02 -0.12929987114E+03 -0.46967267186E+03  0.49211691648E+03  0.25500000920E-02 0. -1.
       -2    1    3    3    0  502 -0.69772373496E+02  0.12929987114E+03  0.10040458399E+04  0.10147387296E+04  0.25500000920E-02 0.  1.
</event>
<event>
 5   0  0.1108819E-03  0.1397198E+04  0.7818609E-02  0.8955849E-01
       -2   -1    0    0    0  501  0.00000000000E+00  0.00000000000E+00  0.93785246251E+03  0.93785246251E+03  0.25500000920E-02 0.  1.
        2   -1    0    0  501    0  0.00000000000E+00  0.00000000000E+00 -0.52038115312E+03  0.52038115312E+03  0.25500000920E-02 0. -1.
    10030    2    1    2    0    0  0.00000000000E+00  0.00000000000E+00  0.41747130939E+03  0.14582336156E+04  0.13971982621E+04 0.  0.
        3    1    3    3  502    0  0.53233211184E+02 -0.90840120613E+02  0.92952405170E+03  0.93546815829E+03  0.10100000352E+00 0.  1.
       -3    1    3    3    0  502 -0.53233211184E+02  0.90840120613E+02 -0.51205274231E+03  0.52276545734E+03  0.10100000352E+00 0. -1.
</event>
<event>
 5   0  0.6114266E-04  0.1641164E+04  0.7818609E-02  0.8795651E-01
        1   -1    0    0  501    0  0.00000000000E+00  0.00000000000E+00  0.16824920869E+04  0.16824920869E+04  0.50400001928E-02 0. -1.
       -1   -1    0    0    0  501  0.00000000000E+00  0.00000000000E+00 -0.40021270297E+03  0.40021270300E+03  0.50400001928E-02 0.  1.
    10030    2    1    2    0    0  0.00000000000E+00  0.00000000000E+00  0.12822793839E+04  0.20827047899E+04  0.16411638625E+04 0.  0.
        3    1    3    3  502    0 -0.60936617215E+03  0.48196332429E+03  0.97626974303E+03  0.12476852163E+04  0.10100000352E+00 0. -1.
       -3    1    3    3    0  502  0.60936617215E+03 -0.48196332429E+03  0.30600964090E+03  0.83501957357E+03  0.10100000352E+00 0.  1.
</event>
<event>
 5   0  0.6097538E-04  0.1407384E+04  0.7818609E-02  0.8948491E-01
        1   -1    0    0  501    0  0.00000000000E+00  0.00000000000E+00  0.66358361164E+03  0.66358361166E+03  0.50400001928E-02 0. -1.
       -1   -1    0    0    0  501  0.00000000000E+00  0.00000000000E+00 -0.74622504139E+03  0.74622504141E+03  0.50400001928E-02 0.  1.
    10030    2    1    2    0    0  0.00000000000E+00  0.00000000000E+00 -0.82641429749E+02  0.14098086531E+04  0.14073843940E+04 0.  0.
        2    1    3    3  502    0  0.45624963863E+03  0.25634572246E+02 -0.57737036400E+03  0.73632696628E+03  0.25500000920E-02 0.  1.
       -2    1    3    3    0  502 -0.45624963863E+03 -0.25634572246E+02  0.49472893425E+03  0.67348168679E+03  0.25500000920E-02 0. -1.
</event>
<event>
 5   0  0.1120053E-03  0.1432373E+04  0.7818609E-02  0.8930713E-01
        2   -1    0    0  501    0  0.00000000000E+00  0.00000000000E+00  0.14164593134E+04  0.14164593134E+04  0.25500000920E-02 0.  1.
       -2   -1    0    0    0  501  0.00000000000E+00  0.00000000000E+00 -0.36211644477E+03  0.36211644478E+03  0.25500000920E-02 0. -1.
    10030    2    1    2    0    0  0.00000000000E+00  0.00000000000E+00  0.10543428686E+04  0.17785757582E+04  0.14323731508E+04 0.  0.
        2    1    3    3  502    0  0.80309028329E+02 -0.35168706773E+03  0.12954105555E+04  0.13447013947E+04  0.25500000920E-02 0.  1.
       -2    1    3    3    0  502 -0.80309028329E+02  0.35168706773E+03 -0.24106768685E+03  0.43387436349E+03  0.25500000920E-02 0. -1.
</event>
<event>
 5   0  0.6194742E-04  0.1398403E+04  0.7818609E-02  0.8954975E-01
        1   -1    0    0  501    0  0.00000000000E+00  0.00000000000E+00  0.62086760524E+03  0.62086760526E+03  0.50400001928E-02 0. -1.
       -1   -1    0    0    0  501  0.00000000000E+00  0.00000000000E+00 -0.78741853239E+03  0.78741853241E+03  0.50400001928E-02 0.  1.
    10030    2    1    2    0    0  0.00000000000E+00  0.00000000000E+00 -0.16655092716E+03  0.14082861377E+04  0.13984028869E+04 0.  0.
        4    1    3    3  502    0  0.52738324356E+03 -0.42680623496E+03 -0.25353957514E+03  0.72427935001E+03  0.12699999809E+01 0. -1.
       -4    1    3    3    0  502 -0.52738324356E+03  0.42680623496E+03  0.86988647983E+02  0.68400678766E+03  0.12699999809E+01 0.  1.
</event>
<event>
 5   0  0.4176125E-04  0.1391371E+04  0.7818609E-02  0.8960089E-01
        3   -1    0    0  501    0  0.00000000000E+00  0.00000000000E+00  0.46634205557E+03  0.46634206650E+03  0.10100000352E+00 0. -1.
       -3   -1    0    0    0  501  0.00000000000E+00  0.00000000000E+00 -0.10378179782E+04  0.10378179831E+04  0.10100000352E+00 0.  1.
    10030    2    1    2    0    0  0.00000000000E+00  0.00000000000E+00 -0.57147592260E+03  0.15041600496E+04  0.13913708077E+04 0.  0.
        5    1    3    3  502    0  0.28561487419E+03 -0.25481854118E+03 -0.91373041950E+03  0.99067336434E+03  0.46999998093E+01 0.  1.
       -5    1    3    3    0  502 -0.28561487419E+03  0.25481854118E+03  0.34225449690E+03  0.51348668525E+03  0.46999998093E+01 0. -1.
</event>
<event>
 5   0  0.1175146E-03  0.1397107E+04  0.7818609E-02  0.8955915E-01
       -2   -1    0    0    0  501  0.00000000000E+00  0.00000000000E+00  0.47562955089E+03  0.47562955090E+03  0.25500000920E-02 0. -1.
        2   -1    0    0  501    0  0.00000000000E+00  0.00000000000E+00 -0.10259599468E+04  0.10259599468E+04  0.25500000920E-02 0.  1.
    10030    2    1    2    0    0  0.00000000000E+00  0.00000000000E+00 -0.55033039593E+03  0.15015894977E+04  0.13971068230E+04 0.  0.
        1    1    3    3  502    0 -0.10051421232E+03  0.54440816079E+03  0.18271532054E+03  0.58298219595E+03  0.50400001928E-02 0. -1.
       -1    1    3    3    0  502  0.10051421232E+03 -0.54440816079E+03 -0.73304571647E+03  0.91860730177E+03  0.50400001928E-02 0.  1.
</event>
<event>
 5   0  0.6194742E-04  0.1232031E+04  0.7818609E-02  0.9085272E-01
       -1   -1    0    0    0  501  0.00000000000E+00  0.00000000000E+00  0.53600196614E+03  0.53600196617E+03  0.50400001928E-02 0. -1.
        1   -1    0    0  501    0  0.00000000000E+00  0.00000000000E+00 -0.70797384078E+03  0.70797384080E+03  0.50400001928E-02 0.  1.
    10030    2    1    2    0    0  0.00000000000E+00  0.00000000000E+00 -0.17197187464E+03  0.12439758070E+04  0.12320314455E+04 0.  0.
        4    1    3    3  502    0 -0.23073244676E+03 -0.46307520581E+02  0.48882395856E+03  0.54252403063E+03  0.12699999809E+01 0. -1.
       -4    1    3    3    0  502  0.23073244676E+03  0.46307520581E+02 -0.66079583319E+03  0.70145177633E+03  0.12699999809E+01 0.  1.
</event>
<event>
 5   0  0.6114266E-04  0.1401294E+04  0.7818609E-02  0.8952883E-01
       -1   -1    0    0    0  501  0.00000000000E+00  0.00000000000E+00  0.81584026641E+03  0.81584026643E+03  0.50400001928E-02 0. -1.
        1   -1    0    0  501    0  0.00000000000E+00  0.00000000000E+00 -0.60171816559E+03  0.60171816561E+03  0.50400001928E-02 0.  1.
    10030    2    1    2    0    0  0.00000000000E+00  0.00000000000E+00  0.21412210082E+03  0.14175584320E+04  0.14012935575E+04 0.  0.
        3    1    3    3  502    0 -0.38381365112E+03  0.37204409806E+03 -0.35116028030E+03  0.63956491645E+03  0.10100000352E+00 0.  1.
       -3    1    3    3    0  502  0.38381365112E+03 -0.37204409806E+03  0.56528238112E+03  0.77799351559E+03  0.10100000352E+00 0. -1.
</event>
<event>
 5   0  0.6097538E-04  0.1409824E+04  0.7818609E-02  0.8946738E-01
       -1   -1    0    0    0  501  0.00000000000E+00  0.00000000000E+00  0.10477282180E+04  0.10477282180E+04  0.50400001928E-02 0. -1.
        1   -1    0    0  501    0  0.00000000000E+00  0.00000000000E+00 -0.47426500552E+03  0.47426500555E+03  0.50400001928E-02 0.  1.
    10030    2    1    2    0    0  0.00000000000E+00  0.00000000000E+00  0.57346321247E+03  0.15219932236E+04  0.14098238601E+04 0.  0.
        2    1    3    3  502    0  0.49801804254E+02  0.60226200347E+03  0.67851186142E+03  0.90861327672E+03  0.25500000920E-02 0. -1.
       -2    1    3    3    0  502 -0.49801804254E+02 -0.60226200347E+03 -0.10504864895E+03  0.61337994684E+03  0.25500000920E-02 0.  1.
</event>
<event>
 5   0  0.1175146E-03  0.1385741E+04  0.7818609E-02  0.8964205E-01
       -2   -1    0    0    0  501  0.00000000000E+00  0.00000000000E+00  0.21772640674E+03  0.21772640676E+03  0.25500000920E-02 0. -1.
        2   -1    0    0  501    0  0.00000000000E+00  0.00000000000E+00 -0.22049206909E+04  0.22049206909E+04  0.25500000920E-02 0.  1.
    10030    2    1    2    0    0  0.00000000000E+00  0.00000000000E+00 -0.19871942841E+04  0.24226470976E+04  0.13857408981E+04 0.  0.
        1    1    3    3  502    0 -0.19885442097E+03  0.10368395735E+03  0.15252052925E+03  0.27121201231E+03  0.50400001928E-02 0. -1.
       -1    1    3    3    0  502  0.19885442097E+03 -0.10368395735E+03 -0.21397148134E+04  0.21514350853E+04  0.50400001928E-02 0.  1.
</event>
<event>
 5   0  0.1095119E-03  0.1411898E+04  0.7818609E-02  0.8945251E-01
        2   -1    0    0  501    0  0.00000000000E+00  0.00000000000E+00  0.63799603790E+03  0.63799603791E+03  0.25500000920E-02 0.  1.
       -2   -1    0    0    0  501  0.00000000000E+00  0.00000000000E+00 -0.78113966891E+03  0.78113966891E+03  0.25500000920E-02 0. -1.
    10030    2    1    2    0    0  0.00000000000E+00  0.00000000000E+00 -0.14314363101E+03  0.14191357068E+04  0.14118980329E+04 0.  0.
        5    1    3    3  502    0 -0.68109211637E+02  0.50434990158E+03 -0.56329762953E+03  0.75916664664E+03  0.46999998093E+01 0. -1.
       -5    1    3    3    0  502  0.68109211637E+02 -0.50434990158E+03  0.42015399852E+03  0.65996906019E+03  0.46999998093E+01 0.  1.
</event>
<event>
 5   0  0.6153318E-04  0.1370225E+04  0.7818609E-02  0.8975658E-01
        1   -1    0    0  501    0  0.00000000000E+00  0.00000000000E+00  0.10560826914E+04  0.10560826914E+04  0.50400001928E-02 0. -1.
       -1   -1    0    0    0  501  0.00000000000E+00  0.00000000000E+00 -0.44445308302E+03  0.44445308305E+03  0.50400001928E-02 0.  1.
    10030    2    1    2    0    0  0.00000000000E+00  0.00000000000E+00  0.61162960837E+03  0.15005357745E+04  0.13702251029E+04 0.  0.
        5    1    3    3  502    0 -0.64394840585E+03  0.55622567284E+02  0.55455889140E+03  0.85165783823E+03  0.46999998093E+01 0.  1.
       -5    1    3    3    0  502  0.64394840585E+03 -0.55622567284E+02  0.57070716970E+02  0.64887793623E+03  0.46999998093E+01 0. -1.
</event>
<event>
 5   0  0.1098949E-03  0.1391755E+04  0.7818609E-02  0.8959809E-01
       -2   -1    0    0    0  501  0.00000000000E+00  0.00000000000E+00  0.25416753660E+03  0.25416753662E+03  0.25500000920E-02 0. -1.
        2   -1    0    0  501    0  0.00000000000E+00  0.00000000000E+00 -0.19052210841E+04  0.19052210841E+04  0.25500000920E-02 0.  1.
    10030    2    1    2    0    0  0.00000000000E+00  0.00000000000E+00 -0.16510535475E+04  0.21593886208E+04  0.13917547911E+04 0.  0.
        4    1    3    3  502    0  0.25369629285E+03 -0.30884504348E+03 -0.17093658599E+04  0.17554715395E+04  0.12699999809E+01 0.  1.
       -4    1    3    3    0  502 -0.25369629285E+03  0.30884504348E+03  0.58312312381E+02  0.40391708130E+03  0.12699999809E+01 0. -1.
</event>
<event>
 5   0  0.5875298E-04  0.1399911E+04  0.7818609E-02  0.8953883E-01
        1   -1    0    0  501    0  0.00000000000E+00  0.00000000000E+00  0.76837683242E+03  0.76837683244E+03  0.50400001928E-02 0. -1.
       -1   -1    0    0    0  501  0.00000000000E+00  0.00000000000E+00 -0.63762686511E+03  0.63762686513E+03  0.50400001928E-02 0.  1.
    10030    2    1    2    0    0  0.00000000000E+00  0.00000000000E+00  0.13074996732E+03  0.14060036976E+04  0.13999110127E+04 0.  0.
        1    1    3    3  502    0  0.40870155601E+03 -0.29020469526E+03  0.55605215413E+03  0.74863190233E+03  0.50400001928E-02 0. -1.
       -1    1    3    3    0  502 -0.40870155601E+03  0.29020469526E+03 -0.42530218682E+03  0.65737179524E+03  0.50400001928E-02 0.  1.
</event>
<event>
 5   0  0.6153318E-04  0.1398222E+04  0.7818609E-02  0.8955106E-01
        1   -1    0    0  501    0  0.00000000000E+00  0.00000000000E+00  0.72700291609E+03  0.72700291611E+03  0.50400001928E-02 0. -1.
       -1   -1    0    0    0  501  0.00000000000E+00  0.00000000000E+00 -0.67228942627E+03  0.67228942629E+03  0.50400001928E-02 0.  1.
    10030    2    1    2    0    0  0.00000000000E+00  0.00000000000E+00  0.54713489820E+02  0.13992923424E+04  0.13982222618E+04 0.  0.
        5    1    3    3  502    0  0.36564578372E+03 -0.35263303109E+03 -0.45331010625E+03  0.68085169912E+03  0.46999998093E+01 0.  1.
       -5    1    3    3    0  502 -0.36564578372E+03  0.35263303109E+03  0.50802359607E+03  0.71844064328E+03  0.46999998093E+01 0. -1.
</event>
<event>
 5   0  0.6097538E-04  0.1418867E+04  0.7818609E-02  0.8940274E-01
       -1   -1    0    0    0  501  0.00000000000E+00  0.00000000000E+00  0.18669157071E+03  0.18669157078E+03  0.50400001928E-02 0. -1.
        1   -1    0    0  501    0  0.00000000000E+00  0.00000000000E+00 -0.26958664751E+04  0.26958664751E+04  0.50400001928E-02 0.  1.
    10030    2    1    2    0    0  0.00000000000E+00  0.00000000000E+00 -0.25091749044E+04  0.28825580459E+04  0.14188665149E+04 0.  0.
        2    1    3    3  502    0  0.11543829294E+03 -0.28265907860E+03  0.46382654217E+02  0.30882601058E+03  0.25500000920E-02 0. -1.
       -2    1    3    3    0  502 -0.11543829294E+03  0.28265907860E+03 -0.25555575586E+04  0.25737320353E+04  0.25500000920E-02 0.  1.
</event>
<event>
 5   0  0.6097538E-04  0.1408730E+04  0.7818609E-02  0.8947524E-01
       -1   -1    0    0    0  501  0.00000000000E+00  0.00000000000E+00  0.11275641053E+04  0.11275641053E+04  0.50400001928E-02 0.  1.
        1   -1    0    0  501    0  0.00000000000E+00  0.00000000000E+00 -0.44000135228E+03  0.44000135231E+03  0.50400001928E-02 0. -1.
    10030    2    1    2    0    0  0.00000000000E+00  0.00000000000E+00  0.68756275305E+03  0.15675654576E+04  0.14087295428E+04 0.  0.
        2    1    3    3  502    0  0.14887112034E+03 -0.50811533382E+03 -0.17312230180E+03  0.55705936337E+03  0.25500000920E-02 0. -1.
       -2    1    3    3    0  502 -0.14887112034E+03  0.50811533382E+03  0.86068505485E+03  0.10105060943E+04  0.25500000920E-02 0.  1.
</event>
<event>
 5   0  0.6153318E-04  0.1395057E+04  0.7818609E-02  0.8957404E-01
        1   -1    0    0  501    0  0.00000000000E+00  0.00000000000E+00  0.31421387789E+03  0.31421387793E+03  0.50400001928E-02 0.  1.
       -1   -1    0    0    0  501  0.00000000000E+00  0.00000000000E+00 -0.15484557441E+04  0.15484557441E+04  0.50400001928E-02 0. -1.
    10030    2    1    2    0    0  0.00000000000E+00  0.00000000000E+00 -0.12342418662E+04  0.18626696221E+04  0.13950573955E+04 0.  0.
        5    1    3    3  502    0 -0.49042952430E+03  0.48348050865E+03 -0.46934421589E+03  0.83341502478E+03  0.46999998093E+01 0.  1.
       -5    1    3    3    0  502  0.49042952430E+03 -0.48348050865E+03 -0.76489765036E+03  0.10292545973E+04  0.46999998093E+01 0. -1.
</event>
<event>
 5   0  0.6153318E-04  0.1386246E+04  0.7818609E-02  0.8963835E-01
       -1   -1    0    0    0  501  0.00000000000E+00  0.00000000000E+00  0.50406002144E+03  0.50406002146E+03  0.50400001928E-02 0. -1.
        1   -1    0    0  501    0  0.00000000000E+00  0.00000000000E+00 -0.95310004004E+03  0.95310004005E+03  0.50400001928E-02 0.  1.
    10030    2    1    2    0    0  0.00000000000E+00  0.00000000000E+00 -0.44904001860E+03  0.14571600615E+04  0.13862461926E+04 0.  0.
        5    1    3    3  502    0 -0.99552693204E+02 -0.15048882646E+03 -0.92796200208E+03  0.94535347512E+03  0.46999998093E+01 0.  1.
       -5    1    3    3    0  502  0.99552693204E+02  0.15048882646E+03  0.47892198348E+03  0.51180658640E+03  0.46999998093E+01 0. -1.
</event>
<event>
 5   0  0.6097538E-04  0.1417603E+04  0.7818609E-02  0.8941174E-01
       -1   -1    0    0    0  501  0.00000000000E+00  0.00000000000E+00  0.71548752401E+03  0.71548752403E+03  0.50400001928E-02 0. -1.
        1   -1    0    0  501    0  0.00000000000E+00  0.00000000000E+00 -0.70217798990E+03  0.70217798992E+03  0.50400001928E-02 0.  1.
    10030    2    1    2    0    0  0.00000000000E+00  0.00000000000E+00  0.13309534111E+02  0.14176655140E+04  0.14176030353E+04 0.  0.
        2    1    3    3  502    0  0.56554806139E+03 -0.94333003888E+01  0.43383397850E+03  0.71284326314E+03  0.25500000920E-02 0. -1.
       -2    1    3    3    0  502 -0.56554806139E+03  0.94333003888E+01 -0.42052444439E+03  0.70482225081E+03  0.25500000920E-02 0.  1.
</event>
<event>
 5   0  0.6097538E-04  0.1413762E+04  0.7818609E-02  0.8943917E-01
       -1   -1    0    0    0  501  0.00000000000E+00  0.00000000000E+00  0.30085157428E+03  0.30085157432E+03  0.50400001928E-02 0.  1.
        1   -1    0    0  501    0  0.00000000000E+00  0.00000000000E+00 -0.16608879509E+04  0.16608879509E+04  0.50400001928E-02 0. -1.
    10030    2    1    2    0    0  0.00000000000E+00  0.00000000000E+00 -0.13600363767E+04  0.19617395253E+04  0.14137620094E+04 0.  0.
        2    1    3    3  502    0 -0.31346307341E+03 -0.42162788040E+03 -0.13362405526E+04  0.14358161381E+04  0.25500000920E-02 0. -1.
       -2    1    3    3    0  502  0.31346307341E+03  0.42162788040E+03 -0.23795824033E+02  0.52592338717E+03  0.25500000920E-02 0.  1.
</event>
<event>
 5   0  0.4176125E-04  0.1397507E+04  0.7818609E-02  0.8955625E-01
       -4   -1    0    0    0  501  0.00000000000E+00  0.00000000000E+00  0.15687543748E+04  0.15687548889E+04  0.12699999809E+01 0. -1.
        4   -1    0    0  501    0  0.00000000000E+00  0.00000000000E+00 -0.31123653173E+03  0.31123912284E+03  0.12699999809E+01 0.  1.
    10030    2    1    2    0    0  0.00000000000E+00  0.00000000000E+00  0.12575178431E+04  0.18799940117E+04  0.13975071944E+04 0.  0.
        5    1    3    3  502    0  0.62101261820E+03 -0.17418953590E+03  0.26720027088E+03  0.69815237673E+03  0.46999998093E+01 0.  1.
       -5    1    3    3    0  502 -0.62101261820E+03  0.17418953590E+03  0.99031757217E+03  0.11818416350E+04  0.46999998093E+01 0. -1.
</event>
<event>
 5   0  0.1175146E-03  0.1412842E+04  0.7818609E-02  0.8944575E-01
        2   -1    0    0  501    0  0.00000000000E+00  0.00000000000E+00  0.17744617808E+04  0.17744617808E+04  0.25500000920E-02 0.  1.
       -2   -1    0    0    0  501  0.00000000000E+00  0.00000000000E+00 -0.28122928417E+03  0.28122928419E+03  0.25500000920E-02 0. -1.
    10030    2    1    2    0    0  0.00000000000E+00  0.00000000000E+00  0.14932324967E+04  0.20556910650E+04  0.14128419819E+04 0.  0.
        1    1    3    3  502    0 -0.21322659488E+03  0.66693873126E+03  0.61045269206E+03  0.92893774888E+03  0.50400001928E-02 0. -1.
       -1    1    3    3    0  502  0.21322659488E+03 -0.66693873126E+03  0.88277980460E+03  0.11267533161E+04  0.50400001928E-02 0.  1.
</event>
<event>
 5   0  0.6153318E-04  0.1397038E+04  0.7818609E-02  0.8955965E-01
       -1   -1    0    0    0  501  0.00000000000E+00  0.00000000000E+00  0.43851243773E+03  0.43851243776E+03  0.50400001928E-02 0.  1.
        1   -1    0    0  501    0  0.00000000000E+00  0.00000000000E+00 -0.11126914107E+04  0.11126914107E+04  0.50400001928E-02 0. -1.
    10030    2    1    2    0    0  0.00000000000E+00  0.00000000000E+00 -0.67417897299E+03  0.15512038485E+04  0.13970383287E+04 0.  0.
        5    1    3    3  502    0  0.40801095267E+03 -0.10138355374E+03 -0.95645811285E+03  0.10447898229E+04  0.46999998093E+01 0. -1.
       -5    1    3    3    0  502 -0.40801095267E+03  0.10138355374E+03  0.28227913986E+03  0.50641402555E+03  0.46999998093E+01 0.  1.
</event>
<event>
 5   0  0.6097538E-04  0.1394356E+04  0.7818609E-02  0.8957914E-01
        1   -1    0    0  501    0  0.00000000000E+00  0.00000000000E+00  0.59246436557E+03  0.59246436559E+03  0.50400001928E-02 0. -1.
       -1   -1    0    0    0  501  0.00000000000E+00  0.00000000000E+00 -0.82039869063E+03  0.82039869064E+03  0.50400001928E-02 0.  1.
    10030    2    1    2    0    0  0.00000000000E+00  0.00000000000E+00 -0.22793432506E+03  0.14128630562E+04  0.13943557506E+04 0.  0.
        2    1    3    3  502    0  0.17117728491E+03  0.64823791143E+03 -0.30766652990E+03  0.73768065334E+03  0.25500000920E-02 0.  1.
       -2    1    3    3    0  502 -0.17117728491E+03 -0.64823791143E+03  0.79732204837E+02  0.67518240290E+03  0.25500000920E-02 0. -1.
</event>
<event>
 5   0  0.5875298E-04  0.1379685E+04  0.7818609E-02  0.8968656E-01
        1   -1    0    0  501    0  0.00000000000E+00  0.00000000000E+00  0.72024136407E+03  0.72024136409E+03  0.50400001928E-02 0. -1.
       -1   -1    0    0    0  501  0.00000000000E+00  0.00000000000E+00 -0.66072639943E+03  0.66072639945E+03  0.50400001928E-02 0.  1.
    10030    2    1    2    0    0  0.00000000000E+00  0.00000000000E+00  0.59514964638E+02  0.13809677635E+04  0.13796847223E+04 0.  0.
        1    1    3    3  502    0  0.27057722143E+03  0.78328164113E+02 -0.60053848767E+03  0.66332029160E+03  0.50400001928E-02 0.  1.
       -1    1    3    3    0  502 -0.27057722143E+03 -0.78328164113E+02  0.66005345231E+03  0.71764747194E+03  0.50400001928E-02 0. -1.
</event>
<event>
 5   0  0.1095119E-03  0.1409410E+04  0.7818609E-02  0.8947035E-01
        2   -1    0    0  501    0  0.00000000000E+00  0.00000000000E+00  0.61861944209E+03  0.61861944209E+03  0.25500000920E-02 0.  1.
       -2   -1    0    0    0  501  0.00000000000E+00  0.00000000000E+00 -0.80277041847E+03  0.80277041848E+03  0.25500000920E-02 0. -1.
    10030    2    1    2    0    0  0.00000000000E+00  0.00000000000E+00 -0.18415097639E+03  0.14213898606E+04  0.14094103567E+04 0.  0.
        5    1    3    3  502    0  0.45286674690E+03  0.50413637237E+03  0.10281697524E+03  0.68544525148E+03  0.46999998093E+01 0.  1.
       -5    1    3    3    0  502 -0.45286674690E+03 -0.50413637237E+03 -0.28696795162E+03  0.73594460909E+03  0.46999998093E+01 0. -1.
</event>
<event>
 5   0  0.1095119E-03  0.1403025E+04  0.7818609E-02  0.8951632E-01
       -2   -1    0    0    0  501  0.00000000000E+00  0.00000000000E+00  0.23055949663E+03  0.23055949664E+03  0.25500000920E-02 0. -1.
        2   -1    0    0  501    0  0.00000000000E+00  0.00000000000E+00 -0.21344580189E+04  0.21344580189E+04  0.25500000920E-02 0.  1.
    10030    2    1    2    0    0  0.00000000000E+00  0.00000000000E+00 -0.19038985222E+04  0.23650175155E+04  0.14030246846E+04 0.  0.
        5    1    3    3  502    0  0.24926075686E+03 -0.10620843100E+03 -0.20426696599E+04  0.20605660837E+04  0.46999998093E+01 0.  1.
       -5    1    3    3    0  502 -0.24926075686E+03  0.10620843100E+03  0.13877113763E+03  0.30445143186E+03  0.46999998093E+01 0. -1.
</event>
<event>
 5   0  0.1098949E-03  0.1408958E+04  0.7818609E-02  0.8947360E-01
       -2   -1    0    0    0  501  0.00000000000E+00  0.00000000000E+00  0.37690589578E+03  0.37690589579E+03  0.25500000920E-02 0. -1.
        2   -1    0    0  501    0  0.00000000000E+00  0.00000000000E+00 -0.13167495922E+04  0.13167495922E+04  0.25500000920E-02 0.  1.
    10030    2    1    2    0    0  0.00000000000E+00  0.00000000000E+00 -0.93984369640E+03  0.16936554880E+04  0.14089580328E+04 0.  0.
        4    1    3    3  502    0  0.11375038500E+03  0.50237535541E+03  0.10778004625E+03  0.52624927466E+03  0.12699999809E+01 0. -1.
       -4    1    3    3    0  502 -0.11375038500E+03 -0.50237535541E+03 -0.10476237427E+04  0.11674062133E+04  0.12699999809E+01 0.  1.
</event>
<event>
 5   0  0.6153318E-04  0.1380393E+04  0.7818609E-02  0.8968135E-01
        1   -1    0    0  501    0  0.00000000000E+00  0.00000000000E+00  0.75039180877E+03  0.75039180879E+03  0.50400001928E-02 0. -1.
       -1   -1    0    0    0  501  0.00000000000E+00  0.00000000000E+00 -0.63482954521E+03  0.63482954523E+03  0.50400001928E-02 0.  1.
    10030    2    1    2    0    0  0.00000000000E+00  0.00000000000E+00  0.11556226356E+03  0.13852213540E+04  0.13803925394E+04 0.  0.
        5    1    3    3  502    0 -0.94893273672E+02 -0.43097628889E+03  0.59030073900E+03  0.73703619140E+03  0.46999998093E+01 0. -1.
       -5    1    3    3    0  502  0.94893273672E+02  0.43097628889E+03 -0.47473847544E+03  0.64818516262E+03  0.46999998093E+01 0.  1.
</event>
<event>
 5   0  0.1120053E-03  0.1474416E+04  0.7818609E-02  0.8901647E-01
        2   -1    0    0  501    0  0.00000000000E+00  0.00000000000E+00  0.18307069493E+04  0.18307069493E+04  0.25500000920E-02 0. -1.
       -2   -1    0    0    0  501  0.00000000000E+00  0.00000000000E+00 -0.29686639572E+03  0.29686639573E+03  0.25500000920E-02 0.  1.
    10030    2    1    2    0    0  0.00000000000E+00  0.00000000000E+00  0.15338405535E+04  0.21275733450E+04  0.14744156451E+04 0.  0.
        2    1    3    3  502    0  0.24865630481E+03 -0.12516988602E+03  0.17519453315E+04  0.17739249992E+04  0.25500000920E-02 0. -1.
       -2    1    3    3    0  502 -0.24865630481E+03  0.12516988602E+03 -0.21810477796E+03  0.35364834577E+03  0.25500000920E-02 0.  1.
</event>
<event>
 5   0  0.6097538E-04  0.1398002E+04  0.7818609E-02  0.8955266E-01
       -1   -1    0    0    0  501  0.00000000000E+00  0.00000000000E+00  0.45610882479E+03  0.45610882482E+03  0.50400001928E-02 0. -1.
        1   -1    0    0  501    0  0.00000000000E+00  0.00000000000E+00 -0.10712401883E+04  0.10712401883E+04  0.50400001928E-02 0.  1.
    10030    2    1    2    0    0  0.00000000000E+00  0.00000000000E+00 -0.61513136347E+03  0.15273490131E+04  0.13980015785E+04 0.  0.
        2    1    3    3  502    0 -0.54178210182E+03 -0.26184243035E+02 -0.78925395196E+03  0.95767179196E+03  0.25500000920E-02 0.  1.
       -2    1    3    3    0  502  0.54178210182E+03  0.26184243035E+02  0.17412258849E+03  0.56967722112E+03  0.25500000920E-02 0. -1.
</event>
<event>
 5   0  0.1120053E-03  0.1392502E+04  0.7818609E-02  0.8959264E-01
        2   -1    0    0  501    0  0.00000000000E+00  0.00000000000E+00  0.96353555829E+03  0.96353555830E+03  0.25500000920E-02 0.  1.
       -2   -1    0    0    0  501  0.00000000000E+00  0.00000000000E+00 -0.50311110016E+03  0.50311110017E+03  0.25500000920E-02 0. -1.
    10030    2    1    2    0    0  0.00000000000E+00  0.00000000000E+00  0.46042445814E+03  0.14666466585E+04  0.13925019710E+04 0.  0.
        2    1    3    3  502    0  0.67967055031E+02 -0.42063582304E+03  0.81017812293E+03  0.91539205102E+03  0.25500000920E-02 0.  1.
       -2    1    3    3    0  502 -0.67967055031E+02  0.42063582304E+03 -0.34975366479E+03  0.55125460745E+03  0.25500000920E-02 0. -1.
</event>
<event>
 5   0  0.6153318E-04  0.1363318E+04  0.7818609E-02  0.8980807E-01
       -1   -1    0    0    0  501  0.00000000000E+00  0.00000000000E+00  0.26404948161E+03  0.26404948166E+03  0.50400001928E-02 0.  1.
        1   -1    0    0  501    0  0.00000000000E+00  0.00000000000E+00 -0.17597430088E+04  0.17597430088E+04  0.50400001928E-02 0. -1.
    10030    2    1    2    0    0  0.00000000000E+00  0.00000000000E+00 -0.14956935272E+04  0.20237924905E+04  0.13633183477E+04 0.  0.
        5    1    3    3  502    0  0.97711881206E+02 -0.67322221998E+03 -0.81189173947E+03  0.10592289912E+04  0.46999998093E+01 0. -1.
       -5    1    3    3    0  502 -0.97711881206E+02  0.67322221998E+03 -0.68380178771E+03  0.96456349925E+03  0.46999998093E+01 0.  1.
</event>
<event>
 5   0  0.1098949E-03  0.1399083E+04  0.7818609E-02  0.8954483E-01
       -2   -1    0    0    0  501  0.00000000000E+00  0.00000000000E+00  0.19103951726E+03  0.19103951728E+03  0.25500000920E-02 0.  1.
        2   -1    0    0  501    0  0.00000000000E+00  0.00000000000E+00 -0.25615557015E+04  0.25615557015E+04  0.25500000920E-02 0. -1.
    10030    2    1    2    0    0  0.00000000000E+00  0.00000000000E+00 -0.23705161843E+04  0.27525952188E+04  0.13990830779E+04 0.  0.
        4    1    3    3  502    0 -0.12444366498E+03  0.68549888048E+03 -0.10614224336E+04  0.12696511868E+04  0.12699999809E+01 0. -1.
       -4    1    3    3    0  502  0.12444366498E+03 -0.68549888048E+03 -0.13090937507E+04  0.14829440320E+04  0.12699999809E+01 0.  1.
</event>
<event>
 5   0  0.5875298E-04  0.1390101E+04  0.7818609E-02  0.8961015E-01
        1   -1    0    0  501    0  0.00000000000E+00  0.00000000000E+00  0.19004394350E+04  0.19004394350E+04  0.50400001928E-02 0. -1.
       -1   -1    0    0    0  501  0.00000000000E+00  0.00000000000E+00 -0.25420185544E+03  0.25420185549E+03  0.50400001928E-02 0.  1.
    10030    2    1    2    0    0  0.00000000000E+00  0.00000000000E+00  0.16462375795E+04  0.21546412905E+04  0.13901010475E+04 0.  0.
        1    1    3    3  502    0  0.44822417580E+03  0.51209552754E+03  0.10420378703E+04  0.12445841331E+04  0.50400001928E-02 0. -1.
       -1    1    3    3    0  502 -0.44822417580E+03 -0.51209552754E+03  0.60419970924E+03  0.91005715742E+03  0.50400001928E-02 0.  1.
</event>
<event>
 5   0  0.6153318E-04  0.1392358E+04  0.7818609E-02  0.8959369E-01
       -1   -1    0    0    0  501  0.00000000000E+00  0.00000000000E+00  0.32634037839E+03  0.32634037843E+03  0.50400001928E-02 0.  1.
        1   -1    0    0  501    0  0.00000000000E+00  0.00000000000E+00 -0.14851524503E+04  0.14851524503E+04  0.50400001928E-02 0. -1.
    10030    2    1    2    0    0  0.00000000000E+00  0.00000000000E+00 -0.11588120719E+04  0.18114928287E+04  0.13923580181E+04 0.  0.
        5    1    3    3  502    0  0.28542850778E+03  0.54805414176E+03 -0.99656743188E+03  0.11726045845E+04  0.46999998093E+01 0. -1.
       -5    1    3    3    0  502 -0.28542850778E+03 -0.54805414176E+03 -0.16224463999E+03  0.63888824418E+03  0.46999998093E+01 0.  1.
</event>
<event>
 5   0  0.5875298E-04  0.1393204E+04  0.7818609E-02  0.8958752E-01
       -1   -1    0    0    0  501  0.00000000000E+00  0.00000000000E+00  0.43240708105E+03  0.43240708108E+03  0.50400001928E-02 0.  1.
        1   -1    0    0  501    0  0.00000000000E+00  0.00000000000E+00 -0.11222169209E+04  0.11222169209E+04  0.50400001928E-02 0. -1.
    10030    2    1    2    0    0  0.00000000000E+00  0.00000000000E+00 -0.68980983982E+03  0.15546240020E+04  0.13932042824E+04 0.  0.
        1    1    3    3  502    0 -0.68047227766E+03  0.95262849388E+02 -0.47280148036E+03  0.83406161103E+03  0.50400001928E-02 0. -1.
       -1    1    3    3    0  502  0.68047227766E+03 -0.95262849388E+02 -0.21700835946E+03  0.72056239094E+03  0.50400001928E-02 0.  1.
</event>
<event>
 5   0  0.1120053E-03  0.1389966E+04  0.7818609E-02  0.8961114E-01
       -2   -1    0    0    0  501  0.00000000000E+00  0.00000000000E+00  0.45438353394E+03  0.45438353395E+03  0.25500000920E-02 0.  1.
        2   -1    0    0  501    0  0.00000000000E+00  0.00000000000E+00 -0.10629811231E+04  0.10629811231E+04  0.25500000920E-02 0. -1.
    10030    2    1    2    0    0  0.00000000000E+00  0.00000000000E+00 -0.60859758918E+03  0.15173646571E+04  0.13899656388E+04 0.  0.
        2    1    3    3  502    0  0.76168938223E+02  0.22226302771E+03 -0.10183108728E+04  0.10450643972E+04  0.25500000920E-02 0. -1.
       -2    1    3    3    0  502 -0.76168938223E+02 -0.22226302771E+03  0.40971328365E+03  0.47230025984E+03  0.25500000920E-02 0.  1.
</event>
<event>
 5   0  0.1108819E-03  0.1402760E+04  0.7818609E-02  0.8951823E-01
       -2   -1    0    0    0  501  0.00000000000E+00  0.00000000000E+00  0.47820813650E+03  0.47820813651E+03  0.25500000920E-02 0.  1.
        2   -1    0    0  501    0  0.00000000000E+00  0.00000000000E+00 -0.10287032103E+04  0.10287032103E+04  0.25500000920E-02 0. -1.
    10030    2    1    2    0    0  0.00000000000E+00  0.00000000000E+00 -0.55049507382E+03  0.15069113468E+04  0.14027604859E+04 0.  0.
        3    1    3    3  502    0 -0.11322036534E+02  0.40711576535E+03 -0.88866312229E+03  0.97754467418E+03  0.10100000352E+00 0. -1.
       -3    1    3    3    0  502  0.11322036534E+02 -0.40711576535E+03  0.33816804847E+03  0.52936667265E+03  0.10100000352E+00 0.  1.
</event>
<event>
 5   0  0.6153318E-04  0.1404473E+04  0.7818609E-02  0.8950587E-01
        1   -1    0    0  501    0  0.00000000000E+00  0.00000000000E+00  0.36917139074E+03  0.36917139077E+03  0.50400001928E-02 0.  1.
       -1   -1    0    0    0  501  0.00000000000E+00  0.00000000000E+00 -0.13357921292E+04  0.13357921292E+04  0.50400001928E-02 0. -1.
    10030    2    1    2    0    0  0.00000000000E+00  0.00000000000E+00 -0.96662073850E+03  0.17049635200E+04  0.14044731939E+04 0.  0.
        5    1    3    3  502    0  0.14718858485E+03 -0.18522952002E+03 -0.12859336604E+04  0.13075251139E+04  0.46999998093E+01 0. -1.
       -5    1    3    3    0  502 -0.14718858485E+03  0.18522952002E+03  0.31931292187E+03  0.39743840613E+03  0.46999998093E+01 0.  1.
</event>
<event>
 5   0  0.1095119E-03  0.1399366E+04  0.7818609E-02  0.8954278E-01
        2   -1    0    0  501    0  0.00000000000E+00  0.00000000000E+00  0.11581537826E+04  0.11581537826E+04  0.25500000920E-02 0.  1.
       -2   -1    0    0    0  501  0.00000000000E+00  0.00000000000E+00 -0.42270391223E+03  0.42270391224E+03  0.25500000920E-02 0. -1.
    10030    2    1    2    0    0  0.00000000000E+00  0.00000000000E+00  0.73544987034E+03  0.15808576948E+04  0.13993657633E+04 0.  0.
        5    1    3    3  502    0 -0.68943956902E+03 -0.11842100561E+03  0.35241803720E+03  0.78330774083E+03  0.46999998093E+01 0.  1.
       -5    1    3    3    0  502  0.68943956902E+03  0.11842100561E+03  0.38303183314E+03  0.79754995398E+03  0.46999998093E+01 0. -1.
</event>
<event>
 5   0  0.1095119E-03  0.1378240E+04  0.7818609E-02  0.8969722E-01
        2   -1    0    0  501    0  0.00000000000E+00  0.00000000000E+00  0.18224019522E+04  0.18224019522E+04  0.25500000920E-02 0. -1.
       -2   -1    0    0    0  501  0.00000000000E+00  0.00000000000E+00 -0.26058255623E+03  0.26058255625E+03  0.25500000920E-02 0.  1.
    10030    2    1    2    0    0  0.00000000000E+00  0.00000000000E+00  0.15618193959E+04  0.20829845084E+04  0.13782396877E+04 0.  0.
        5    1    3    3  502    0 -0.58820465816E+02 -0.24943957277E+03 -0.18585475760E+03  0.31661337398E+03  0.46999998093E+01 0.  1.
       -5    1    3    3    0  502  0.58820465816E+02  0.24943957277E+03  0.17476741535E+04  0.17663711344E+04  0.46999998093E+01 0. -1.
</event>
<event>
 5   0  0.1095119E-03  0.1396545E+04  0.7818609E-02  0.8956323E-01
       -2   -1    0    0    0  501  0.00000000000E+00  0.00000000000E+00  0.22725042612E+03  0.22725042613E+03  0.25500000920E-02 0. -1.
        2   -1    0    0  501    0  0.00000000000E+00  0.00000000000E+00 -0.21455817473E+04  0.21455817473E+04  0.25500000920E-02 0.  1.
    10030    2    1    2    0    0  0.00000000000E+00  0.00000000000E+00 -0.19183313212E+04  0.23728321734E+04  0.13965448312E+04 0.  0.
        5    1    3    3  502    0 -0.41623208914E+03 -0.84376188946E+02 -0.17453124606E+02  0.42508257415E+03  0.46999998093E+01 0. -1.
       -5    1    3    3    0  502  0.41623208914E+03  0.84376188946E+02 -0.19008781966E+04  0.19477495993E+04  0.46999998093E+01 0.  1.
</event>
<event>
 5   0  0.5875298E-04  0.1403877E+04  0.7818609E-02  0.8951017E-01
       -1   -1    0    0    0  501  0.00000000000E+00  0.00000000000E+00  0.26988188951E+03  0.26988188955E+03  0.50400001928E-02 0. -1.
        1   -1    0    0  501    0  0.00000000000E+00  0.00000000000E+00 -0.18256798339E+04  0.18256798339E+04  0.50400001928E-02 0.  1.
    10030    2    1    2    0    0  0.00000000000E+00  0.00000000000E+00 -0.15557979444E+04  0.20955617235E+04  0.14038773782E+04 0.  0.
        1    1    3    3  502    0 -0.19049766205E+02  0.24866875679E+03 -0.17573153944E+04  0.17749243475E+04  0.50400001928E-02 0.  1.
       -1    1    3    3    0  502  0.19049766205E+02 -0.24866875679E+03  0.20151744994E+03  0.32063737595E+03  0.50400001928E-02 0. -1.
</event>
<event>
 5   0  0.1098949E-03  0.1363839E+04  0.7818609E-02  0.8980418E-01
       -2   -1    0    0    0  501  0.00000000000E+00  0.00000000000E+00  0.64567959046E+03  0.64567959047E+03  0.25500000920E-02 0.  1.
        2   -1    0    0  501    0  0.00000000000E+00  0.00000000000E+00 -0.72019363087E+03  0.72019363088E+03  0.25500000920E-02 0. -1.
    10030    2    1    2    0    0  0.00000000000E+00  0.00000000000E+00 -0.74514040409E+02  0.13658732213E+04  0.13638391821E+04 0.  0.
        4    1    3    3  502    0  0.12368989285E+03 -0.41552506357E+03 -0.56439975215E+03  0.71169442964E+03  0.12699999809E+01 0. -1.
       -4    1    3    3    0  502 -0.12368989285E+03  0.41552506357E+03  0.48988571174E+03  0.65417879171E+03  0.12699999809E+01 0.  1.
</event>
<event>
 5   0  0.5875298E-04  0.1386576E+04  0.7818609E-02  0.8963593E-01
        1   -1    0    0  501    0  0.00000000000E+00  0.00000000000E+00  0.27180040577E+04  0.27180040577E+04  0.50400001928E-02 0. -1.
       -1   -1    0    0    0  501  0.00000000000E+00  0.00000000000E+00 -0.17683862028E+03  0.17683862035E+03  0.50400001928E-02 0.  1.
    10030    2    1    2    0    0  0.00000000000E+00  0.00000000000E+00  0.25411654374E+04  0.28948426780E+04  0.13865757644E+04 0.  0.
        1    1    3    3  502    0  0.20851918781E+02 -0.11943815615E+03 -0.15453257258E+03  0.19641942794E+03  0.50400001928E-02 0.  1.
       -1    1    3    3    0  502 -0.20851918781E+02  0.11943815615E+03  0.26956980100E+04  0.26984232501E+04  0.50400001928E-02 0. -1.
</event>
<event>
 5   0  0.5875298E-04  0.1400707E+04  0.7818609E-02  0.8953307E-01
       -1   -1    0    0    0  501  0.00000000000E+00  0.00000000000E+00  0.52589989647E+03  0.52589989650E+03  0.50400001928E-02 0.  1.
        1   -1    0    0  501    0  0.00000000000E+00  0.00000000000E+00 -0.93267820625E+03  0.93267820627E+03  0.50400001928E-02 0. -1.
    10030    2    1    2    0    0  0.00000000000E+00  0.00000000000E+00 -0.40677830978E+03  0.14585781028E+04  0.14007074957E+04 0.  0.
        1    1    3    3  502    0 -0.21980072056E+03  0.65904611450E+03 -0.11117991279E+03  0.70357310269E+03  0.50400001928E-02 0.  1.
       -1    1    3    3    0  502  0.21980072056E+03 -0.65904611450E+03 -0.29559839699E+03  0.75500500007E+03  0.50400001928E-02 0. -1.
</event>
<event>
 5   0  0.6097538E-04  0.1406113E+04  0.7818609E-02  0.8949405E-01
       -1   -1    0    0    0  501  0.00000000000E+00  0.00000000000E+00  0.63188529154E+03  0.63188529156E+03  0.50400001928E-02 0.  1.
        1   -1    0    0  501    0  0.00000000000E+00  0.00000000000E+00 -0.78224419200E+03  0.78224419202E+03  0.50400001928E-02 0. -1.
    10030    2    1    2    0    0  0.00000000000E+00  0.00000000000E+00 -0.15035890046E+03  0.14141294836E+04  0.14061132235E+04 0.  0.
        2    1    3    3  502    0  0.55826457290E+03  0.30602154254E+03 -0.37517532593E+03  0.73896213912E+03  0.25500000920E-02 0. -1.
       -2    1    3    3    0  502 -0.55826457290E+03 -0.30602154254E+03  0.22481642547E+03  0.67516734446E+03  0.25500000920E-02 0.  1.
</event>
<event>
 5   0  0.1098949E-03  0.1381328E+04  0.7818609E-02  0.8967446E-01
        2   -1    0    0  501    0  0.00000000000E+00  0.00000000000E+00  0.12692544694E+04  0.12692544694E+04  0.25500000920E-02 0.  1.
       -2   -1    0    0    0  501  0.00000000000E+00  0.00000000000E+00 -0.37582453140E+03  0.37582453141E+03  0.25500000920E-02 0. -1.
    10030    2    1    2    0    0  0.00000000000E+00  0.00000000000E+00  0.89342993801E+03  0.16450790008E+04  0.13813282973E+04 0.  0.
        4    1    3    3  502    0 -0.28117155124E+03  0.32276130417E+03 -0.19879539519E+03  0.47196771367E+03  0.12699999809E+01 0. -1.
       -4    1    3    3    0  502  0.28117155124E+03 -0.32276130417E+03  0.10922253332E+04  0.11731112872E+04  0.12699999809E+01 0.  1.
</event>
<event>
 5   0  0.6194742E-04  0.1387881E+04  0.7818609E-02  0.8962638E-01
       -1   -1    0    0    0  501  0.00000000000E+00  0.00000000000E+00  0.55872704882E+03  0.55872704885E+03  0.50400001928E-02 0. -1.
        1   -1    0    0  501    0  0.00000000000E+00  0.00000000000E+00 -0.86187633028E+03  0.86187633030E+03  0.50400001928E-02 0.  1.
    10030    2    1    2    0    0  0.00000000000E+00  0.00000000000E+00 -0.30314928146E+03  0.14206033791E+04  0.13878812896E+04 0.  0.
        4    1    3    3  502    0 -0.29034381678E+03 -0.62585366376E+03 -0.22789577969E+03  0.72658821879E+03  0.12699999809E+01 0. -1.
       -4    1    3    3    0  502  0.29034381678E+03  0.62585366376E+03 -0.75253501775E+02  0.69401516036E+03  0.12699999809E+01 0.  1.
</event>
<event>
 5   0  0.6114266E-04  0.1375510E+04  0.7818609E-02  0.8971739E-01
       -1   -1    0    0    0  501  0.00000000000E+00  0.00000000000E+00  0.61291560062E+03  0.61291560064E+03  0.50400001928E-02 0. -1.
        1   -1    0    0  501    0  0.00000000000E+00  0.00000000000E+00 -0.77173302523E+03  0.77173302524E+03  0.50400001928E-02 0.  1.
    10030    2    1    2    0    0  0.00000000000E+00  0.00000000000E+00 -0.15881742461E+03  0.13846486259E+04  0.13755103936E+04 0.  0.
        3    1    3    3  502    0  0.24465918227E+03 -0.38633559524E+03 -0.59652756662E+03  0.75163718346E+03  0.10100000352E+00 0.  1.
       -3    1    3    3    0  502 -0.24465918227E+03  0.38633559524E+03  0.43771014202E+03  0.63301144242E+03  0.10100000352E+00 0. -1.
</event>
<event>
 5   0  0.1175146E-03  0.1414697E+04  0.7818609E-02  0.8943248E-01
       -2   -1    0    0    0  501  0.00000000000E+00  0.00000000000E+00  0.44743133254E+03  0.44743133255E+03  0.25500000920E-02 0. -1.
        2   -1    0    0  501    0  0.00000000000E+00  0.00000000000E+00 -0.11182542806E+04  0.11182542806E+04  0.25500000920E-02 0.  1.
    10030    2    1    2    0    0  0.00000000000E+00  0.00000000000E+00 -0.67082294806E+03  0.15656856132E+04  0.14146971448E+04 0.  0.
        1    1    3    3  502    0 -0.33136905410E+02  0.56756035934E+03 -0.80118402264E+03  0.98240452673E+03  0.50400001928E-02 0.  1.
       -1    1    3    3    0  502  0.33136905410E+02 -0.56756035934E+03  0.13036107458E+03  0.58328108642E+03  0.50400001928E-02 0. -1.
</event>
<event>
 5   0  0.1095119E-03  0.1380795E+04  0.7818609E-02  0.8967839E-01
       -2   -1    0    0    0  501  0.00000000000E+00  0.00000000000E+00  0.23440647733E+03  0.23440647735E+03  0.25500000920E-02 0. -1.
        2   -1    0    0  501    0  0.00000000000E+00  0.00000000000E+00 -0.20334273816E+04  0.20334273816E+04  0.25500000920E-02 0.  1.
    10030    2    1    2    0    0  0.00000000000E+00  0.00000000000E+00 -0.17990209043E+04  0.22678338590E+04  0.13807947704E+04 0.  0.
        5    1    3    3  502    0 -0.13031436126E+03  0.14592040495E+03 -0.19869209702E+04  0.19965349056E+04  0.46999998093E+01 0.  1.
       -5    1    3    3    0  502  0.13031436126E+03 -0.14592040495E+03  0.18790006593E+03  0.27129895338E+03  0.46999998093E+01 0. -1.
</event>
<event>
 5   0  0.6194742E-04  0.1385377E+04  0.7818609E-02  0.8964472E-01
        1   -1    0    0  501    0  0.00000000000E+00  0.00000000000E+00  0.10364192861E+04  0.10364192861E+04  0.50400001928E-02 0.  1.
       -1   -1    0    0    0  501  0.00000000000E+00  0.00000000000E+00 -0.46295658800E+03  0.46295658803E+03  0.50400001928E-02 0. -1.
    10030    2    1    2    0    0  0.00000000000E+00  0.00000000000E+00  0.57346269807E+03  0.14993758741E+04  0.13853766801E+04 0.  0.
        4    1    3    3  502    0  0.78452266407E+02 -0.52238121456E+03  0.77168629292E+03  0.93516749249E+03  0.12699999809E+01 0.  1.
       -4    1    3    3    0  502 -0.78452266407E+02  0.52238121456E+03 -0.19822359486E+03  0.56420838162E+03  0.12699999809E+01 0. -1.
</event>
<event>
 5   0  0.1098949E-03  0.1401826E+04  0.7818609E-02  0.8952498E-01
       -2   -1    0    0    0  501  0.00000000000E+00  0.00000000000E+00  0.30705106753E+03  0.30705106754E+03  0.25500000920E-02 0. -1.
        2   -1    0    0  501    0  0.00000000000E+00  0.00000000000E+00 -0.15999915220E+04  0.15999915220E+04  0.25500000920E-02 0.  1.
    10030    2    1    2    0    0  0.00000000000E+00  0.00000000000E+00 -0.12929404544E+04  0.19070425895E+04  0.14018261017E+04 0.  0.
        4    1    3    3  502    0  0.51147862457E+03  0.27876990176E+03 -0.11767718573E+04  0.13130562282E+04  0.12699999809E+01 0. -1.
       -4    1    3    3    0  502 -0.51147862457E+03 -0.27876990176E+03 -0.11616859717E+03  0.59398636128E+03  0.12699999809E+01 0.  1.
</event>
<event>
 5   0  0.1120053E-03  0.1400320E+04  0.7818609E-02  0.8953587E-01
       -2   -1    0    0    0  501  0.00000000000E+00  0.00000000000E+00  0.12983103741E+04  0.12983103741E+04  0.25500000920E-02 0.  1.
        2   -1    0    0  501    0  0.00000000000E+00  0.00000000000E+00 -0.37758638072E+03  0.37758638073E+03  0.25500000920E-02 0. -1.
    10030    2    1    2    0    0  0.00000000000E+00  0.00000000000E+00  0.92072399335E+03  0.16758967548E+04  0.14003204136E+04 0.  0.
        2    1    3    3  502    0  0.42883268370E+02 -0.65596028450E+03  0.17188359093E+03  0.67946069672E+03  0.25500000920E-02 0.  1.
       -2    1    3    3    0  502 -0.42883268370E+02  0.65596028450E+03  0.74884040242E+03  0.99643605808E+03  0.25500000920E-02 0. -1.
</event>
<event>
 5   0  0.5875298E-04  0.1301874E+04  0.7818609E-02  0.9028081E-01
       -1   -1    0    0    0  501  0.00000000000E+00  0.00000000000E+00  0.47477031307E+03  0.47477031309E+03  0.50400001928E-02 0.  1.
        1   -1    0    0  501    0  0.00000000000E+00  0.00000000000E+00 -0.89247128504E+03  0.89247128505E+03  0.50400001928E-02 0. -1.
    10030    2    1    2    0    0  0.00000000000E+00  0.00000000000E+00 -0.41770097197E+03  0.13672415981E+04  0.13018738363E+04 0.  0.
        1    1    3    3  502    0  0.24018517675E+03 -0.51555320390E+02  0.42422004011E+03  0.49021374180E+03  0.50400001928E-02 0.  1.
       -1    1    3    3    0  502 -0.24018517675E+03  0.51555320390E+02 -0.84192101208E+03  0.87702785634E+03  0.50400001928E-02 0. -1.
</event>
<event>
 5   0  0.1120053E-03  0.1402158E+04  0.7818609E-02  0.8952258E-01
       -2   -1    0    0    0  501  0.00000000000E+00  0.00000000000E+00  0.26612737704E+03  0.26612737705E+03  0.25500000920E-02 0.  1.
        2   -1    0    0  501    0  0.00000000000E+00  0.00000000000E+00 -0.18469047194E+04  0.18469047194E+04  0.25500000920E-02 0. -1.
    10030    2    1    2    0    0  0.00000000000E+00  0.00000000000E+00 -0.15807773423E+04  0.21130320964E+04  0.14021582060E+04 0.  0.
        2    1    3    3  502    0 -0.20870734206E+03  0.47442656068E+03 -0.78950097818E+02  0.52428278062E+03  0.25500000920E-02 0.  1.
       -2    1    3    3    0  502  0.20870734206E+03 -0.47442656068E+03 -0.15018272445E+04  0.15887493158E+04  0.25500000920E-02 0. -1.
</event>
<event>
 5   0  0.6097538E-04  0.1444402E+04  0.7818609E-02  0.8922291E-01
       -1   -1    0    0    0  501  0.00000000000E+00  0.00000000000E+00  0.88345060551E+03  0.88345060552E+03  0.50400001928E-02 0. -1.
        1   -1    0    0  501    0  0.00000000000E+00  0.00000000000E+00 -0.59038297182E+03  0.59038297184E+03  0.50400001928E-02 0.  1.
    10030    2    1    2    0    0  0.00000000000E+00  0.00000000000E+00  0.29306763368E+03  0.14738335774E+04  0.14444018748E+04 0.  0.
        2    1    3    3  502    0 -0.27507367464E+03 -0.34097310008E+03 -0.43931332632E+03  0.62042274310E+03  0.25500000920E-02 0.  1.
       -2    1    3    3    0  502  0.27507367464E+03  0.34097310008E+03  0.73238096001E+03  0.85341083427E+03  0.25500000920E-02 0. -1.
</event>
<event>
 5   0  0.6194742E-04  0.1408271E+04  0.7818609E-02  0.8947853E-01
        1   -1    0    0  501    0  0.00000000000E+00  0.00000000000E+00  0.48518658731E+03  0.48518658734E+03  0.50400001928E-02 0.  1.
       -1   -1    0    0    0  501  0.00000000000E+00  0.00000000000E+00 -0.10218888852E+04  0.10218888852E+04  0.50400001928E-02 0. -1.
    10030    2    1    2    0    0  0.00000000000E+00  0.00000000000E+00 -0.53670229788E+03  0.15070754725E+04  0.14082709694E+04 0.  0.
        4    1    3    3  502    0  0.14463023911E+03  0.67000855962E+03 -0.44082893682E+03  0.81496082143E+03  0.12699999809E+01 0. -1.
       -4    1    3    3    0  502 -0.14463023911E+03 -0.67000855962E+03 -0.95873361052E+02  0.69211465111E+03  0.12699999809E+01 0.  1.
</event>
<event>
 5   0  0.1175146E-03  0.1386409E+04  0.7818609E-02  0.8963715E-01
        2   -1    0    0  501    0  0.00000000000E+00  0.00000000000E+00  0.79218296012E+03  0.79218296012E+03  0.25500000920E-02 0. -1.
       -2   -1    0    0    0  501  0.00000000000E+00  0.00000000000E+00 -0.60659306294E+03  0.60659306295E+03  0.25500000920E-02 0.  1.
    10030    2    1    2    0    0  0.00000000000E+00  0.00000000000E+00  0.18558989717E+03  0.13987760231E+04  0.13864093020E+04 0.  0.
        1    1    3    3  502    0  0.67183981068E+03  0.79468113674E+02  0.24530138895E+03  0.71962259814E+03  0.50400001928E-02 0. -1.
       -1    1    3    3    0  502 -0.67183981068E+03 -0.79468113674E+02 -0.59711491778E+02  0.67915342493E+03  0.50400001928E-02 0.  1.
</event>
<event>
 5   0  0.1120053E-03  0.1394546E+04  0.7818609E-02  0.8957776E-01
       -2   -1    0    0    0  501  0.00000000000E+00  0.00000000000E+00  0.60741248423E+03  0.60741248423E+03  0.25500000920E-02 0. -1.
        2   -1    0    0  501    0  0.00000000000E+00  0.00000000000E+00 -0.80042781696E+03  0.80042781697E+03  0.25500000920E-02 0.  1.
    10030    2    1    2    0    0  0.00000000000E+00  0.00000000000E+00 -0.19301533274E+03  0.14078403012E+04  0.13945463044E+04 0.  0.
        2    1    3    3  502    0  0.46451700887E+03  0.26320457673E+03 -0.54926615141E+03  0.76599347636E+03  0.25500000920E-02 0.  1.
       -2    1    3    3    0  502 -0.46451700887E+03 -0.26320457673E+03  0.35625081867E+03  0.64184682484E+03  0.25500000920E-02 0. -1.
</event>
<event>
 5   0  0.5875298E-04  0.1432303E+04  0.7818609E-02  0.8930762E-01
       -1   -1    0    0    0  501  0.00000000000E+00  0.00000000000E+00  0.30459220594E+03  0.30459220598E+03  0.50400001928E-02 0.  1.
        1   -1    0    0  501    0  0.00000000000E+00  0.00000000000E+00 -0.16838031554E+04  0.16838031554E+04  0.50400001928E-02 0. -1.
    10030    2    1    2    0    0  0.00000000000E+00  0.00000000000E+00 -0.13792109495E+04  0.19883953614E+04  0.14323034840E+04 0.  0.
        1    1    3    3  502    0  0.54221039759E+03  0.24015983325E+03 -0.13221927069E+03  0.60757781092E+03  0.50400001928E-02 0.  1.
       -1    1    3    3    0  502 -0.54221039759E+03 -0.24015983325E+03 -0.12469916788E+04  0.13808175505E+04  0.50400001928E-02 0. -1.
</event>
<event>
 5   0  0.6097538E-04  0.1394732E+04  0.7818609E-02  0.8957641E-01
        1   -1    0    0  501    0  0.00000000000E+00  0.00000000000E+00  0.12530664241E+04  0.12530664242E+04  0.50400001928E-02 0. -1.
       -1   -1    0    0    0  501  0.00000000000E+00  0.00000000000E+00 -0.38810324152E+03  0.38810324155E+03  0.50400001928E-02 0.  1.
    10030    2    1    2    0    0  0.00000000000E+00  0.00000000000E+00  0.86496318262E+03  0.16411696657E+04  0.13947317177E+04 0.  0.
        2    1    3    3  502    0 -0.38478033210E+03  0.52906383232E+03  0.14823143095E+03  0.67077343401E+03  0.25500000920E-02 0.  1.
       -2    1    3    3    0  502  0.38478033210E+03 -0.52906383232E+03  0.71673175167E+03  0.97039623170E+03  0.25500000920E-02 0. -1.
</event>
<event>
 5   0  0.1175146E-03  0.1450116E+04  0.7818609E-02  0.8918320E-01
       -2   -1    0    0    0  501  0.00000000000E+00  0.00000000000E+00  0.17410923653E+03  0.17410923655E+03  0.25500000920E-02 0. -1.
        2   -1    0    0  501    0  0.00000000000E+00  0.00000000000E+00 -0.30194223108E+04  0.30194223108E+04  0.25500000920E-02 0.  1.
    10030    2    1    2    0    0  0.00000000000E+00  0.00000000000E+00 -0.28453130743E+04  0.31935315474E+04  0.14501162896E+04 0.  0.
        1    1    3    3  502    0  0.15240583361E+03  0.38021745780E+02 -0.29815014077E+04  0.29856362530E+04  0.50400001928E-02 0.  1.
       -1    1    3    3    0  502 -0.15240583361E+03 -0.38021745780E+02  0.13618833335E+03  0.20789529441E+03  0.50400001928E-02 0. -1.
</event>
<event>
 5   0  0.6097538E-04  0.1395273E+04  0.7818609E-02  0.8957247E-01
       -1   -1    0    0    0  501  0.00000000000E+00  0.00000000000E+00  0.10136777180E+04  0.10136777180E+04  0.50400001928E-02 0. -1.
        1   -1    0    0  501    0  0.00000000000E+00  0.00000000000E+00 -0.48012993973E+03  0.48012993976E+03  0.50400001928E-02 0.  1.
    10030    2    1    2    0    0  0.00000000000E+00  0.00000000000E+00  0.53354777823E+03  0.14938076577E+04  0.13952734810E+04 0.  0.
        2    1    3    3  502    0  0.67441333410E+03 -0.12637145872E+03  0.13179961478E+03  0.69869466096E+03  0.25500000920E-02 0.  1.
       -2    1    3    3    0  502 -0.67441333410E+03  0.12637145872E+03  0.40174816345E+03  0.79511299677E+03  0.25500000920E-02 0. -1.
</event>
<event>
 5   0  0.6114266E-04  0.1375668E+04  0.7818609E-02  0.8971622E-01
       -1   -1    0    0    0  501  0.00000000000E+00  0.00000000000E+00  0.11747458787E+04  0.11747458787E+04  0.50400001928E-02 0. -1.
        1   -1    0    0  501    0  0.00000000000E+00  0.00000000000E+00 -0.40273874959E+03  0.40273874962E+03  0.50400001928E-02 0.  1.
    10030    2    1    2    0    0  0.00000000000E+00  0.00000000000E+00  0.77200712908E+03  0.15774846283E+04  0.13756681087E+04 0.  0.
        3    1    3    3  502    0  0.32635834802E+03 -0.30736801839E+03 -0.21218804975E+03  0.49599258936E+03  0.10100000352E+00 0.  1.
       -3    1    3    3    0  502 -0.32635834802E+03  0.30736801839E+03  0.98419517883E+03  0.10814920389E+04  0.10100000352E+00 0. -1.
</event>
<event>
 5   0  0.1098949E-03  0.1360481E+04  0.7818609E-02  0.8982932E-01
        2   -1    0    0  501    0  0.00000000000E+00  0.00000000000E+00  0.11820043105E+04  0.11820043105E+04  0.25500000920E-02 0. -1.
       -2   -1    0    0    0  501  0.00000000000E+00  0.00000000000E+00 -0.39147649546E+03  0.39147649547E+03  0.25500000920E-02 0.  1.
    10030    2    1    2    0    0  0.00000000000E+00  0.00000000000E+00  0.79052781505E+03  0.15734808060E+04  0.13604806579E+04 0.  0.
        4    1    3    3  502    0 -0.31081786800E+03 -0.50040734251E+03  0.18455748558E+01  0.58908426779E+03  0.12699999809E+01 0.  1.
       -4    1    3    3    0  502  0.31081786800E+03  0.50040734251E+03  0.78868224019E+03  0.98439653820E+03  0.12699999809E+01 0. -1.
</event>
<event>
 5   0  0.1098949E-03  0.1402076E+04  0.7818609E-02  0.8952317E-01
       -2   -1    0    0    0  501  0.00000000000E+00  0.00000000000E+00  0.29083412363E+03  0.29083412364E+03  0.25500000920E-02 0.  1.
        2   -1    0    0  501    0  0.00000000000E+00  0.00000000000E+00 -0.16898086351E+04  0.16898086351E+04  0.25500000920E-02 0. -1.
    10030    2    1    2    0    0  0.00000000000E+00  0.00000000000E+00 -0.13989745115E+04  0.19806427588E+04  0.14020756235E+04 0.  0.
        4    1    3    3  502    0 -0.61315985362E+03 -0.28421658544E+03 -0.43630806181E+03  0.80443173187E+03  0.12699999809E+01 0.  1.
       -4    1    3    3    0  502  0.61315985362E+03  0.28421658544E+03 -0.96266644969E+03  0.11762110269E+04  0.12699999809E+01 0. -1.
</event>
<event>
 5   0  0.1098949E-03  0.1436773E+04  0.7818609E-02  0.8927622E-01
       -2   -1    0    0    0  501  0.00000000000E+00  0.00000000000E+00  0.36454404890E+03  0.36454404891E+03  0.25500000920E-02 0. -1.
        2   -1    0    0  501    0  0.00000000000E+00  0.00000000000E+00 -0.14156844857E+04  0.14156844857E+04  0.25500000920E-02 0.  1.
    10030    2    1    2    0    0  0.00000000000E+00  0.00000000000E+00 -0.10511404368E+04  0.17802285346E+04  0.14367732659E+04 0.  0.
        4    1    3    3  502    0 -0.71256092433E+03  0.88508326182E+02 -0.55330235479E+03  0.90648877731E+03  0.12699999809E+01 0. -1.
       -4    1    3    3    0  502  0.71256092433E+03 -0.88508326182E+02 -0.49783808202E+03  0.87373975730E+03  0.12699999809E+01 0.  1.
</event>
<event>
 5   0  0.1108819E-03  0.1422828E+04  0.7818609E-02  0.8937458E-01
        2   -1    0    0  501    0  0.00000000000E+00  0.00000000000E+00  0.57877502356E+03  0.57877502357E+03  0.25500000920E-02 0. -1.
       -2   -1    0    0    0  501  0.00000000000E+00  0.00000000000E+00 -0.87445018400E+03  0.87445018400E+03  0.25500000920E-02 0.  1.
    10030    2    1    2    0    0  0.00000000000E+00  0.00000000000E+00 -0.29567516044E+03  0.14532252076E+04  0.14228280653E+04 0.  0.
        3    1    3    3  502    0 -0.19995488228E+03  0.98248362266E+02  0.54222599315E+03  0.58621133858E+03  0.10100000352E+00 0. -1.
       -3    1    3    3    0  502  0.19995488228E+03 -0.98248362266E+02 -0.83790115358E+03  0.86701386899E+03  0.10100000352E+00 0.  1.
</event>
<event>
 5   0  0.5875298E-04  0.1394889E+04  0.7818609E-02  0.8957527E-01
       -1   -1    0    0    0  501  0.00000000000E+00  0.00000000000E+00  0.92861397526E+03  0.92861397527E+03  0.50400001928E-02 0.  1.
        1   -1    0    0  501    0  0.00000000000E+00  0.00000000000E+00 -0.52382222583E+03  0.52382222585E+03  0.50400001928E-02 0. -1.
    10030    2    1    2    0    0  0.00000000000E+00  0.00000000000E+00  0.40479174943E+03  0.14524362011E+04  0.13948887260E+04 0.  0.
        1    1    3    3  502    0 -0.45538212399E+03  0.46353534954E+03 -0.61415606919E+02  0.65269424382E+03  0.50400001928E-02 0. -1.
       -1    1    3    3    0  502  0.45538212399E+03 -0.46353534954E+03  0.46620735635E+03  0.79974195730E+03  0.50400001928E-02 0.  1.
</event>
<event>
 5   0  0.1120053E-03  0.1398051E+04  0.7818609E-02  0.8955231E-01
        2   -1    0    0  501    0  0.00000000000E+00  0.00000000000E+00  0.84348606612E+03  0.84348606613E+03  0.25500000920E-02 0. -1.
       -2   -1    0    0    0  501  0.00000000000E+00  0.00000000000E+00 -0.57930611955E+03  0.57930611956E+03  0.25500000920E-02 0.  1.
    10030    2    1    2    0    0  0.00000000000E+00  0.00000000000E+00  0.26417994657E+03  0.14227921857E+04  0.13980509860E+04 0.  0.
        2    1    3    3  502    0  0.39570433679E+02 -0.15098498439E+03  0.82552505420E+03  0.84015111727E+03  0.25500000920E-02 0. -1.
       -2    1    3    3    0  502 -0.39570433679E+02  0.15098498439E+03 -0.56134510763E+03  0.58264106841E+03  0.25500000920E-02 0.  1.
</event>
<event>
 5   0  0.1175146E-03  0.1380025E+04  0.7818609E-02  0.8968406E-01
       -2   -1    0    0    0  501  0.00000000000E+00  0.00000000000E+00  0.12452452814E+04  0.12452452815E+04  0.25500000920E-02 0. -1.
        2   -1    0    0  501    0  0.00000000000E+00  0.00000000000E+00 -0.38234820459E+03  0.38234820460E+03  0.25500000920E-02 0.  1.
    10030    2    1    2    0    0  0.00000000000E+00  0.00000000000E+00  0.86289707686E+03  0.16275934860E+04  0.13800250688E+04 0.  0.
        1    1    3    3  502    0 -0.48007145583E+03  0.12544126293E+03  0.99695934156E+03  0.11136121595E+04  0.50400001928E-02 0. -1.
       -1    1    3    3    0  502  0.48007145583E+03 -0.12544126293E+03 -0.13406226470E+03  0.51398132650E+03  0.50400001928E-02 0.  1.
</event>
<event>
 5   0  0.6097538E-04  0.1394637E+04  0.7818609E-02  0.8957710E-01
        1   -1    0    0  501    0  0.00000000000E+00  0.00000000000E+00  0.83056664634E+03  0.83056664636E+03  0.50400001928E-02 0.  1.
       -1   -1    0    0    0  501  0.00000000000E+00  0.00000000000E+00 -0.58544714039E+03  0.58544714041E+03  0.50400001928E-02 0. -1.
    10030    2    1    2    0    0  0.00000000000E+00  0.00000000000E+00  0.24511950596E+03  0.14160137868E+04  0.13946366810E+04 0.  0.
        2    1    3    3  502    0  0.47578061329E+03 -0.19416272909E+03  0.60115154106E+03  0.79085367337E+03  0.25500000920E-02 0.  1.
       -2    1    3    3    0  502 -0.47578061329E+03  0.19416272909E+03 -0.35603203511E+03  0.62516011340E+03  0.25500000920E-02 0. -1.
</event>
<event>
 5   0  0.6097538E-04  0.1388046E+04  0.7818609E-02  0.8962517E-01
       -1   -1    0    0    0  501  0.00000000000E+00  0.00000000000E+00  0.23703844729E+04  0.23703844729E+04  0.50400001928E-02 0.  1.
        1   -1    0    0  501    0  0.00000000000E+00  0.00000000000E+00 -0.20320254443E+03  0.20320254449E+03  0.50400001928E-02 0. -1.
    10030    2    1    2    0    0  0.00000000000E+00  0.00000000000E+00  0.21671819284E+04  0.25735870174E+04  0.13880463339E+04 0.  0.
        2    1    3    3  502    0 -0.54145597467E+03 -0.36570884307E+03  0.15174308105E+04  0.16521240254E+04  0.25500000920E-02 0. -1.
       -2    1    3    3    0  502  0.54145597467E+03  0.36570884307E+03  0.64975111789E+03  0.92146299199E+03  0.25500000920E-02 0.  1.
</event>
<event>
 5   0  0.1175146E-03  0.1443228E+04  0.7818609E-02  0.8923109E-01
       -2   -1    0    0    0  501  0.00000000000E+00  0.00000000000E+00  0.70081162377E+03  0.70081162378E+03  0.25500000920E-02 0. -1.
        2   -1    0    0  501    0  0.00000000000E+00  0.00000000000E+00 -0.74303337103E+03  0.74303337103E+03  0.25500000920E-02 0.  1.
    10030    2    1    2    0    0  0.00000000000E+00  0.00000000000E+00 -0.42221747253E+02  0.14438449948E+04  0.14432275264E+04 0.  0.
        1    1    3    3  502    0  0.64899143259E+03  0.30395714759E+03 -0.10568458461E+03  0.72439565059E+03  0.50400001928E-02 0.  1.
       -1    1    3    3    0  502 -0.64899143259E+03 -0.30395714759E+03  0.63462837360E+02  0.71944934422E+03  0.50400001928E-02 0. -1.
</event>
<event>
 5   0  0.1098949E-03  0.1378083E+04  0.7818609E-02  0.8969838E-01
       -2   -1    0    0    0  501  0.00000000000E+00  0.00000000000E+00  0.49987941651E+03  0.49987941652E+03  0.25500000920E-02 0.  1.
        2   -1    0    0  501    0  0.00000000000E+00  0.00000000000E+00 -0.94978517458E+03  0.94978517458E+03  0.25500000920E-02 0. -1.
    10030    2    1    2    0    0  0.00000000000E+00  0.00000000000E+00 -0.44990575806E+03  0.14496645911E+04  0.13780828116E+04 0.  0.
        4    1    3    3  502    0 -0.12338815084E+03 -0.43247555773E+03 -0.77410008415E+03  0.89526102170E+03  0.12699999809E+01 0. -1.
       -4    1    3    3    0  502  0.12338815084E+03  0.43247555773E+03  0.32419432609E+03  0.55440356940E+03  0.12699999809E+01 0.  1.
</event>
<event>
 5   0  0.1098949E-03  0.1409214E+04  0.7818609E-02  0.8947176E-01
        2   -1    0    0  501    0  0.00000000000E+00  0.00000000000E+00  0.14779289806E+04  0.14779289806E+04  0.25500000920E-02 0. -1.
       -2   -1    0    0    0  501  0.00000000000E+00  0.00000000000E+00 -0.33592353051E+03  0.33592353052E+03  0.25500000920E-02 0.  1.
    10030    2    1    2    0    0  0.00000000000E+00  0.00000000000E+00  0.11420054501E+04  0.18138525112E+04  0.14092141371E+04 0.  0.
        4    1    3    3  502    0  0.58384403123E+03  0.19393216795E+03  0.10131227259E+04  0.11852859609E+04  0.12699999809E+01 0. -1.
       -4    1    3    3    0  502 -0.58384403123E+03 -0.19393216795E+03  0.12888272426E+03  0.62856655024E+03  0.12699999809E+01 0.  1.
</event>
<event>
 5   0  0.6114266E-04  0.1394936E+04  0.7818609E-02  0.8957492E-01
       -1   -1    0    0    0  501  0.00000000000E+00  0.00000000000E+00  0.35002592332E+03  0.35002592335E+03  0.50400001928E-02 0. -1.
        1   -1    0    0  501    0  0.00000000000E+00  0.00000000000E+00 -0.13897871047E+04  0.13897871047E+04  0.50400001928E-02 0.  1.
    10030    2    1    2    0    0  0.00000000000E+00  0.00000000000E+00 -0.10397611814E+04  0.17398130280E+04  0.13949358617E+04 0.  0.
        3    1    3    3  502    0  0.11498248572E+03 -0.40218501788E+03 -0.12159760817E+04  0.12859127505E+04  0.10100000352E+00 0.  1.
       -3    1    3    3    0  502 -0.11498248572E+03  0.40218501788E+03  0.17621490030E+03  0.45390027750E+03  0.10100000352E+00 0. -1.
</event>
<event>
 5   0  0.6153318E-04  0.1394580E+04  0.7818609E-02  0.8957751E-01
        1   -1    0    0  501    0  0.00000000000E+00  0.00000000000E+00  0.72621279797E+03  0.72621279799E+03  0.50400001928E-02 0. -1.
       -1   -1    0    0    0  501  0.00000000000E+00  0.00000000000E+00 -0.66951945036E+03  0.66951945038E+03  0.50400001928E-02 0.  1.
    10030    2    1    2    0    0  0.00000000000E+00  0.00000000000E+00  0.56693347610E+02  0.13957322484E+04  0.13945803575E+04 0.  0.
        5    1    3    3  502    0 -0.21167341887E+03  0.47575793469E+03 -0.43576068219E+03  0.67901451443E+03  0.46999998093E+01 0.  1.
       -5    1    3    3    0  502  0.21167341887E+03 -0.47575793469E+03  0.49245402980E+03  0.71671773393E+03  0.46999998093E+01 0. -1.
</event>
<event>
 5   0  0.1120053E-03  0.1158155E+04  0.7818609E-02  0.9150293E-01
        2   -1    0    0  501    0  0.00000000000E+00  0.00000000000E+00  0.10042954758E+04  0.10042954758E+04  0.25500000920E-02 0.  1.
       -2   -1    0    0    0  501  0.00000000000E+00  0.00000000000E+00 -0.33389674358E+03  0.33389674359E+03  0.25500000920E-02 0. -1.
    10030    2    1    2    0    0  0.00000000000E+00  0.00000000000E+00  0.67039873222E+03  0.13381922194E+04  0.11581554109E+04 0.  0.
        2    1    3    3  502    0 -0.19649786488E+03 -0.29596226554E+03 -0.19319184766E+03  0.40438615646E+03  0.25500000920E-02 0. -1.
       -2    1    3    3    0  502  0.19649786488E+03  0.29596226554E+03  0.86359057988E+03  0.93380606295E+03  0.25500000920E-02 0.  1.
</event>
<event>
 5   0  0.6097538E-04  0.1368339E+04  0.7818609E-02  0.8977061E-01
        1   -1    0    0  501    0  0.00000000000E+00  0.00000000000E+00  0.13697689452E+04  0.13697689453E+04  0.50400001928E-02 0. -1.
       -1   -1    0    0    0  501  0.00000000000E+00  0.00000000000E+00 -0.34172770838E+03  0.34172770842E+03  0.50400001928E-02 0.  1.
    10030    2    1    2    0    0  0.00000000000E+00  0.00000000000E+00  0.10280412369E+04  0.17114966537E+04  0.13683391432E+04 0.  0.
        2    1    3    3  502    0  0.47496531192E+03  0.15913093317E+03  0.10969091629E+04  0.12058708111E+04  0.25500000920E-02 0. -1.
       -2    1    3    3    0  502 -0.47496531192E+03 -0.15913093317E+03 -0.68867926036E+02  0.50562584256E+03  0.25500000920E-02 0.  1.
</event>
<event>
 5   0  0.6097538E-04  0.1396614E+04  0.7818609E-02  0.8956273E-01
        1   -1    0    0  501    0  0.00000000000E+00  0.00000000000E+00  0.53246077698E+03  0.53246077700E+03  0.50400001928E-02 0.  1.
       -1   -1    0    0    0  501  0.00000000000E+00  0.00000000000E+00 -0.91581018538E+03  0.91581018540E+03  0.50400001928E-02 0. -1.
    10030    2    1    2    0    0  0.00000000000E+00  0.00000000000E+00 -0.38334940840E+03  0.14482709624E+04  0.13966144821E+04 0.  0.
        2    1    3    3  502    0  0.20461177762E+03  0.91929141725E+02  0.49408347082E+03  0.54261904020E+03  0.25500000920E-02 0.  1.
       -2    1    3    3    0  502 -0.20461177762E+03 -0.91929141725E+02 -0.87743287922E+03  0.90565192220E+03  0.25500000920E-02 0. -1.
</event>
<event>
 5   0  0.5875298E-04  0.1400578E+04  0.7818609E-02  0.8953400E-01
       -1   -1    0    0    0  501  0.00000000000E+00  0.00000000000E+00  0.96468223349E+03  0.96468223351E+03  0.50400001928E-02 0.  1.
        1   -1    0    0  501    0  0.00000000000E+00  0.00000000000E+00 -0.50835911935E+03  0.50835911937E+03  0.50400001928E-02 0. -1.
    10030    2    1    2    0    0  0.00000000000E+00  0.00000000000E+00  0.45632311414E+03  0.14730413529E+04  0.14005784672E+04 0.  0.
        1    1    3    3  502    0  0.49109385551E+03 -0.68276347830E+01  0.75317283511E+03  0.89916022548E+03  0.50400001928E-02 0.  1.
       -1    1    3    3    0  502 -0.49109385551E+03  0.68276347830E+01 -0.29684972096E+03  0.57388112740E+03  0.50400001928E-02 0. -1.
</event>
<event>
 5   0  0.1120053E-03  0.1397895E+04  0.7818609E-02  0.8955343E-01
        2   -1    0    0  501    0  0.00000000000E+00  0.00000000000E+00  0.67790759623E+03  0.67790759624E+03  0.25500000920E-02 0.  1.
       -2   -1    0    0    0  501  0.00000000000E+00  0.00000000000E+00 -0.72064074143E+03  0.72064074144E+03  0.25500000920E-02 0. -1.
    10030    2    1    2    0    0  0.00000000000E+00  0.00000000000E+00 -0.42733145200E+02  0.13985483377E+04  0.13978953219E+04 0.  0.
        2    1    3    3  502    0  0.58953439169E+03  0.29659965305E+03 -0.25170374620E+03  0.70631220365E+03  0.25500000920E-02 0.  1.
       -2    1    3    3    0  502 -0.58953439169E+03 -0.29659965305E+03  0.20897060100E+03  0.69223613403E+03  0.25500000920E-02 0. -1.
</event>
<event>
 5   0  0.1098949E-03  0.1389607E+04  0.7818609E-02  0.8961376E-01
        2   -1    0    0  501    0  0.00000000000E+00  0.00000000000E+00  0.14310734945E+04  0.14310734945E+04  0.25500000920E-02 0.  1.
       -2   -1    0    0    0  501  0.00000000000E+00  0.00000000000E+00 -0.33733549268E+03  0.33733549269E+03  0.25500000920E-02 0. -1.
    10030    2    1    2    0    0  0.00000000000E+00  0.00000000000E+00  0.10937380018E+04  0.17684089872E+04  0.13896069694E+04 0.  0.
        4    1    3    3  502    0 -0.65976080387E+03  0.21757114920E+03  0.53242931229E+03  0.87527373363E+03  0.12699999809E+01 0. -1.
       -4    1    3    3    0  502  0.65976080387E+03 -0.21757114920E+03  0.56130868951E+03  0.89313525354E+03  0.12699999809E+01 0.  1.
</event>
<event>
 5   0  0.5875298E-04  0.1385494E+04  0.7818609E-02  0.8964386E-01
       -1   -1    0    0    0  501  0.00000000000E+00  0.00000000000E+00  0.70031872757E+03  0.70031872758E+03  0.50400001928E-02 0. -1.
        1   -1    0    0  501    0  0.00000000000E+00  0.00000000000E+00 -0.68525684647E+03  0.68525684648E+03  0.50400001928E-02 0.  1.
    10030    2    1    2    0    0  0.00000000000E+00  0.00000000000E+00  0.15061881101E+02  0.13855755741E+04  0.13854937067E+04 0.  0.
        1    1    3    3  502    0  0.43441788813E+03  0.53945404629E+03 -0.54557110802E+01  0.69264661581E+03  0.50400001928E-02 0.  1.
       -1    1    3    3    0  502 -0.43441788813E+03 -0.53945404629E+03  0.20517592181E+02  0.69292895826E+03  0.50400001928E-02 0. -1.
</event>
<event>
 5   0  0.1175146E-03  0.1391892E+04  0.7818609E-02  0.8959708E-01
        2   -1    0    0  501    0  0.00000000000E+00  0.00000000000E+00  0.47623843217E+03  0.47623843218E+03  0.25500000920E-02 0. -1.
       -2   -1    0    0    0  501  0.00000000000E+00  0.00000000000E+00 -0.10170139365E+04  0.10170139365E+04  0.25500000920E-02 0.  1.
    10030    2    1    2    0    0  0.00000000000E+00  0.00000000000E+00 -0.54077550429E+03  0.14932523686E+04  0.13918924134E+04 0.  0.
        1    1    3    3  502    0 -0.46795380315E+03  0.35778433327E+01  0.28224305760E+03  0.54649309825E+03  0.50400001928E-02 0. -1.
       -1    1    3    3    0  502  0.46795380315E+03 -0.35778433327E+01 -0.82301856189E+03  0.94675927040E+03  0.50400001928E-02 0.  1.
</event>
<event>
 5   0  0.6097538E-04  0.1369917E+04  0.7818609E-02  0.8975887E-01
       -1   -1    0    0    0  501  0.00000000000E+00  0.00000000000E+00  0.57997136720E+03  0.57997136722E+03  0.50400001928E-02 0. -1.
        1   -1    0    0  501    0  0.00000000000E+00  0.00000000000E+00 -0.80895044919E+03  0.80895044920E+03  0.50400001928E-02 0.  1.
    10030    2    1    2    0    0  0.00000000000E+00  0.00000000000E+00 -0.22897908198E+03  0.13889218164E+04  0.13699169289E+04 0.  0.
        2    1    3    3  502    0  0.56697677482E+02  0.65168848227E+03  0.91443003923E+02  0.66051065664E+03  0.25500000920E-02 0. -1.
       -2    1    3    3    0  502 -0.56697677482E+02 -0.65168848227E+03 -0.32042208591E+03  0.72841115979E+03  0.25500000920E-02 0.  1.
</event>
<event>
 5   0  0.5875298E-04  0.1401901E+04  0.7818609E-02  0.8952444E-01
       -1   -1    0    0    0  501  0.00000000000E+00  0.00000000000E+00  0.48997027210E+03  0.48997027212E+03  0.50400001928E-02 0. -1.
        1   -1    0    0  501    0  0.00000000000E+00  0.00000000000E+00 -0.10027782975E+04  0.10027782975E+04  0.50400001928E-02 0.  1.
    10030    2    1    2    0    0  0.00000000000E+00  0.00000000000E+00 -0.51280802536E+03  0.14927485696E+04  0.14019009313E+04 0.  0.
        1    1    3    3  502    0 -0.53811454141E+03  0.37862459944E+03  0.93428434415E+00  0.65797015122E+03  0.50400001928E-02 0. -1.
       -1    1    3    3    0  502  0.53811454141E+03 -0.37862459944E+03 -0.51374230970E+03  0.83477841837E+03  0.50400001928E-02 0.  1.
</event>
<event>
 5   0  0.5875298E-04  0.1411874E+04  0.7818609E-02  0.8945268E-01
        1   -1    0    0  501    0  0.00000000000E+00  0.00000000000E+00  0.90193653826E+03  0.90193653828E+03  0.50400001928E-02 0. -1.
       -1   -1    0    0    0  501  0.00000000000E+00  0.00000000000E+00 -0.55253007009E+03  0.55253007011E+03  0.50400001928E-02 0.  1.
    10030    2    1    2    0    0  0.00000000000E+00  0.00000000000E+00  0.34940646818E+03  0.14544666084E+04  0.14118740152E+04 0.  0.
        1    1    3    3  502    0 -0.31800974892E+03 -0.74336569813E+02  0.81943574297E+03  0.88211737478E+03  0.50400001928E-02 0. -1.
       -1    1    3    3    0  502  0.31800974892E+03  0.74336569813E+02 -0.47002927479E+03  0.57234923360E+03  0.50400001928E-02 0.  1.
</event>
<event>
 5   0  0.5875298E-04  0.1396343E+04  0.7818609E-02  0.8956470E-01
        1   -1    0    0  501    0  0.00000000000E+00  0.00000000000E+00  0.94389372917E+03  0.94389372918E+03  0.50400001928E-02 0.  1.
       -1   -1    0    0    0  501  0.00000000000E+00  0.00000000000E+00 -0.51641764820E+03  0.51641764822E+03  0.50400001928E-02 0. -1.
    10030    2    1    2    0    0  0.00000000000E+00  0.00000000000E+00  0.42747608097E+03  0.14603113774E+04  0.13963429089E+04 0.  0.
        1    1    3    3  502    0 -0.32935231251E+03 -0.41644983092E+03 -0.26039643147E+03  0.59136258672E+03  0.50400001928E-02 0. -1.
       -1    1    3    3    0  502  0.32935231251E+03  0.41644983092E+03  0.68787251244E+03  0.86894879068E+03  0.50400001928E-02 0.  1.
</event>
<event>
 5   0  0.5875298E-04  0.1382809E+04  0.7818609E-02  0.8966357E-01
        1   -1    0    0  501    0  0.00000000000E+00  0.00000000000E+00  0.67189065258E+03  0.67189065260E+03  0.50400001928E-02 0.  1.
       -1   -1    0    0    0  501  0.00000000000E+00  0.00000000000E+00 -0.71148548236E+03  0.71148548238E+03  0.50400001928E-02 0. -1.
    10030    2    1    2    0    0  0.00000000000E+00  0.00000000000E+00 -0.39594829781E+02  0.13833761350E+04  0.13828093796E+04 0.  0.
        1    1    3    3  502    0 -0.11987400475E+03  0.60223868952E+03  0.29810511752E+03  0.68258909842E+03  0.50400001928E-02 0.  1.
       -1    1    3    3    0  502  0.11987400475E+03 -0.60223868952E+03 -0.33769994730E+03  0.70078703656E+03  0.50400001928E-02 0. -1.
</event>
<event>
 5   0  0.6097538E-04  0.1381105E+04  0.7818609E-02  0.8967610E-01
        1   -1    0    0  501    0  0.00000000000E+00  0.00000000000E+00  0.10765994311E+04  0.10765994312E+04  0.50400001928E-02 0.  1.
       -1   -1    0    0    0  501  0.00000000000E+00  0.00000000000E+00 -0.44293422367E+03  0.44293422370E+03  0.50400001928E-02 0. -1.
    10030    2    1    2    0    0  0.00000000000E+00  0.00000000000E+00  0.63366520748E+03  0.15195336549E+04  0.13811049682E+04 0.  0.
        2    1    3    3  502    0 -0.56746252054E+03 -0.39336519003E+03  0.32852036063E+03  0.76464077337E+03  0.25500000920E-02 0. -1.
       -2    1    3    3    0  502  0.56746252054E+03  0.39336519003E+03  0.30514484685E+03  0.75489288148E+03  0.25500000920E-02 0.  1.
</event>
<event>
 5   0  0.5875298E-04  0.1405533E+04  0.7818609E-02  0.8949823E-01
       -1   -1    0    0    0  501  0.00000000000E+00  0.00000000000E+00  0.18372063515E+04  0.18372063515E+04  0.50400001928E-02 0. -1.
        1   -1    0    0  501    0  0.00000000000E+00  0.00000000000E+00 -0.26882164781E+03  0.26882164785E+03  0.50400001928E-02 0.  1.
    10030    2    1    2    0    0  0.00000000000E+00  0.00000000000E+00  0.15683847037E+04  0.21060279994E+04  0.14055331214E+04 0.  0.
        1    1    3    3  502    0  0.17817181987E+03 -0.40535296059E+03  0.16019099679E+04  0.16619782686E+04  0.50400001928E-02 0. -1.
       -1    1    3    3    0  502 -0.17817181987E+03  0.40535296059E+03 -0.33525264157E+02  0.44404973080E+03  0.50400001928E-02 0.  1.
</event>
<event>
 5   0  0.1120053E-03  0.1407623E+04  0.7818609E-02  0.8948319E-01
       -2   -1    0    0    0  501  0.00000000000E+00  0.00000000000E+00  0.51167705167E+03  0.51167705168E+03  0.25500000920E-02 0.  1.
        2   -1    0    0  501    0  0.00000000000E+00  0.00000000000E+00 -0.96809207414E+03  0.96809207414E+03  0.25500000920E-02 0. -1.
    10030    2    1    2    0    0  0.00000000000E+00  0.00000000000E+00 -0.45641502247E+03  0.14797691258E+04  0.14076228163E+04 0.  0.
        2    1    3    3  502    0 -0.22254089203E+03  0.22007490375E+02 -0.92975060750E+03  0.95626616086E+03  0.25500000920E-02 0. -1.
       -2    1    3    3    0  502  0.22254089203E+03 -0.22007490375E+02  0.47333558503E+03  0.52350296496E+03  0.25500000920E-02 0.  1.
</event>
<event>
 5   0  0.6097538E-04  0.1383525E+04  0.7818609E-02  0.8965831E-01
       -1   -1    0    0    0  501  0.00000000000E+00  0.00000000000E+00  0.41818113606E+03  0.41818113609E+03  0.50400001928E-02 0. -1.
        1   -1    0    0  501    0  0.00000000000E+00  0.00000000000E+00 -0.11443252397E+04  0.11443252397E+04  0.50400001928E-02 0.  1.
    10030    2    1    2    0    0  0.00000000000E+00  0.00000000000E+00 -0.72614410361E+03  0.15625063758E+04  0.13835248155E+04 0.  0.
        2    1    3    3  502    0 -0.15512314399E+03 -0.26044459252E+03 -0.10653169663E+04  0.11076076987E+04  0.25500000920E-02 0.  1.
       -2    1    3    3    0  502  0.15512314399E+03  0.26044459252E+03  0.33917286270E+03  0.45489867704E+03  0.25500000920E-02 0. -1.
</event>
<event>
 5   0  0.6153318E-04  0.1408582E+04  0.7818609E-02  0.8947629E-01
       -1   -1    0    0    0  501  0.00000000000E+00  0.00000000000E+00  0.42629080977E+03  0.42629080980E+03  0.50400001928E-02 0.  1.
        1   -1    0    0  501    0  0.00000000000E+00  0.00000000000E+00 -0.11635861983E+04  0.11635861983E+04  0.50400001928E-02 0. -1.
    10030    2    1    2    0    0  0.00000000000E+00  0.00000000000E+00 -0.73729538852E+03  0.15898770081E+04  0.14085824118E+04 0.  0.
        5    1    3    3  502    0 -0.54260847697E+03  0.44195225280E+03 -0.27935661792E+03  0.75353033317E+03  0.46999998093E+01 0.  1.
       -5    1    3    3    0  502  0.54260847697E+03 -0.44195225280E+03 -0.45793877060E+03  0.83634667492E+03  0.46999998093E+01 0. -1.
</event>
<event>
 5   0  0.1175146E-03  0.1405246E+04  0.7818609E-02  0.8950030E-01
       -2   -1    0    0    0  501  0.00000000000E+00  0.00000000000E+00  0.45717572310E+03  0.45717572310E+03  0.25500000920E-02 0. -1.
        2   -1    0    0  501    0  0.00000000000E+00  0.00000000000E+00 -0.10798457882E+04  0.10798457882E+04  0.25500000920E-02 0.  1.
    10030    2    1    2    0    0  0.00000000000E+00  0.00000000000E+00 -0.62267006510E+03  0.15370215113E+04  0.14052462831E+04 0.  0.
        1    1    3    3  502    0 -0.18887514845E+03  0.62857235584E+03 -0.37013061000E+02  0.65737888233E+03  0.50400001928E-02 0. -1.
       -1    1    3    3    0  502  0.18887514845E+03 -0.62857235584E+03 -0.58565700410E+03  0.87964262897E+03  0.50400001928E-02 0.  1.
</event>
<event>
 5   0  0.1175146E-03  0.1405187E+04  0.7818609E-02  0.8950073E-01
        2   -1    0    0  501    0  0.00000000000E+00  0.00000000000E+00  0.16631419596E+04  0.16631419596E+04  0.25500000920E-02 0. -1.
       -2   -1    0    0    0  501  0.00000000000E+00  0.00000000000E+00 -0.29681010709E+03  0.29681010710E+03  0.25500000920E-02 0.  1.
    10030    2    1    2    0    0  0.00000000000E+00  0.00000000000E+00  0.13663318525E+04  0.19599520667E+04  0.14051865971E+04 0.  0.
        1    1    3    3  502    0  0.18840485936E+02 -0.28768121197E+03  0.15768409413E+04  0.16029793504E+04  0.50400001928E-02 0. -1.
       -1    1    3    3    0  502 -0.18840485936E+02  0.28768121197E+03 -0.21050908885E+03  0.35697271625E+03  0.50400001928E-02 0.  1.
</event>
<event>
 5   0  0.1120053E-03  0.1395210E+04  0.7818609E-02  0.8957293E-01
       -2   -1    0    0    0  501  0.00000000000E+00  0.00000000000E+00  0.20474188167E+03  0.20474188169E+03  0.25500000920E-02 0. -1.
        2   -1    0    0  501    0  0.00000000000E+00  0.00000000000E+00 -0.23769087632E+04  0.23769087632E+04  0.25500000920E-02 0.  1.
    10030    2    1    2    0    0  0.00000000000E+00  0.00000000000E+00 -0.21721668815E+04  0.25816506449E+04  0.13952100527E+04 0.  0.
        2    1    3    3  502    0  0.20871213719E+03  0.37385472999E+03 -0.21051715477E+04  0.21482726458E+04  0.25500000920E-02 0.  1.
       -2    1    3    3    0  502 -0.20871213719E+03 -0.37385472999E+03 -0.66995333821E+02  0.43337799910E+03  0.25500000920E-02 0. -1.
</event>
<event>
 5   0  0.1095119E-03  0.1387758E+04  0.7818609E-02  0.8962728E-01
        2   -1    0    0  501    0  0.00000000000E+00  0.00000000000E+00  0.18485366670E+04  0.18485366670E+04  0.25500000920E-02 0.  1.
       -2   -1    0    0    0  501  0.00000000000E+00  0.00000000000E+00 -0.26045885358E+03  0.26045885360E+03  0.25500000920E-02 0. -1.
    10030    2    1    2    0    0  0.00000000000E+00  0.00000000000E+00  0.15880778135E+04  0.21089955206E+04  0.13877575309E+04 0.  0.
        5    1    3    3  502    0 -0.15464144297E+03 -0.48145080239E+03  0.71995599440E+02  0.51079771665E+03  0.46999998093E+01 0. -1.
       -5    1    3    3    0  502  0.15464144297E+03  0.48145080239E+03  0.15160822140E+04  0.15981978040E+04  0.46999998093E+01 0.  1.
</event>
<event>
 5   0  0.6194742E-04  0.1394067E+04  0.7818609E-02  0.8958124E-01
        1   -1    0    0  501    0  0.00000000000E+00  0.00000000000E+00  0.13196370730E+04  0.13196370730E+04  0.50400001928E-02 0.  1.
       -1   -1    0    0    0  501  0.00000000000E+00  0.00000000000E+00 -0.36817393595E+03  0.36817393598E+03  0.50400001928E-02 0. -1.
    10030    2    1    2    0    0  0.00000000000E+00  0.00000000000E+00  0.95146313703E+03  0.16878110090E+04  0.13940673947E+04 0.  0.
        4    1    3    3  502    0 -0.69325409366E+03 -0.45397917999E+02  0.40732750619E+03  0.80534434842E+03  0.12699999809E+01 0.  1.
       -4    1    3    3    0  502  0.69325409366E+03  0.45397917999E+02  0.54413563084E+03  0.88246666055E+03  0.12699999809E+01 0. -1.
</event>
<event>
 5   0  0.1175146E-03  0.1401442E+04  0.7818609E-02  0.8952776E-01
       -2   -1    0    0    0  501  0.00000000000E+00  0.00000000000E+00  0.41552058944E+03  0.41552058945E+03  0.25500000920E-02 0. -1.
        2   -1    0    0  501    0  0.00000000000E+00  0.00000000000E+00 -0.11816737732E+04  0.11816737732E+04  0.25500000920E-02 0.  1.
    10030    2    1    2    0    0  0.00000000000E+00  0.00000000000E+00 -0.76615318376E+03  0.15971943627E+04  0.14014418044E+04 0.  0.
        1    1    3    3  502    0  0.52570646564E+03 -0.44001148347E+03 -0.21779404175E+03  0.71931331021E+03  0.50400001928E-02 0. -1.
       -1    1    3    3    0  502 -0.52570646564E+03  0.44001148347E+03 -0.54835914202E+03  0.87788105245E+03  0.50400001928E-02 0.  1.
</event>
<event>
 5   0  0.5875298E-04  0.1409204E+04  0.7818609E-02  0.8947183E-01
       -1   -1    0    0    0  501  0.00000000000E+00  0.00000000000E+00  0.54589505762E+03  0.54589505764E+03  0.50400001928E-02 0.  1.
        1   -1    0    0  501    0  0.00000000000E+00  0.00000000000E+00 -0.90944928143E+03  0.90944928144E+03  0.50400001928E-02 0. -1.
    10030    2    1    2    0    0  0.00000000000E+00  0.00000000000E+00 -0.36355422381E+03  0.14553443391E+04  0.14092038432E+04 0.  0.
        1    1    3    3  502    0 -0.57955739316E+03  0.22424169346E+03  0.16120023938E+03  0.64199425719E+03  0.50400001928E-02 0.  1.
       -1    1    3    3    0  502  0.57955739316E+03 -0.22424169346E+03 -0.52475446319E+03  0.81335008189E+03  0.50400001928E-02 0. -1.
</event>
<event>
 5   0  0.6097538E-04  0.1377465E+04  0.7818609E-02  0.8970294E-01
       -1   -1    0    0    0  501  0.00000000000E+00  0.00000000000E+00  0.53885877221E+03  0.53885877223E+03  0.50400001928E-02 0.  1.
        1   -1    0    0  501    0  0.00000000000E+00  0.00000000000E+00 -0.88029140442E+03  0.88029140444E+03  0.50400001928E-02 0. -1.
    10030    2    1    2    0    0  0.00000000000E+00  0.00000000000E+00 -0.34143263221E+03  0.14191501767E+04  0.13774654194E+04 0.  0.
        2    1    3    3  502    0 -0.49614369715E+03  0.47689128605E+03 -0.14214853567E+03  0.70270198031E+03  0.25500000920E-02 0.  1.
       -2    1    3    3    0  502  0.49614369715E+03 -0.47689128605E+03 -0.19928409655E+03  0.71644819636E+03  0.25500000920E-02 0. -1.
</event>
<event>
 5   0  0.5875298E-04  0.1390534E+04  0.7818609E-02  0.8960699E-01
        1   -1    0    0  501    0  0.00000000000E+00  0.00000000000E+00  0.47209255869E+03  0.47209255872E+03  0.50400001928E-02 0. -1.
       -1   -1    0    0    0  501  0.00000000000E+00  0.00000000000E+00 -0.10239434381E+04  0.10239434381E+04  0.50400001928E-02 0.  1.
    10030    2    1    2    0    0  0.00000000000E+00  0.00000000000E+00 -0.55185087940E+03  0.14960359968E+04  0.13905338222E+04 0.  0.
        1    1    3    3  502    0  0.64801285525E+03 -0.10399760769E+02 -0.50978167000E+01  0.64811635016E+03  0.50400001928E-02 0. -1.
       -1    1    3    3    0  502 -0.64801285525E+03  0.10399760769E+02 -0.54675306270E+03  0.84791964666E+03  0.50400001928E-02 0.  1.
</event>
<event>
 5   0  0.6153318E-04  0.1389200E+04  0.7818609E-02  0.8961673E-01
        1   -1    0    0  501    0  0.00000000000E+00  0.00000000000E+00  0.35438045660E+03  0.35438045663E+03  0.50400001928E-02 0. -1.
       -1   -1    0    0    0  501  0.00000000000E+00  0.00000000000E+00 -0.13614447988E+04  0.13614447988E+04  0.50400001928E-02 0.  1.
    10030    2    1    2    0    0  0.00000000000E+00  0.00000000000E+00 -0.10070643422E+04  0.17158252554E+04  0.13892003879E+04 0.  0.
        5    1    3    3  502    0 -0.15708394129E+03  0.11272677845E+02 -0.13390822302E+04  0.13483196013E+04  0.46999998093E+01 0.  1.
       -5    1    3    3    0  502  0.15708394129E+03 -0.11272677845E+02  0.33201788802E+03  0.36750565416E+03  0.46999998093E+01 0. -1.
</event>
<event>
 5   0  0.6097538E-04  0.1391559E+04  0.7818609E-02  0.8959952E-01
       -1   -1    0    0    0  501  0.00000000000E+00  0.00000000000E+00  0.10784214514E+04  0.10784214514E+04  0.50400001928E-02 0. -1.
        1   -1    0    0  501    0  0.00000000000E+00  0.00000000000E+00 -0.44890502347E+03  0.44890502350E+03  0.50400001928E-02 0.  1.
    10030    2    1    2    0    0  0.00000000000E+00  0.00000000000E+00  0.62951642794E+03  0.15273264749E+04  0.13915585607E+04 0.  0.
        2    1    3    3  502    0 -0.52928028186E+03 -0.17270853634E+03 -0.14326062682E+03  0.57488212922E+03  0.25500000920E-02 0.  1.
       -2    1    3    3    0  502  0.52928028186E+03  0.17270853634E+03  0.77277705476E+03  0.95244434570E+03  0.25500000920E-02 0. -1.
</event>
<event>
 5   0  0.1175146E-03  0.1409284E+04  0.7818609E-02  0.8947125E-01
       -2   -1    0    0    0  501  0.00000000000E+00  0.00000000000E+00  0.48340744503E+03  0.48340744504E+03  0.25500000920E-02 0. -1.
        2   -1    0    0  501    0  0.00000000000E+00  0.00000000000E+00 -0.10271262419E+04  0.10271262419E+04  0.25500000920E-02 0.  1.
    10030    2    1    2    0    0  0.00000000000E+00  0.00000000000E+00 -0.54371879685E+03  0.15105336869E+04  0.14092841762E+04 0.  0.
        1    1    3    3  502    0 -0.44662394132E+03 -0.43191589577E+03  0.84432119945E+02  0.62701919339E+03  0.50400001928E-02 0. -1.
       -1    1    3    3    0  502  0.44662394132E+03  0.43191589577E+03 -0.62815091680E+03  0.88351449353E+03  0.50400001928E-02 0.  1.
</event>
<event>
 5   0  0.1108819E-03  0.1395684E+04  0.7818609E-02  0.8956948E-01
        2   -1    0    0  501    0  0.00000000000E+00  0.00000000000E+00  0.58968477607E+03  0.58968477607E+03  0.25500000920E-02 0. -1.
       -2   -1    0    0    0  501  0.00000000000E+00  0.00000000000E+00 -0.82583735407E+03  0.82583735408E+03  0.25500000920E-02 0.  1.
    10030    2    1    2    0    0  0.00000000000E+00  0.00000000000E+00 -0.23615257801E+03  0.14155221301E+04  0.13956843701E+04 0.  0.
        3    1    3    3  502    0  0.58156951599E+03  0.15789938260E+03 -0.47497054497E+03  0.76730199123E+03  0.10100000352E+00 0.  1.
       -3    1    3    3    0  502 -0.58156951599E+03 -0.15789938260E+03  0.23881796696E+03  0.64822013892E+03  0.10100000352E+00 0. -1.
</event>
<event>
 5   0  0.5875298E-04  0.1409075E+04  0.7818609E-02  0.8947275E-01
       -1   -1    0    0    0  501  0.00000000000E+00  0.00000000000E+00  0.32906309891E+03  0.32906309894E+03  0.50400001928E-02 0. -1.
        1   -1    0    0  501    0  0.00000000000E+00  0.00000000000E+00 -0.15084441453E+04  0.15084441453E+04  0.50400001928E-02 0.  1.
    10030    2    1    2    0    0  0.00000000000E+00  0.00000000000E+00 -0.11793810464E+04  0.18375072443E+04  0.14090753067E+04 0.  0.
        1    1    3    3  502    0 -0.24219750348E+03  0.34192285362E+03  0.14891692834E+03  0.44468766577E+03  0.50400001928E-02 0. -1.
       -1    1    3    3    0  502  0.24219750348E+03 -0.34192285362E+03 -0.13282979747E+04  0.13928195785E+04  0.50400001928E-02 0.  1.
</event>
<event>
 5   0  0.6097538E-04  0.1412045E+04  0.7818609E-02  0.8945146E-01
       -1   -1    0    0    0  501  0.00000000000E+00  0.00000000000E+00  0.70890205756E+03  0.70890205757E+03  0.50400001928E-02 0. -1.
        1   -1    0    0  501    0  0.00000000000E+00  0.00000000000E+00 -0.70315444640E+03  0.70315444642E+03  0.50400001928E-02 0.  1.
    10030    2    1    2    0    0  0.00000000000E+00  0.00000000000E+00  0.57476111531E+01  0.14120565040E+04  0.14120448065E+04 0.  0.
        2    1    3    3  502    0  0.22370795136E+01  0.56063514229E+03 -0.42625777987E+03  0.70428152198E+03  0.25500000920E-02 0.  1.
       -2    1    3    3    0  502 -0.22370795136E+01 -0.56063514229E+03  0.43200539102E+03  0.70777498202E+03  0.25500000920E-02 0. -1.
</event>
<event>
 5   0  0.4176125E-04  0.1426579E+04  0.7818609E-02  0.8934801E-01
       -3   -1    0    0    0  501  0.00000000000E+00  0.00000000000E+00  0.39908459202E+03  0.39908460480E+03  0.10100000352E+00 0.  1.
        3   -1    0    0  501    0  0.00000000000E+00  0.00000000000E+00 -0.12748728545E+04  0.12748728585E+04  0.10100000352E+00 0. -1.
    10030    2    1    2    0    0  0.00000000000E+00  0.00000000000E+00 -0.87578826251E+03  0.16739574633E+04  0.14265793032E+04 0.  0.
        5    1    3    3  502    0  0.18032887550E+03 -0.65523693982E+03 -0.69202832236E+03  0.96993775037E+03  0.46999998093E+01 0.  1.
       -5    1    3    3    0  502 -0.18032887550E+03  0.65523693982E+03 -0.18375994014E+03  0.70401971296E+03  0.46999998093E+01 0. -1.
</event>
<event>
 5   0  0.5875298E-04  0.1444878E+04  0.7818609E-02  0.8921959E-01
       -1   -1    0    0    0  501  0.00000000000E+00  0.00000000000E+00  0.76591732625E+03  0.76591732627E+03  0.50400001928E-02 0.  1.
        1   -1    0    0  501    0  0.00000000000E+00  0.00000000000E+00 -0.68142863551E+03  0.68142863553E+03  0.50400001928E-02 0. -1.
    10030    2    1    2    0    0  0.00000000000E+00  0.00000000000E+00  0.84488690740E+02  0.14473459618E+04  0.14448778475E+04 0.  0.
        1    1    3    3  502    0 -0.24191521308E+03 -0.49784639546E+03 -0.42281586622E+03  0.69652513275E+03  0.50400001928E-02 0. -1.
       -1    1    3    3    0  502  0.24191521308E+03  0.49784639546E+03  0.50730455696E+03  0.75082082905E+03  0.50400001928E-02 0.  1.
</event>
<event>
 5   0  0.6097538E-04  0.1405072E+04  0.7818609E-02  0.8950156E-01
        1   -1    0    0  501    0  0.00000000000E+00  0.00000000000E+00  0.94616437507E+03  0.94616437508E+03  0.50400001928E-02 0.  1.
       -1   -1    0    0    0  501  0.00000000000E+00  0.00000000000E+00 -0.52163933693E+03  0.52163933696E+03  0.50400001928E-02 0. -1.
    10030    2    1    2    0    0  0.00000000000E+00  0.00000000000E+00  0.42452503814E+03  0.14678037120E+04  0.14050716099E+04 0.  0.
        2    1    3    3  502    0 -0.61330524075E+03  0.29534127673E+02  0.56888510519E+03  0.83704590432E+03  0.25500000920E-02 0.  1.
       -2    1    3    3    0  502  0.61330524075E+03 -0.29534127673E+02 -0.14436006705E+03  0.63075780772E+03  0.25500000920E-02 0. -1.
</event>
<event>
 5   0  0.6114266E-04  0.1392540E+04  0.7818609E-02  0.8959236E-01
        1   -1    0    0  501    0  0.00000000000E+00  0.00000000000E+00  0.11275040127E+04  0.11275040127E+04  0.50400001928E-02 0. -1.
       -1   -1    0    0    0  501  0.00000000000E+00  0.00000000000E+00 -0.42996912652E+03  0.42996912655E+03  0.50400001928E-02 0.  1.
    10030    2    1    2    0    0  0.00000000000E+00  0.00000000000E+00  0.69753488616E+03  0.15574731392E+04  0.13925400038E+04 0.  0.
        3    1    3    3  502    0  0.62683545029E+03  0.44083839597E+02  0.13373563051E+02  0.62852599711E+03  0.10100000352E+00 0.  1.
       -3    1    3    3    0  502 -0.62683545029E+03 -0.44083839597E+02  0.68416132311E+03  0.92894714214E+03  0.10100000352E+00 0. -1.
</event>
<event>
 5   0  0.1175146E-03  0.1423806E+04  0.7818609E-02  0.8936765E-01
        2   -1    0    0  501    0  0.00000000000E+00  0.00000000000E+00  0.18529234786E+04  0.18529234786E+04  0.25500000920E-02 0.  1.
       -2   -1    0    0    0  501  0.00000000000E+00  0.00000000000E+00 -0.27351691249E+03  0.27351691250E+03  0.25500000920E-02 0. -1.
    10030    2    1    2    0    0  0.00000000000E+00  0.00000000000E+00  0.15794065661E+04  0.21264403911E+04  0.14238060387E+04 0.  0.
        1    1    3    3  502    0  0.59817795654E+03  0.10676311979E+03  0.13436868560E+04  0.14746896618E+04  0.50400001928E-02 0.  1.
       -1    1    3    3    0  502 -0.59817795654E+03 -0.10676311979E+03  0.23571971007E+03  0.65175072933E+03  0.50400001928E-02 0. -1.
</event>
<event>
 5   0  0.6153318E-04  0.1439781E+04  0.7818609E-02  0.8925516E-01
       -1   -1    0    0    0  501  0.00000000000E+00  0.00000000000E+00  0.37960061590E+03  0.37960061593E+03  0.50400001928E-02 0.  1.
        1   -1    0    0  501    0  0.00000000000E+00  0.00000000000E+00 -0.13652311442E+04  0.13652311442E+04  0.50400001928E-02 0. -1.
    10030    2    1    2    0    0  0.00000000000E+00  0.00000000000E+00 -0.98563052830E+03  0.17448317601E+04  0.14397813490E+04 0.  0.
        5    1    3    3  502    0 -0.17515822321E+03 -0.69757209990E+03 -0.52983704401E+03  0.89332895449E+03  0.46999998093E+01 0.  1.
       -5    1    3    3    0  502  0.17515822321E+03  0.69757209990E+03 -0.45579348428E+03  0.85150280565E+03  0.46999998093E+01 0. -1.
</event>
<event>
 5   0  0.1120053E-03  0.1401422E+04  0.7818609E-02  0.8952790E-01
        2   -1    0    0  501    0  0.00000000000E+00  0.00000000000E+00  0.50129681975E+03  0.50129681976E+03  0.25500000920E-02 0.  1.
       -2   -1    0    0    0  501  0.00000000000E+00  0.00000000000E+00 -0.97945127777E+03  0.97945127777E+03  0.25500000920E-02 0. -1.
    10030    2    1    2    0    0  0.00000000000E+00  0.00000000000E+00 -0.47815445802E+03  0.14807480975E+04  0.14014218646E+04 0.  0.
        2    1    3    3  502    0 -0.27263669816E+03  0.40428781037E+03  0.29261243303E+03  0.56868395333E+03  0.25500000920E-02 0.  1.
       -2    1    3    3    0  502  0.27263669816E+03 -0.40428781037E+03 -0.77076689105E+03  0.91206414420E+03  0.25500000920E-02 0. -1.
</event>
<event>
 5   0  0.6097538E-04  0.1404862E+04  0.7818609E-02  0.8950307E-01
        1   -1    0    0  501    0  0.00000000000E+00  0.00000000000E+00  0.83499928710E+03  0.83499928712E+03  0.50400001928E-02 0.  1.
       -1   -1    0    0    0  501  0.00000000000E+00  0.00000000000E+00 -0.59090953539E+03  0.59090953541E+03  0.50400001928E-02 0. -1.
    10030    2    1    2    0    0  0.00000000000E+00  0.00000000000E+00  0.24408975172E+03  0.14259088225E+04  0.14048616171E+04 0.  0.
        2    1    3    3  502    0  0.12969239868E+03 -0.47247236055E+03 -0.38884370784E+03  0.62549954348E+03  0.25500000920E-02 0. -1.
       -2    1    3    3    0  502 -0.12969239868E+03  0.47247236055E+03  0.63293345955E+03  0.80040927905E+03  0.25500000920E-02 0.  1.
</event>
<event>
 5   0  0.1108819E-03  0.1418064E+04  0.7818609E-02  0.8940846E-01
        2   -1    0    0  501    0  0.00000000000E+00  0.00000000000E+00  0.21482059331E+04  0.21482059331E+04  0.25500000920E-02 0. -1.
       -2   -1    0    0    0  501  0.00000000000E+00  0.00000000000E+00 -0.23402134786E+03  0.23402134787E+03  0.25500000920E-02 0.  1.
    10030    2    1    2    0    0  0.00000000000E+00  0.00000000000E+00  0.19141845853E+04  0.23822272810E+04  0.14180635359E+04 0.  0.
        3    1    3    3  502    0 -0.16908341975E+03  0.99257301147E+01  0.21137216915E+04  0.21204969046E+04  0.10100000352E+00 0. -1.
       -3    1    3    3    0  502  0.16908341975E+03 -0.99257301147E+01 -0.19953710626E+03  0.26173037640E+03  0.10100000352E+00 0.  1.
</event>
<event>
 5   0  0.5875298E-04  0.1399743E+04  0.7818609E-02  0.8954005E-01
        1   -1    0    0  501    0  0.00000000000E+00  0.00000000000E+00  0.43993130085E+03  0.43993130088E+03  0.50400001928E-02 0. -1.
       -1   -1    0    0    0  501  0.00000000000E+00  0.00000000000E+00 -0.11134015539E+04  0.11134015539E+04  0.50400001928E-02 0.  1.
    10030    2    1    2    0    0  0.00000000000E+00  0.00000000000E+00 -0.67347025306E+03  0.15533328548E+04  0.13997431107E+04 0.  0.
        1    1    3    3  502    0 -0.30543607883E+03  0.40142701809E+03 -0.87513617826E+03  0.10100981040E+04  0.50400001928E-02 0.  1.
       -1    1    3    3    0  502  0.30543607883E+03 -0.40142701809E+03  0.20166592520E+03  0.54323475084E+03  0.50400001928E-02 0. -1.
</event>
<event>
 5   0  0.1108819E-03  0.1401479E+04  0.7818609E-02  0.8952749E-01
       -2   -1    0    0    0  501  0.00000000000E+00  0.00000000000E+00  0.10940788589E+04  0.10940788589E+04  0.25500000920E-02 0. -1.
        2   -1    0    0  501    0  0.00000000000E+00  0.00000000000E+00 -0.44881213597E+03  0.44881213597E+03  0.25500000920E-02 0.  1.
    10030    2    1    2    0    0  0.00000000000E+00  0.00000000000E+00  0.64526672290E+03  0.15428909948E+04  0.14014790324E+04 0.  0.
        3    1    3    3  502    0  0.11457722456E+03 -0.94625715716E+01 -0.43835859224E+03  0.45318400925E+03  0.10100000352E+00 0.  1.
       -3    1    3    3    0  502 -0.11457722456E+03  0.94625715716E+01  0.10836253151E+04  0.10897069856E+04  0.10100000352E+00 0. -1.
</event>
<event>
 5   0  0.6114266E-04  0.1403799E+04  0.7818609E-02  0.8951073E-01
       -1   -1    0    0    0  501  0.00000000000E+00  0.00000000000E+00  0.82847133800E+03  0.82847133801E+03  0.50400001928E-02 0.  1.
        1   -1    0    0  501    0  0.00000000000E+00  0.00000000000E+00 -0.59466496300E+03  0.59466496303E+03  0.50400001928E-02 0. -1.
    10030    2    1    2    0    0  0.00000000000E+00  0.00000000000E+00  0.23380637499E+03  0.14231363010E+04  0.14037989565E+04 0.  0.
        3    1    3    3  502    0  0.41070641305E+03  0.42880423010E+03 -0.26256573395E+03  0.64922538484E+03  0.10100000352E+00 0. -1.
       -3    1    3    3    0  502 -0.41070641305E+03 -0.42880423010E+03  0.49637210894E+03  0.77391091620E+03  0.10100000352E+00 0.  1.
</event>
<event>
 5   0  0.6153318E-04  0.1399007E+04  0.7818609E-02  0.8954538E-01
        1   -1    0    0  501    0  0.00000000000E+00  0.00000000000E+00  0.10922806346E+04  0.10922806346E+04  0.50400001928E-02 0. -1.
       -1   -1    0    0    0  501  0.00000000000E+00  0.00000000000E+00 -0.44796658283E+03  0.44796658286E+03  0.50400001928E-02 0.  1.
    10030    2    1    2    0    0  0.00000000000E+00  0.00000000000E+00  0.64431405176E+03  0.15402472175E+04  0.13990071099E+04 0.  0.
        5    1    3    3  502    0 -0.54303392722E+03 -0.97012998488E+02  0.79567848662E+03  0.96820644082E+03  0.46999998093E+01 0. -1.
       -5    1    3    3    0  502  0.54303392722E+03  0.97012998488E+02 -0.15136443486E+03  0.57204077663E+03  0.46999998093E+01 0.  1.
</event>
<event>
 5   0  0.6114266E-04  0.1398410E+04  0.7818609E-02  0.8954971E-01
       -1   -1    0    0    0  501  0.00000000000E+00  0.00000000000E+00  0.24058963356E+03  0.24058963361E+03  0.50400001928E-02 0.  1.
        1   -1    0    0  501    0  0.00000000000E+00  0.00000000000E+00 -0.20320382791E+04  0.20320382791E+04  0.50400001928E-02 0. -1.
    10030    2    1    2    0    0  0.00000000000E+00  0.00000000000E+00 -0.17914486455E+04  0.22726279127E+04  0.13984095895E+04 0.  0.
        3    1    3    3  502    0  0.18245207729E+03 -0.57656139667E+01 -0.19926299808E+04  0.20009738263E+04  0.10100000352E+00 0. -1.
       -3    1    3    3    0  502 -0.18245207729E+03  0.57656139667E+01  0.20118133527E+03  0.27165408643E+03  0.10100000352E+00 0.  1.
</event>
<event>
 5   0  0.1095119E-03  0.1400286E+04  0.7818609E-02  0.8953612E-01
        2   -1    0    0  501    0  0.00000000000E+00  0.00000000000E+00  0.20791195568E+04  0.20791195568E+04  0.25500000920E-02 0. -1.
       -2   -1    0    0    0  501  0.00000000000E+00  0.00000000000E+00 -0.23577283472E+03  0.23577283473E+03  0.25500000920E-02 0.  1.
    10030    2    1    2    0    0  0.00000000000E+00  0.00000000000E+00  0.18433467221E+04  0.23148923915E+04  0.14002855589E+04 0.  0.
        5    1    3    3  502    0 -0.15458894839E+03 -0.66565796083E+03  0.11733638308E+04  0.13578670897E+04  0.46999998093E+01 0. -1.
       -5    1    3    3    0  502  0.15458894839E+03  0.66565796083E+03  0.66998289122E+03  0.95702530181E+03  0.46999998093E+01 0.  1.
</event>
<event>
 5   0  0.1175146E-03  0.1412668E+04  0.7818609E-02  0.8944700E-01
        2   -1    0    0  501    0  0.00000000000E+00  0.00000000000E+00  0.50867841351E+03  0.50867841351E+03  0.25500000920E-02 0. -1.
       -2   -1    0    0    0  501  0.00000000000E+00  0.00000000000E+00 -0.98079150399E+03  0.98079150400E+03  0.25500000920E-02 0.  1.
    10030    2    1    2    0    0  0.00000000000E+00  0.00000000000E+00 -0.47211309049E+03  0.14894699175E+04  0.14126676414E+04 0.  0.
        1    1    3    3  502    0  0.42011562431E+03  0.52738931912E+03 -0.45790202967E+03  0.81505269799E+03  0.50400001928E-02 0.  1.
       -1    1    3    3    0  502 -0.42011562431E+03 -0.52738931912E+03 -0.14211060815E+02  0.67441721952E+03  0.50400001928E-02 0. -1.
</event>
<event>
 5   0  0.1175146E-03  0.1383339E+04  0.7818609E-02  0.8965968E-01
        2   -1    0    0  501    0  0.00000000000E+00  0.00000000000E+00  0.10615188441E+04  0.10615188441E+04  0.25500000920E-02 0. -1.
       -2   -1    0    0    0  501  0.00000000000E+00  0.00000000000E+00 -0.45068101366E+03  0.45068101366E+03  0.25500000920E-02 0.  1.
    10030    2    1    2    0    0  0.00000000000E+00  0.00000000000E+00  0.61083783048E+03  0.15121998578E+04  0.13833385539E+04 0.  0.
        1    1    3    3  502    0  0.46310975700E+03  0.42321839883E+03 -0.12953024274E+02  0.62749680557E+03  0.50400001928E-02 0.  1.
       -1    1    3    3    0  502 -0.46310975700E+03 -0.42321839883E+03  0.62379085476E+03  0.88470305224E+03  0.50400001928E-02 0. -1.
</event>
<event>
 5   0  0.6097538E-04  0.1408455E+04  0.7818609E-02  0.8947721E-01
        1   -1    0    0  501    0  0.00000000000E+00  0.00000000000E+00  0.35968988662E+03  0.35968988665E+03  0.50400001928E-02 0.  1.
       -1   -1    0    0    0  501  0.00000000000E+00  0.00000000000E+00 -0.13787885650E+04  0.13787885650E+04  0.50400001928E-02 0. -1.
    10030    2    1    2    0    0  0.00000000000E+00  0.00000000000E+00 -0.10190986784E+04  0.17384784516E+04  0.14084549019E+04 0.  0.
        2    1    3    3  502    0 -0.49471397863E+02 -0.22086175709E+03 -0.13326715297E+04  0.13517546897E+04  0.25500000920E-02 0. -1.
       -2    1    3    3    0  502  0.49471397863E+02  0.22086175709E+03  0.31357285136E+03  0.38672376196E+03  0.25500000920E-02 0.  1.
</event>
<event>
 5   0  0.4176125E-04  0.1392425E+04  0.7818609E-02  0.8959320E-01
        4   -1    0    0  501    0  0.00000000000E+00  0.00000000000E+00  0.34910249314E+03  0.34910480320E+03  0.12699999809E+01 0. -1.
       -4   -1    0    0    0  501  0.00000000000E+00  0.00000000000E+00 -0.13884433249E+04  0.13884439057E+04  0.12699999809E+01 0.  1.
    10030    2    1    2    0    0  0.00000000000E+00  0.00000000000E+00 -0.10393408318E+04  0.17375487089E+04  0.13924245586E+04 0.  0.
        3    1    3    3  502    0 -0.60341696742E+03  0.29576006290E+03 -0.29255512270E+03  0.73292193404E+03  0.10100000352E+00 0. -1.
       -3    1    3    3    0  502  0.60341696742E+03 -0.29576006290E+03 -0.74678570907E+03  0.10046267749E+04  0.10100000352E+00 0.  1.
</event>
<event>
 5   0  0.1120053E-03  0.1308857E+04  0.7818609E-02  0.9022571E-01
        2   -1    0    0  501    0  0.00000000000E+00  0.00000000000E+00  0.12352560605E+04  0.12352560605E+04  0.25500000920E-02 0. -1.
       -2   -1    0    0    0  501  0.00000000000E+00  0.00000000000E+00 -0.34671096378E+03  0.34671096379E+03  0.25500000920E-02 0.  1.
    10030    2    1    2    0    0  0.00000000000E+00  0.00000000000E+00  0.88854509676E+03  0.15819670243E+04  0.13088572409E+04 0.  0.
        2    1    3    3  502    0 -0.20660119748E+03  0.39736375270E+03  0.10210147284E+04  0.11149229043E+04  0.25500000920E-02 0. -1.
       -2    1    3    3    0  502  0.20660119748E+03 -0.39736375270E+03 -0.13246963168E+03  0.46704412006E+03  0.25500000920E-02 0.  1.
</event>
<event>
 5   0  0.6153318E-04  0.1388023E+04  0.7818609E-02  0.8962534E-01
       -1   -1    0    0    0  501  0.00000000000E+00  0.00000000000E+00  0.53870047400E+03  0.53870047402E+03  0.50400001928E-02 0.  1.
        1   -1    0    0  501    0  0.00000000000E+00  0.00000000000E+00 -0.89409921699E+03  0.89409921700E+03  0.50400001928E-02 0. -1.
    10030    2    1    2    0    0  0.00000000000E+00  0.00000000000E+00 -0.35539874299E+03  0.14327996910E+04  0.13880225820E+04 0.  0.
        5    1    3    3  502    0 -0.36295636385E+02  0.67603520100E+03 -0.33522846926E+03  0.75547414437E+03  0.46999998093E+01 0. -1.
       -5    1    3    3    0  502  0.36295636385E+02 -0.67603520100E+03 -0.20170273732E+02  0.67732554665E+03  0.46999998093E+01 0.  1.
</event>
<event>
 5   0  0.6194742E-04  0.1398533E+04  0.7818609E-02  0.8954881E-01
       -1   -1    0    0    0  501  0.00000000000E+00  0.00000000000E+00  0.98897388418E+03  0.98897388419E+03  0.50400001928E-02 0. -1.
        1   -1    0    0  501    0  0.00000000000E+00  0.00000000000E+00 -0.49442511226E+03  0.49442511228E+03  0.50400001928E-02 0.  1.
    10030    2    1    2    0    0  0.00000000000E+00  0.00000000000E+00  0.49454877192E+03  0.14833989965E+04  0.13985328366E+04 0.  0.
        4    1    3    3  502    0 -0.30864079763E+03 -0.21181970790E+02  0.91243643207E+03  0.96345714659E+03  0.12699999809E+01 0. -1.
       -4    1    3    3    0  502  0.30864079763E+03  0.21181970790E+02 -0.41788766015E+03  0.51994184988E+03  0.12699999809E+01 0.  1.
</event>
<event>
 5   0  0.6114266E-04  0.1396525E+04  0.7818609E-02  0.8956338E-01
       -1   -1    0    0    0  501  0.00000000000E+00  0.00000000000E+00  0.34744013697E+03  0.34744013701E+03  0.50400001928E-02 0. -1.
        1   -1    0    0  501    0  0.00000000000E+00  0.00000000000E+00 -0.14033228441E+04  0.14033228441E+04  0.50400001928E-02 0.  1.
    10030    2    1    2    0    0  0.00000000000E+00  0.00000000000E+00 -0.10558827071E+04  0.17507629811E+04  0.13965252324E+04 0.  0.
        3    1    3    3  502    0  0.31229823226E+03  0.38103035016E+03 -0.11482877451E+04  0.12495115323E+04  0.10100000352E+00 0.  1.
       -3    1    3    3    0  502 -0.31229823226E+03 -0.38103035016E+03  0.92405038036E+02  0.50125144875E+03  0.10100000352E+00 0. -1.
</event>
<event>
 5   0  0.6153318E-04  0.1161680E+04  0.7818609E-02  0.9147076E-01
        1   -1    0    0  501    0  0.00000000000E+00  0.00000000000E+00  0.10852167735E+04  0.10852167735E+04  0.50400001928E-02 0. -1.
       -1   -1    0    0    0  501  0.00000000000E+00  0.00000000000E+00 -0.31088246303E+03  0.31088246307E+03  0.50400001928E-02 0.  1.
    10030    2    1    2    0    0  0.00000000000E+00  0.00000000000E+00  0.77433431049E+03  0.13960992366E+04  0.11616795832E+04 0.  0.
        5    1    3    3  502    0 -0.51808706830E+03 -0.23697327336E+03  0.52304018577E+03  0.77341041404E+03  0.46999998093E+01 0. -1.
       -5    1    3    3    0  502  0.51808706830E+03  0.23697327336E+03  0.25129412472E+03  0.62268882256E+03  0.46999998093E+01 0.  1.
</event>
<event>
 5   0  0.1120053E-03  0.1404818E+04  0.7818609E-02  0.8950338E-01
       -2   -1    0    0    0  501  0.00000000000E+00  0.00000000000E+00  0.57002498169E+03  0.57002498169E+03  0.25500000920E-02 0. -1.
        2   -1    0    0  501    0  0.00000000000E+00  0.00000000000E+00 -0.86553810450E+03  0.86553810450E+03  0.25500000920E-02 0.  1.
    10030    2    1    2    0    0  0.00000000000E+00  0.00000000000E+00 -0.29551312281E+03  0.14355630862E+04  0.14048179130E+04 0.  0.
        2    1    3    3  502    0  0.63453588214E+03  0.23735365023E+03  0.41790948609E+02  0.67876286315E+03  0.25500000920E-02 0.  1.
       -2    1    3    3    0  502 -0.63453588214E+03 -0.23735365023E+03 -0.33730407142E+03  0.75680022305E+03  0.25500000920E-02 0. -1.
</event>
<event>
 5   0  0.1120053E-03  0.1391541E+04  0.7818609E-02  0.8959964E-01
       -2   -1    0    0    0  501  0.00000000000E+00  0.00000000000E+00  0.52582294999E+03  0.52582294999E+03  0.25500000920E-02 0. -1.
        2   -1    0    0  501    0  0.00000000000E+00  0.00000000000E+00 -0.92064588894E+03  0.92064588894E+03  0.25500000920E-02 0.  1.
    10030    2    1    2    0    0  0.00000000000E+00  0.00000000000E+00 -0.39482293895E+03  0.14464688389E+04  0.13915412135E+04 0.  0.
        2    1    3    3  502    0  0.29027029624E+03  0.62384540488E+03 -0.30471808082E+03  0.75252444668E+03  0.25500000920E-02 0.  1.
       -2    1    3    3    0  502 -0.29027029624E+03 -0.62384540488E+03 -0.90104858129E+02  0.69394439225E+03  0.25500000920E-02 0. -1.
</event>
<event>
 5   0  0.6194742E-04  0.1382156E+04  0.7818609E-02  0.8966837E-01
       -1   -1    0    0    0  501  0.00000000000E+00  0.00000000000E+00  0.43509647048E+03  0.43509647051E+03  0.50400001928E-02 0.  1.
        1   -1    0    0  501    0  0.00000000000E+00  0.00000000000E+00 -0.10976617464E+04  0.10976617464E+04  0.50400001928E-02 0. -1.
    10030    2    1    2    0    0  0.00000000000E+00  0.00000000000E+00 -0.66256527595E+03  0.15327582170E+04  0.13821559271E+04 0.  0.
        4    1    3    3  502    0 -0.40371789102E+03  0.40770389181E+03  0.95885874202E+02  0.58172700874E+03  0.12699999809E+01 0. -1.
       -4    1    3    3    0  502  0.40371789102E+03 -0.40770389181E+03 -0.75845115016E+03  0.95103120822E+03  0.12699999809E+01 0.  1.
</event>
<event>
 5   0  0.5875298E-04  0.1523780E+04  0.7818609E-02  0.8868792E-01
       -1   -1    0    0    0  501  0.00000000000E+00  0.00000000000E+00  0.58470892524E+03  0.58470892526E+03  0.50400001928E-02 0.  1.
        1   -1    0    0  501    0  0.00000000000E+00  0.00000000000E+00 -0.99276138212E+03  0.99276138214E+03  0.50400001928E-02 0. -1.
    10030    2    1    2    0    0  0.00000000000E+00  0.00000000000E+00 -0.40805245688E+03  0.15774703074E+04  0.15237800902E+04 0.  0.
        1    1    3    3  502    0  0.73958704900E+02 -0.35140625517E+03 -0.89965492283E+03  0.96867704959E+03  0.50400001928E-02 0. -1.
       -1    1    3    3    0  502 -0.73958704900E+02  0.35140625517E+03  0.49160246595E+03  0.60879325781E+03  0.50400001928E-02 0.  1.
</event>
<event>
 5   0  0.5875298E-04  0.1406107E+04  0.7818609E-02  0.8949410E-01
        1   -1    0    0  501    0  0.00000000000E+00  0.00000000000E+00  0.59977011242E+03  0.59977011244E+03  0.50400001928E-02 0.  1.
       -1   -1    0    0    0  501  0.00000000000E+00  0.00000000000E+00 -0.82412284858E+03  0.82412284860E+03  0.50400001928E-02 0. -1.
    10030    2    1    2    0    0  0.00000000000E+00  0.00000000000E+00 -0.22435273617E+03  0.14238929610E+04  0.14061070422E+04 0.  0.
        1    1    3    3  502    0  0.10351152355E+03 -0.22726828389E+03 -0.77769464388E+03  0.81680748498E+03  0.50400001928E-02 0. -1.
       -1    1    3    3    0  502 -0.10351152355E+03  0.22726828389E+03  0.55334190772E+03  0.60708547605E+03  0.50400001928E-02 0.  1.
</event>
<event>
 5   0  0.6153318E-04  0.1402086E+04  0.7818609E-02  0.8952310E-01
        1   -1    0    0  501    0  0.00000000000E+00  0.00000000000E+00  0.19993693545E+04  0.19993693545E+04  0.50400001928E-02 0. -1.
       -1   -1    0    0    0  501  0.00000000000E+00  0.00000000000E+00 -0.24580800689E+03  0.24580800694E+03  0.50400001928E-02 0.  1.
    10030    2    1    2    0    0  0.00000000000E+00  0.00000000000E+00  0.17535613476E+04  0.22451773614E+04  0.14020855839E+04 0.  0.
        5    1    3    3  502    0 -0.90856947833E+02  0.28017850715E+03 -0.14189071282E+03  0.32697101587E+03  0.46999998093E+01 0.  1.
       -5    1    3    3    0  502  0.90856947833E+02 -0.28017850715E+03  0.18954520604E+04  0.19182063456E+04  0.46999998093E+01 0. -1.
</event>
<event>
 5   0  0.1175146E-03  0.1385450E+04  0.7818609E-02  0.8964418E-01
       -2   -1    0    0    0  501  0.00000000000E+00  0.00000000000E+00  0.78951005286E+03  0.78951005287E+03  0.25500000920E-02 0. -1.
        2   -1    0    0  501    0  0.00000000000E+00  0.00000000000E+00 -0.60780476576E+03  0.60780476577E+03  0.25500000920E-02 0.  1.
    10030    2    1    2    0    0  0.00000000000E+00  0.00000000000E+00  0.18170528710E+03  0.13973148186E+04  0.13854500680E+04 0.  0.
        1    1    3    3  502    0  0.24350805774E+03 -0.46751699881E+03  0.54414531703E+03  0.75760309162E+03  0.50400001928E-02 0. -1.
       -1    1    3    3    0  502 -0.24350805774E+03  0.46751699881E+03 -0.36244002993E+03  0.63971172702E+03  0.50400001928E-02 0.  1.
</event>
<event>
 5   0  0.1108819E-03  0.1394751E+04  0.7818609E-02  0.8957627E-01
       -2   -1    0    0    0  501  0.00000000000E+00  0.00000000000E+00  0.60685633620E+03  0.60685633621E+03  0.25500000920E-02 0. -1.
        2   -1    0    0  501    0  0.00000000000E+00  0.00000000000E+00 -0.80139693314E+03  0.80139693315E+03  0.25500000920E-02 0.  1.
    10030    2    1    2    0    0  0.00000000000E+00  0.00000000000E+00 -0.19454059694E+03  0.14082532694E+04  0.13947513136E+04 0.  0.
        3    1    3    3  502    0  0.25879488271E+03 -0.46587354186E+03 -0.55142439325E+03  0.76686492943E+03  0.10100000352E+00 0.  1.
       -3    1    3    3    0  502 -0.25879488271E+03  0.46587354186E+03  0.35688379631E+03  0.64138833992E+03  0.10100000352E+00 0. -1.
</event>
<event>
 5   0  0.1175146E-03  0.1412669E+04  0.7818609E-02  0.8944699E-01
        2   -1    0    0  501    0  0.00000000000E+00  0.00000000000E+00  0.78482469545E+03  0.78482469546E+03  0.25500000920E-02 0.  1.
       -2   -1    0    0    0  501  0.00000000000E+00  0.00000000000E+00 -0.63569390654E+03  0.63569390654E+03  0.25500000920E-02 0. -1.
    10030    2    1    2    0    0  0.00000000000E+00  0.00000000000E+00  0.14913078891E+03  0.14205186020E+04  0.14126687886E+04 0.  0.
        1    1    3    3  502    0  0.39763129549E+03 -0.58001578778E+03  0.14110951424E+03  0.71724532502E+03  0.50400001928E-02 0. -1.
       -1    1    3    3    0  502 -0.39763129549E+03  0.58001578778E+03  0.80212746701E+01  0.70327327697E+03  0.50400001928E-02 0.  1.
</event>
<event>
 5   0  0.1108819E-03  0.1384730E+04  0.7818609E-02  0.8964946E-01
        2   -1    0    0  501    0  0.00000000000E+00  0.00000000000E+00  0.11547148986E+04  0.11547148987E+04  0.25500000920E-02 0. -1.
       -2   -1    0    0    0  501  0.00000000000E+00  0.00000000000E+00 -0.41514092575E+03  0.41514092576E+03  0.25500000920E-02 0.  1.
    10030    2    1    2    0    0  0.00000000000E+00  0.00000000000E+00  0.73957397289E+03  0.15698558244E+04  0.13847301716E+04 0.  0.
        3    1    3    3  502    0 -0.12190539058E+03  0.23516560868E+03  0.10949996937E+04  0.11265824991E+04  0.10100000352E+00 0. -1.
       -3    1    3    3    0  502  0.12190539058E+03 -0.23516560868E+03 -0.35542572081E+03  0.44327332536E+03  0.10100000352E+00 0.  1.
</event>
<event>
 5   0  0.1095119E-03  0.1402236E+04  0.7818609E-02  0.8952201E-01
        2   -1    0    0  501    0  0.00000000000E+00  0.00000000000E+00  0.59046026191E+03  0.59046026192E+03  0.25500000920E-02 0. -1.
       -2   -1    0    0    0  501  0.00000000000E+00  0.00000000000E+00 -0.83251450049E+03  0.83251450050E+03  0.25500000920E-02 0.  1.
    10030    2    1    2    0    0  0.00000000000E+00  0.00000000000E+00 -0.24205423858E+03  0.14229747624E+04  0.14022363995E+04 0.  0.
        5    1    3    3  502    0 -0.13051052716E+03  0.23001840160E+02 -0.81967306194E+03  0.83033011556E+03  0.46999998093E+01 0.  1.
       -5    1    3    3    0  502  0.13051052716E+03 -0.23001840160E+02  0.57761882336E+03  0.59264464685E+03  0.46999998093E+01 0. -1.
</event>
<event>
 5   0  0.4176125E-04  0.1395511E+04  0.7818609E-02  0.8957075E-01
        4   -1    0    0  501    0  0.00000000000E+00  0.00000000000E+00  0.18969197830E+04  0.18969202081E+04  0.12699999809E+01 0.  1.
       -4   -1    0    0    0  501  0.00000000000E+00  0.00000000000E+00 -0.25665750781E+03  0.25666064992E+03  0.12699999809E+01 0. -1.
    10030    2    1    2    0    0  0.00000000000E+00  0.00000000000E+00  0.16402622751E+04  0.21535808580E+04  0.13955107240E+04 0.  0.
        1    1    3    3  502    0  0.23603686068E+02 -0.69066647254E+02 -0.25075187164E+03  0.26115864320E+03  0.50400001928E-02 0. -1.
       -1    1    3    3    0  502 -0.23603686068E+02  0.69066647254E+02  0.18910141468E+04  0.18924222148E+04  0.50400001928E-02 0.  1.
</event>
<event>
 5   0  0.6114266E-04  0.1395687E+04  0.7818609E-02  0.8956947E-01
        1   -1    0    0  501    0  0.00000000000E+00  0.00000000000E+00  0.11178018266E+04  0.11178018266E+04  0.50400001928E-02 0.  1.
       -1   -1    0    0    0  501  0.00000000000E+00  0.00000000000E+00 -0.43566337418E+03  0.43566337420E+03  0.50400001928E-02 0. -1.
    10030    2    1    2    0    0  0.00000000000E+00  0.00000000000E+00  0.68213845244E+03  0.15534652008E+04  0.13956866632E+04 0.  0.
        3    1    3    3  502    0  0.54480361995E+02 -0.67660278793E+03  0.16081788999E+03  0.69758285990E+03  0.10100000352E+00 0.  1.
       -3    1    3    3    0  502 -0.54480361995E+02  0.67660278793E+03  0.52132056245E+03  0.85588234093E+03  0.10100000352E+00 0. -1.
</event>
<event>
 5   0  0.1175146E-03  0.1410657E+04  0.7818609E-02  0.8946140E-01
       -2   -1    0    0    0  501  0.00000000000E+00  0.00000000000E+00  0.25709428577E+03  0.25709428579E+03  0.25500000920E-02 0. -1.
        2   -1    0    0  501    0  0.00000000000E+00  0.00000000000E+00 -0.19350433750E+04  0.19350433750E+04  0.25500000920E-02 0.  1.
    10030    2    1    2    0    0  0.00000000000E+00  0.00000000000E+00 -0.16779490893E+04  0.21921376608E+04  0.14106574275E+04 0.  0.
        1    1    3    3  502    0  0.36155948626E+03 -0.59478963962E+03 -0.66187081072E+03  0.96050660987E+03  0.50400001928E-02 0. -1.
       -1    1    3    3    0  502 -0.36155948626E+03  0.59478963962E+03 -0.10160782785E+04  0.12316310509E+04  0.50400001928E-02 0.  1.
</event>
<event>
 5   0  0.6114266E-04  0.1409559E+04  0.7818609E-02  0.8946928E-01
       -1   -1    0    0    0  501  0.00000000000E+00  0.00000000000E+00  0.59852715978E+03  0.59852715980E+03  0.50400001928E-02 0.  1.
        1   -1    0    0  501    0  0.00000000000E+00  0.00000000000E+00 -0.82989368869E+03  0.82989368871E+03  0.50400001928E-02 0. -1.
    10030    2    1    2    0    0  0.00000000000E+00  0.00000000000E+00 -0.23136652891E+03  0.14284208485E+04  0.14095586720E+04 0.  0.
        3    1    3    3  502    0 -0.12858149394E+03 -0.56242964444E+03  0.29452179436E+03  0.64776801641E+03  0.10100000352E+00 0.  1.
       -3    1    3    3    0  502  0.12858149394E+03  0.56242964444E+03 -0.52588832327E+03  0.78065283211E+03  0.10100000352E+00 0. -1.
</event>
<event>
 5   0  0.6097538E-04  0.1434995E+04  0.7818609E-02  0.8928870E-01
        1   -1    0    0  501    0  0.00000000000E+00  0.00000000000E+00  0.12427991022E+04  0.12427991022E+04  0.50400001928E-02 0. -1.
       -1   -1    0    0    0  501  0.00000000000E+00  0.00000000000E+00 -0.41422817177E+03  0.41422817180E+03  0.50400001928E-02 0.  1.
    10030    2    1    2    0    0  0.00000000000E+00  0.00000000000E+00  0.82857093040E+03  0.16570272740E+04  0.14349946341E+04 0.  0.
        2    1    3    3  502    0  0.17529621243E+03  0.35929562156E+03 -0.27370354695E+03  0.48449534299E+03  0.25500000920E-02 0.  1.
       -2    1    3    3    0  502 -0.17529621243E+03 -0.35929562156E+03  0.11022744773E+04  0.11725319310E+04  0.25500000920E-02 0. -1.
</event>
<event>
 5   0  0.6194742E-04  0.1388278E+04  0.7818609E-02  0.8962348E-01
       -1   -1    0    0    0  501  0.00000000000E+00  0.00000000000E+00  0.40018053553E+03  0.40018053556E+03  0.50400001928E-02 0.  1.
        1   -1    0    0  501    0  0.00000000000E+00  0.00000000000E+00 -0.12040283283E+04  0.12040283283E+04  0.50400001928E-02 0. -1.
    10030    2    1    2    0    0  0.00000000000E+00  0.00000000000E+00 -0.80384779280E+03  0.16042088639E+04  0.13882776398E+04 0.  0.
        4    1    3    3  502    0  0.19098435881E+03 -0.60003996005E+03 -0.64427174043E+02  0.63298929898E+03  0.12699999809E+01 0.  1.
       -4    1    3    3    0  502 -0.19098435881E+03  0.60003996005E+03 -0.73942061876E+03  0.97121956493E+03  0.12699999809E+01 0. -1.
</event>
<event>
 5   0  0.1098949E-03  0.1395790E+04  0.7818609E-02  0.8956872E-01
        2   -1    0    0  501    0  0.00000000000E+00  0.00000000000E+00  0.13332105514E+04  0.13332105514E+04  0.25500000920E-02 0. -1.
       -2   -1    0    0    0  501  0.00000000000E+00  0.00000000000E+00 -0.36532665611E+03  0.36532665612E+03  0.25500000920E-02 0.  1.
    10030    2    1    2    0    0  0.00000000000E+00  0.00000000000E+00  0.96788389526E+03  0.16985372075E+04  0.13957898877E+04 0.  0.
        4    1    3    3  502    0 -0.43924979139E+03  0.45197022091E+03  0.84868391077E+03  0.10571108992E+04  0.12699999809E+01 0. -1.
       -4    1    3    3    0  502  0.43924979139E+03 -0.45197022091E+03  0.11919998449E+03  0.64142630834E+03  0.12699999809E+01 0.  1.
</event>
<event>
 5   0  0.6153318E-04  0.1388558E+04  0.7818609E-02  0.8962143E-01
        1   -1    0    0  501    0  0.00000000000E+00  0.00000000000E+00  0.13857182599E+04  0.13857182599E+04  0.50400001928E-02 0.  1.
       -1   -1    0    0    0  501  0.00000000000E+00  0.00000000000E+00 -0.34785089095E+03  0.34785089098E+03  0.50400001928E-02 0. -1.
    10030    2    1    2    0    0  0.00000000000E+00  0.00000000000E+00  0.10378673689E+04  0.17335691509E+04  0.13885580021E+04 0.  0.
        5    1    3    3  502    0 -0.62224504493E+03 -0.26030928470E+03  0.31359433030E+03  0.74385033013E+03  0.46999998093E+01 0. -1.
       -5    1    3    3    0  502  0.62224504493E+03  0.26030928470E+03  0.72427303861E+03  0.98971882072E+03  0.46999998093E+01 0.  1.
</event>
<event>
 5   0  0.6153318E-04  0.1391461E+04  0.7818609E-02  0.8960023E-01
        1   -1    0    0  501    0  0.00000000000E+00  0.00000000000E+00  0.33138480413E+03  0.33138480417E+03  0.50400001928E-02 0. -1.
       -1   -1    0    0    0  501  0.00000000000E+00  0.00000000000E+00 -0.14606605970E+04  0.14606605971E+04  0.50400001928E-02 0.  1.
    10030    2    1    2    0    0  0.00000000000E+00  0.00000000000E+00 -0.11292757929E+04  0.17920454012E+04  0.13914607086E+04 0.  0.
        5    1    3    3  502    0  0.34955397928E+03  0.28275514418E+03  0.11913255754E+03  0.46513773471E+03  0.46999998093E+01 0. -1.
       -5    1    3    3    0  502 -0.34955397928E+03 -0.28275514418E+03 -0.12484083504E+04  0.13269076665E+04  0.46999998093E+01 0.  1.
</event>
<event>
 5   0  0.6153318E-04  0.1397359E+04  0.7818609E-02  0.8955732E-01
        1   -1    0    0  501    0  0.00000000000E+00  0.00000000000E+00  0.70113769036E+03  0.70113769038E+03  0.50400001928E-02 0. -1.
       -1   -1    0    0    0  501  0.00000000000E+00  0.00000000000E+00 -0.69623027669E+03  0.69623027671E+03  0.50400001928E-02 0.  1.
    10030    2    1    2    0    0  0.00000000000E+00  0.00000000000E+00  0.49074136631E+01  0.13973679671E+04  0.13973593499E+04 0.  0.
        5    1    3    3  502    0 -0.44199378251E+03 -0.28669365697E+03  0.46134589315E+03  0.70029556606E+03  0.46999998093E+01 0. -1.
       -5    1    3    3    0  502  0.44199378251E+03  0.28669365697E+03 -0.45643847949E+03  0.69707240103E+03  0.46999998093E+01 0.  1.
</event>
<event>
 5   0  0.1095119E-03  0.1468331E+04  0.7818609E-02  0.8905790E-01
       -2   -1    0    0    0  501  0.00000000000E+00  0.00000000000E+00  0.72508830519E+03  0.72508830520E+03  0.25500000920E-02 0. -1.
        2   -1    0    0  501    0  0.00000000000E+00  0.00000000000E+00 -0.74335641085E+03  0.74335641085E+03  0.25500000920E-02 0.  1.
    10030    2    1    2    0    0  0.00000000000E+00  0.00000000000E+00 -0.18268105655E+02  0.14684447160E+04  0.14683310800E+04 0.  0.
        5    1    3    3  502    0  0.74538449030E+02 -0.48417411490E+03 -0.55598200009E+03  0.74102538981E+03  0.46999998093E+01 0.  1.
       -5    1    3    3    0  502 -0.74538449030E+02  0.48417411490E+03  0.53771389443E+03  0.72741932624E+03  0.46999998093E+01 0. -1.
</event>
<event>
 5   0  0.1108819E-03  0.1406115E+04  0.7818609E-02  0.8949404E-01
       -2   -1    0    0    0  501  0.00000000000E+00  0.00000000000E+00  0.44111222496E+03  0.44111222497E+03  0.25500000920E-02 0. -1.
        2   -1    0    0  501    0  0.00000000000E+00  0.00000000000E+00 -0.11205532399E+04  0.11205532399E+04  0.25500000920E-02 0.  1.
    10030    2    1    2    0    0  0.00000000000E+00  0.00000000000E+00 -0.67944101493E+03  0.15616654649E+04  0.14061148358E+04 0.  0.
        3    1    3    3  502    0 -0.63576014372E+03 -0.10435389659E+03 -0.65229573348E+03  0.91682628136E+03  0.10100000352E+00 0.  1.
       -3    1    3    3    0  502  0.63576014372E+03  0.10435389659E+03 -0.27145281452E+02  0.64483918350E+03  0.10100000352E+00 0. -1.
</event>
<event>
 5   0  0.6097538E-04  0.1390677E+04  0.7818609E-02  0.8960595E-01
       -1   -1    0    0    0  501  0.00000000000E+00  0.00000000000E+00  0.69625648438E+03  0.69625648440E+03  0.50400001928E-02 0.  1.
        1   -1    0    0  501    0  0.00000000000E+00  0.00000000000E+00 -0.69442130358E+03  0.69442130360E+03  0.50400001928E-02 0. -1.
    10030    2    1    2    0    0  0.00000000000E+00  0.00000000000E+00  0.18351808062E+01  0.13906777880E+04  0.13906765771E+04 0.  0.
        2    1    3    3  502    0  0.37698053118E+03  0.58409449810E+03 -0.13732744327E+02  0.69531956097E+03  0.25500000920E-02 0.  1.
       -2    1    3    3    0  502 -0.37698053118E+03 -0.58409449810E+03  0.15567925133E+02  0.69535822703E+03  0.25500000920E-02 0. -1.
</event>
<event>
 5   0  0.4176125E-04  0.1400307E+04  0.7818609E-02  0.8953596E-01
       -4   -1    0    0    0  501  0.00000000000E+00  0.00000000000E+00  0.10903965526E+04  0.10903972922E+04  0.12699999809E+01 0. -1.
        4   -1    0    0  501    0  0.00000000000E+00  0.00000000000E+00 -0.44957328299E+03  0.44957507679E+03  0.12699999809E+01 0.  1.
    10030    2    1    2    0    0  0.00000000000E+00  0.00000000000E+00  0.64082326961E+03  0.15399723690E+04  0.14003072643E+04 0.  0.
        1    1    3    3  502    0 -0.12651642335E+03  0.46778763818E+03  0.87616991702E+03  0.10012519180E+04  0.50400001928E-02 0. -1.
       -1    1    3    3    0  502  0.12651642335E+03 -0.46778763818E+03 -0.23534664741E+03  0.53872045096E+03  0.50400001928E-02 0.  1.
</event>
<event>
 5   0  0.1175146E-03  0.1426839E+04  0.7818609E-02  0.8934617E-01
       -2   -1    0    0    0  501  0.00000000000E+00  0.00000000000E+00  0.30298906613E+03  0.30298906614E+03  0.25500000920E-02 0.  1.
        2   -1    0    0  501    0  0.00000000000E+00  0.00000000000E+00 -0.16798218106E+04  0.16798218106E+04  0.25500000920E-02 0. -1.
    10030    2    1    2    0    0  0.00000000000E+00  0.00000000000E+00 -0.13768327445E+04  0.19828108768E+04  0.14268393626E+04 0.  0.
        1    1    3    3  502    0  0.31798584972E+03  0.18953909941E+03  0.15907521839E+03  0.40292058269E+03  0.50400001928E-02 0.  1.
       -1    1    3    3    0  502 -0.31798584972E+03 -0.18953909941E+03 -0.15359079629E+04  0.15798902941E+04  0.50400001928E-02 0. -1.
</event>
<event>
 5   0  0.4176125E-04  0.1384640E+04  0.7818609E-02  0.8965013E-01
       -3   -1    0    0    0  501  0.00000000000E+00  0.00000000000E+00  0.11502297394E+04  0.11502297438E+04  0.10100000352E+00 0.  1.
        3   -1    0    0  501    0  0.00000000000E+00  0.00000000000E+00 -0.41670519764E+03  0.41670520988E+03  0.10100000352E+00 0. -1.
    10030    2    1    2    0    0  0.00000000000E+00  0.00000000000E+00  0.73352454178E+03  0.15669349537E+04  0.13846396267E+04 0.  0.
        3    1    3    3  502    0  0.22895126765E+03 -0.38720634666E+03  0.96231767472E+03  0.10622630348E+04  0.10100000352E+00 0.  1.
       -3    1    3    3    0  502 -0.22895126765E+03  0.38720634666E+03 -0.22879313294E+03  0.50467191891E+03  0.10100000352E+00 0. -1.
</event>
<event>
 5   0  0.1175146E-03  0.1396267E+04  0.7818609E-02  0.8956525E-01
        2   -1    0    0  501    0  0.00000000000E+00  0.00000000000E+00  0.14042881223E+04  0.14042881223E+04  0.25500000920E-02 0. -1.
       -2   -1    0    0    0  501  0.00000000000E+00  0.00000000000E+00 -0.34707271841E+03  0.34707271842E+03  0.25500000920E-02 0.  1.
    10030    2    1    2    0    0  0.00000000000E+00  0.00000000000E+00  0.10572154039E+04  0.17513608407E+04  0.13962665878E+04 0.  0.
        1    1    3    3  502    0 -0.40480267595E+03  0.60106287269E+01 -0.18479851260E+03  0.44503013875E+03  0.50400001928E-02 0.  1.
       -1    1    3    3    0  502  0.40480267595E+03 -0.60106287269E+01  0.12420139165E+04  0.13063307019E+04  0.50400001928E-02 0. -1.
</event>
<event>
 5   0  0.1108819E-03  0.1440607E+04  0.7818609E-02  0.8924939E-01
        2   -1    0    0  501    0  0.00000000000E+00  0.00000000000E+00  0.41218677264E+03  0.41218677265E+03  0.25500000920E-02 0. -1.
       -2   -1    0    0    0  501  0.00000000000E+00  0.00000000000E+00 -0.12587426572E+04  0.12587426572E+04  0.25500000920E-02 0.  1.
    10030    2    1    2    0    0  0.00000000000E+00  0.00000000000E+00 -0.84655588454E+03  0.16709294298E+04  0.14406069186E+04 0.  0.
        3    1    3    3  502    0  0.21719417968E+03 -0.80179071186E+00 -0.12198564169E+04  0.12390414209E+04  0.10100000352E+00 0.  1.
       -3    1    3    3    0  502 -0.21719417968E+03  0.80179071186E+00  0.37330053240E+03  0.43188800892E+03  0.10100000352E+00 0. -1.
</event>
<event>
 5   0  0.6194742E-04  0.1393769E+04  0.7818609E-02  0.8958341E-01
        1   -1    0    0  501    0  0.00000000000E+00  0.00000000000E+00  0.13413485810E+04  0.13413485810E+04  0.50400001928E-02 0. -1.
       -1   -1    0    0    0  501  0.00000000000E+00  0.00000000000E+00 -0.36205966899E+03  0.36205966903E+03  0.50400001928E-02 0.  1.
    10030    2    1    2    0    0  0.00000000000E+00  0.00000000000E+00  0.97928891204E+03  0.17034082501E+04  0.13937693113E+04 0.  0.
        4    1    3    3  502    0  0.49284752592E+03  0.43506087973E+03  0.20703755154E+03  0.68923349710E+03  0.12699999809E+01 0.  1.
       -4    1    3    3    0  502 -0.49284752592E+03 -0.43506087973E+03  0.77225136050E+03  0.10141747530E+04  0.12699999809E+01 0. -1.
</event>
<event>
 5   0  0.6194742E-04  0.1401041E+04  0.7818609E-02  0.8953065E-01
       -1   -1    0    0    0  501  0.00000000000E+00  0.00000000000E+00  0.36243324633E+03  0.36243324636E+03  0.50400001928E-02 0. -1.
        1   -1    0    0  501    0  0.00000000000E+00  0.00000000000E+00 -0.13539853497E+04  0.13539853497E+04  0.50400001928E-02 0.  1.
    10030    2    1    2    0    0  0.00000000000E+00  0.00000000000E+00 -0.99155210340E+03  0.17164185961E+04  0.14010414781E+04 0.  0.
        4    1    3    3  502    0 -0.31743898146E+03 -0.18399053524E+03  0.23530054514E+03  0.43587611021E+03  0.12699999809E+01 0. -1.
       -4    1    3    3    0  502  0.31743898146E+03  0.18399053524E+03 -0.12268526485E+04  0.12805424859E+04  0.12699999809E+01 0.  1.
</event>
<event>
 5   0  0.5875298E-04  0.1395552E+04  0.7818609E-02  0.8957045E-01
       -1   -1    0    0    0  501  0.00000000000E+00  0.00000000000E+00  0.48841939197E+03  0.48841939200E+03  0.50400001928E-02 0. -1.
        1   -1    0    0  501    0  0.00000000000E+00  0.00000000000E+00 -0.99687131085E+03  0.99687131086E+03  0.50400001928E-02 0.  1.
    10030    2    1    2    0    0  0.00000000000E+00  0.00000000000E+00 -0.50845191888E+03  0.14852907029E+04  0.13955519045E+04 0.  0.
        1    1    3    3  502    0 -0.48244492030E+02 -0.22925087050E+02 -0.99469223340E+03  0.99612535850E+03  0.50400001928E-02 0.  1.
       -1    1    3    3    0  502  0.48244492030E+02  0.22925087050E+02  0.48624031453E+03  0.48916534436E+03  0.50400001928E-02 0. -1.
</event>
<event>
 5   0  0.1095119E-03  0.1408447E+04  0.7818609E-02  0.8947727E-01
       -2   -1    0    0    0  501  0.00000000000E+00  0.00000000000E+00  0.22042676212E+03  0.22042676213E+03  0.25500000920E-02 0.  1.
        2   -1    0    0  501    0  0.00000000000E+00  0.00000000000E+00 -0.22498646771E+04  0.22498646771E+04  0.25500000920E-02 0. -1.
    10030    2    1    2    0    0  0.00000000000E+00  0.00000000000E+00 -0.20294379150E+04  0.24702914392E+04  0.14084465002E+04 0.  0.
        5    1    3    3  502    0  0.23034039975E+03 -0.60395507424E+03 -0.52459585595E+03  0.83249104111E+03  0.46999998093E+01 0.  1.
       -5    1    3    3    0  502 -0.23034039975E+03  0.60395507424E+03 -0.15048420590E+04  0.16378003981E+04  0.46999998093E+01 0. -1.
</event>
<event>
 5   0  0.5875298E-04  0.1384589E+04  0.7818609E-02  0.8965050E-01
       -1   -1    0    0    0  501  0.00000000000E+00  0.00000000000E+00  0.41119861513E+03  0.41119861516E+03  0.50400001928E-02 0. -1.
        1   -1    0    0  501    0  0.00000000000E+00  0.00000000000E+00 -0.11655481034E+04  0.11655481034E+04  0.50400001928E-02 0.  1.
    10030    2    1    2    0    0  0.00000000000E+00  0.00000000000E+00 -0.75434948824E+03  0.15767467185E+04  0.13845891318E+04 0.  0.
        1    1    3    3  502    0  0.44004676755E+03  0.36007529647E+03 -0.82692399504E+03  0.10035430585E+04  0.50400001928E-02 0.  1.
       -1    1    3    3    0  502 -0.44004676755E+03 -0.36007529647E+03  0.72574506802E+02  0.57320365999E+03  0.50400001928E-02 0. -1.
</event>
<event>
 5   0  0.4176125E-04  0.1390267E+04  0.7818609E-02  0.8960894E-01
       -3   -1    0    0    0  501  0.00000000000E+00  0.00000000000E+00  0.49928770617E+03  0.49928771639E+03  0.10100000352E+00 0. -1.
        3   -1    0    0  501    0  0.00000000000E+00  0.00000000000E+00 -0.96779931603E+03  0.96779932130E+03  0.10100000352E+00 0.  1.
    10030    2    1    2    0    0  0.00000000000E+00  0.00000000000E+00 -0.46851160986E+03  0.14670870377E+04  0.13902666102E+04 0.  0.
        5    1    3    3  502    0  0.22722793524E+03  0.63057316653E+03 -0.42864404930E+03  0.79562105546E+03  0.46999998093E+01 0.  1.
       -5    1    3    3    0  502 -0.22722793524E+03 -0.63057316653E+03 -0.39867560558E+02  0.67146598222E+03  0.46999998093E+01 0. -1.
</event>
<event>
 5   0  0.1095119E-03  0.1435584E+04  0.7818609E-02  0.8928457E-01
       -2   -1    0    0    0  501  0.00000000000E+00  0.00000000000E+00  0.19235178746E+04  0.19235178747E+04  0.25500000920E-02 0.  1.
        2   -1    0    0  501    0  0.00000000000E+00  0.00000000000E+00 -0.26785562779E+03  0.26785562780E+03  0.25500000920E-02 0. -1.
    10030    2    1    2    0    0  0.00000000000E+00  0.00000000000E+00  0.16556622469E+04  0.21913735025E+04  0.14355836275E+04 0.  0.
        5    1    3    3  502    0 -0.64542762979E+03 -0.31087726002E+03  0.89578044825E+03  0.11470249333E+04  0.46999998093E+01 0. -1.
       -5    1    3    3    0  502  0.64542762979E+03  0.31087726002E+03  0.75988179861E+03  0.10443485692E+04  0.46999998093E+01 0.  1.
</event>
<event>
 5   0  0.1175146E-03  0.1414856E+04  0.7818609E-02  0.8943135E-01
       -2   -1    0    0    0  501  0.00000000000E+00  0.00000000000E+00  0.50753656068E+03  0.50753656069E+03  0.25500000920E-02 0.  1.
        2   -1    0    0  501    0  0.00000000000E+00  0.00000000000E+00 -0.98604602368E+03  0.98604602369E+03  0.25500000920E-02 0. -1.
    10030    2    1    2    0    0  0.00000000000E+00  0.00000000000E+00 -0.47850946300E+03  0.14935825844E+04  0.14148560457E+04 0.  0.
        1    1    3    3  502    0 -0.50669899735E+03  0.42129922306E+03  0.32391303546E+02  0.65976215854E+03  0.50400001928E-02 0. -1.
       -1    1    3    3    0  502  0.50669899735E+03 -0.42129922306E+03 -0.51090076655E+03  0.83382042584E+03  0.50400001928E-02 0.  1.
</event>
<event>
 5   0  0.1098949E-03  0.1400671E+04  0.7818609E-02  0.8953333E-01
       -2   -1    0    0    0  501  0.00000000000E+00  0.00000000000E+00  0.32358178923E+03  0.32358178924E+03  0.25500000920E-02 0. -1.
        2   -1    0    0  501    0  0.00000000000E+00  0.00000000000E+00 -0.15157532395E+04  0.15157532395E+04  0.25500000920E-02 0.  1.
    10030    2    1    2    0    0  0.00000000000E+00  0.00000000000E+00 -0.11921714502E+04  0.18393350287E+04  0.14006714751E+04 0.  0.
        4    1    3    3  502    0  0.56003900534E+02 -0.50460516850E+03  0.37387241579E+02  0.50907978912E+03  0.12699999809E+01 0. -1.
       -4    1    3    3    0  502 -0.56003900534E+02  0.50460516850E+03 -0.12295586918E+04  0.13302552396E+04  0.12699999809E+01 0.  1.
</event>
<event>
 5   0  0.1095119E-03  0.1413748E+04  0.7818609E-02  0.8943926E-01
       -2   -1    0    0    0  501  0.00000000000E+00  0.00000000000E+00  0.31745790253E+03  0.31745790254E+03  0.25500000920E-02 0.  1.
        2   -1    0    0  501    0  0.00000000000E+00  0.00000000000E+00 -0.15739760834E+04  0.15739760834E+04  0.25500000920E-02 0. -1.
    10030    2    1    2    0    0  0.00000000000E+00  0.00000000000E+00 -0.12565181809E+04  0.18914339860E+04  0.14137484162E+04 0.  0.
        5    1    3    3  502    0 -0.56331680829E+03 -0.38496384945E+03 -0.38110821183E+03  0.78152962260E+03  0.46999998093E+01 0.  1.
       -5    1    3    3    0  502  0.56331680829E+03  0.38496384945E+03 -0.87540996906E+03  0.11099043634E+04  0.46999998093E+01 0. -1.
</event>
<event>
 5   0  0.6194742E-04  0.1389042E+04  0.7818609E-02  0.8961789E-01
       -1   -1    0    0    0  501  0.00000000000E+00  0.00000000000E+00  0.85887366533E+03  0.85887366534E+03  0.50400001928E-02 0. -1.
        1   -1    0    0  501    0  0.00000000000E+00  0.00000000000E+00 -0.56161857057E+03  0.56161857059E+03  0.50400001928E-02 0.  1.
    10030    2    1    2    0    0  0.00000000000E+00  0.00000000000E+00  0.29725509476E+03  0.14204922359E+04  0.13890419724E+04 0.  0.
        4    1    3    3  502    0  0.27276069952E+02  0.47539877397E+03  0.66565339273E+03  0.81843999806E+03  0.12699999809E+01 0. -1.
       -4    1    3    3    0  502 -0.27276069952E+02 -0.47539877397E+03 -0.36839829797E+03  0.60205223787E+03  0.12699999809E+01 0.  1.
</event>
<event>
 5   0  0.1175146E-03  0.1427680E+04  0.7818609E-02  0.8934023E-01
       -2   -1    0    0    0  501  0.00000000000E+00  0.00000000000E+00  0.44033587217E+03  0.44033587217E+03  0.25500000920E-02 0.  1.
        2   -1    0    0  501    0  0.00000000000E+00  0.00000000000E+00 -0.11572245591E+04  0.11572245591E+04  0.25500000920E-02 0. -1.
    10030    2    1    2    0    0  0.00000000000E+00  0.00000000000E+00 -0.71688868693E+03  0.15975604313E+04  0.14276799158E+04 0.  0.
        1    1    3    3  502    0 -0.34577776204E+03 -0.32383869426E+03 -0.95596199437E+03  0.10669100690E+04  0.50400001928E-02 0. -1.
       -1    1    3    3    0  502  0.34577776204E+03  0.32383869426E+03  0.23907330745E+03  0.53065036227E+03  0.50400001928E-02 0.  1.
</event>
<event>
 5   0  0.6194742E-04  0.1408766E+04  0.7818609E-02  0.8947498E-01
       -1   -1    0    0    0  501  0.00000000000E+00  0.00000000000E+00  0.45228304736E+03  0.45228304738E+03  0.50400001928E-02 0.  1.
        1   -1    0    0  501    0  0.00000000000E+00  0.00000000000E+00 -0.10970022110E+04  0.10970022110E+04  0.50400001928E-02 0. -1.
    10030    2    1    2    0    0  0.00000000000E+00  0.00000000000E+00 -0.64471916360E+03  0.15492852584E+04  0.14087661310E+04 0.  0.
        4    1    3    3  502    0 -0.31466517672E+02 -0.38424082325E+03 -0.97067163994E+03  0.10444310401E+04  0.12699999809E+01 0. -1.
       -4    1    3    3    0  502  0.31466517672E+02  0.38424082325E+03  0.32595247633E+03  0.50485421828E+03  0.12699999809E+01 0.  1.
</event>
<event>
 5   0  0.6097538E-04  0.1374814E+04  0.7818609E-02  0.8972254E-01
        1   -1    0    0  501    0  0.00000000000E+00  0.00000000000E+00  0.18019445034E+04  0.18019445034E+04  0.50400001928E-02 0.  1.
       -1   -1    0    0    0  501  0.00000000000E+00  0.00000000000E+00 -0.26223234498E+03  0.26223234503E+03  0.50400001928E-02 0. -1.
    10030    2    1    2    0    0  0.00000000000E+00  0.00000000000E+00  0.15397121584E+04  0.20641768484E+04  0.13748136350E+04 0.  0.
        2    1    3    3  502    0 -0.48501649003E+03  0.48389031291E+03  0.85395322320E+03  0.10948182214E+04  0.25500000920E-02 0. -1.
       -2    1    3    3    0  502  0.48501649003E+03 -0.48389031291E+03  0.68575893522E+03  0.96935862702E+03  0.25500000920E-02 0.  1.
</event>
<event>
 5   0  0.6097538E-04  0.1346055E+04  0.7818609E-02  0.8993820E-01
        1   -1    0    0  501    0  0.00000000000E+00  0.00000000000E+00  0.63357993963E+03  0.63357993965E+03  0.50400001928E-02 0.  1.
       -1   -1    0    0    0  501  0.00000000000E+00  0.00000000000E+00 -0.71493069487E+03  0.71493069489E+03  0.50400001928E-02 0. -1.
    10030    2    1    2    0    0  0.00000000000E+00  0.00000000000E+00 -0.81350755240E+02  0.13485106345E+04  0.13460546000E+04 0.  0.
        2    1    3    3  502    0 -0.54569324413E+03 -0.11975652320E+03 -0.41665070002E+03  0.69693654472E+03  0.25500000920E-02 0.  1.
       -2    1    3    3    0  502  0.54569324413E+03  0.11975652320E+03  0.33529994478E+03  0.65157408981E+03  0.25500000920E-02 0. -1.
</event>
<event>
 5   0  0.5875298E-04  0.1398828E+04  0.7818609E-02  0.8954668E-01
       -1   -1    0    0    0  501  0.00000000000E+00  0.00000000000E+00  0.11792890951E+04  0.11792890952E+04  0.50400001928E-02 0. -1.
        1   -1    0    0  501    0  0.00000000000E+00  0.00000000000E+00 -0.41480899602E+03  0.41480899605E+03  0.50400001928E-02 0.  1.
    10030    2    1    2    0    0  0.00000000000E+00  0.00000000000E+00  0.76448009913E+03  0.15940980912E+04  0.13988276886E+04 0.  0.
        1    1    3    3  502    0  0.46726295211E+03 -0.51119236126E+03  0.27100576112E+03  0.74370452413E+03  0.50400001928E-02 0. -1.
       -1    1    3    3    0  502 -0.46726295211E+03  0.51119236126E+03  0.49347433801E+03  0.85039356708E+03  0.50400001928E-02 0.  1.
</event>
<event>
 5   0  0.6194742E-04  0.1371515E+04  0.7818609E-02  0.8974699E-01
       -1   -1    0    0    0  501  0.00000000000E+00  0.00000000000E+00  0.32245474818E+03  0.32245474822E+03  0.50400001928E-02 0. -1.
        1   -1    0    0  501    0  0.00000000000E+00  0.00000000000E+00 -0.14583857728E+04  0.14583857728E+04  0.50400001928E-02 0.  1.
    10030    2    1    2    0    0  0.00000000000E+00  0.00000000000E+00 -0.11359310246E+04  0.17808405210E+04  0.13715150997E+04 0.  0.
        4    1    3    3  502    0  0.10131901947E+03 -0.22989799927E+03  0.26054498010E+03  0.36194465507E+03  0.12699999809E+01 0. -1.
       -4    1    3    3    0  502 -0.10131901947E+03  0.22989799927E+03 -0.13964760047E+04  0.14188958659E+04  0.12699999809E+01 0.  1.
</event>
<event>
 5   0  0.1098949E-03  0.1402671E+04  0.7818609E-02  0.8951887E-01
       -2   -1    0    0    0  501  0.00000000000E+00  0.00000000000E+00  0.40332816675E+03  0.40332816675E+03  0.25500000920E-02 0. -1.
        2   -1    0    0  501    0  0.00000000000E+00  0.00000000000E+00 -0.12195316782E+04  0.12195316782E+04  0.25500000920E-02 0.  1.
    10030    2    1    2    0    0  0.00000000000E+00  0.00000000000E+00 -0.81620351148E+03  0.16228598450E+04  0.14026709893E+04 0.  0.
        4    1    3    3  502    0  0.91324792448E+02  0.20654891167E+02  0.39606307590E+03  0.40698208220E+03  0.12699999809E+01 0. -1.
       -4    1    3    3    0  502 -0.91324792448E+02 -0.20654891167E+02 -0.12122665874E+04  0.12158777628E+04  0.12699999809E+01 0.  1.
</event>
<event>
 5   0  0.1098949E-03  0.1341231E+04  0.7818609E-02  0.8997493E-01
        2   -1    0    0  501    0  0.00000000000E+00  0.00000000000E+00  0.23006925561E+04  0.23006925561E+04  0.25500000920E-02 0. -1.
       -2   -1    0    0    0  501  0.00000000000E+00  0.00000000000E+00 -0.19547383428E+03  0.19547383430E+03  0.25500000920E-02 0.  1.
    10030    2    1    2    0    0  0.00000000000E+00  0.00000000000E+00  0.21052187218E+04  0.24961663904E+04  0.13412310695E+04 0.  0.
        4    1    3    3  502    0  0.19632005215E+03 -0.44813957309E+03  0.19061893438E+04  0.19679761348E+04  0.12699999809E+01 0. -1.
       -4    1    3    3    0  502 -0.19632005215E+03  0.44813957309E+03  0.19902937796E+03  0.52819025553E+03  0.12699999809E+01 0.  1.
</event>
<event>
 5   0  0.6153318E-04  0.1385823E+04  0.7818609E-02  0.8964145E-01
        1   -1    0    0  501    0  0.00000000000E+00  0.00000000000E+00  0.84161414255E+03  0.84161414256E+03  0.50400001928E-02 0. -1.
       -1   -1    0    0    0  501  0.00000000000E+00  0.00000000000E+00 -0.57048279974E+03  0.57048279976E+03  0.50400001928E-02 0.  1.
    10030    2    1    2    0    0  0.00000000000E+00  0.00000000000E+00  0.27113134281E+03  0.14120969423E+04  0.13858230657E+04 0.  0.
        5    1    3    3  502    0 -0.69137918528E+02 -0.28422422795E+03 -0.50446783296E+03  0.58315808150E+03  0.46999998093E+01 0.  1.
       -5    1    3    3    0  502  0.69137918528E+02  0.28422422795E+03  0.77559917577E+03  0.82893886082E+03  0.46999998093E+01 0. -1.
</event>
<event>
 5   0  0.1120053E-03  0.1382313E+04  0.7818609E-02  0.8966722E-01
        2   -1    0    0  501    0  0.00000000000E+00  0.00000000000E+00  0.99931544148E+03  0.99931544149E+03  0.25500000920E-02 0.  1.
       -2   -1    0    0    0  501  0.00000000000E+00  0.00000000000E+00 -0.47802441101E+03  0.47802441102E+03  0.25500000920E-02 0. -1.
    10030    2    1    2    0    0  0.00000000000E+00  0.00000000000E+00  0.52129103047E+03  0.14773398525E+04  0.13823128088E+04 0.  0.
        2    1    3    3  502    0 -0.10219602278E+03  0.67642517380E+03  0.15537477371E+03  0.70152431400E+03  0.25500000920E-02 0.  1.
       -2    1    3    3    0  502  0.10219602278E+03 -0.67642517380E+03  0.36591625676E+03  0.77581553851E+03  0.25500000920E-02 0. -1.
</event>
<event>
 5   0  0.6153318E-04  0.1403475E+04  0.7818609E-02  0.8951307E-01
       -1   -1    0    0    0  501  0.00000000000E+00  0.00000000000E+00  0.53132203160E+03  0.53132203163E+03  0.50400001928E-02 0.  1.
        1   -1    0    0  501    0  0.00000000000E+00  0.00000000000E+00 -0.92681224243E+03  0.92681224244E+03  0.50400001928E-02 0. -1.
    10030    2    1    2    0    0  0.00000000000E+00  0.00000000000E+00 -0.39549021082E+03  0.14581342741E+04  0.14034753487E+04 0.  0.
        5    1    3    3  502    0  0.41137573191E+03  0.30416005545E+03 -0.69673139023E+03  0.86440734163E+03  0.46999998093E+01 0. -1.
       -5    1    3    3    0  502 -0.41137573191E+03 -0.30416005545E+03  0.30124117940E+03  0.59372693244E+03  0.46999998093E+01 0.  1.
</event>
<event>
 5   0  0.1175146E-03  0.1435496E+04  0.7818609E-02  0.8928518E-01
        2   -1    0    0  501    0  0.00000000000E+00  0.00000000000E+00  0.89336411644E+03  0.89336411644E+03  0.25500000920E-02 0. -1.
       -2   -1    0    0    0  501  0.00000000000E+00  0.00000000000E+00 -0.57665411144E+03  0.57665411145E+03  0.25500000920E-02 0.  1.
    10030    2    1    2    0    0  0.00000000000E+00  0.00000000000E+00  0.31671000500E+03  0.14700182279E+04  0.14354958596E+04 0.  0.
        1    1    3    3  502    0  0.42370555978E+03 -0.24491497790E+03  0.69600744093E+03  0.85084434866E+03  0.50400001928E-02 0. -1.
       -1    1    3    3    0  502 -0.42370555978E+03  0.24491497790E+03 -0.37929743594E+03  0.61917387923E+03  0.50400001928E-02 0.  1.
</event>
<event>
 5   0  0.1098949E-03  0.1392348E+04  0.7818609E-02  0.8959376E-01
       -2   -1    0    0    0  501  0.00000000000E+00  0.00000000000E+00  0.24808217026E+03  0.24808217027E+03  0.25500000920E-02 0.  1.
        2   -1    0    0  501    0  0.00000000000E+00  0.00000000000E+00 -0.19536197134E+04  0.19536197134E+04  0.25500000920E-02 0. -1.
    10030    2    1    2    0    0  0.00000000000E+00  0.00000000000E+00 -0.17055375432E+04  0.22017018837E+04  0.13923479714E+04 0.  0.
        4    1    3    3  502    0  0.28148438982E+03  0.33780619166E+03 -0.17062392709E+04  0.17619876695E+04  0.12699999809E+01 0. -1.
       -4    1    3    3    0  502 -0.28148438982E+03 -0.33780619166E+03  0.70172778734E+00  0.43971421419E+03  0.12699999809E+01 0.  1.
</event>
<event>
 5   0  0.6114266E-04  0.1404282E+04  0.7818609E-02  0.8950725E-01
       -1   -1    0    0    0  501  0.00000000000E+00  0.00000000000E+00  0.64454845240E+03  0.64454845242E+03  0.50400001928E-02 0. -1.
        1   -1    0    0  501    0  0.00000000000E+00  0.00000000000E+00 -0.76487922308E+03  0.76487922309E+03  0.50400001928E-02 0.  1.
    10030    2    1    2    0    0  0.00000000000E+00  0.00000000000E+00 -0.12033077068E+03  0.14094276755E+04  0.14042816235E+04 0.  0.
        3    1    3    3  502    0  0.45824716494E+03 -0.37381830795E+03  0.31973340175E+03  0.67227974083E+03  0.10100000352E+00 0. -1.
       -3    1    3    3    0  502 -0.45824716494E+03  0.37381830795E+03 -0.44006417243E+03  0.73714793468E+03  0.10100000352E+00 0.  1.
</event>
<event>
 5   0  0.1098949E-03  0.1410531E+04  0.7818609E-02  0.8946231E-01
       -2   -1    0    0    0  501  0.00000000000E+00  0.00000000000E+00  0.50185749819E+03  0.50185749819E+03  0.25500000920E-02 0.  1.
        2   -1    0    0  501    0  0.00000000000E+00  0.00000000000E+00 -0.99111663959E+03  0.99111663960E+03  0.25500000920E-02 0. -1.
    10030    2    1    2    0    0  0.00000000000E+00  0.00000000000E+00 -0.48925914141E+03  0.14929741378E+04  0.14105308464E+04 0.  0.
        4    1    3    3  502    0  0.61725088015E+03 -0.33201471695E+03 -0.32773821598E+03  0.77372241303E+03  0.12699999809E+01 0. -1.
       -4    1    3    3    0  502 -0.61725088015E+03  0.33201471695E+03 -0.16152092543E+03  0.71925172476E+03  0.12699999809E+01 0.  1.
</event>
<event>
 5   0  0.1095119E-03  0.1375271E+04  0.7818609E-02  0.8971916E-01
        2   -1    0    0  501    0  0.00000000000E+00  0.00000000000E+00  0.11107024291E+04  0.11107024291E+04  0.25500000920E-02 0. -1.
       -2   -1    0    0    0  501  0.00000000000E+00  0.00000000000E+00 -0.42571478938E+03  0.42571478939E+03  0.25500000920E-02 0.  1.
    10030    2    1    2    0    0  0.00000000000E+00  0.00000000000E+00  0.68498763967E+03  0.15364172184E+04  0.13752708106E+04 0.  0.
        5    1    3    3  502    0 -0.59868384532E+03  0.31493377338E+03  0.48029505146E+03  0.82964513783E+03  0.46999998093E+01 0. -1.
       -5    1    3    3    0  502  0.59868384532E+03 -0.31493377338E+03  0.20469258821E+03  0.70677208061E+03  0.46999998093E+01 0.  1.
</event>
<event>
 5   0  0.1175146E-03  0.1393287E+04  0.7818609E-02  0.8958692E-01
       -2   -1    0    0    0  501  0.00000000000E+00  0.00000000000E+00  0.26970024362E+03  0.26970024363E+03  0.25500000920E-02 0.  1.
        2   -1    0    0  501    0  0.00000000000E+00  0.00000000000E+00 -0.17994512824E+04  0.17994512824E+04  0.25500000920E-02 0. -1.
    10030    2    1    2    0    0  0.00000000000E+00  0.00000000000E+00 -0.15297510388E+04  0.20691515260E+04  0.13932874065E+04 0.  0.
        1    1    3    3  502    0  0.54549018424E+03  0.38812968976E+03 -0.10509550818E+04  0.12460781602E+04  0.50400001928E-02 0. -1.
       -1    1    3    3    0  502 -0.54549018424E+03 -0.38812968976E+03 -0.47879595694E+03  0.82307336586E+03  0.50400001928E-02 0.  1.
</event>
<event>
 5   0  0.6194742E-04  0.1383665E+04  0.7818609E-02  0.8965728E-01
       -1   -1    0    0    0  501  0.00000000000E+00  0.00000000000E+00  0.55299711806E+03  0.55299711808E+03  0.50400001928E-02 0. -1.
        1   -1    0    0  501    0  0.00000000000E+00  0.00000000000E+00 -0.86552448857E+03  0.86552448858E+03  0.50400001928E-02 0.  1.
    10030    2    1    2    0    0  0.00000000000E+00  0.00000000000E+00 -0.31252737051E+03  0.14185216067E+04  0.13836654911E+04 0.  0.
        4    1    3    3  502    0 -0.85817730748E+02 -0.38060681389E+03 -0.74197424087E+03  0.83830401210E+03  0.12699999809E+01 0.  1.
       -4    1    3    3    0  502  0.85817730748E+02  0.38060681389E+03  0.42944687036E+03  0.58021759457E+03  0.12699999809E+01 0. -1.
</event>
<event>
 5   0  0.1175146E-03  0.1402845E+04  0.7818609E-02  0.8951762E-01
        2   -1    0    0  501    0  0.00000000000E+00  0.00000000000E+00  0.68840482051E+03  0.68840482051E+03  0.25500000920E-02 0. -1.
       -2   -1    0    0    0  501  0.00000000000E+00  0.00000000000E+00 -0.71468634419E+03  0.71468634419E+03  0.25500000920E-02 0.  1.
    10030    2    1    2    0    0  0.00000000000E+00  0.00000000000E+00 -0.26281523683E+02  0.14030911647E+04  0.14028450014E+04 0.  0.
        1    1    3    3  502    0  0.28586160338E+03  0.29550018042E+03 -0.58153293507E+03  0.71219222652E+03  0.50400001928E-02 0.  1.
       -1    1    3    3    0  502 -0.28586160338E+03 -0.29550018042E+03  0.55525141139E+03  0.69089893819E+03  0.50400001928E-02 0. -1.
</event>
<event>
 5   0  0.6097538E-04  0.1391956E+04  0.7818609E-02  0.8959662E-01
        1   -1    0    0  501    0  0.00000000000E+00  0.00000000000E+00  0.50419344287E+03  0.50419344289E+03  0.50400001928E-02 0. -1.
       -1   -1    0    0    0  501  0.00000000000E+00  0.00000000000E+00 -0.96071357211E+03  0.96071357212E+03  0.50400001928E-02 0.  1.
    10030    2    1    2    0    0  0.00000000000E+00  0.00000000000E+00 -0.45652012925E+03  0.14649070150E+04  0.13919561538E+04 0.  0.
        2    1    3    3  502    0 -0.20902871060E+03 -0.14955758733E+03 -0.90893760096E+03  0.94457823193E+03  0.25500000920E-02 0.  1.
       -2    1    3    3    0  502  0.20902871060E+03  0.14955758733E+03  0.45241747172E+03  0.52032878308E+03  0.25500000920E-02 0. -1.
</event>
<event>
 5   0  0.1108819E-03  0.1447905E+04  0.7818609E-02  0.8919854E-01
       -2   -1    0    0    0  501  0.00000000000E+00  0.00000000000E+00  0.42358211830E+03  0.42358211831E+03  0.25500000920E-02 0. -1.
        2   -1    0    0  501    0  0.00000000000E+00  0.00000000000E+00 -0.12373206592E+04  0.12373206592E+04  0.25500000920E-02 0.  1.
    10030    2    1    2    0    0  0.00000000000E+00  0.00000000000E+00 -0.81373854086E+03  0.16609027775E+04  0.14479045629E+04 0.  0.
        3    1    3    3  502    0 -0.33885573652E+03  0.21837363773E+03  0.28292005232E+03  0.49249773810E+03  0.10100000352E+00 0. -1.
       -3    1    3    3    0  502  0.33885573652E+03 -0.21837363773E+03 -0.10966585932E+04  0.11684050394E+04  0.10100000352E+00 0.  1.
</event>
<event>
 5   0  0.6194742E-04  0.1430679E+04  0.7818609E-02  0.8931906E-01
       -1   -1    0    0    0  501  0.00000000000E+00  0.00000000000E+00  0.11904455163E+04  0.11904455163E+04  0.50400001928E-02 0.  1.
        1   -1    0    0  501    0  0.00000000000E+00  0.00000000000E+00 -0.42984813581E+03  0.42984813584E+03  0.50400001928E-02 0. -1.
    10030    2    1    2    0    0  0.00000000000E+00  0.00000000000E+00  0.76059738048E+03  0.16202936521E+04  0.14306792597E+04 0.  0.
        4    1    3    3  502    0  0.30725603523E+03 -0.41129414233E+03  0.94445553907E+03  0.10749730326E+04  0.12699999809E+01 0.  1.
       -4    1    3    3    0  502 -0.30725603523E+03  0.41129414233E+03 -0.18385815858E+03  0.54532061952E+03  0.12699999809E+01 0. -1.
</event>
<event>
 5   0  0.5875298E-04  0.1324211E+04  0.7818609E-02  0.9010583E-01
        1   -1    0    0  501    0  0.00000000000E+00  0.00000000000E+00  0.78055175807E+03  0.78055175809E+03  0.50400001928E-02 0. -1.
       -1   -1    0    0    0  501  0.00000000000E+00  0.00000000000E+00 -0.56163268296E+03  0.56163268298E+03  0.50400001928E-02 0.  1.
    10030    2    1    2    0    0  0.00000000000E+00  0.00000000000E+00  0.21891907512E+03  0.13421844411E+04  0.13242105242E+04 0.  0.
        1    1    3    3  502    0 -0.48001563056E+03 -0.47176523971E+02  0.56920498046E+03  0.74607971411E+03  0.50400001928E-02 0. -1.
       -1    1    3    3    0  502  0.48001563056E+03  0.47176523971E+02 -0.35028590534E+03  0.59610472696E+03  0.50400001928E-02 0.  1.
</event>
<event>
 5   0  0.1108819E-03  0.1404459E+04  0.7818609E-02  0.8950597E-01
        2   -1    0    0  501    0  0.00000000000E+00  0.00000000000E+00  0.77983580203E+03  0.77983580204E+03  0.25500000920E-02 0.  1.
       -2   -1    0    0    0  501  0.00000000000E+00  0.00000000000E+00 -0.63234616973E+03  0.63234616974E+03  0.25500000920E-02 0. -1.
    10030    2    1    2    0    0  0.00000000000E+00  0.00000000000E+00  0.14748963230E+03  0.14121819718E+04  0.14044588744E+04 0.  0.
        3    1    3    3  502    0 -0.39449733420E+03 -0.13789088338E+03 -0.49370248442E+03  0.64682624849E+03  0.10100000352E+00 0. -1.
       -3    1    3    3    0  502  0.39449733420E+03  0.13789088338E+03  0.64119211673E+03  0.76535572328E+03  0.10100000352E+00 0.  1.
</event>
<event>
 5   0  0.1098949E-03  0.1410022E+04  0.7818609E-02  0.8946596E-01
        2   -1    0    0  501    0  0.00000000000E+00  0.00000000000E+00  0.10240735602E+04  0.10240735602E+04  0.25500000920E-02 0. -1.
       -2   -1    0    0    0  501  0.00000000000E+00  0.00000000000E+00 -0.48535600267E+03  0.48535600268E+03  0.25500000920E-02 0.  1.
    10030    2    1    2    0    0  0.00000000000E+00  0.00000000000E+00  0.53871755758E+03  0.15094295629E+04  0.14100216305E+04 0.  0.
        4    1    3    3  502    0 -0.58172016417E+02 -0.72307057710E+02  0.10175052229E+04  0.10217293113E+04  0.12699999809E+01 0. -1.
       -4    1    3    3    0  502  0.58172016417E+02  0.72307057710E+02 -0.47878766530E+03  0.48770025162E+03  0.12699999809E+01 0.  1.
</event>
<event>
 5   0  0.6153318E-04  0.1406164E+04  0.7818609E-02  0.8949369E-01
       -1   -1    0    0    0  501  0.00000000000E+00  0.00000000000E+00  0.76779251116E+03  0.76779251118E+03  0.50400001928E-02 0.  1.
        1   -1    0    0  501    0  0.00000000000E+00  0.00000000000E+00 -0.64382571453E+03  0.64382571455E+03  0.50400001928E-02 0. -1.
    10030    2    1    2    0    0  0.00000000000E+00  0.00000000000E+00  0.12396679663E+03  0.14116182257E+04  0.14061643747E+04 0.  0.
        5    1    3    3  502    0  0.40207769707E+03  0.17400653461E+03 -0.49001993419E+03  0.65733277301E+03  0.46999998093E+01 0. -1.
       -5    1    3    3    0  502 -0.40207769707E+03 -0.17400653461E+03  0.61398673082E+03  0.75428545272E+03  0.46999998093E+01 0.  1.
</event>
<event>
 5   0  0.1175146E-03  0.1457653E+04  0.7818609E-02  0.8913112E-01
        2   -1    0    0  501    0  0.00000000000E+00  0.00000000000E+00  0.21229837633E+04  0.21229837633E+04  0.25500000920E-02 0. -1.
       -2   -1    0    0    0  501  0.00000000000E+00  0.00000000000E+00 -0.25020830983E+03  0.25020830984E+03  0.25500000920E-02 0.  1.
    10030    2    1    2    0    0  0.00000000000E+00  0.00000000000E+00  0.18727754535E+04  0.23731920732E+04  0.14576531538E+04 0.  0.
        1    1    3    3  502    0  0.72478900915E+03 -0.87267624779E+01  0.81247175943E+03  0.10888092689E+04  0.50400001928E-02 0. -1.
       -1    1    3    3    0  502 -0.72478900915E+03  0.87267624779E+01  0.10603036941E+04  0.12843828043E+04  0.50400001928E-02 0.  1.
</event>
<event>
 5   0  0.1108819E-03  0.1381416E+04  0.7818609E-02  0.8967381E-01
        2   -1    0    0  501    0  0.00000000000E+00  0.00000000000E+00  0.14414948525E+04  0.14414948526E+04  0.25500000920E-02 0. -1.
       -2   -1    0    0    0  501  0.00000000000E+00  0.00000000000E+00 -0.33096051805E+03  0.33096051806E+03  0.25500000920E-02 0.  1.
    10030    2    1    2    0    0  0.00000000000E+00  0.00000000000E+00  0.11105343345E+04  0.17724553706E+04  0.13814164950E+04 0.  0.
        3    1    3    3  502    0 -0.54810086904E+03  0.28768983486E+03  0.94843550817E+03  0.11325678466E+04  0.10100000352E+00 0. -1.
       -3    1    3    3    0  502  0.54810086904E+03 -0.28768983486E+03  0.16209882633E+03  0.63988752404E+03  0.10100000352E+00 0.  1.
</event>
<event>
 5   0  0.5875298E-04  0.1393250E+04  0.7818609E-02  0.8958719E-01
        1   -1    0    0  501    0  0.00000000000E+00  0.00000000000E+00  0.58791905923E+03  0.58791905925E+03  0.50400001928E-02 0.  1.
       -1   -1    0    0    0  501  0.00000000000E+00  0.00000000000E+00 -0.82543017025E+03  0.82543017027E+03  0.50400001928E-02 0. -1.
    10030    2    1    2    0    0  0.00000000000E+00  0.00000000000E+00 -0.23751111103E+03  0.14133492295E+04  0.13932496247E+04 0.  0.
        1    1    3    3  502    0  0.10195226080E+03  0.35346709689E+03  0.48134680617E+03  0.60582835845E+03  0.50400001928E-02 0.  1.
       -1    1    3    3    0  502 -0.10195226080E+03 -0.35346709689E+03 -0.71885791719E+03  0.80752087107E+03  0.50400001928E-02 0. -1.
</event>
<event>
 5   0  0.5875298E-04  0.1400949E+04  0.7818609E-02  0.8953132E-01
       -1   -1    0    0    0  501  0.00000000000E+00  0.00000000000E+00  0.45789981088E+03  0.45789981091E+03  0.50400001928E-02 0.  1.
        1   -1    0    0  501    0  0.00000000000E+00  0.00000000000E+00 -0.10715537627E+04  0.10715537627E+04  0.50400001928E-02 0. -1.
    10030    2    1    2    0    0  0.00000000000E+00  0.00000000000E+00 -0.61365395185E+03  0.15294535737E+04  0.14009486291E+04 0.  0.
        1    1    3    3  502    0  0.68646924693E+01 -0.43347463976E+03 -0.90749208515E+03  0.10057282297E+04  0.50400001928E-02 0. -1.
       -1    1    3    3    0  502 -0.68646924693E+01  0.43347463976E+03  0.29383813330E+03  0.52372534398E+03  0.50400001928E-02 0.  1.
</event>
<event>
 5   0  0.6114266E-04  0.1198454E+04  0.7818609E-02  0.9114211E-01
       -1   -1    0    0    0  501  0.00000000000E+00  0.00000000000E+00  0.29847559697E+03  0.29847559701E+03  0.50400001928E-02 0.  1.
        1   -1    0    0  501    0  0.00000000000E+00  0.00000000000E+00 -0.12030223437E+04  0.12030223437E+04  0.50400001928E-02 0. -1.
    10030    2    1    2    0    0  0.00000000000E+00  0.00000000000E+00 -0.90454674673E+03  0.15014979407E+04  0.11984536908E+04 0.  0.
        3    1    3    3  502    0 -0.39487315865E+03  0.28707405248E+03 -0.88760752342E+03  0.10130071317E+04  0.10100000352E+00 0. -1.
       -3    1    3    3    0  502  0.39487315865E+03 -0.28707405248E+03 -0.16939223313E+02  0.48849080904E+03  0.10100000352E+00 0.  1.
</event>
<event>
 5   0  0.6153318E-04  0.1401055E+04  0.7818609E-02  0.8953055E-01
        1   -1    0    0  501    0  0.00000000000E+00  0.00000000000E+00  0.54842826143E+03  0.54842826145E+03  0.50400001928E-02 0. -1.
       -1   -1    0    0    0  501  0.00000000000E+00  0.00000000000E+00 -0.89480965167E+03  0.89480965168E+03  0.50400001928E-02 0.  1.
    10030    2    1    2    0    0  0.00000000000E+00  0.00000000000E+00 -0.34638139024E+03  0.14432379131E+04  0.14010551761E+04 0.  0.
        5    1    3    3  502    0 -0.33249066808E+03  0.27554468991E+03 -0.74137887670E+03  0.85798580951E+03  0.46999998093E+01 0.  1.
       -5    1    3    3    0  502  0.33249066808E+03 -0.27554468991E+03  0.39499748646E+03  0.58525210363E+03  0.46999998093E+01 0. -1.
</event>
<event>
 5   0  0.6114266E-04  0.1398434E+04  0.7818609E-02  0.8954953E-01
        1   -1    0    0  501    0  0.00000000000E+00  0.00000000000E+00  0.12031524493E+04  0.12031524493E+04  0.50400001928E-02 0. -1.
       -1   -1    0    0    0  501  0.00000000000E+00  0.00000000000E+00 -0.40635287662E+03  0.40635287665E+03  0.50400001928E-02 0.  1.
    10030    2    1    2    0    0  0.00000000000E+00  0.00000000000E+00  0.79679957271E+03  0.16095053260E+04  0.13984340654E+04 0.  0.
        3    1    3    3  502    0  0.20748495968E+03 -0.22722441145E+03  0.11210392618E+04  0.11625016036E+04  0.10100000352E+00 0. -1.
       -3    1    3    3    0  502 -0.20748495968E+03  0.22722441145E+03 -0.32423968910E+03  0.44700372240E+03  0.10100000352E+00 0.  1.
</event>
<event>
 5   0  0.1098949E-03  0.1398145E+04  0.7818609E-02  0.8955162E-01
        2   -1    0    0  501    0  0.00000000000E+00  0.00000000000E+00  0.42708819129E+03  0.42708819130E+03  0.25500000920E-02 0. -1.
       -2   -1    0    0    0  501  0.00000000000E+00  0.00000000000E+00 -0.11442661536E+04  0.11442661536E+04  0.25500000920E-02 0.  1.
    10030    2    1    2    0    0  0.00000000000E+00  0.00000000000E+00 -0.71717796229E+03  0.15713543449E+04  0.13981452884E+04 0.  0.
        4    1    3    3  502    0 -0.41737160131E+03  0.45748452523E+03  0.59550017229E+01  0.61929655202E+03  0.12699999809E+01 0. -1.
       -4    1    3    3    0  502  0.41737160131E+03 -0.45748452523E+03 -0.72313296401E+03  0.95205779286E+03  0.12699999809E+01 0.  1.
</event>
<event>
 5   0  0.1175146E-03  0.1394716E+04  0.7818609E-02  0.8957652E-01
        2   -1    0    0  501    0  0.00000000000E+00  0.00000000000E+00  0.93715293652E+03  0.93715293653E+03  0.25500000920E-02 0.  1.
       -2   -1    0    0    0  501  0.00000000000E+00  0.00000000000E+00 -0.51892085532E+03  0.51892085532E+03  0.25500000920E-02 0. -1.
    10030    2    1    2    0    0  0.00000000000E+00  0.00000000000E+00  0.41823208120E+03  0.14560737918E+04  0.13947160333E+04 0.  0.
        1    1    3    3  502    0 -0.43013871442E+03 -0.49486442889E+03 -0.38814357132E+02  0.65682316567E+03  0.50400001928E-02 0. -1.
       -1    1    3    3    0  502  0.43013871442E+03  0.49486442889E+03  0.45704643834E+03  0.79925062618E+03  0.50400001928E-02 0.  1.
</event>
<event>
 5   0  0.6097538E-04  0.1391755E+04  0.7818609E-02  0.8959808E-01
        1   -1    0    0  501    0  0.00000000000E+00  0.00000000000E+00  0.11795086788E+04  0.11795086788E+04  0.50400001928E-02 0.  1.
       -1   -1    0    0    0  501  0.00000000000E+00  0.00000000000E+00 -0.41054868166E+03  0.41054868169E+03  0.50400001928E-02 0. -1.
    10030    2    1    2    0    0  0.00000000000E+00  0.00000000000E+00  0.76895999709E+03  0.15900573605E+04  0.13917553422E+04 0.  0.
        2    1    3    3  502    0  0.65399384201E+03  0.13850324382E+03  0.16366825482E+03  0.68824297423E+03  0.25500000920E-02 0. -1.
       -2    1    3    3    0  502 -0.65399384201E+03 -0.13850324382E+03  0.60529174227E+03  0.90181438622E+03  0.25500000920E-02 0.  1.
</event>
<event>
 5   0  0.1095119E-03  0.1397648E+04  0.7818609E-02  0.8955523E-01
       -2   -1    0    0    0  501  0.00000000000E+00  0.00000000000E+00  0.58179120977E+03  0.58179120978E+03  0.25500000920E-02 0. -1.
        2   -1    0    0  501    0  0.00000000000E+00  0.00000000000E+00 -0.83939868163E+03  0.83939868164E+03  0.25500000920E-02 0.  1.
    10030    2    1    2    0    0  0.00000000000E+00  0.00000000000E+00 -0.25760747186E+03  0.14211898914E+04  0.13976477016E+04 0.  0.
        5    1    3    3  502    0 -0.25225208597E+03  0.38450598050E+03  0.40623094052E+03  0.61361358439E+03  0.46999998093E+01 0. -1.
       -5    1    3    3    0  502  0.25225208597E+03 -0.38450598050E+03 -0.66383841238E+03  0.80757630702E+03  0.46999998093E+01 0.  1.
</event>
<event>
 5   0  0.6097538E-04  0.1402026E+04  0.7818609E-02  0.8952353E-01
       -1   -1    0    0    0  501  0.00000000000E+00  0.00000000000E+00  0.64313247834E+03  0.64313247836E+03  0.50400001928E-02 0.  1.
        1   -1    0    0  501    0  0.00000000000E+00  0.00000000000E+00 -0.76410302264E+03  0.76410302266E+03  0.50400001928E-02 0. -1.
    10030    2    1    2    0    0  0.00000000000E+00  0.00000000000E+00 -0.12097054431E+03  0.14072355010E+04  0.14020263488E+04 0.  0.
        2    1    3    3  502    0  0.76139523440E+02 -0.62383217454E+03 -0.37221230763E+03  0.73041482117E+03  0.25500000920E-02 0. -1.
       -2    1    3    3    0  502 -0.76139523440E+02  0.62383217454E+03  0.25124176332E+03  0.67682067985E+03  0.25500000920E-02 0.  1.
</event>
<event>
 5   0  0.1120053E-03  0.1415481E+04  0.7818609E-02  0.8942688E-01
        2   -1    0    0  501    0  0.00000000000E+00  0.00000000000E+00  0.29497243368E+03  0.29497243369E+03  0.25500000920E-02 0. -1.
       -2   -1    0    0    0  501  0.00000000000E+00  0.00000000000E+00 -0.16981124890E+04  0.16981124890E+04  0.25500000920E-02 0.  1.
    10030    2    1    2    0    0  0.00000000000E+00  0.00000000000E+00 -0.14031400553E+04  0.19930849227E+04  0.14154806584E+04 0.  0.
        2    1    3    3  502    0 -0.56551586502E+03  0.27551250289E+03 -0.11582275292E+04  0.13180312372E+04  0.25500000920E-02 0.  1.
       -2    1    3    3    0  502  0.56551586502E+03 -0.27551250289E+03 -0.24491252611E+03  0.67505368549E+03  0.25500000920E-02 0. -1.
</event>
<event>
 5   0  0.1108819E-03  0.1412365E+04  0.7818609E-02  0.8944917E-01
        2   -1    0    0  501    0  0.00000000000E+00  0.00000000000E+00  0.10472048870E+04  0.10472048870E+04  0.25500000920E-02 0. -1.
       -2   -1    0    0    0  501  0.00000000000E+00  0.00000000000E+00 -0.47621402187E+03  0.47621402188E+03  0.25500000920E-02 0.  1.
    10030    2    1    2    0    0  0.00000000000E+00  0.00000000000E+00  0.57099086509E+03  0.15234189088E+04  0.14123648975E+04 0.  0.
        3    1    3    3  502    0  0.16355729534E+03 -0.59372077796E+03 -0.87277366371E+02  0.62199091627E+03  0.10100000352E+00 0.  1.
       -3    1    3    3    0  502 -0.16355729534E+03  0.59372077796E+03  0.65826823146E+03  0.90142799257E+03  0.10100000352E+00 0. -1.
</event>
<event>
 5   0  0.4176125E-04  0.1394620E+04  0.7818609E-02  0.8957722E-01
       -3   -1    0    0    0  501  0.00000000000E+00  0.00000000000E+00  0.80879723060E+03  0.80879723690E+03  0.10100000352E+00 0. -1.
        3   -1    0    0  501    0  0.00000000000E+00  0.00000000000E+00 -0.60119094648E+03  0.60119095497E+03  0.10100000352E+00 0.  1.
    10030    2    1    2    0    0  0.00000000000E+00  0.00000000000E+00  0.20760628412E+03  0.14099881919E+04  0.13946204975E+04 0.  0.
        3    1    3    3  502    0 -0.15961392261E+03 -0.41203337933E+03 -0.44157916907E+03  0.62469215037E+03  0.10100000352E+00 0.  1.
       -3    1    3    3    0  502  0.15961392261E+03  0.41203337933E+03  0.64918545318E+03  0.78529604150E+03  0.10100000352E+00 0. -1.
</event>
<event>
 5   0  0.1175146E-03  0.1567532E+04  0.7818609E-02  0.8840746E-01
       -2   -1    0    0    0  501  0.00000000000E+00  0.00000000000E+00  0.52016422415E+03  0.52016422415E+03  0.25500000920E-02 0.  1.
        2   -1    0    0  501    0  0.00000000000E+00  0.00000000000E+00 -0.11809525517E+04  0.11809525517E+04  0.25500000920E-02 0. -1.
    10030    2    1    2    0    0  0.00000000000E+00  0.00000000000E+00 -0.66078832755E+03  0.17011167758E+04  0.15675321596E+04 0.  0.
        1    1    3    3  502    0 -0.78496259526E+02 -0.38817140692E+03 -0.10643835020E+04  0.11356720228E+04  0.50400001928E-02 0. -1.
       -1    1    3    3    0  502  0.78496259526E+02  0.38817140692E+03  0.40359517447E+03  0.56544475308E+03  0.50400001928E-02 0.  1.
</event>
<event>
 5   0  0.1098949E-03  0.1460232E+04  0.7818609E-02  0.8911337E-01
        2   -1    0    0  501    0  0.00000000000E+00  0.00000000000E+00  0.85817239390E+03  0.85817239390E+03  0.25500000920E-02 0.  1.
       -2   -1    0    0    0  501  0.00000000000E+00  0.00000000000E+00 -0.62116850129E+03  0.62116850130E+03  0.25500000920E-02 0. -1.
    10030    2    1    2    0    0  0.00000000000E+00  0.00000000000E+00  0.23700389261E+03  0.14793408952E+04  0.14602323922E+04 0.  0.
        4    1    3    3  502    0 -0.71319406297E+03  0.12059908785E+03  0.21919135097E+03  0.75580180781E+03  0.12699999809E+01 0.  1.
       -4    1    3    3    0  502  0.71319406297E+03 -0.12059908785E+03  0.17812541639E+02  0.72353908739E+03  0.12699999809E+01 0. -1.
</event>
<event>
 5   0  0.6153318E-04  0.1417408E+04  0.7818609E-02  0.8941313E-01
        1   -1    0    0  501    0  0.00000000000E+00  0.00000000000E+00  0.62579210848E+03  0.62579210850E+03  0.50400001928E-02 0. -1.
       -1   -1    0    0    0  501  0.00000000000E+00  0.00000000000E+00 -0.80260122991E+03  0.80260122993E+03  0.50400001928E-02 0.  1.
    10030    2    1    2    0    0  0.00000000000E+00  0.00000000000E+00 -0.17680912143E+03  0.14283933384E+04  0.14174082206E+04 0.  0.
        5    1    3    3  502    0 -0.63812680219E+03 -0.30289070310E+03 -0.30594191606E+02  0.70704079674E+03  0.46999998093E+01 0.  1.
       -5    1    3    3    0  502  0.63812680219E+03  0.30289070310E+03 -0.14621492982E+03  0.72135254169E+03  0.46999998093E+01 0. -1.
</event>
<event>
 5   0  0.6194742E-04  0.1392855E+04  0.7818609E-02  0.8959007E-01
        1   -1    0    0  501    0  0.00000000000E+00  0.00000000000E+00  0.53765981068E+03  0.53765981070E+03  0.50400001928E-02 0. -1.
       -1   -1    0    0    0  501  0.00000000000E+00  0.00000000000E+00 -0.90207821787E+03  0.90207821788E+03  0.50400001928E-02 0.  1.
    10030    2    1    2    0    0  0.00000000000E+00  0.00000000000E+00 -0.36441840719E+03  0.14397380286E+04  0.13928549154E+04 0.  0.
        4    1    3    3  502    0  0.69023560416E+03  0.92436637253E+02 -0.17568241294E+03  0.71821698968E+03  0.12699999809E+01 0. -1.
       -4    1    3    3    0  502 -0.69023560416E+03 -0.92436637253E+02 -0.18873599426E+03  0.72152103890E+03  0.12699999809E+01 0.  1.
</event>
<event>
 5   0  0.6153318E-04  0.1416067E+04  0.7818609E-02  0.8942270E-01
       -1   -1    0    0    0  501  0.00000000000E+00  0.00000000000E+00  0.76276579136E+03  0.76276579138E+03  0.50400001928E-02 0. -1.
        1   -1    0    0  501    0  0.00000000000E+00  0.00000000000E+00 -0.65722808392E+03  0.65722808394E+03  0.50400001928E-02 0.  1.
    10030    2    1    2    0    0  0.00000000000E+00  0.00000000000E+00  0.10553770744E+03  0.14199938753E+04  0.14160665232E+04 0.  0.
        5    1    3    3  502    0  0.46535172929E+03  0.23057022858E+03 -0.42978729314E+03  0.67413208617E+03  0.46999998093E+01 0.  1.
       -5    1    3    3    0  502 -0.46535172929E+03 -0.23057022858E+03  0.53532500058E+03  0.74586178915E+03  0.46999998093E+01 0. -1.
</event>
<event>
 5   0  0.1108819E-03  0.1397953E+04  0.7818609E-02  0.8955301E-01
        2   -1    0    0  501    0  0.00000000000E+00  0.00000000000E+00  0.82991360060E+03  0.82991360060E+03  0.25500000920E-02 0.  1.
       -2   -1    0    0    0  501  0.00000000000E+00  0.00000000000E+00 -0.58869775262E+03  0.58869775262E+03  0.25500000920E-02 0. -1.
    10030    2    1    2    0    0  0.00000000000E+00  0.00000000000E+00  0.24121584798E+03  0.14186113532E+04  0.13979531774E+04 0.  0.
        3    1    3    3  502    0  0.30510086291E+03 -0.50131355397E+03  0.50591137688E+03  0.77482136483E+03  0.10100000352E+00 0.  1.
       -3    1    3    3    0  502 -0.30510086291E+03  0.50131355397E+03 -0.26469552890E+03  0.64378998839E+03  0.10100000352E+00 0. -1.
</event>
<event>
 5   0  0.1120053E-03  0.1402485E+04  0.7818609E-02  0.8952022E-01
       -2   -1    0    0    0  501  0.00000000000E+00  0.00000000000E+00  0.39230199786E+03  0.39230199787E+03  0.25500000920E-02 0. -1.
        2   -1    0    0  501    0  0.00000000000E+00  0.00000000000E+00 -0.12534758151E+04  0.12534758151E+04  0.25500000920E-02 0.  1.
    10030    2    1    2    0    0  0.00000000000E+00  0.00000000000E+00 -0.86117381728E+03  0.16457778130E+04  0.14024850325E+04 0.  0.
        2    1    3    3  502    0 -0.11860615430E+03 -0.46677306968E+03 -0.10287087427E+04  0.11358636343E+04  0.25500000920E-02 0.  1.
       -2    1    3    3    0  502  0.11860615430E+03  0.46677306968E+03  0.16753492541E+03  0.50991417872E+03  0.25500000920E-02 0. -1.
</event>
<event>
 5   0  0.1095119E-03  0.1408092E+04  0.7818609E-02  0.8947982E-01
        2   -1    0    0  501    0  0.00000000000E+00  0.00000000000E+00  0.17654466732E+04  0.17654466732E+04  0.25500000920E-02 0.  1.
       -2   -1    0    0    0  501  0.00000000000E+00  0.00000000000E+00 -0.28076806494E+03  0.28076806495E+03  0.25500000920E-02 0. -1.
    10030    2    1    2    0    0  0.00000000000E+00  0.00000000000E+00  0.14846786083E+04  0.20462147382E+04  0.14080923921E+04 0.  0.
        5    1    3    3  502    0 -0.49679823969E+03  0.29108524175E+03  0.13310482137E+04  0.14502587859E+04  0.46999998093E+01 0.  1.
       -5    1    3    3    0  502  0.49679823969E+03 -0.29108524175E+03  0.15363039461E+03  0.59595595229E+03  0.46999998093E+01 0. -1.
</event>
<event>
 5   0  0.6194742E-04  0.1389962E+04  0.7818609E-02  0.8961116E-01
       -1   -1    0    0    0  501  0.00000000000E+00  0.00000000000E+00  0.61036414328E+03  0.61036414330E+03  0.50400001928E-02 0.  1.
        1   -1    0    0  501    0  0.00000000000E+00  0.00000000000E+00 -0.79132912338E+03  0.79132912340E+03  0.50400001928E-02 0. -1.
    10030    2    1    2    0    0  0.00000000000E+00  0.00000000000E+00 -0.18096498010E+03  0.14016932667E+04  0.13899624779E+04 0.  0.
        4    1    3    3  502    0  0.11988818127E+03  0.55226342236E+03  0.31744255950E+03  0.64818165291E+03  0.12699999809E+01 0.  1.
       -4    1    3    3    0  502 -0.11988818127E+03 -0.55226342236E+03 -0.49840753960E+03  0.75351161379E+03  0.12699999809E+01 0. -1.
</event>
<event>
 5   0  0.5875298E-04  0.1406309E+04  0.7818609E-02  0.8949265E-01
        1   -1    0    0  501    0  0.00000000000E+00  0.00000000000E+00  0.41396099415E+03  0.41396099418E+03  0.50400001928E-02 0.  1.
       -1   -1    0    0    0  501  0.00000000000E+00  0.00000000000E+00 -0.11943782861E+04  0.11943782861E+04  0.50400001928E-02 0. -1.
    10030    2    1    2    0    0  0.00000000000E+00  0.00000000000E+00 -0.78041729198E+03  0.16083392803E+04  0.14063086756E+04 0.  0.
        1    1    3    3  502    0 -0.49666836978E+02 -0.65108949558E+03 -0.68853016414E+03  0.94892471403E+03  0.50400001928E-02 0. -1.
       -1    1    3    3    0  502  0.49666836978E+02  0.65108949558E+03 -0.91887127845E+02  0.65941456630E+03  0.50400001928E-02 0.  1.
</event>
<event>
 5   0  0.1120053E-03  0.1405424E+04  0.7818609E-02  0.8949901E-01
       -2   -1    0    0    0  501  0.00000000000E+00  0.00000000000E+00  0.15507131990E+04  0.15507131990E+04  0.25500000920E-02 0.  1.
        2   -1    0    0  501    0  0.00000000000E+00  0.00000000000E+00 -0.31843694499E+03  0.31843694500E+03  0.25500000920E-02 0. -1.
    10030    2    1    2    0    0  0.00000000000E+00  0.00000000000E+00  0.12322762541E+04  0.18691501440E+04  0.14054243113E+04 0.  0.
        2    1    3    3  502    0  0.14174708848E+03 -0.34146811373E+03 -0.17862689323E+03  0.41060964039E+03  0.25500000920E-02 0. -1.
       -2    1    3    3    0  502 -0.14174708848E+03  0.34146811373E+03  0.14109031473E+04  0.14585405037E+04  0.25500000920E-02 0.  1.
</event>
<event>
 5   0  0.4176125E-04  0.1321312E+04  0.7818609E-02  0.9012833E-01
       -3   -1    0    0    0  501  0.00000000000E+00  0.00000000000E+00  0.72555145896E+03  0.72555146599E+03  0.10100000352E+00 0. -1.
        3   -1    0    0  501    0  0.00000000000E+00  0.00000000000E+00 -0.60156488249E+03  0.60156489097E+03  0.10100000352E+00 0.  1.
    10030    2    1    2    0    0  0.00000000000E+00  0.00000000000E+00  0.12398657647E+03  0.13271163570E+04  0.13213119063E+04 0.  0.
        1    1    3    3  502    0 -0.13179140548E+03  0.54035824241E+03 -0.29609819963E+03  0.63010328403E+03  0.50400001928E-02 0.  1.
       -1    1    3    3    0  502  0.13179140548E+03 -0.54035824241E+03  0.42008477610E+03  0.69701307293E+03  0.50400001928E-02 0. -1.
</event>
<event>
 5   0  0.6194742E-04  0.1400476E+04  0.7818609E-02  0.8953474E-01
       -1   -1    0    0    0  501  0.00000000000E+00  0.00000000000E+00  0.11693490007E+04  0.11693490007E+04  0.50400001928E-02 0. -1.
        1   -1    0    0  501    0  0.00000000000E+00  0.00000000000E+00 -0.41932144652E+03  0.41932144655E+03  0.50400001928E-02 0.  1.
    10030    2    1    2    0    0  0.00000000000E+00  0.00000000000E+00  0.75002755415E+03  0.15886704472E+04  0.14004757970E+04 0.  0.
        4    1    3    3  502    0  0.66659527448E+03 -0.20995191936E+03  0.42449186573E+03  0.81769433493E+03  0.12699999809E+01 0. -1.
       -4    1    3    3    0  502 -0.66659527448E+03  0.20995191936E+03  0.32553568841E+03  0.77097611230E+03  0.12699999809E+01 0.  1.
</event>
<event>
 5   0  0.1098949E-03  0.1380768E+04  0.7818609E-02  0.8967858E-01
       -2   -1    0    0    0  501  0.00000000000E+00  0.00000000000E+00  0.55344718405E+03  0.55344718406E+03  0.25500000920E-02 0. -1.
        2   -1    0    0  501    0  0.00000000000E+00  0.00000000000E+00 -0.86120275526E+03  0.86120275526E+03  0.25500000920E-02 0.  1.
    10030    2    1    2    0    0  0.00000000000E+00  0.00000000000E+00 -0.30775557120E+03  0.14146499393E+04  0.13807682496E+04 0.  0.
        4    1    3    3  502    0 -0.64204189284E+03 -0.17128967850E+03  0.37989217204E+02  0.66558450977E+03  0.12699999809E+01 0.  1.
       -4    1    3    3    0  502  0.64204189284E+03  0.17128967850E+03 -0.34574478841E+03  0.74906542954E+03  0.12699999809E+01 0. -1.
</event>
<event>
 5   0  0.6153318E-04  0.1409923E+04  0.7818609E-02  0.8946667E-01
       -1   -1    0    0    0  501  0.00000000000E+00  0.00000000000E+00  0.81420981945E+03  0.81420981946E+03  0.50400001928E-02 0. -1.
        1   -1    0    0  501    0  0.00000000000E+00  0.00000000000E+00 -0.61037172686E+03  0.61037172688E+03  0.50400001928E-02 0.  1.
    10030    2    1    2    0    0  0.00000000000E+00  0.00000000000E+00  0.20383809259E+03  0.14245815463E+04  0.14099229107E+04 0.  0.
        5    1    3    3  502    0 -0.44283556579E+03 -0.50402388495E+03 -0.11667521731E+03  0.68101293032E+03  0.46999998093E+01 0.  1.
       -5    1    3    3    0  502  0.44283556579E+03  0.50402388495E+03  0.32051330990E+03  0.74356861603E+03  0.46999998093E+01 0. -1.
</event>
<event>
 5   0  0.1095119E-03  0.1411246E+04  0.7818609E-02  0.8945718E-01
       -2   -1    0    0    0  501  0.00000000000E+00  0.00000000000E+00  0.41914425230E+03  0.41914425230E+03  0.25500000920E-02 0.  1.
        2   -1    0    0  501    0  0.00000000000E+00  0.00000000000E+00 -0.11879051485E+04  0.11879051485E+04  0.25500000920E-02 0. -1.
    10030    2    1    2    0    0  0.00000000000E+00  0.00000000000E+00 -0.76876089618E+03  0.16070494008E+04  0.14112457125E+04 0.  0.
        5    1    3    3  502    0 -0.36510168805E+03  0.59277800212E+03 -0.51519508761E+03  0.86610222878E+03  0.46999998093E+01 0.  1.
       -5    1    3    3    0  502  0.36510168805E+03 -0.59277800212E+03 -0.25356580857E+03  0.74094717199E+03  0.46999998093E+01 0. -1.
</event>
<event>
 5   0  0.1175146E-03  0.1409052E+04  0.7818609E-02  0.8947292E-01
       -2   -1    0    0    0  501  0.00000000000E+00  0.00000000000E+00  0.51094308547E+03  0.51094308548E+03  0.25500000920E-02 0.  1.
        2   -1    0    0  501    0  0.00000000000E+00  0.00000000000E+00 -0.97145275604E+03  0.97145275604E+03  0.25500000920E-02 0. -1.
    10030    2    1    2    0    0  0.00000000000E+00  0.00000000000E+00 -0.46050967057E+03  0.14823958415E+04  0.14090522610E+04 0.  0.
        1    1    3    3  502    0  0.64854641719E+03  0.24059772545E+03 -0.37084196539E+03  0.78487163540E+03  0.50400001928E-02 0. -1.
       -1    1    3    3    0  502 -0.64854641719E+03 -0.24059772545E+03 -0.89667705183E+02  0.69752420612E+03  0.50400001928E-02 0.  1.
</event>
<event>
 5   0  0.6114266E-04  0.1423252E+04  0.7818609E-02  0.8937158E-01
       -1   -1    0    0    0  501  0.00000000000E+00  0.00000000000E+00  0.57018734372E+03  0.57018734374E+03  0.50400001928E-02 0.  1.
        1   -1    0    0  501    0  0.00000000000E+00  0.00000000000E+00 -0.88814882563E+03  0.88814882564E+03  0.50400001928E-02 0. -1.
    10030    2    1    2    0    0  0.00000000000E+00  0.00000000000E+00 -0.31796148191E+03  0.14583361694E+04  0.14232515164E+04 0.  0.
        3    1    3    3  502    0 -0.57377952135E+03 -0.28505662130E+03 -0.47634313395E+03  0.79836270449E+03  0.10100000352E+00 0.  1.
       -3    1    3    3    0  502  0.57377952135E+03  0.28505662130E+03  0.15838165204E+03  0.65997346490E+03  0.10100000352E+00 0. -1.
</event>
<event>
 5   0  0.6194742E-04  0.1408577E+04  0.7818609E-02  0.8947634E-01
        1   -1    0    0  501    0  0.00000000000E+00  0.00000000000E+00  0.17709219494E+04  0.17709219494E+04  0.50400001928E-02 0. -1.
       -1   -1    0    0    0  501  0.00000000000E+00  0.00000000000E+00 -0.28009255966E+03  0.28009255970E+03  0.50400001928E-02 0.  1.
    10030    2    1    2    0    0  0.00000000000E+00  0.00000000000E+00  0.14908293897E+04  0.20510145091E+04  0.14085766742E+04 0.  0.
        4    1    3    3  502    0  0.93786645693E+02  0.52568389036E+03  0.14140771318E+04  0.15115406825E+04  0.12699999809E+01 0. -1.
       -4    1    3    3    0  502 -0.93786645693E+02 -0.52568389036E+03  0.76752257924E+02  0.53947382652E+03  0.12699999809E+01 0.  1.
</event>
<event>
 5   0  0.6194742E-04  0.1394080E+04  0.7818609E-02  0.8958115E-01
        1   -1    0    0  501    0  0.00000000000E+00  0.00000000000E+00  0.17390313195E+04  0.17390313195E+04  0.50400001928E-02 0. -1.
       -1   -1    0    0    0  501  0.00000000000E+00  0.00000000000E+00 -0.27938816310E+03  0.27938816314E+03  0.50400001928E-02 0.  1.
    10030    2    1    2    0    0  0.00000000000E+00  0.00000000000E+00  0.14596431564E+04  0.20184194827E+04  0.13940800063E+04 0.  0.
        4    1    3    3  502    0  0.66740188511E+03 -0.20868556810E+01  0.43868651295E+03  0.79867208588E+03  0.12699999809E+01 0.  1.
       -4    1    3    3    0  502 -0.66740188511E+03  0.20868556810E+01  0.10209566435E+04  0.12197473968E+04  0.12699999809E+01 0. -1.
</event>
<event>
 5   0  0.6194742E-04  0.1403336E+04  0.7818609E-02  0.8951407E-01
        1   -1    0    0  501    0  0.00000000000E+00  0.00000000000E+00  0.31310462655E+03  0.31310462659E+03  0.50400001928E-02 0.  1.
       -1   -1    0    0    0  501  0.00000000000E+00  0.00000000000E+00 -0.15724398633E+04  0.15724398633E+04  0.50400001928E-02 0. -1.
    10030    2    1    2    0    0  0.00000000000E+00  0.00000000000E+00 -0.12593352367E+04  0.18855444898E+04  0.14033363049E+04 0.  0.
        4    1    3    3  502    0 -0.24600465390E+03  0.17814435753E+02 -0.15122716281E+04  0.15322541349E+04  0.12699999809E+01 0. -1.
       -4    1    3    3    0  502  0.24600465390E+03 -0.17814435753E+02  0.25293639143E+03  0.35329035491E+03  0.12699999809E+01 0.  1.
</event>
<event>
 5   0  0.6114266E-04  0.1404369E+04  0.7818609E-02  0.8950662E-01
       -1   -1    0    0    0  501  0.00000000000E+00  0.00000000000E+00  0.95933892472E+03  0.95933892473E+03  0.50400001928E-02 0. -1.
        1   -1    0    0  501    0  0.00000000000E+00  0.00000000000E+00 -0.51396103321E+03  0.51396103324E+03  0.50400001928E-02 0.  1.
    10030    2    1    2    0    0  0.00000000000E+00  0.00000000000E+00  0.44537789151E+03  0.14732999580E+04  0.14043686482E+04 0.  0.
        3    1    3    3  502    0 -0.39982549406E+03  0.27774009776E+03 -0.30817510799E+03  0.57617002264E+03  0.10100000352E+00 0.  1.
       -3    1    3    3    0  502  0.39982549406E+03 -0.27774009776E+03  0.75355299950E+03  0.89712993533E+03  0.10100000352E+00 0. -1.
</event>
<event>
 5   0  0.1095119E-03  0.1402716E+04  0.7818609E-02  0.8951855E-01
       -2   -1    0    0    0  501  0.00000000000E+00  0.00000000000E+00  0.46334527252E+03  0.46334527252E+03  0.25500000920E-02 0. -1.
        2   -1    0    0  501    0  0.00000000000E+00  0.00000000000E+00 -0.10616335350E+04  0.10616335351E+04  0.25500000920E-02 0.  1.
    10030    2    1    2    0    0  0.00000000000E+00  0.00000000000E+00 -0.59828826253E+03  0.15249788076E+04  0.14027157654E+04 0.  0.
        5    1    3    3  502    0 -0.42270350422E+03 -0.73422568164E+02  0.30402160987E+03  0.52585202791E+03  0.46999998093E+01 0. -1.
       -5    1    3    3    0  502  0.42270350422E+03  0.73422568164E+02 -0.90230987241E+03  0.99912677966E+03  0.46999998093E+01 0.  1.
</event>
<event>
 5   0  0.1120053E-03  0.1397393E+04  0.7818609E-02  0.8955708E-01
        2   -1    0    0  501    0  0.00000000000E+00  0.00000000000E+00  0.15608006708E+04  0.15608006708E+04  0.25500000920E-02 0.  1.
       -2   -1    0    0    0  501  0.00000000000E+00  0.00000000000E+00 -0.31277341433E+03  0.31277341434E+03  0.25500000920E-02 0. -1.
    10030    2    1    2    0    0  0.00000000000E+00  0.00000000000E+00  0.12480272564E+04  0.18735740851E+04  0.13973932230E+04 0.  0.
        2    1    3    3  502    0  0.40996460048E+03  0.15085091470E+03 -0.10710221788E+03  0.44977534080E+03  0.25500000920E-02 0. -1.
       -2    1    3    3    0  502 -0.40996460048E+03 -0.15085091470E+03  0.13551294743E+04  0.14237987443E+04  0.25500000920E-02 0.  1.
</event>
<event>
 5   0  0.6097538E-04  0.1403788E+04  0.7818609E-02  0.8951081E-01
        1   -1    0    0  501    0  0.00000000000E+00  0.00000000000E+00  0.84689859855E+03  0.84689859857E+03  0.50400001928E-02 0. -1.
       -1   -1    0    0    0  501  0.00000000000E+00  0.00000000000E+00 -0.58171665339E+03  0.58171665341E+03  0.50400001928E-02 0.  1.
    10030    2    1    2    0    0  0.00000000000E+00  0.00000000000E+00  0.26518194516E+03  0.14286152520E+04  0.14037877597E+04 0.  0.
        2    1    3    3  502    0  0.51013022469E+03  0.91206685934E+02 -0.34917726402E+03  0.62488100261E+03  0.25500000920E-02 0.  1.
       -2    1    3    3    0  502 -0.51013022469E+03 -0.91206685934E+02  0.61435920918E+03  0.80373424937E+03  0.25500000920E-02 0. -1.
</event>
<event>
 5   0  0.5875298E-04  0.1383550E+04  0.7818609E-02  0.8965813E-01
        1   -1    0    0  501    0  0.00000000000E+00  0.00000000000E+00  0.88947868510E+03  0.88947868511E+03  0.50400001928E-02 0.  1.
       -1   -1    0    0    0  501  0.00000000000E+00  0.00000000000E+00 -0.53801466442E+03  0.53801466444E+03  0.50400001928E-02 0. -1.
    10030    2    1    2    0    0  0.00000000000E+00  0.00000000000E+00  0.35146402068E+03  0.14274933495E+04  0.13835498925E+04 0.  0.
        1    1    3    3  502    0  0.87912634350E+02 -0.53188059193E+03 -0.27154217880E+03  0.60362301997E+03  0.50400001928E-02 0. -1.
       -1    1    3    3    0  502 -0.87912634350E+02  0.53188059193E+03  0.62300619948E+03  0.82387032958E+03  0.50400001928E-02 0.  1.
</event>
<event>
 5   0  0.6114266E-04  0.1392961E+04  0.7818609E-02  0.8958929E-01
       -1   -1    0    0    0  501  0.00000000000E+00  0.00000000000E+00  0.27436890806E+03  0.27436890810E+03  0.50400001928E-02 0.  1.
        1   -1    0    0  501    0  0.00000000000E+00  0.00000000000E+00 -0.17680037904E+04  0.17680037904E+04  0.50400001928E-02 0. -1.
    10030    2    1    2    0    0  0.00000000000E+00  0.00000000000E+00 -0.14936348823E+04  0.20423726985E+04  0.13929612621E+04 0.  0.
        3    1    3    3  502    0 -0.39365846977E+03 -0.10011513955E+03 -0.15763540497E+04  0.16278458564E+04  0.10100000352E+00 0. -1.
       -3    1    3    3    0  502  0.39365846977E+03  0.10011513955E+03  0.82719167343E+02  0.41452684212E+03  0.10100000352E+00 0.  1.
</event>
<event>
 5   0  0.5875298E-04  0.1322515E+04  0.7818609E-02  0.9011899E-01
        1   -1    0    0  501    0  0.00000000000E+00  0.00000000000E+00  0.12206275937E+04  0.12206275937E+04  0.50400001928E-02 0. -1.
       -1   -1    0    0    0  501  0.00000000000E+00  0.00000000000E+00 -0.35822679663E+03  0.35822679667E+03  0.50400001928E-02 0.  1.
    10030    2    1    2    0    0  0.00000000000E+00  0.00000000000E+00  0.86240079707E+03  0.15788543904E+04  0.13225150476E+04 0.  0.
        1    1    3    3  502    0  0.29621360733E+03  0.15918039253E+03 -0.24852731535E+03  0.41814677451E+03  0.50400001928E-02 0.  1.
       -1    1    3    3    0  502 -0.29621360733E+03 -0.15918039253E+03  0.11109281124E+04  0.11607076159E+04  0.50400001928E-02 0. -1.
</event>
<event>
 5   0  0.6194742E-04  0.1400410E+04  0.7818609E-02  0.8953522E-01
        1   -1    0    0  501    0  0.00000000000E+00  0.00000000000E+00  0.16553144085E+04  0.16553144085E+04  0.50400001928E-02 0. -1.
       -1   -1    0    0    0  501  0.00000000000E+00  0.00000000000E+00 -0.29618959051E+03  0.29618959055E+03  0.50400001928E-02 0.  1.
    10030    2    1    2    0    0  0.00000000000E+00  0.00000000000E+00  0.13591248180E+04  0.19515039991E+04  0.14004097927E+04 0.  0.
        4    1    3    3  502    0 -0.72003296358E+02  0.53590082830E+03  0.12995020329E+04  0.14075089055E+04  0.12699999809E+01 0. -1.
       -4    1    3    3    0  502  0.72003296358E+02 -0.53590082830E+03  0.59622785049E+02  0.54399509360E+03  0.12699999809E+01 0.  1.
</event>
<event>
 5   0  0.6194742E-04  0.1402827E+04  0.7818609E-02  0.8951775E-01
        1   -1    0    0  501    0  0.00000000000E+00  0.00000000000E+00  0.47803691816E+03  0.47803691819E+03  0.50400001928E-02 0.  1.
       -1   -1    0    0    0  501  0.00000000000E+00  0.00000000000E+00 -0.10291688227E+04  0.10291688227E+04  0.50400001928E-02 0. -1.
    10030    2    1    2    0    0  0.00000000000E+00  0.00000000000E+00 -0.55113190449E+03  0.15072057409E+04  0.14028267067E+04 0.  0.
        4    1    3    3  502    0  0.41116015910E+03 -0.13573824439E+02  0.33480851905E+03  0.53041048488E+03  0.12699999809E+01 0.  1.
       -4    1    3    3    0  502 -0.41116015910E+03  0.13573824439E+02 -0.88594042354E+03  0.97679525598E+03  0.12699999809E+01 0. -1.
</event>
<event>
 5   0  0.6114266E-04  0.1449441E+04  0.7818609E-02  0.8918788E-01
       -1   -1    0    0    0  501  0.00000000000E+00  0.00000000000E+00  0.27884735458E+03  0.27884735463E+03  0.50400001928E-02 0. -1.
        1   -1    0    0  501    0  0.00000000000E+00  0.00000000000E+00 -0.18835381910E+04  0.18835381910E+04  0.50400001928E-02 0.  1.
    10030    2    1    2    0    0  0.00000000000E+00  0.00000000000E+00 -0.16046908364E+04  0.21623855456E+04  0.14494407775E+04 0.  0.
        3    1    3    3  502    0  0.22100082267E+03  0.55686731221E+03 -0.19400197862E+03  0.62974546044E+03  0.10100000352E+00 0. -1.
       -3    1    3    3    0  502 -0.22100082267E+03 -0.55686731221E+03 -0.14106888578E+04  0.15326400852E+04  0.10100000352E+00 0.  1.
</event>
<event>
 5   0  0.1120053E-03  0.1426025E+04  0.7818609E-02  0.8935193E-01
        2   -1    0    0  501    0  0.00000000000E+00  0.00000000000E+00  0.13705078566E+04  0.13705078566E+04  0.25500000920E-02 0.  1.
       -2   -1    0    0    0  501  0.00000000000E+00  0.00000000000E+00 -0.37094777460E+03  0.37094777461E+03  0.25500000920E-02 0. -1.
    10030    2    1    2    0    0  0.00000000000E+00  0.00000000000E+00  0.99956008196E+03  0.17414556312E+04  0.14260250201E+04 0.  0.
        2    1    3    3  502    0  0.92671892921E+02 -0.29734753679E+03  0.12830447255E+04  0.13203057998E+04  0.25500000920E-02 0.  1.
       -2    1    3    3    0  502 -0.92671892921E+02  0.29734753679E+03 -0.28348464351E+03  0.42114983139E+03  0.25500000920E-02 0. -1.
</event>
<event>
 5   0  0.6153318E-04  0.1373214E+04  0.7818609E-02  0.8973439E-01
       -1   -1    0    0    0  501  0.00000000000E+00  0.00000000000E+00  0.94501802359E+03  0.94501802361E+03  0.50400001928E-02 0. -1.
        1   -1    0    0  501    0  0.00000000000E+00  0.00000000000E+00 -0.49885729066E+03  0.49885729069E+03  0.50400001928E-02 0.  1.
    10030    2    1    2    0    0  0.00000000000E+00  0.00000000000E+00  0.44616073293E+03  0.14438753143E+04  0.13732139395E+04 0.  0.
        5    1    3    3  502    0  0.63001564100E+03  0.21004992100E+03  0.39854036518E+02  0.66532030740E+03  0.46999998093E+01 0.  1.
       -5    1    3    3    0  502 -0.63001564100E+03 -0.21004992100E+03  0.40630669641E+03  0.77855500689E+03  0.46999998093E+01 0. -1.
</event>
<event>
 5   0  0.1175146E-03  0.1469373E+04  0.7818609E-02  0.8905079E-01
        2   -1    0    0  501    0  0.00000000000E+00  0.00000000000E+00  0.13843729443E+04  0.13843729443E+04  0.25500000920E-02 0.  1.
       -2   -1    0    0    0  501  0.00000000000E+00  0.00000000000E+00 -0.38989799830E+03  0.38989799831E+03  0.25500000920E-02 0. -1.
    10030    2    1    2    0    0  0.00000000000E+00  0.00000000000E+00  0.99447494601E+03  0.17742709426E+04  0.14693729818E+04 0.  0.
        1    1    3    3  502    0 -0.52281420813E+03 -0.22768664424E+03 -0.62121933592E+02  0.57361575889E+03  0.50400001928E-02 0. -1.
       -1    1    3    3    0  502  0.52281420813E+03  0.22768664424E+03  0.10565968796E+04  0.12006551837E+04  0.50400001928E-02 0.  1.
</event>
<event>
 5   0  0.6114266E-04  0.1417953E+04  0.7818609E-02  0.8940925E-01
       -1   -1    0    0    0  501  0.00000000000E+00  0.00000000000E+00  0.55071851660E+03  0.55071851662E+03  0.50400001928E-02 0.  1.
        1   -1    0    0  501    0  0.00000000000E+00  0.00000000000E+00 -0.91271223374E+03  0.91271223375E+03  0.50400001928E-02 0. -1.
    10030    2    1    2    0    0  0.00000000000E+00  0.00000000000E+00 -0.36199371714E+03  0.14634307504E+04  0.14179527883E+04 0.  0.
        3    1    3    3  502    0 -0.31858562715E+03 -0.34905086323E+02  0.47168820355E+03  0.57026742714E+03  0.10100000352E+00 0.  1.
       -3    1    3    3    0  502  0.31858562715E+03  0.34905086323E+02 -0.83368192069E+03  0.89316332323E+03  0.10100000352E+00 0. -1.
</event>
<event>
 5   0  0.1175146E-03  0.1397514E+04  0.7818609E-02  0.8955620E-01
       -2   -1    0    0    0  501  0.00000000000E+00  0.00000000000E+00  0.22178959436E+03  0.22178959438E+03  0.25500000920E-02 0.  1.
        2   -1    0    0  501    0  0.00000000000E+00  0.00000000000E+00 -0.22014603464E+04  0.22014603464E+04  0.25500000920E-02 0. -1.
    10030    2    1    2    0    0  0.00000000000E+00  0.00000000000E+00 -0.19796707521E+04  0.24232499408E+04  0.13975135023E+04 0.  0.
        1    1    3    3  502    0 -0.84716773921E+02  0.34212959983E+03 -0.20360279249E+04  0.20663105541E+04  0.50400001928E-02 0. -1.
       -1    1    3    3    0  502  0.84716773921E+02 -0.34212959983E+03  0.56357172819E+02  0.35693938675E+03  0.50400001928E-02 0.  1.
</event>
<event>
 5   0  0.5875298E-04  0.1392307E+04  0.7818609E-02  0.8959406E-01
        1   -1    0    0  501    0  0.00000000000E+00  0.00000000000E+00  0.49976799241E+03  0.49976799244E+03  0.50400001928E-02 0. -1.
       -1   -1    0    0    0  501  0.00000000000E+00  0.00000000000E+00 -0.96970907414E+03  0.96970907416E+03  0.50400001928E-02 0.  1.
    10030    2    1    2    0    0  0.00000000000E+00  0.00000000000E+00 -0.46994108173E+03  0.14694770666E+04  0.13923068013E+04 0.  0.
        1    1    3    3  502    0  0.34778731055E+03 -0.11752523388E+03 -0.85924542112E+03  0.93438262383E+03  0.50400001928E-02 0.  1.
       -1    1    3    3    0  502 -0.34778731055E+03  0.11752523388E+03  0.38930433939E+03  0.53509444276E+03  0.50400001928E-02 0. -1.
</event>
<event>
 5   0  0.1095119E-03  0.1396542E+04  0.7818609E-02  0.8956326E-01
        2   -1    0    0  501    0  0.00000000000E+00  0.00000000000E+00  0.16099398675E+04  0.16099398675E+04  0.25500000920E-02 0.  1.
       -2   -1    0    0    0  501  0.00000000000E+00  0.00000000000E+00 -0.30285745461E+03  0.30285745462E+03  0.25500000920E-02 0. -1.
    10030    2    1    2    0    0  0.00000000000E+00  0.00000000000E+00  0.13070824129E+04  0.19127973221E+04  0.13965418581E+04 0.  0.
        5    1    3    3  502    0 -0.11588736963E+03  0.68798163055E+03  0.69256094839E+03  0.98306223793E+03  0.46999998093E+01 0.  1.
       -5    1    3    3    0  502  0.11588736963E+03 -0.68798163055E+03  0.61452146446E+03  0.92973508414E+03  0.46999998093E+01 0. -1.
</event>
<event>
 5   0  0.6097538E-04  0.1387694E+04  0.7818609E-02  0.8962775E-01
        1   -1    0    0  501    0  0.00000000000E+00  0.00000000000E+00  0.20090759599E+04  0.20090759599E+04  0.50400001928E-02 0. -1.
       -1   -1    0    0    0  501  0.00000000000E+00  0.00000000000E+00 -0.23962446905E+03  0.23962446910E+03  0.50400001928E-02 0.  1.
    10030    2    1    2    0    0  0.00000000000E+00  0.00000000000E+00  0.17694514909E+04  0.22487004290E+04  0.13876941453E+04 0.  0.
        2    1    3    3  502    0  0.11472995773E+03 -0.47216128182E+03  0.16873426943E+04  0.17559113324E+04  0.25500000920E-02 0. -1.
       -2    1    3    3    0  502 -0.11472995773E+03  0.47216128182E+03  0.82108796558E+02  0.49278909660E+03  0.25500000920E-02 0.  1.
</event>
<event>
 5   0  0.1108819E-03  0.1400153E+04  0.7818609E-02  0.8953708E-01
        2   -1    0    0  501    0  0.00000000000E+00  0.00000000000E+00  0.11962702224E+04  0.11962702224E+04  0.25500000920E-02 0. -1.
       -2   -1    0    0    0  501  0.00000000000E+00  0.00000000000E+00 -0.40969579744E+03  0.40969579745E+03  0.25500000920E-02 0.  1.
    10030    2    1    2    0    0  0.00000000000E+00  0.00000000000E+00  0.78657442499E+03  0.16059660199E+04  0.14001526813E+04 0.  0.
        3    1    3    3  502    0  0.62716252801E+03 -0.12997439624E+03  0.69110461248E+02  0.64420683501E+03  0.10100000352E+00 0.  1.
       -3    1    3    3    0  502 -0.62716252801E+03  0.12997439624E+03  0.71746396374E+03  0.96175918487E+03  0.10100000352E+00 0. -1.
</event>
<event>
 5   0  0.1120053E-03  0.1399856E+04  0.7818609E-02  0.8953923E-01
       -2   -1    0    0    0  501  0.00000000000E+00  0.00000000000E+00  0.53247373415E+03  0.53247373416E+03  0.25500000920E-02 0. -1.
        2   -1    0    0  501    0  0.00000000000E+00  0.00000000000E+00 -0.92004363934E+03  0.92004363934E+03  0.25500000920E-02 0.  1.
    10030    2    1    2    0    0  0.00000000000E+00  0.00000000000E+00 -0.38756990518E+03  0.14525173735E+04  0.13998558100E+04 0.  0.
        2    1    3    3  502    0 -0.41439937796E+03  0.53518172737E+03 -0.37868144792E+03  0.77559394323E+03  0.25500000920E-02 0.  1.
       -2    1    3    3    0  502  0.41439937796E+03 -0.53518172737E+03 -0.88884572644E+01  0.67692343027E+03  0.25500000920E-02 0. -1.
</event>
<event>
 5   0  0.6097538E-04  0.1402357E+04  0.7818609E-02  0.8952114E-01
       -1   -1    0    0    0  501  0.00000000000E+00  0.00000000000E+00  0.17566453632E+04  0.17566453632E+04  0.50400001928E-02 0.  1.
        1   -1    0    0  501    0  0.00000000000E+00  0.00000000000E+00 -0.27988092094E+03  0.27988092099E+03  0.50400001928E-02 0. -1.
    10030    2    1    2    0    0  0.00000000000E+00  0.00000000000E+00  0.14767644422E+04  0.20365262842E+04  0.14023573326E+04 0.  0.
        2    1    3    3  502    0  0.28677554105E+03 -0.29658980412E+03 -0.84969138994E+02  0.42121903737E+03  0.25500000920E-02 0. -1.
       -2    1    3    3    0  502 -0.28677554105E+03  0.29658980412E+03  0.15617335812E+04  0.16153072468E+04  0.25500000920E-02 0.  1.
</event>
<event>
 5   0  0.1095119E-03  0.1408793E+04  0.7818609E-02  0.8947478E-01
        2   -1    0    0  501    0  0.00000000000E+00  0.00000000000E+00  0.10545646545E+04  0.10545646545E+04  0.25500000920E-02 0. -1.
       -2   -1    0    0    0  501  0.00000000000E+00  0.00000000000E+00 -0.47050193348E+03  0.47050193349E+03  0.25500000920E-02 0.  1.
    10030    2    1    2    0    0  0.00000000000E+00  0.00000000000E+00  0.58406272098E+03  0.15250665879E+04  0.14087933971E+04 0.  0.
        5    1    3    3  502    0 -0.20167649358E+03  0.46054162208E+03 -0.24202181302E+03  0.55800415922E+03  0.46999998093E+01 0.  1.
       -5    1    3    3    0  502  0.20167649358E+03 -0.46054162208E+03  0.82608453400E+03  0.96706242872E+03  0.46999998093E+01 0. -1.
</event>
<event>
 5   0  0.1095119E-03  0.1330727E+04  0.7818609E-02  0.9005547E-01
        2   -1    0    0  501    0  0.00000000000E+00  0.00000000000E+00  0.10869307859E+04  0.10869307859E+04  0.25500000920E-02 0. -1.
       -2   -1    0    0    0  501  0.00000000000E+00  0.00000000000E+00 -0.40730179793E+03  0.40730179794E+03  0.25500000920E-02 0.  1.
    10030    2    1    2    0    0  0.00000000000E+00  0.00000000000E+00  0.67962898801E+03  0.14942325839E+04  0.13307274151E+04 0.  0.
        5    1    3    3  502    0  0.12342480729E+03 -0.51576922321E+03  0.79097202859E+03  0.95231844184E+03  0.46999998093E+01 0. -1.
       -5    1    3    3    0  502 -0.12342480729E+03  0.51576922321E+03 -0.11134304057E+03  0.54191414205E+03  0.46999998093E+01 0.  1.
</event>
<event>
 5   0  0.1108819E-03  0.1623731E+04  0.7818609E-02  0.8806100E-01
        2   -1    0    0  501    0  0.00000000000E+00  0.00000000000E+00  0.22102638669E+04  0.22102638669E+04  0.25500000920E-02 0. -1.
       -2   -1    0    0    0  501  0.00000000000E+00  0.00000000000E+00 -0.29821125570E+03  0.29821125571E+03  0.25500000920E-02 0.  1.
    10030    2    1    2    0    0  0.00000000000E+00  0.00000000000E+00  0.19120526112E+04  0.25084751226E+04  0.16237309669E+04 0.  0.
        3    1    3    3  502    0  0.55739983071E+03 -0.33833136744E+03  0.20877068085E+03  0.68465165804E+03  0.10100000352E+00 0.  1.
       -3    1    3    3    0  502 -0.55739983071E+03  0.33833136744E+03  0.17032819303E+04  0.18238234645E+04  0.10100000352E+00 0. -1.
</event>
<event>
 5   0  0.1175146E-03  0.1402103E+04  0.7818609E-02  0.8952298E-01
       -2   -1    0    0    0  501  0.00000000000E+00  0.00000000000E+00  0.59353108816E+03  0.59353108816E+03  0.25500000920E-02 0. -1.
        2   -1    0    0  501    0  0.00000000000E+00  0.00000000000E+00 -0.82804933635E+03  0.82804933635E+03  0.25500000920E-02 0.  1.
    10030    2    1    2    0    0  0.00000000000E+00  0.00000000000E+00 -0.23451824819E+03  0.14215804245E+04  0.14021027404E+04 0.  0.
        1    1    3    3  502    0  0.30922015060E+03  0.61955735524E+03 -0.61715339601E+01  0.69246408270E+03  0.50400001928E-02 0.  1.
       -1    1    3    3    0  502 -0.30922015060E+03 -0.61955735524E+03 -0.22834671423E+03  0.72911634181E+03  0.50400001928E-02 0. -1.
</event>
<event>
 5   0  0.6153318E-04  0.1382327E+04  0.7818609E-02  0.8966712E-01
       -1   -1    0    0    0  501  0.00000000000E+00  0.00000000000E+00  0.35372805576E+03  0.35372805580E+03  0.50400001928E-02 0. -1.
        1   -1    0    0  501    0  0.00000000000E+00  0.00000000000E+00 -0.13504919672E+04  0.13504919672E+04  0.50400001928E-02 0.  1.
    10030    2    1    2    0    0  0.00000000000E+00  0.00000000000E+00 -0.99676391144E+03  0.17042200230E+04  0.13823268758E+04 0.  0.
        5    1    3    3  502    0  0.40089538724E+03 -0.46203023273E+03 -0.89500340001E+03  0.10840858930E+04  0.46999998093E+01 0.  1.
       -5    1    3    3    0  502 -0.40089538724E+03  0.46203023273E+03 -0.10176051143E+03  0.62013412997E+03  0.46999998093E+01 0. -1.
</event>
<event>
 5   0  0.5875298E-04  0.1362908E+04  0.7818609E-02  0.8981114E-01
        1   -1    0    0  501    0  0.00000000000E+00  0.00000000000E+00  0.11282118071E+04  0.11282118071E+04  0.50400001928E-02 0.  1.
       -1   -1    0    0    0  501  0.00000000000E+00  0.00000000000E+00 -0.41160688730E+03  0.41160688733E+03  0.50400001928E-02 0. -1.
    10030    2    1    2    0    0  0.00000000000E+00  0.00000000000E+00  0.71660491978E+03  0.15398186944E+04  0.13629082877E+04 0.  0.
        1    1    3    3  502    0 -0.43595885631E+03 -0.16563895576E+03 -0.20306710979E+03  0.50865768368E+03  0.50400001928E-02 0. -1.
       -1    1    3    3    0  502  0.43595885631E+03  0.16563895576E+03  0.91967202957E+03  0.10311610107E+04  0.50400001928E-02 0.  1.
</event>
<event>
 5   0  0.1120053E-03  0.1382647E+04  0.7818609E-02  0.8966476E-01
       -2   -1    0    0    0  501  0.00000000000E+00  0.00000000000E+00  0.30421346107E+03  0.30421346108E+03  0.25500000920E-02 0. -1.
        2   -1    0    0  501    0  0.00000000000E+00  0.00000000000E+00 -0.15710301134E+04  0.15710301134E+04  0.25500000920E-02 0.  1.
    10030    2    1    2    0    0  0.00000000000E+00  0.00000000000E+00 -0.12668166523E+04  0.18752435745E+04  0.13826474724E+04 0.  0.
        2    1    3    3  502    0  0.15990514533E+03 -0.59625071295E+03 -0.21134030611E+03  0.65249466909E+03  0.25500000920E-02 0. -1.
       -2    1    3    3    0  502 -0.15990514533E+03  0.59625071295E+03 -0.10554763462E+04  0.12227489054E+04  0.25500000920E-02 0.  1.
</event>
<event>
 5   0  0.6097538E-04  0.1465245E+04  0.7818609E-02  0.8907899E-01
        1   -1    0    0  501    0  0.00000000000E+00  0.00000000000E+00  0.44136498426E+03  0.44136498429E+03  0.50400001928E-02 0. -1.
       -1   -1    0    0    0  501  0.00000000000E+00  0.00000000000E+00 -0.12160811633E+04  0.12160811633E+04  0.50400001928E-02 0.  1.
    10030    2    1    2    0    0  0.00000000000E+00  0.00000000000E+00 -0.77471617906E+03  0.16574461476E+04  0.14652448854E+04 0.  0.
        2    1    3    3  502    0 -0.72252459753E+02 -0.25688602932E+03  0.38443452884E+03  0.46797516705E+03  0.25500000920E-02 0. -1.
       -2    1    3    3    0  502  0.72252459753E+02  0.25688602932E+03 -0.11591507079E+04  0.11894709806E+04  0.25500000920E-02 0.  1.
</event>
<event>
 5   0  0.1108819E-03  0.1416911E+04  0.7818609E-02  0.8941668E-01
       -2   -1    0    0    0  501  0.00000000000E+00  0.00000000000E+00  0.48541643353E+03  0.48541643353E+03  0.25500000920E-02 0. -1.
        2   -1    0    0  501    0  0.00000000000E+00  0.00000000000E+00 -0.10339764055E+04  0.10339764055E+04  0.25500000920E-02 0.  1.
    10030    2    1    2    0    0  0.00000000000E+00  0.00000000000E+00 -0.54855997195E+03  0.15193928390E+04  0.14169109204E+04 0.  0.
        3    1    3    3  502    0  0.55214870935E+03 -0.16211975924E+03 -0.71739677399E+03  0.91967883259E+03  0.10100000352E+00 0.  1.
       -3    1    3    3    0  502 -0.55214870935E+03  0.16211975924E+03  0.16883680204E+03  0.59971400642E+03  0.10100000352E+00 0. -1.
</event>
<event>
 5   0  0.1095119E-03  0.1400743E+04  0.7818609E-02  0.8953281E-01
       -2   -1    0    0    0  501  0.00000000000E+00  0.00000000000E+00  0.56154486466E+03  0.56154486467E+03  0.25500000920E-02 0. -1.
        2   -1    0    0  501    0  0.00000000000E+00  0.00000000000E+00 -0.87351901454E+03  0.87351901455E+03  0.25500000920E-02 0.  1.
    10030    2    1    2    0    0  0.00000000000E+00  0.00000000000E+00 -0.31197414988E+03  0.14350638792E+04  0.14007428269E+04 0.  0.
        5    1    3    3  502    0  0.50271099786E+03 -0.27474418738E+03  0.25674271106E+03  0.62780699706E+03  0.46999998093E+01 0. -1.
       -5    1    3    3    0  502 -0.50271099786E+03  0.27474418738E+03 -0.56871686094E+03  0.80725688216E+03  0.46999998093E+01 0.  1.
</event>
<event>
 5   0  0.6114266E-04  0.1371999E+04  0.7818609E-02  0.8974340E-01
        1   -1    0    0  501    0  0.00000000000E+00  0.00000000000E+00  0.24445902132E+04  0.24445902132E+04  0.50400001928E-02 0.  1.
       -1   -1    0    0    0  501  0.00000000000E+00  0.00000000000E+00 -0.19250489142E+03  0.19250489149E+03  0.50400001928E-02 0. -1.
    10030    2    1    2    0    0  0.00000000000E+00  0.00000000000E+00  0.22520853218E+04  0.26370951047E+04  0.13719993785E+04 0.  0.
        3    1    3    3  502    0 -0.15870013260E+03 -0.83010376999E+02  0.23988601652E+04  0.24055366464E+04  0.10100000352E+00 0.  1.
       -3    1    3    3    0  502  0.15870013260E+03  0.83010376999E+02 -0.14677484338E+03  0.23155845834E+03  0.10100000352E+00 0. -1.
</event>
<event>
 5   0  0.6153318E-04  0.1394662E+04  0.7818609E-02  0.8957692E-01
        1   -1    0    0  501    0  0.00000000000E+00  0.00000000000E+00  0.12593797529E+04  0.12593797529E+04  0.50400001928E-02 0.  1.
       -1   -1    0    0    0  501  0.00000000000E+00  0.00000000000E+00 -0.38611878830E+03  0.38611878834E+03  0.50400001928E-02 0. -1.
    10030    2    1    2    0    0  0.00000000000E+00  0.00000000000E+00  0.87326096456E+03  0.16454985412E+04  0.13946615134E+04 0.  0.
        5    1    3    3  502    0  0.54749100677E+03 -0.74855464426E+02  0.93844819826E+03  0.10890623737E+04  0.46999998093E+01 0.  1.
       -5    1    3    3    0  502 -0.54749100677E+03  0.74855464426E+02 -0.65187233702E+02  0.55643616748E+03  0.46999998093E+01 0. -1.
</event>
<event>
 5   0  0.1175146E-03  0.1465530E+04  0.7818609E-02  0.8907704E-01
       -2   -1    0    0    0  501  0.00000000000E+00  0.00000000000E+00  0.56030963906E+03  0.56030963907E+03  0.25500000920E-02 0. -1.
        2   -1    0    0  501    0  0.00000000000E+00  0.00000000000E+00 -0.95829966213E+03  0.95829966214E+03  0.25500000920E-02 0.  1.
    10030    2    1    2    0    0  0.00000000000E+00  0.00000000000E+00 -0.39799002307E+03  0.15186093012E+04  0.14655299899E+04 0.  0.
        1    1    3    3  502    0 -0.48591737891E+02  0.51469182131E+03 -0.73710649580E+03  0.90033039163E+03  0.50400001928E-02 0.  1.
       -1    1    3    3    0  502  0.48591737891E+02 -0.51469182131E+03  0.33911647273E+03  0.61827890957E+03  0.50400001928E-02 0. -1.
</event>
<event>
 5   0  0.1098949E-03  0.1338299E+04  0.7818609E-02  0.8999733E-01
        2   -1    0    0  501    0  0.00000000000E+00  0.00000000000E+00  0.15516759797E+04  0.15516759797E+04  0.25500000920E-02 0. -1.
       -2   -1    0    0    0  501  0.00000000000E+00  0.00000000000E+00 -0.28856598789E+03  0.28856598790E+03  0.25500000920E-02 0.  1.
    10030    2    1    2    0    0  0.00000000000E+00  0.00000000000E+00  0.12631099918E+04  0.18402419676E+04  0.13382987887E+04 0.  0.
        4    1    3    3  502    0  0.24768564169E+02 -0.56010421036E+03  0.12927358061E+03  0.57536378038E+03  0.12699999809E+01 0.  1.
       -4    1    3    3    0  502 -0.24768564169E+02  0.56010421036E+03  0.11338364112E+04  0.12648781873E+04  0.12699999809E+01 0. -1.
</event>
<event>
 5   0  0.6097538E-04  0.1402030E+04  0.7818609E-02  0.8952351E-01
        1   -1    0    0  501    0  0.00000000000E+00  0.00000000000E+00  0.34543472406E+03  0.34543472409E+03  0.50400001928E-02 0.  1.
       -1   -1    0    0    0  501  0.00000000000E+00  0.00000000000E+00 -0.14226184977E+04  0.14226184977E+04  0.50400001928E-02 0. -1.
    10030    2    1    2    0    0  0.00000000000E+00  0.00000000000E+00 -0.10771837737E+04  0.17680532218E+04  0.14020297119E+04 0.  0.
        2    1    3    3  502    0  0.52684274578E+03  0.26481984969E+03 -0.10166826065E+04  0.11753026648E+04  0.25500000920E-02 0. -1.
       -2    1    3    3    0  502 -0.52684274578E+03 -0.26481984969E+03 -0.60501167138E+02  0.59275055698E+03  0.25500000920E-02 0.  1.
</event>
<event>
 5   0  0.6194742E-04  0.1406687E+04  0.7818609E-02  0.8948993E-01
        1   -1    0    0  501    0  0.00000000000E+00  0.00000000000E+00  0.18500234728E+04  0.18500234728E+04  0.50400001928E-02 0.  1.
       -1   -1    0    0    0  501  0.00000000000E+00  0.00000000000E+00 -0.26739756287E+03  0.26739756291E+03  0.50400001928E-02 0. -1.
    10030    2    1    2    0    0  0.00000000000E+00  0.00000000000E+00  0.15826259100E+04  0.21174210357E+04  0.14066865577E+04 0.  0.
        4    1    3    3  502    0 -0.24036429700E+03 -0.45171041726E+03  0.64923847382E+02  0.51578485359E+03  0.12699999809E+01 0. -1.
       -4    1    3    3    0  502  0.24036429700E+03  0.45171041726E+03  0.15177020626E+04  0.16016361822E+04  0.12699999809E+01 0.  1.
</event>
<event>
 5   0  0.1095119E-03  0.1397313E+04  0.7818609E-02  0.8955766E-01
        2   -1    0    0  501    0  0.00000000000E+00  0.00000000000E+00  0.73660486767E+03  0.73660486768E+03  0.25500000920E-02 0. -1.
       -2   -1    0    0    0  501  0.00000000000E+00  0.00000000000E+00 -0.66266342818E+03  0.66266342818E+03  0.25500000920E-02 0.  1.
    10030    2    1    2    0    0  0.00000000000E+00  0.00000000000E+00  0.73941439495E+02  0.13992682959E+04  0.13973132889E+04 0.  0.
        5    1    3    3  502    0 -0.95466546009E+02 -0.59149324642E+02  0.72749079014E+03  0.73612325310E+03  0.46999998093E+01 0. -1.
       -5    1    3    3    0  502  0.95466546009E+02  0.59149324642E+02 -0.65354935065E+03  0.66314504276E+03  0.46999998093E+01 0.  1.
</event>
<event>
 5   0  0.5875298E-04  0.1378795E+04  0.7818609E-02  0.8969313E-01
       -1   -1    0    0    0  501  0.00000000000E+00  0.00000000000E+00  0.79725164295E+03  0.79725164296E+03  0.50400001928E-02 0. -1.
        1   -1    0    0  501    0  0.00000000000E+00  0.00000000000E+00 -0.59613375729E+03  0.59613375731E+03  0.50400001928E-02 0.  1.
    10030    2    1    2    0    0  0.00000000000E+00  0.00000000000E+00  0.20111788566E+03  0.13933854003E+04  0.13787945713E+04 0.  0.
        1    1    3    3  502    0  0.31413567373E+03  0.60521114817E+02  0.71769681922E+03  0.78576889172E+03  0.50400001928E-02 0. -1.
       -1    1    3    3    0  502 -0.31413567373E+03 -0.60521114817E+02 -0.51657893356E+03  0.60761650856E+03  0.50400001928E-02 0.  1.
</event>
<event>
 5   0  0.1095119E-03  0.1416190E+04  0.7818609E-02  0.8942182E-01
        2   -1    0    0  501    0  0.00000000000E+00  0.00000000000E+00  0.59826996421E+03  0.59826996421E+03  0.25500000920E-02 0. -1.
       -2   -1    0    0    0  501  0.00000000000E+00  0.00000000000E+00 -0.83808102149E+03  0.83808102150E+03  0.25500000920E-02 0.  1.
    10030    2    1    2    0    0  0.00000000000E+00  0.00000000000E+00 -0.23981105729E+03  0.14363509857E+04  0.14161902453E+04 0.  0.
        5    1    3    3  502    0 -0.82387644263E+02 -0.42589319818E+03 -0.68751879813E+03  0.81294337316E+03  0.46999998093E+01 0.  1.
       -5    1    3    3    0  502  0.82387644263E+02  0.42589319818E+03  0.44770774085E+03  0.62340761255E+03  0.46999998093E+01 0. -1.
</event>
<event>
 5   0  0.6097538E-04  0.1401761E+04  0.7818609E-02  0.8952545E-01
       -1   -1    0    0    0  501  0.00000000000E+00  0.00000000000E+00  0.11316219506E+04  0.11316219506E+04  0.50400001928E-02 0.  1.
        1   -1    0    0  501    0  0.00000000000E+00  0.00000000000E+00 -0.43409706760E+03  0.43409706763E+03  0.50400001928E-02 0. -1.
    10030    2    1    2    0    0  0.00000000000E+00  0.00000000000E+00  0.69752488301E+03  0.15657190182E+04  0.14017614211E+04 0.  0.
        2    1    3    3  502    0 -0.41347506562E+03  0.33147865455E+03  0.86110029245E+03  0.10111050598E+04  0.25500000920E-02 0.  1.
       -2    1    3    3    0  502  0.41347506562E+03 -0.33147865455E+03 -0.16357540944E+03  0.55461395844E+03  0.25500000920E-02 0. -1.
</event>
<event>
 5   0  0.1175146E-03  0.1411177E+04  0.7818609E-02  0.8945768E-01
       -2   -1    0    0    0  501  0.00000000000E+00  0.00000000000E+00  0.29520147616E+03  0.29520147617E+03  0.25500000920E-02 0. -1.
        2   -1    0    0  501    0  0.00000000000E+00  0.00000000000E+00 -0.16864923118E+04  0.16864923118E+04  0.25500000920E-02 0.  1.
    10030    2    1    2    0    0  0.00000000000E+00  0.00000000000E+00 -0.13912908356E+04  0.19816937879E+04  0.14111768422E+04 0.  0.
        1    1    3    3  502    0  0.26677022008E+03  0.18124127217E+03 -0.15769279615E+04  0.16095702982E+04  0.50400001928E-02 0.  1.
       -1    1    3    3    0  502 -0.26677022008E+03 -0.18124127217E+03  0.18563712591E+03  0.37212348972E+03  0.50400001928E-02 0. -1.
</event>
<event>
 5   0  0.1120053E-03  0.1671288E+04  0.7818609E-02  0.8777911E-01
       -2   -1    0    0    0  501  0.00000000000E+00  0.00000000000E+00  0.43350259346E+03  0.43350259347E+03  0.25500000920E-02 0.  1.
        2   -1    0    0  501    0  0.00000000000E+00  0.00000000000E+00 -0.16108343575E+04  0.16108343575E+04  0.25500000920E-02 0. -1.
    10030    2    1    2    0    0  0.00000000000E+00  0.00000000000E+00 -0.11773317640E+04  0.20443369509E+04  0.16712879723E+04 0.  0.
        2    1    3    3  502    0 -0.81105191861E+03 -0.53661096587E+02 -0.35142565778E+03  0.88554204921E+03  0.25500000920E-02 0.  1.
       -2    1    3    3    0  502  0.81105191861E+03  0.53661096587E+02 -0.82590610622E+03  0.11587949017E+04  0.25500000920E-02 0. -1.
</event>
<event>
 5   0  0.4176125E-04  0.1397815E+04  0.7818609E-02  0.8955402E-01
       -3   -1    0    0    0  501  0.00000000000E+00  0.00000000000E+00  0.54079032468E+03  0.54079033411E+03  0.10100000352E+00 0. -1.
        3   -1    0    0  501    0  0.00000000000E+00  0.00000000000E+00 -0.90325511626E+03  0.90325512191E+03  0.10100000352E+00 0.  1.
    10030    2    1    2    0    0  0.00000000000E+00  0.00000000000E+00 -0.36246479158E+03  0.14440454560E+04  0.13978149212E+04 0.  0.
        4    1    3    3  502    0  0.34929361473E+03  0.13324015733E+03 -0.79128045691E+03  0.87514875490E+03  0.12699999809E+01 0.  1.
       -4    1    3    3    0  502 -0.34929361473E+03 -0.13324015733E+03  0.42881566532E+03  0.56889670112E+03  0.12699999809E+01 0. -1.
</event>
<event>
 5   0  0.6194742E-04  0.1165445E+04  0.7818609E-02  0.9143652E-01
       -1   -1    0    0    0  501  0.00000000000E+00  0.00000000000E+00  0.60869770136E+03  0.60869770138E+03  0.50400001928E-02 0. -1.
        1   -1    0    0  501    0  0.00000000000E+00  0.00000000000E+00 -0.55785560031E+03  0.55785560033E+03  0.50400001928E-02 0.  1.
    10030    2    1    2    0    0  0.00000000000E+00  0.00000000000E+00  0.50842101050E+02  0.11665533017E+04  0.11654448449E+04 0.  0.
        4    1    3    3  502    0  0.47926931460E+03  0.24869639893E+03  0.24475233284E+03  0.59283580533E+03  0.12699999809E+01 0. -1.
       -4    1    3    3    0  502 -0.47926931460E+03 -0.24869639893E+03 -0.19391023179E+03  0.57371749638E+03  0.12699999809E+01 0.  1.
</event>
<event>
 5   0  0.4176125E-04  0.1407523E+04  0.7818609E-02  0.8948391E-01
        3   -1    0    0  501    0  0.00000000000E+00  0.00000000000E+00  0.11581498453E+04  0.11581498497E+04  0.10100000352E+00 0. -1.
       -3   -1    0    0    0  501  0.00000000000E+00  0.00000000000E+00 -0.42764754236E+03  0.42764755429E+03  0.10100000352E+00 0.  1.
    10030    2    1    2    0    0  0.00000000000E+00  0.00000000000E+00  0.73050230290E+03  0.15857974040E+04  0.14075225724E+04 0.  0.
        5    1    3    3  502    0  0.26416398133E+02 -0.55301580624E+03 -0.12420849093E+03  0.56742765817E+03  0.46999998093E+01 0.  1.
       -5    1    3    3    0  502 -0.26416398133E+02  0.55301580624E+03  0.85471079383E+03  0.10183697458E+04  0.46999998093E+01 0. -1.
</event>
<event>
 5   0  0.1098949E-03  0.1427820E+04  0.7818609E-02  0.8933923E-01
        2   -1    0    0  501    0  0.00000000000E+00  0.00000000000E+00  0.59072402701E+03  0.59072402701E+03  0.25500000920E-02 0. -1.
       -2   -1    0    0    0  501  0.00000000000E+00  0.00000000000E+00 -0.86278468951E+03  0.86278468952E+03  0.25500000920E-02 0.  1.
    10030    2    1    2    0    0  0.00000000000E+00  0.00000000000E+00 -0.27206066250E+03  0.14535087165E+04  0.14278202215E+04 0.  0.
        4    1    3    3  502    0 -0.91293833382E+02  0.26588067460E+03  0.53200704117E+03  0.60171438565E+03  0.12699999809E+01 0. -1.
       -4    1    3    3    0  502  0.91293833382E+02 -0.26588067460E+03 -0.80406770367E+03  0.85179433088E+03  0.12699999809E+01 0.  1.
</event>
<event>
 5   0  0.1095119E-03  0.1397400E+04  0.7818609E-02  0.8955703E-01
       -2   -1    0    0    0  501  0.00000000000E+00  0.00000000000E+00  0.63691394009E+03  0.63691394009E+03  0.25500000920E-02 0.  1.
        2   -1    0    0  501    0  0.00000000000E+00  0.00000000000E+00 -0.76647991223E+03  0.76647991223E+03  0.25500000920E-02 0. -1.
    10030    2    1    2    0    0  0.00000000000E+00  0.00000000000E+00 -0.12956597214E+03  0.14033938523E+04  0.13974000728E+04 0.  0.
        5    1    3    3  502    0  0.50584008918E+03  0.41762974963E+03  0.17681245158E+03  0.67939203456E+03  0.46999998093E+01 0.  1.
       -5    1    3    3    0  502 -0.50584008918E+03 -0.41762974963E+03 -0.30637842372E+03  0.72400181776E+03  0.46999998093E+01 0. -1.
</event>
<event>
 5   0  0.5875298E-04  0.1350364E+04  0.7818609E-02  0.8990553E-01
        1   -1    0    0  501    0  0.00000000000E+00  0.00000000000E+00  0.91011559801E+03  0.91011559802E+03  0.50400001928E-02 0. -1.
       -1   -1    0    0    0  501  0.00000000000E+00  0.00000000000E+00 -0.50089306380E+03  0.50089306382E+03  0.50400001928E-02 0.  1.
    10030    2    1    2    0    0  0.00000000000E+00  0.00000000000E+00  0.40922253421E+03  0.14110086618E+04  0.13503637885E+04 0.  0.
        1    1    3    3  502    0 -0.23884636791E+03 -0.75342858071E+02 -0.45056186515E+03  0.51549018233E+03  0.50400001928E-02 0.  1.
       -1    1    3    3    0  502  0.23884636791E+03  0.75342858071E+02  0.85978439936E+03  0.89551847951E+03  0.50400001928E-02 0. -1.
</event>
<event>
 5   0  0.1098949E-03  0.1388947E+04  0.7818609E-02  0.8961858E-01
        2   -1    0    0  501    0  0.00000000000E+00  0.00000000000E+00  0.62888924993E+03  0.62888924993E+03  0.25500000920E-02 0.  1.
       -2   -1    0    0    0  501  0.00000000000E+00  0.00000000000E+00 -0.76689747343E+03  0.76689747343E+03  0.25500000920E-02 0. -1.
    10030    2    1    2    0    0  0.00000000000E+00  0.00000000000E+00 -0.13800822350E+03  0.13957867234E+04  0.13889471939E+04 0.  0.
        4    1    3    3  502    0 -0.45648519629E+03  0.38960553276E+03  0.28217451369E+03  0.66317062259E+03  0.12699999809E+01 0.  1.
       -4    1    3    3    0  502  0.45648519629E+03 -0.38960553276E+03 -0.42018273719E+03  0.73261610078E+03  0.12699999809E+01 0. -1.
</event>
<event>
 5   0  0.4176125E-04  0.1404113E+04  0.7818609E-02  0.8950847E-01
       -3   -1    0    0    0  501  0.00000000000E+00  0.00000000000E+00  0.24575717819E+04  0.24575717840E+04  0.10100000352E+00 0.  1.
        3   -1    0    0  501    0  0.00000000000E+00  0.00000000000E+00 -0.20055703896E+03  0.20055706440E+03  0.10100000352E+00 0. -1.
    10030    2    1    2    0    0  0.00000000000E+00  0.00000000000E+00  0.22570147430E+04  0.26581288484E+04  0.14041130384E+04 0.  0.
        3    1    3    3  502    0  0.52889699496E+03 -0.40189611398E+03  0.69834887774E+03  0.96381724562E+03  0.10100000352E+00 0. -1.
       -3    1    3    3    0  502 -0.52889699496E+03  0.40189611398E+03  0.15586658652E+04  0.16943116028E+04  0.10100000352E+00 0.  1.
</event>
<event>
 5   0  0.6114266E-04  0.1421650E+04  0.7818609E-02  0.8938294E-01
       -1   -1    0    0    0  501  0.00000000000E+00  0.00000000000E+00  0.53811543677E+03  0.53811543679E+03  0.50400001928E-02 0.  1.
        1   -1    0    0  501    0  0.00000000000E+00  0.00000000000E+00 -0.93896678861E+03  0.93896678862E+03  0.50400001928E-02 0. -1.
    10030    2    1    2    0    0  0.00000000000E+00  0.00000000000E+00 -0.40085135184E+03  0.14770822254E+04  0.14216504825E+04 0.  0.
        3    1    3    3  502    0  0.56811448684E+03 -0.40799206981E+03 -0.33209874744E+03  0.77427462017E+03  0.10100000352E+00 0. -1.
       -3    1    3    3    0  502 -0.56811448684E+03  0.40799206981E+03 -0.68752604397E+02  0.70280760525E+03  0.10100000352E+00 0.  1.
</event>
<event>
 5   0  0.6097538E-04  0.1401212E+04  0.7818609E-02  0.8952941E-01
       -1   -1    0    0    0  501  0.00000000000E+00  0.00000000000E+00  0.86777708424E+03  0.86777708425E+03  0.50400001928E-02 0. -1.
        1   -1    0    0  501    0  0.00000000000E+00  0.00000000000E+00 -0.56563950438E+03  0.56563950440E+03  0.50400001928E-02 0.  1.
    10030    2    1    2    0    0  0.00000000000E+00  0.00000000000E+00  0.30213757986E+03  0.14334165887E+04  0.14012123320E+04 0.  0.
        2    1    3    3  502    0 -0.57862961086E+02  0.64533858551E+03  0.42372591880E+03  0.77417935033E+03  0.25500000920E-02 0. -1.
       -2    1    3    3    0  502  0.57862961086E+02 -0.64533858551E+03 -0.12158833894E+03  0.65923723832E+03  0.25500000920E-02 0.  1.
</event>
<event>
 5   0  0.6097538E-04  0.1454329E+04  0.7818609E-02  0.8915405E-01
       -1   -1    0    0    0  501  0.00000000000E+00  0.00000000000E+00  0.78119579521E+03  0.78119579523E+03  0.50400001928E-02 0. -1.
        1   -1    0    0  501    0  0.00000000000E+00  0.00000000000E+00 -0.67687001372E+03  0.67687001374E+03  0.50400001928E-02 0.  1.
    10030    2    1    2    0    0  0.00000000000E+00  0.00000000000E+00  0.10432578149E+03  0.14580658090E+04  0.14543287230E+04 0.  0.
        2    1    3    3  502    0  0.19411729682E+03  0.54321282648E+03  0.49602653002E+03  0.76079170492E+03  0.25500000920E-02 0. -1.
       -2    1    3    3    0  502 -0.19411729682E+03 -0.54321282648E+03 -0.39170074853E+03  0.69727410405E+03  0.25500000920E-02 0.  1.
</event>
<event>
 5   0  0.5875298E-04  0.1392057E+04  0.7818609E-02  0.8959588E-01
       -1   -1    0    0    0  501  0.00000000000E+00  0.00000000000E+00  0.88182295495E+03  0.88182295496E+03  0.50400001928E-02 0. -1.
        1   -1    0    0  501    0  0.00000000000E+00  0.00000000000E+00 -0.54938001117E+03  0.54938001120E+03  0.50400001928E-02 0.  1.
    10030    2    1    2    0    0  0.00000000000E+00  0.00000000000E+00  0.33244294378E+03  0.14312029662E+04  0.13920573334E+04 0.  0.
        1    1    3    3  502    0 -0.43208576874E+03 -0.19634982051E+03 -0.35721672127E+03  0.59401611893E+03  0.50400001928E-02 0.  1.
       -1    1    3    3    0  502  0.43208576874E+03  0.19634982051E+03  0.68965966505E+03  0.83718684723E+03  0.50400001928E-02 0. -1.
</event>
<event>
 5   0  0.6153318E-04  0.1407916E+04  0.7818609E-02  0.8948108E-01
       -1   -1    0    0    0  501  0.00000000000E+00  0.00000000000E+00  0.26740172295E+03  0.26740172300E+03  0.50400001928E-02 0. -1.
        1   -1    0    0  501    0  0.00000000000E+00  0.00000000000E+00 -0.18532301263E+04  0.18532301264E+04  0.50400001928E-02 0.  1.
    10030    2    1    2    0    0  0.00000000000E+00  0.00000000000E+00 -0.15858284034E+04  0.21206318494E+04  0.14079160896E+04 0.  0.
        5    1    3    3  502    0  0.31498474842E+03 -0.87439335901E+02  0.14611942856E+03  0.35809776123E+03  0.46999998093E+01 0. -1.
       -5    1    3    3    0  502 -0.31498474842E+03  0.87439335901E+02 -0.17319478319E+04  0.17625340881E+04  0.46999998093E+01 0.  1.
</event>
<event>
 5   0  0.6097538E-04  0.1605097E+04  0.7818609E-02  0.8817423E-01
       -1   -1    0    0    0  501  0.00000000000E+00  0.00000000000E+00  0.72521004926E+03  0.72521004928E+03  0.50400001928E-02 0.  1.
        1   -1    0    0  501    0  0.00000000000E+00  0.00000000000E+00 -0.88813408322E+03  0.88813408324E+03  0.50400001928E-02 0. -1.
    10030    2    1    2    0    0  0.00000000000E+00  0.00000000000E+00 -0.16292403396E+03  0.16133441325E+04  0.16050965856E+04 0.  0.
        2    1    3    3  502    0  0.43760747499E+03 -0.13033200119E+03 -0.74485106562E+03  0.87366460536E+03  0.25500000920E-02 0. -1.
       -2    1    3    3    0  502 -0.43760747499E+03  0.13033200119E+03  0.58192703166E+03  0.73967952715E+03  0.25500000920E-02 0.  1.
</event>
<event>
 5   0  0.1098949E-03  0.1387013E+04  0.7818609E-02  0.8963273E-01
        2   -1    0    0  501    0  0.00000000000E+00  0.00000000000E+00  0.59210175940E+03  0.59210175940E+03  0.25500000920E-02 0.  1.
       -2   -1    0    0    0  501  0.00000000000E+00  0.00000000000E+00 -0.81227759004E+03  0.81227759004E+03  0.25500000920E-02 0. -1.
    10030    2    1    2    0    0  0.00000000000E+00  0.00000000000E+00 -0.22017583064E+03  0.14043793494E+04  0.13870126029E+04 0.  0.
        4    1    3    3  502    0  0.32593275485E+03  0.27358556283E+02 -0.72927468765E+03  0.79926455835E+03  0.12699999809E+01 0. -1.
       -4    1    3    3    0  502 -0.32593275485E+03 -0.27358556283E+02  0.50909885701E+03  0.60511479109E+03  0.12699999809E+01 0.  1.
</event>
<event>
 5   0  0.1098949E-03  0.1378248E+04  0.7818609E-02  0.8969716E-01
        2   -1    0    0  501    0  0.00000000000E+00  0.00000000000E+00  0.29110063780E+04  0.29110063780E+04  0.25500000920E-02 0. -1.
       -2   -1    0    0    0  501  0.00000000000E+00  0.00000000000E+00 -0.16313669529E+03  0.16313669531E+03  0.25500000920E-02 0.  1.
    10030    2    1    2    0    0  0.00000000000E+00  0.00000000000E+00  0.27478696827E+04  0.30741430733E+04  0.13782481061E+04 0.  0.
        4    1    3    3  502    0 -0.52647570752E+03 -0.19747296162E+03  0.48532747634E+03  0.74277628756E+03  0.12699999809E+01 0.  1.
       -4    1    3    3    0  502  0.52647570752E+03  0.19747296162E+03  0.22625422064E+04  0.23313667857E+04  0.12699999809E+01 0. -1.
</event>
<event>
 5   0  0.1175146E-03  0.1391723E+04  0.7818609E-02  0.8959832E-01
        2   -1    0    0  501    0  0.00000000000E+00  0.00000000000E+00  0.19657418855E+04  0.19657418855E+04  0.25500000920E-02 0.  1.
       -2   -1    0    0    0  501  0.00000000000E+00  0.00000000000E+00 -0.24633103645E+03  0.24633103646E+03  0.25500000920E-02 0. -1.
    10030    2    1    2    0    0  0.00000000000E+00  0.00000000000E+00  0.17194108491E+04  0.22120729220E+04  0.13917230128E+04 0.  0.
        1    1    3    3  502    0 -0.12537090693E+03 -0.30922243882E+03 -0.11088313521E+03  0.35161264294E+03  0.50400001928E-02 0. -1.
       -1    1    3    3    0  502  0.12537090693E+03  0.30922243882E+03  0.18302939843E+04  0.18604602791E+04  0.50400001928E-02 0.  1.
</event>
<event>
 5   0  0.6194742E-04  0.1408303E+04  0.7818609E-02  0.8947830E-01
        1   -1    0    0  501    0  0.00000000000E+00  0.00000000000E+00  0.71081386106E+03  0.71081386107E+03  0.50400001928E-02 0.  1.
       -1   -1    0    0    0  501  0.00000000000E+00  0.00000000000E+00 -0.69755157450E+03  0.69755157452E+03  0.50400001928E-02 0. -1.
    10030    2    1    2    0    0  0.00000000000E+00  0.00000000000E+00  0.13262286555E+02  0.14083654356E+04  0.14083029901E+04 0.  0.
        4    1    3    3  502    0  0.44362690681E+03  0.50765059243E+03 -0.19663573182E+03  0.70226859560E+03  0.12699999809E+01 0. -1.
       -4    1    3    3    0  502 -0.44362690681E+03 -0.50765059243E+03  0.20989801838E+03  0.70609684000E+03  0.12699999809E+01 0.  1.
</event>
<event>
 5   0  0.6194742E-04  0.1375337E+04  0.7818609E-02  0.8971867E-01
       -1   -1    0    0    0  501  0.00000000000E+00  0.00000000000E+00  0.24305179847E+03  0.24305179852E+03  0.50400001928E-02 0. -1.
        1   -1    0    0  501    0  0.00000000000E+00  0.00000000000E+00 -0.19456265566E+04  0.19456265566E+04  0.50400001928E-02 0.  1.
    10030    2    1    2    0    0  0.00000000000E+00  0.00000000000E+00 -0.17025747581E+04  0.21886783551E+04  0.13753370987E+04 0.  0.
        4    1    3    3  502    0 -0.45424935050E+02 -0.65606203405E+03 -0.11711721648E+04  0.13431778250E+04  0.12699999809E+01 0.  1.
       -4    1    3    3    0  502  0.45424935050E+02  0.65606203405E+03 -0.53140259336E+03  0.84550053008E+03  0.12699999809E+01 0. -1.
</event>
<event>
 5   0  0.1095119E-03  0.1367967E+04  0.7818609E-02  0.8977337E-01
       -2   -1    0    0    0  501  0.00000000000E+00  0.00000000000E+00  0.83347832683E+03  0.83347832684E+03  0.25500000920E-02 0.  1.
        2   -1    0    0  501    0  0.00000000000E+00  0.00000000000E+00 -0.56130283030E+03  0.56130283030E+03  0.25500000920E-02 0. -1.
    10030    2    1    2    0    0  0.00000000000E+00  0.00000000000E+00  0.27217549654E+03  0.13947811571E+04  0.13679674614E+04 0.  0.
        5    1    3    3  502    0  0.34062540033E+03 -0.47336324483E+02  0.73889992263E+03  0.81502243934E+03  0.46999998093E+01 0.  1.
       -5    1    3    3    0  502 -0.34062540033E+03  0.47336324483E+02 -0.46672442609E+03  0.57975871781E+03  0.46999998093E+01 0. -1.
</event>
<event>
 5   0  0.6153318E-04  0.1459796E+04  0.7818609E-02  0.8911638E-01
       -1   -1    0    0    0  501  0.00000000000E+00  0.00000000000E+00  0.12398306163E+04  0.12398306164E+04  0.50400001928E-02 0. -1.
        1   -1    0    0  501    0  0.00000000000E+00  0.00000000000E+00 -0.42969642907E+03  0.42969642910E+03  0.50400001928E-02 0.  1.
    10030    2    1    2    0    0  0.00000000000E+00  0.00000000000E+00  0.81013418727E+03  0.16695270455E+04  0.14597955864E+04 0.  0.
        5    1    3    3  502    0 -0.44315503922E+03  0.11640267354E+03  0.10548425204E+04  0.11500655651E+04  0.46999998093E+01 0. -1.
       -5    1    3    3    0  502  0.44315503922E+03 -0.11640267354E+03 -0.24470833317E+03  0.51946148030E+03  0.46999998093E+01 0.  1.
</event>
<event>
 5   0  0.6153318E-04  0.1387489E+04  0.7818609E-02  0.8962925E-01
       -1   -1    0    0    0  501  0.00000000000E+00  0.00000000000E+00  0.31257332024E+03  0.31257332028E+03  0.50400001928E-02 0.  1.
        1   -1    0    0  501    0  0.00000000000E+00  0.00000000000E+00 -0.15397389708E+04  0.15397389708E+04  0.50400001928E-02 0. -1.
    10030    2    1    2    0    0  0.00000000000E+00  0.00000000000E+00 -0.12271656506E+04  0.18523122911E+04  0.13874888431E+04 0.  0.
        5    1    3    3  502    0  0.20366485918E+03  0.10803753665E+02  0.27162396318E+03  0.33970246294E+03  0.46999998093E+01 0.  1.
       -5    1    3    3    0  502 -0.20366485918E+03 -0.10803753665E+02 -0.14987896137E+04  0.15126098281E+04  0.46999998093E+01 0. -1.
</event>
<event>
 5   0  0.1120053E-03  0.1392422E+04  0.7818609E-02  0.8959323E-01
       -2   -1    0    0    0  501  0.00000000000E+00  0.00000000000E+00  0.34966168601E+03  0.34966168602E+03  0.25500000920E-02 0. -1.
        2   -1    0    0  501    0  0.00000000000E+00  0.00000000000E+00 -0.13862241034E+04  0.13862241034E+04  0.25500000920E-02 0.  1.
    10030    2    1    2    0    0  0.00000000000E+00  0.00000000000E+00 -0.10365624174E+04  0.17358857894E+04  0.13924215701E+04 0.  0.
        2    1    3    3  502    0  0.12204166035E+02  0.22999936282E+03  0.30079010425E+03  0.37884473784E+03  0.25500000920E-02 0. -1.
       -2    1    3    3    0  502 -0.12204166035E+02 -0.22999936282E+03 -0.13373525216E+04  0.13570410516E+04  0.25500000920E-02 0.  1.
</event>
<event>
 5   0  0.6114266E-04  0.1389876E+04  0.7818609E-02  0.8961180E-01
        1   -1    0    0  501    0  0.00000000000E+00  0.00000000000E+00  0.13159362927E+04  0.13159362927E+04  0.50400001928E-02 0.  1.
       -1   -1    0    0    0  501  0.00000000000E+00  0.00000000000E+00 -0.36699252069E+03  0.36699252072E+03  0.50400001928E-02 0. -1.
    10030    2    1    2    0    0  0.00000000000E+00  0.00000000000E+00  0.94894377201E+03  0.16829288134E+04  0.13898759328E+04 0.  0.
        3    1    3    3  502    0  0.25741816283E+03 -0.41054430610E+03  0.10776250694E+04  0.11815610599E+04  0.10100000352E+00 0.  1.
       -3    1    3    3    0  502 -0.25741816283E+03  0.41054430610E+03 -0.12868129736E+03  0.50136775357E+03  0.10100000352E+00 0. -1.
</event>
<event>
 5   0  0.1108819E-03  0.1400332E+04  0.7818609E-02  0.8953578E-01
        2   -1    0    0  501    0  0.00000000000E+00  0.00000000000E+00  0.11728133047E+04  0.11728133047E+04  0.25500000920E-02 0.  1.
       -2   -1    0    0    0  501  0.00000000000E+00  0.00000000000E+00 -0.41799698540E+03  0.41799698541E+03  0.25500000920E-02 0. -1.
    10030    2    1    2    0    0  0.00000000000E+00  0.00000000000E+00  0.75481631934E+03  0.15908102902E+04  0.14003319975E+04 0.  0.
        3    1    3    3  502    0 -0.35711812318E+03 -0.59998951407E+03  0.31825148222E+03  0.76733616299E+03  0.10100000352E+00 0. -1.
       -3    1    3    3    0  502  0.35711812318E+03  0.59998951407E+03  0.43656483713E+03  0.82347412716E+03  0.10100000352E+00 0.  1.
</event>
<event>
 5   0  0.4176125E-04  0.1372404E+04  0.7818609E-02  0.8974040E-01
       -3   -1    0    0    0  501  0.00000000000E+00  0.00000000000E+00  0.48184534559E+03  0.48184535617E+03  0.10100000352E+00 0. -1.
        3   -1    0    0  501    0  0.00000000000E+00  0.00000000000E+00 -0.97722814524E+03  0.97722815046E+03  0.10100000352E+00 0.  1.
    10030    2    1    2    0    0  0.00000000000E+00  0.00000000000E+00 -0.49538279965E+03  0.14590735066E+04  0.13724035046E+04 0.  0.
        5    1    3    3  502    0 -0.26342873483E+03 -0.43772227113E+03  0.23933812869E+03  0.56418110108E+03  0.46999998093E+01 0. -1.
       -5    1    3    3    0  502  0.26342873483E+03  0.43772227113E+03 -0.73472092834E+03  0.89489240555E+03  0.46999998093E+01 0.  1.
</event>
<event>
 5   0  0.1098949E-03  0.1394929E+04  0.7818609E-02  0.8957498E-01
        2   -1    0    0  501    0  0.00000000000E+00  0.00000000000E+00  0.61742366078E+03  0.61742366079E+03  0.25500000920E-02 0. -1.
       -2   -1    0    0    0  501  0.00000000000E+00  0.00000000000E+00 -0.78788107926E+03  0.78788107926E+03  0.25500000920E-02 0.  1.
    10030    2    1    2    0    0  0.00000000000E+00  0.00000000000E+00 -0.17045741847E+03  0.14053047401E+04  0.13949285576E+04 0.  0.
        4    1    3    3  502    0  0.92316556432E+01  0.60829238006E+03  0.25840967845E+03  0.66097051214E+03  0.12699999809E+01 0. -1.
       -4    1    3    3    0  502 -0.92316556432E+01 -0.60829238006E+03 -0.42886709693E+03  0.74433422791E+03  0.12699999809E+01 0.  1.
</event>
<event>
 5   0  0.1098949E-03  0.1381312E+04  0.7818609E-02  0.8967458E-01
       -2   -1    0    0    0  501  0.00000000000E+00  0.00000000000E+00  0.26066683962E+03  0.26066683963E+03  0.25500000920E-02 0.  1.
        2   -1    0    0  501    0  0.00000000000E+00  0.00000000000E+00 -0.18299445473E+04  0.18299445473E+04  0.25500000920E-02 0. -1.
    10030    2    1    2    0    0  0.00000000000E+00  0.00000000000E+00 -0.15692777077E+04  0.20906113870E+04  0.13813122194E+04 0.  0.
        4    1    3    3  502    0 -0.15991460649E+03 -0.33710387019E+03  0.95004225585E+02  0.38501833261E+03  0.12699999809E+01 0.  1.
       -4    1    3    3    0  502  0.15991460649E+03  0.33710387019E+03 -0.16642819333E+04  0.17055930544E+04  0.12699999809E+01 0. -1.
</event>
<event>
 5   0  0.6097538E-04  0.1401996E+04  0.7818609E-02  0.8952375E-01
        1   -1    0    0  501    0  0.00000000000E+00  0.00000000000E+00  0.55076270771E+03  0.55076270773E+03  0.50400001928E-02 0.  1.
       -1   -1    0    0    0  501  0.00000000000E+00  0.00000000000E+00 -0.89221442528E+03  0.89221442530E+03  0.50400001928E-02 0. -1.
    10030    2    1    2    0    0  0.00000000000E+00  0.00000000000E+00 -0.34145171758E+03  0.14429771330E+04  0.14019963377E+04 0.  0.
        2    1    3    3  502    0  0.53812018300E+02 -0.67627663794E+02  0.54525841439E+03  0.55206518880E+03  0.25500000920E-02 0.  1.
       -2    1    3    3    0  502 -0.53812018300E+02  0.67627663794E+02 -0.88671013197E+03  0.89091194422E+03  0.25500000920E-02 0. -1.
</event>
<event>
 5   0  0.1175146E-03  0.1398643E+04  0.7818609E-02  0.8954801E-01
        2   -1    0    0  501    0  0.00000000000E+00  0.00000000000E+00  0.12749106310E+04  0.12749106310E+04  0.25500000920E-02 0.  1.
       -2   -1    0    0    0  501  0.00000000000E+00  0.00000000000E+00 -0.38359617494E+03  0.38359617495E+03  0.25500000920E-02 0. -1.
    10030    2    1    2    0    0  0.00000000000E+00  0.00000000000E+00  0.89131445610E+03  0.16585068060E+04  0.13986434020E+04 0.  0.
        1    1    3    3  502    0 -0.56044009568E+03  0.10162443764E+03  0.92679009900E+03  0.10878237517E+04  0.50400001928E-02 0.  1.
       -1    1    3    3    0  502  0.56044009568E+03 -0.10162443764E+03 -0.35475642904E+02  0.57068305427E+03  0.50400001928E-02 0. -1.
</event>
<event>
 5   0  0.5875298E-04  0.1400639E+04  0.7818609E-02  0.8953356E-01
       -1   -1    0    0    0  501  0.00000000000E+00  0.00000000000E+00  0.53873511419E+03  0.53873511422E+03  0.50400001928E-02 0. -1.
        1   -1    0    0  501    0  0.00000000000E+00  0.00000000000E+00 -0.91036810193E+03  0.91036810194E+03  0.50400001928E-02 0.  1.
    10030    2    1    2    0    0  0.00000000000E+00  0.00000000000E+00 -0.37163298774E+03  0.14491032162E+04  0.14006388019E+04 0.  0.
        1    1    3    3  502    0  0.38236583772E+02  0.50927096889E+03 -0.68159292750E+03  0.85169705585E+03  0.50400001928E-02 0.  1.
       -1    1    3    3    0  502 -0.38236583772E+02 -0.50927096889E+03  0.30995993976E+03  0.59740616031E+03  0.50400001928E-02 0. -1.
</event>
<event>
 5   0  0.6153318E-04  0.1407221E+04  0.7818609E-02  0.8948608E-01
       -1   -1    0    0    0  501  0.00000000000E+00  0.00000000000E+00  0.51642446614E+03  0.51642446616E+03  0.50400001928E-02 0.  1.
        1   -1    0    0  501    0  0.00000000000E+00  0.00000000000E+00 -0.95864512806E+03  0.95864512808E+03  0.50400001928E-02 0. -1.
    10030    2    1    2    0    0  0.00000000000E+00  0.00000000000E+00 -0.44222066193E+03  0.14750695942E+04  0.14072210892E+04 0.  0.
        5    1    3    3  502    0 -0.14883450015E+03 -0.58925850417E+03 -0.59269966979E+03  0.84893597034E+03  0.46999998093E+01 0. -1.
       -5    1    3    3    0  502  0.14883450015E+03  0.58925850417E+03  0.15047900786E+03  0.62613362390E+03  0.46999998093E+01 0.  1.
</event>
<event>
 5   0  0.1175146E-03  0.1390799E+04  0.7818609E-02  0.8960506E-01
       -2   -1    0    0    0  501  0.00000000000E+00  0.00000000000E+00  0.10175402989E+04  0.10175402989E+04  0.25500000920E-02 0.  1.
        2   -1    0    0  501    0  0.00000000000E+00  0.00000000000E+00 -0.47524460618E+03  0.47524460618E+03  0.25500000920E-02 0. -1.
    10030    2    1    2    0    0  0.00000000000E+00  0.00000000000E+00  0.54229569271E+03  0.14927849051E+04  0.13907991064E+04 0.  0.
        1    1    3    3  502    0 -0.33890738997E+03  0.15552736769E+03  0.90115951923E+03  0.97526173933E+03  0.50400001928E-02 0.  1.
       -1    1    3    3    0  502  0.33890738997E+03 -0.15552736769E+03 -0.35886382651E+03  0.51752316575E+03  0.50400001928E-02 0. -1.
</event>
<event>
 5   0  0.6153318E-04  0.1466369E+04  0.7818609E-02  0.8907130E-01
        1   -1    0    0  501    0  0.00000000000E+00  0.00000000000E+00  0.57246533649E+03  0.57246533651E+03  0.50400001928E-02 0. -1.
       -1   -1    0    0    0  501  0.00000000000E+00  0.00000000000E+00 -0.93902533874E+03  0.93902533875E+03  0.50400001928E-02 0.  1.
    10030    2    1    2    0    0  0.00000000000E+00  0.00000000000E+00 -0.36656000225E+03  0.15114906753E+04  0.14663689257E+04 0.  0.
        5    1    3    3  502    0 -0.99123781860E+02 -0.51611773071E+03  0.34365913608E+03  0.62795439953E+03  0.46999998093E+01 0. -1.
       -5    1    3    3    0  502  0.99123781860E+02  0.51611773071E+03 -0.71021913833E+03  0.88353627573E+03  0.46999998093E+01 0.  1.
</event>
<event>
 5   0  0.6114266E-04  0.1400271E+04  0.7818609E-02  0.8953622E-01
        1   -1    0    0  501    0  0.00000000000E+00  0.00000000000E+00  0.43826400017E+03  0.43826400020E+03  0.50400001928E-02 0. -1.
       -1   -1    0    0    0  501  0.00000000000E+00  0.00000000000E+00 -0.11184811795E+04  0.11184811795E+04  0.50400001928E-02 0.  1.
    10030    2    1    2    0    0  0.00000000000E+00  0.00000000000E+00 -0.68021717929E+03  0.15567451797E+04  0.14002714535E+04 0.  0.
        3    1    3    3  502    0  0.13678711966E+03 -0.49433044268E+03  0.18971324365E+03  0.54686783384E+03  0.10100000352E+00 0. -1.
       -3    1    3    3    0  502 -0.13678711966E+03  0.49433044268E+03 -0.86993042294E+03  0.10098773458E+04  0.10100000352E+00 0.  1.
</event>
<event>
 5   0  0.6194742E-04  0.1425314E+04  0.7818609E-02  0.8935696E-01
       -1   -1    0    0    0  501  0.00000000000E+00  0.00000000000E+00  0.35359296351E+03  0.35359296354E+03  0.50400001928E-02 0. -1.
        1   -1    0    0  501    0  0.00000000000E+00  0.00000000000E+00 -0.14363400589E+04  0.14363400589E+04  0.50400001928E-02 0.  1.
    10030    2    1    2    0    0  0.00000000000E+00  0.00000000000E+00 -0.10827470954E+04  0.17899330224E+04  0.14253136329E+04 0.  0.
        4    1    3    3  502    0  0.67915950939E+03 -0.21492506453E+03 -0.51540203255E+03  0.87925610070E+03  0.12699999809E+01 0.  1.
       -4    1    3    3    0  502 -0.67915950939E+03  0.21492506453E+03 -0.56734506280E+03  0.91067692171E+03  0.12699999809E+01 0. -1.
</event>
<event>
 5   0  0.1095119E-03  0.1399672E+04  0.7818609E-02  0.8954056E-01
       -2   -1    0    0    0  501  0.00000000000E+00  0.00000000000E+00  0.25529110079E+03  0.25529110081E+03  0.25500000920E-02 0. -1.
        2   -1    0    0  501    0  0.00000000000E+00  0.00000000000E+00 -0.19184779349E+04  0.19184779349E+04  0.25500000920E-02 0.  1.
    10030    2    1    2    0    0  0.00000000000E+00  0.00000000000E+00 -0.16631868341E+04  0.21737690357E+04  0.13996718814E+04 0.  0.
        5    1    3    3  502    0 -0.30108790362E+02 -0.29072709670E+03  0.15593474089E+03  0.33131030384E+03  0.46999998093E+01 0. -1.
       -5    1    3    3    0  502  0.30108790362E+02  0.29072709670E+03 -0.18191215750E+04  0.18424587319E+04  0.46999998093E+01 0.  1.
</event>
<event>
 5   0  0.1175146E-03  0.1388850E+04  0.7818609E-02  0.8961929E-01
       -2   -1    0    0    0  501  0.00000000000E+00  0.00000000000E+00  0.20478318227E+03  0.20478318229E+03  0.25500000920E-02 0.  1.
        2   -1    0    0  501    0  0.00000000000E+00  0.00000000000E+00 -0.23548126559E+04  0.23548126559E+04  0.25500000920E-02 0. -1.
    10030    2    1    2    0    0  0.00000000000E+00  0.00000000000E+00 -0.21500294736E+04  0.25595958381E+04  0.13888499262E+04 0.  0.
        1    1    3    3  502    0 -0.35921604456E+02  0.67884204744E+02  0.19693180404E+03  0.21137824483E+03  0.50400001928E-02 0.  1.
       -1    1    3    3    0  502  0.35921604456E+02 -0.67884204744E+02 -0.23469612776E+04  0.23482175933E+04  0.50400001928E-02 0. -1.
</event>
<event>
 5   0  0.6097538E-04  0.1402541E+04  0.7818609E-02  0.8951981E-01
        1   -1    0    0  501    0  0.00000000000E+00  0.00000000000E+00  0.17614301730E+04  0.17614301730E+04  0.50400001928E-02 0. -1.
       -1   -1    0    0    0  501  0.00000000000E+00  0.00000000000E+00 -0.27919368068E+03  0.27919368073E+03  0.50400001928E-02 0.  1.
    10030    2    1    2    0    0  0.00000000000E+00  0.00000000000E+00  0.14822364923E+04  0.20406238537E+04  0.14025407991E+04 0.  0.
        2    1    3    3  502    0  0.81874947436E+02  0.68951349282E+03  0.88402798163E+03  0.11241164691E+04  0.25500000920E-02 0. -1.
       -2    1    3    3    0  502 -0.81874947436E+02 -0.68951349282E+03  0.59820851067E+03  0.91650738461E+03  0.25500000920E-02 0.  1.
</event>
<event>
 5   0  0.6153318E-04  0.1388316E+04  0.7818609E-02  0.8962320E-01
        1   -1    0    0  501    0  0.00000000000E+00  0.00000000000E+00  0.42995041219E+03  0.42995041222E+03  0.50400001928E-02 0. -1.
       -1   -1    0    0    0  501  0.00000000000E+00  0.00000000000E+00 -0.11207223524E+04  0.11207223524E+04  0.50400001928E-02 0.  1.
    10030    2    1    2    0    0  0.00000000000E+00  0.00000000000E+00 -0.69077194019E+03  0.15506727646E+04  0.13883155800E+04 0.  0.
        5    1    3    3  502    0 -0.25378225368E+03 -0.20402547956E+03  0.33933084945E+03  0.47031834323E+03  0.46999998093E+01 0. -1.
       -5    1    3    3    0  502  0.25378225368E+03  0.20402547956E+03 -0.10301027896E+04  0.10803544214E+04  0.46999998093E+01 0.  1.
</event>
<event>
 5   0  0.1108819E-03  0.1414035E+04  0.7818609E-02  0.8943721E-01
        2   -1    0    0  501    0  0.00000000000E+00  0.00000000000E+00  0.99755284117E+03  0.99755284117E+03  0.25500000920E-02 0.  1.
       -2   -1    0    0    0  501  0.00000000000E+00  0.00000000000E+00 -0.50110003776E+03  0.50110003777E+03  0.25500000920E-02 0. -1.
    10030    2    1    2    0    0  0.00000000000E+00  0.00000000000E+00  0.49645280341E+03  0.14986528789E+04  0.14140350298E+04 0.  0.
        3    1    3    3  502    0  0.61050933410E+03 -0.29966883634E+03  0.45305483503E+03  0.81717914330E+03  0.10100000352E+00 0.  1.
       -3    1    3    3    0  502 -0.61050933410E+03  0.29966883634E+03  0.43397968383E+02  0.68147373564E+03  0.10100000352E+00 0. -1.
</event>
<event>
 5   0  0.1175146E-03  0.1292984E+04  0.7818609E-02  0.9035147E-01
        2   -1    0    0  501    0  0.00000000000E+00  0.00000000000E+00  0.11613987656E+04  0.11613987656E+04  0.25500000920E-02 0. -1.
       -2   -1    0    0    0  501  0.00000000000E+00  0.00000000000E+00 -0.35986942686E+03  0.35986942687E+03  0.25500000920E-02 0.  1.
    10030    2    1    2    0    0  0.00000000000E+00  0.00000000000E+00  0.80152933878E+03  0.15212681925E+04  0.12929840032E+04 0.  0.
        1    1    3    3  502    0  0.55599848501E+03  0.16082930364E+03  0.73962819727E+03  0.93917530337E+03  0.50400001928E-02 0. -1.
       -1    1    3    3    0  502 -0.55599848501E+03 -0.16082930364E+03  0.61901141510E+02  0.58209288914E+03  0.50400001928E-02 0.  1.
</event>
<event>
 5   0  0.4176125E-04  0.1396910E+04  0.7818609E-02  0.8956059E-01
        3   -1    0    0  501    0  0.00000000000E+00  0.00000000000E+00  0.68088841416E+03  0.68088842165E+03  0.10100000352E+00 0.  1.
       -3   -1    0    0    0  501  0.00000000000E+00  0.00000000000E+00 -0.71647444023E+03  0.71647444735E+03  0.10100000352E+00 0. -1.
    10030    2    1    2    0    0  0.00000000000E+00  0.00000000000E+00 -0.35586026067E+02  0.13973628690E+04  0.13969096687E+04 0.  0.
        2    1    3    3  502    0  0.52966467193E+03 -0.80353818399E+02 -0.46608766141E+03  0.71009795729E+03  0.25500000920E-02 0. -1.
       -2    1    3    3    0  502 -0.52966467193E+03  0.80353818399E+02  0.43050163535E+03  0.68726491171E+03  0.25500000920E-02 0.  1.
</event>
<event>
 5   0  0.6097538E-04  0.1391815E+04  0.7818609E-02  0.8959765E-01
        1   -1    0    0  501    0  0.00000000000E+00  0.00000000000E+00  0.59227040908E+03  0.59227040910E+03  0.50400001928E-02 0. -1.
       -1   -1    0    0    0  501  0.00000000000E+00  0.00000000000E+00 -0.81767951670E+03  0.81767951671E+03  0.50400001928E-02 0.  1.
    10030    2    1    2    0    0  0.00000000000E+00  0.00000000000E+00 -0.22540910762E+03  0.14099499258E+04  0.13918151916E+04 0.  0.
        2    1    3    3  502    0  0.44520672442E+03 -0.51300181987E+03 -0.26602880167E+03  0.72948695532E+03  0.25500000920E-02 0.  1.
       -2    1    3    3    0  502 -0.44520672442E+03  0.51300181987E+03  0.40619694051E+02  0.68046297049E+03  0.25500000920E-02 0. -1.
</event>
<event>
 5   0  0.6153318E-04  0.1435180E+04  0.7818609E-02  0.8928740E-01
       -1   -1    0    0    0  501  0.00000000000E+00  0.00000000000E+00  0.37112815242E+03  0.37112815245E+03  0.50400001928E-02 0.  1.
        1   -1    0    0  501    0  0.00000000000E+00  0.00000000000E+00 -0.13874874364E+04  0.13874874365E+04  0.50400001928E-02 0. -1.
    10030    2    1    2    0    0  0.00000000000E+00  0.00000000000E+00 -0.10163592840E+04  0.17586155889E+04  0.14351803355E+04 0.  0.
        5    1    3    3  502    0 -0.20248481970E+03 -0.46323230691E+03  0.11582845634E+03  0.51867387988E+03  0.46999998093E+01 0.  1.
       -5    1    3    3    0  502  0.20248481970E+03  0.46323230691E+03 -0.11321877404E+04  0.12399417090E+04  0.46999998093E+01 0. -1.
</event>
<event>
 5   0  0.6097538E-04  0.1385484E+04  0.7818609E-02  0.8964393E-01
        1   -1    0    0  501    0  0.00000000000E+00  0.00000000000E+00  0.18214277116E+04  0.18214277116E+04  0.50400001928E-02 0.  1.
       -1   -1    0    0    0  501  0.00000000000E+00  0.00000000000E+00 -0.26346999032E+03  0.26346999037E+03  0.50400001928E-02 0. -1.
    10030    2    1    2    0    0  0.00000000000E+00  0.00000000000E+00  0.15579577213E+04  0.20848977020E+04  0.13854840910E+04 0.  0.
        2    1    3    3  502    0  0.15041937012E+03  0.11142428840E+03  0.17826468981E+04  0.17924484155E+04  0.25500000920E-02 0.  1.
       -2    1    3    3    0  502 -0.15041937012E+03 -0.11142428840E+03 -0.22468917683E+03  0.29244928645E+03  0.25500000920E-02 0. -1.
</event>
<event>
 5   0  0.6153318E-04  0.1409781E+04  0.7818609E-02  0.8946769E-01
        1   -1    0    0  501    0  0.00000000000E+00  0.00000000000E+00  0.74507102557E+03  0.74507102558E+03  0.50400001928E-02 0. -1.
       -1   -1    0    0    0  501  0.00000000000E+00  0.00000000000E+00 -0.66687655270E+03  0.66687655272E+03  0.50400001928E-02 0.  1.
    10030    2    1    2    0    0  0.00000000000E+00  0.00000000000E+00  0.78194472863E+02  0.14119475783E+04  0.14097806880E+04 0.  0.
        5    1    3    3  502    0 -0.57563852804E+03  0.75178832970E+02  0.43950760584E+03  0.72814874681E+03  0.46999998093E+01 0. -1.
       -5    1    3    3    0  502  0.57563852804E+03 -0.75178832970E+02 -0.36131313298E+03  0.68379883149E+03  0.46999998093E+01 0.  1.
</event>
<event>
 5   0  0.6097538E-04  0.1402152E+04  0.7818609E-02  0.8952262E-01
       -1   -1    0    0    0  501  0.00000000000E+00  0.00000000000E+00  0.79515544561E+03  0.79515544563E+03  0.50400001928E-02 0. -1.
        1   -1    0    0  501    0  0.00000000000E+00  0.00000000000E+00 -0.61812759255E+03  0.61812759257E+03  0.50400001928E-02 0.  1.
    10030    2    1    2    0    0  0.00000000000E+00  0.00000000000E+00  0.17702785306E+03  0.14132830382E+04  0.14021519480E+04 0.  0.
        2    1    3    3  502    0  0.17478300077E+02 -0.29537455111E+03 -0.55210689122E+03  0.62639734654E+03  0.25500000920E-02 0.  1.
       -2    1    3    3    0  502 -0.17478300077E+02  0.29537455111E+03  0.72913474427E+03  0.78688569166E+03  0.25500000920E-02 0. -1.
</event>
<event>
 5   0  0.1108819E-03  0.1422946E+04  0.7818609E-02  0.8937375E-01
        2   -1    0    0  501    0  0.00000000000E+00  0.00000000000E+00  0.14825291985E+04  0.14825291985E+04  0.25500000920E-02 0. -1.
       -2   -1    0    0    0  501  0.00000000000E+00  0.00000000000E+00 -0.34143916997E+03  0.34143916998E+03  0.25500000920E-02 0.  1.
    10030    2    1    2    0    0  0.00000000000E+00  0.00000000000E+00  0.11410900285E+04  0.18239683685E+04  0.14229455914E+04 0.  0.
        3    1    3    3  502    0 -0.69633148539E+03 -0.67776360237E+02  0.73630425304E+03  0.10156845651E+04  0.10100000352E+00 0.  1.
       -3    1    3    3    0  502  0.69633148539E+03  0.67776360237E+02  0.40478577548E+03  0.80828380337E+03  0.10100000352E+00 0. -1.
</event>
<event>
 5   0  0.1120053E-03  0.1400047E+04  0.7818609E-02  0.8953785E-01
        2   -1    0    0  501    0  0.00000000000E+00  0.00000000000E+00  0.50827672655E+03  0.50827672655E+03  0.25500000920E-02 0. -1.
       -2   -1    0    0    0  501  0.00000000000E+00  0.00000000000E+00 -0.96410585977E+03  0.96410585977E+03  0.25500000920E-02 0.  1.
    10030    2    1    2    0    0  0.00000000000E+00  0.00000000000E+00 -0.45582913322E+03  0.14723825863E+04  0.14000465284E+04 0.  0.
        2    1    3    3  502    0  0.29446347132E+03  0.29032848096E+03 -0.82192783878E+03  0.92008952551E+03  0.25500000920E-02 0.  1.
       -2    1    3    3    0  502 -0.29446347132E+03 -0.29032848096E+03  0.36609870556E+03  0.55229306081E+03  0.25500000920E-02 0. -1.
</event>
<event>
 5   0  0.1175146E-03  0.1472304E+04  0.7818609E-02  0.8903082E-01
       -2   -1    0    0    0  501  0.00000000000E+00  0.00000000000E+00  0.11459796258E+04  0.11459796258E+04  0.25500000920E-02 0.  1.
        2   -1    0    0  501    0  0.00000000000E+00  0.00000000000E+00 -0.47288787659E+03  0.47288787660E+03  0.25500000920E-02 0. -1.
    10030    2    1    2    0    0  0.00000000000E+00  0.00000000000E+00  0.67309174921E+03  0.16188675024E+04  0.14723041423E+04 0.  0.
        1    1    3    3  502    0 -0.60719200236E+03 -0.38702139373E+03  0.50493165962E+03  0.87944509086E+03  0.50400001928E-02 0.  1.
       -1    1    3    3    0  502  0.60719200236E+03  0.38702139373E+03  0.16816008960E+03  0.73942241154E+03  0.50400001928E-02 0. -1.
</event>
<event>
 5   0  0.6097538E-04  0.1379177E+04  0.7818609E-02  0.8969031E-01
        1   -1    0    0  501    0  0.00000000000E+00  0.00000000000E+00  0.88513973381E+03  0.88513973382E+03  0.50400001928E-02 0. -1.
       -1   -1    0    0    0  501  0.00000000000E+00  0.00000000000E+00 -0.53723970057E+03  0.53723970060E+03  0.50400001928E-02 0.  1.
    10030    2    1    2    0    0  0.00000000000E+00  0.00000000000E+00  0.34790003324E+03  0.14223794344E+04  0.13791768641E+04 0.  0.
        2    1    3    3  502    0  0.48473511360E+03  0.36405990631E+03 -0.16501630685E+03  0.62828188520E+03  0.25500000920E-02 0.  1.
       -2    1    3    3    0  502 -0.48473511360E+03 -0.36405990631E+03  0.51291634008E+03  0.79409754922E+03  0.25500000920E-02 0. -1.
</event>
<event>
 5   0  0.1098949E-03  0.1396261E+04  0.7818609E-02  0.8956530E-01
        2   -1    0    0  501    0  0.00000000000E+00  0.00000000000E+00  0.13414613512E+04  0.13414613512E+04  0.25500000920E-02 0.  1.
       -2   -1    0    0    0  501  0.00000000000E+00  0.00000000000E+00 -0.36332471995E+03  0.36332471996E+03  0.25500000920E-02 0. -1.
    10030    2    1    2    0    0  0.00000000000E+00  0.00000000000E+00  0.97813663124E+03  0.17047860712E+04  0.13962608206E+04 0.  0.
        4    1    3    3  502    0 -0.52494320944E+03  0.45822326979E+03  0.43654524823E+03  0.82225744433E+03  0.12699999809E+01 0.  1.
       -4    1    3    3    0  502  0.52494320944E+03 -0.45822326979E+03  0.54159138302E+03  0.88252862683E+03  0.12699999809E+01 0. -1.
</event>
<event>
 5   0  0.5875298E-04  0.1430043E+04  0.7818609E-02  0.8932354E-01
       -1   -1    0    0    0  501  0.00000000000E+00  0.00000000000E+00  0.46239949397E+03  0.46239949400E+03  0.50400001928E-02 0. -1.
        1   -1    0    0  501    0  0.00000000000E+00  0.00000000000E+00 -0.11056584875E+04  0.11056584875E+04  0.50400001928E-02 0.  1.
    10030    2    1    2    0    0  0.00000000000E+00  0.00000000000E+00 -0.64325899353E+03  0.15680579815E+04  0.14300432513E+04 0.  0.
        1    1    3    3  502    0  0.31616800773E+03  0.63842030169E+03 -0.38844682843E+03  0.81143923325E+03  0.50400001928E-02 0.  1.
       -1    1    3    3    0  502 -0.31616800773E+03 -0.63842030169E+03 -0.25481216511E+03  0.75661874827E+03  0.50400001928E-02 0. -1.
</event>
<event>
 5   0  0.6194742E-04  0.1241259E+04  0.7818609E-02  0.9077490E-01
        1   -1    0    0  501    0  0.00000000000E+00  0.00000000000E+00  0.18964582348E+04  0.18964582349E+04  0.50400001928E-02 0. -1.
       -1   -1    0    0    0  501  0.00000000000E+00  0.00000000000E+00 -0.20310545528E+03  0.20310545534E+03  0.50400001928E-02 0.  1.
    10030    2    1    2    0    0  0.00000000000E+00  0.00000000000E+00  0.16933527796E+04  0.20995636902E+04  0.12412590596E+04 0.  0.
        4    1    3    3  502    0 -0.11118118993E+03 -0.24739091072E+03 -0.97550606808E+02  0.28823818882E+03  0.12699999809E+01 0.  1.
       -4    1    3    3    0  502  0.11118118993E+03  0.24739091072E+03  0.17909033864E+04  0.18113255014E+04  0.12699999809E+01 0. -1.
</event>
<event>
 5   0  0.1108819E-03  0.1373097E+04  0.7818609E-02  0.8973526E-01
        2   -1    0    0  501    0  0.00000000000E+00  0.00000000000E+00  0.11975200329E+04  0.11975200329E+04  0.25500000920E-02 0. -1.
       -2   -1    0    0    0  501  0.00000000000E+00  0.00000000000E+00 -0.39360394686E+03  0.39360394686E+03  0.25500000920E-02 0.  1.
    10030    2    1    2    0    0  0.00000000000E+00  0.00000000000E+00  0.80391608608E+03  0.15911239798E+04  0.13730966629E+04 0.  0.
        3    1    3    3  502    0  0.39036645042E+03 -0.54474818365E+03  0.57465999661E+03  0.88281972741E+03  0.10100000352E+00 0. -1.
       -3    1    3    3    0  502 -0.39036645042E+03  0.54474818365E+03  0.22925608947E+03  0.70830425239E+03  0.10100000352E+00 0.  1.
</event>
<event>
 5   0  0.6153318E-04  0.1387470E+04  0.7818609E-02  0.8962939E-01
       -1   -1    0    0    0  501  0.00000000000E+00  0.00000000000E+00  0.56942342706E+03  0.56942342708E+03  0.50400001928E-02 0. -1.
        1   -1    0    0  501    0  0.00000000000E+00  0.00000000000E+00 -0.84518486337E+03  0.84518486339E+03  0.50400001928E-02 0.  1.
    10030    2    1    2    0    0  0.00000000000E+00  0.00000000000E+00 -0.27576143631E+03  0.14146082905E+04  0.13874697279E+04 0.  0.
        5    1    3    3  502    0  0.19581044670E+03  0.64709666636E+03  0.20627691478E+02  0.67640477401E+03  0.46999998093E+01 0.  1.
       -5    1    3    3    0  502 -0.19581044670E+03 -0.64709666636E+03 -0.29638912779E+03  0.73820351646E+03  0.46999998093E+01 0. -1.
</event>
<event>
 5   0  0.1108819E-03  0.1406946E+04  0.7818609E-02  0.8948806E-01
       -2   -1    0    0    0  501  0.00000000000E+00  0.00000000000E+00  0.55518604077E+03  0.55518604078E+03  0.25500000920E-02 0. -1.
        2   -1    0    0  501    0  0.00000000000E+00  0.00000000000E+00 -0.89136593693E+03  0.89136593693E+03  0.25500000920E-02 0.  1.
    10030    2    1    2    0    0  0.00000000000E+00  0.00000000000E+00 -0.33617989616E+03  0.14465519777E+04  0.14069455219E+04 0.  0.
        3    1    3    3  502    0 -0.11676600225E+03 -0.28096802687E+03 -0.82021357336E+03  0.87483006780E+03  0.10100000352E+00 0.  1.
       -3    1    3    3    0  502  0.11676600225E+03  0.28096802687E+03  0.48403367720E+03  0.57172190991E+03  0.10100000352E+00 0. -1.
</event>
<event>
 5   0  0.6194742E-04  0.1409012E+04  0.7818609E-02  0.8947321E-01
        1   -1    0    0  501    0  0.00000000000E+00  0.00000000000E+00  0.11491575864E+04  0.11491575864E+04  0.50400001928E-02 0. -1.
       -1   -1    0    0    0  501  0.00000000000E+00  0.00000000000E+00 -0.43190630201E+03  0.43190630204E+03  0.50400001928E-02 0.  1.
    10030    2    1    2    0    0  0.00000000000E+00  0.00000000000E+00  0.71725128438E+03  0.15810638884E+04  0.14090115735E+04 0.  0.
        4    1    3    3  502    0  0.23694540120E+03  0.61609684314E+02 -0.38263546896E+03  0.45425806691E+03  0.12699999809E+01 0.  1.
       -4    1    3    3    0  502 -0.23694540120E+03 -0.61609684314E+02  0.10998867533E+04  0.11268058215E+04  0.12699999809E+01 0. -1.
</event>
<event>
 5   0  0.6153318E-04  0.1402274E+04  0.7818609E-02  0.8952174E-01
       -1   -1    0    0    0  501  0.00000000000E+00  0.00000000000E+00  0.81172912490E+03  0.81172912491E+03  0.50400001928E-02 0. -1.
        1   -1    0    0  501    0  0.00000000000E+00  0.00000000000E+00 -0.60561213197E+03  0.60561213200E+03  0.50400001928E-02 0.  1.
    10030    2    1    2    0    0  0.00000000000E+00  0.00000000000E+00  0.20611699292E+03  0.14173412569E+04  0.14022738762E+04 0.  0.
        5    1    3    3  502    0 -0.55395597116E+03 -0.34473319034E+03  0.36245339741E+03  0.74639315766E+03  0.46999998093E+01 0. -1.
       -5    1    3    3    0  502  0.55395597116E+03  0.34473319034E+03 -0.15633640449E+03  0.67094809924E+03  0.46999998093E+01 0.  1.
</event>
<event>
 5   0  0.1095119E-03  0.1391834E+04  0.7818609E-02  0.8959750E-01
        2   -1    0    0  501    0  0.00000000000E+00  0.00000000000E+00  0.27876737420E+04  0.27876737420E+04  0.25500000920E-02 0. -1.
       -2   -1    0    0    0  501  0.00000000000E+00  0.00000000000E+00 -0.17372936506E+03  0.17372936508E+03  0.25500000920E-02 0.  1.
    10030    2    1    2    0    0  0.00000000000E+00  0.00000000000E+00  0.26139443769E+04  0.29614031070E+04  0.13918344574E+04 0.  0.
        5    1    3    3  502    0 -0.93403721634E+02 -0.21111733675E+03 -0.89847906204E+02  0.24776908875E+03  0.46999998093E+01 0.  1.
       -5    1    3    3    0  502  0.93403721634E+02  0.21111733675E+03  0.27037922831E+04  0.27136340183E+04  0.46999998093E+01 0. -1.
</event>
<event>
 5   0  0.5875298E-04  0.1338793E+04  0.7818609E-02  0.8999355E-01
        1   -1    0    0  501    0  0.00000000000E+00  0.00000000000E+00  0.44279228060E+03  0.44279228063E+03  0.50400001928E-02 0.  1.
       -1   -1    0    0    0  501  0.00000000000E+00  0.00000000000E+00 -0.10119686825E+04  0.10119686825E+04  0.50400001928E-02 0. -1.
    10030    2    1    2    0    0  0.00000000000E+00  0.00000000000E+00 -0.56917640193E+03  0.14547609632E+04  0.13387933685E+04 0.  0.
        1    1    3    3  502    0  0.66003619159E+03 -0.67934914528E+02 -0.38073416691E+03  0.76499766843E+03  0.50400001928E-02 0.  1.
       -1    1    3    3    0  502 -0.66003619159E+03  0.67934914528E+02 -0.18844223501E+03  0.68976329475E+03  0.50400001928E-02 0. -1.
</event>
<event>
 5   0  0.1095119E-03  0.1411509E+04  0.7818609E-02  0.8945529E-01
       -2   -1    0    0    0  501  0.00000000000E+00  0.00000000000E+00  0.25010430711E+03  0.25010430712E+03  0.25500000920E-02 0. -1.
        2   -1    0    0  501    0  0.00000000000E+00  0.00000000000E+00 -0.19915274547E+04  0.19915274547E+04  0.25500000920E-02 0.  1.
    10030    2    1    2    0    0  0.00000000000E+00  0.00000000000E+00 -0.17414231476E+04  0.22416317619E+04  0.14115092549E+04 0.  0.
        5    1    3    3  502    0 -0.31582738308E+03  0.60090118850E+03 -0.11771728736E+04  0.13588919157E+04  0.46999998093E+01 0.  1.
       -5    1    3    3    0  502  0.31582738308E+03 -0.60090118850E+03 -0.56425027407E+03  0.88273984618E+03  0.46999998093E+01 0. -1.
</event>
<event>
 5   0  0.6097538E-04  0.1407048E+04  0.7818609E-02  0.8948732E-01
       -1   -1    0    0    0  501  0.00000000000E+00  0.00000000000E+00  0.13605132148E+04  0.13605132148E+04  0.50400001928E-02 0.  1.
        1   -1    0    0  501    0  0.00000000000E+00  0.00000000000E+00 -0.36379369689E+03  0.36379369692E+03  0.50400001928E-02 0. -1.
    10030    2    1    2    0    0  0.00000000000E+00  0.00000000000E+00  0.99671951790E+03  0.17243069117E+04  0.14070481614E+04 0.  0.
        2    1    3    3  502    0  0.44365927303E+03  0.15780032197E+03  0.11389129589E+04  0.12324192550E+04  0.25500000920E-02 0.  1.
       -2    1    3    3    0  502 -0.44365927303E+03 -0.15780032197E+03 -0.14219344099E+03  0.49188765672E+03  0.25500000920E-02 0. -1.
</event>
<event>
 5   0  0.6114266E-04  0.1400530E+04  0.7818609E-02  0.8953435E-01
        1   -1    0    0  501    0  0.00000000000E+00  0.00000000000E+00  0.17239797582E+04  0.17239797583E+04  0.50400001928E-02 0.  1.
       -1   -1    0    0    0  501  0.00000000000E+00  0.00000000000E+00 -0.28444121531E+03  0.28444121536E+03  0.50400001928E-02 0. -1.
    10030    2    1    2    0    0  0.00000000000E+00  0.00000000000E+00  0.14395385429E+04  0.20084209736E+04  0.14005297536E+04 0.  0.
        3    1    3    3  502    0 -0.67647775291E+02  0.63547059429E+02  0.17151200754E+04  0.17176295682E+04  0.10100000352E+00 0.  1.
       -3    1    3    3    0  502  0.67647775291E+02 -0.63547059429E+02 -0.27558153244E+03  0.29079140545E+03  0.10100000352E+00 0. -1.
</event>
<event>
 5   0  0.6153318E-04  0.1394330E+04  0.7818609E-02  0.8957933E-01
       -1   -1    0    0    0  501  0.00000000000E+00  0.00000000000E+00  0.76213390228E+03  0.76213390230E+03  0.50400001928E-02 0. -1.
        1   -1    0    0  501    0  0.00000000000E+00  0.00000000000E+00 -0.63773427923E+03  0.63773427925E+03  0.50400001928E-02 0.  1.
    10030    2    1    2    0    0  0.00000000000E+00  0.00000000000E+00  0.12439962305E+03  0.13998681816E+04  0.13943298245E+04 0.  0.
        5    1    3    3  502    0  0.52770511155E+03  0.61935156031E+02 -0.39093336024E+03  0.65966630235E+03  0.46999998093E+01 0. -1.
       -5    1    3    3    0  502 -0.52770511155E+03 -0.61935156031E+02  0.51533298329E+03  0.74020187920E+03  0.46999998093E+01 0.  1.
</event>
<event>
 5   0  0.1120053E-03  0.1199378E+04  0.7818609E-02  0.9113401E-01
       -2   -1    0    0    0  501  0.00000000000E+00  0.00000000000E+00  0.36988568677E+03  0.36988568677E+03  0.25500000920E-02 0.  1.
        2   -1    0    0  501    0  0.00000000000E+00  0.00000000000E+00 -0.97226463867E+03  0.97226463867E+03  0.25500000920E-02 0. -1.
    10030    2    1    2    0    0  0.00000000000E+00  0.00000000000E+00 -0.60237895190E+03  0.13421503254E+04  0.11993777947E+04 0.  0.
        2    1    3    3  502    0  0.65697578543E+02  0.50065089937E+03 -0.66321069438E+03  0.83355618887E+03  0.25500000920E-02 0. -1.
       -2    1    3    3    0  502 -0.65697578543E+02 -0.50065089937E+03  0.60831742472E+02  0.50859413658E+03  0.25500000920E-02 0.  1.
</event>
<event>
 5   0  0.1175146E-03  0.1392055E+04  0.7818609E-02  0.8959589E-01
       -2   -1    0    0    0  501  0.00000000000E+00  0.00000000000E+00  0.29958690621E+03  0.29958690622E+03  0.25500000920E-02 0.  1.
        2   -1    0    0  501    0  0.00000000000E+00  0.00000000000E+00 -0.16170754354E+04  0.16170754354E+04  0.25500000920E-02 0. -1.
    10030    2    1    2    0    0  0.00000000000E+00  0.00000000000E+00 -0.13174885292E+04  0.19166623416E+04  0.13920554972E+04 0.  0.
        1    1    3    3  502    0  0.64020894507E+03 -0.26771950567E+03 -0.73306142354E+03  0.10094158101E+04  0.50400001928E-02 0.  1.
       -1    1    3    3    0  502 -0.64020894507E+03  0.26771950567E+03 -0.58442710567E+03  0.90724653151E+03  0.50400001928E-02 0. -1.
</event>
<event>
 5   0  0.5875298E-04  0.1372900E+04  0.7818609E-02  0.8973672E-01
        1   -1    0    0  501    0  0.00000000000E+00  0.00000000000E+00  0.98568159035E+03  0.98568159036E+03  0.50400001928E-02 0. -1.
       -1   -1    0    0    0  501  0.00000000000E+00  0.00000000000E+00 -0.47805845541E+03  0.47805845544E+03  0.50400001928E-02 0.  1.
    10030    2    1    2    0    0  0.00000000000E+00  0.00000000000E+00  0.50762313494E+03  0.14637400458E+04  0.13728997322E+04 0.  0.
        1    1    3    3  502    0 -0.17942401298E+03 -0.15413556146E+03 -0.43323564329E+03  0.49360294811E+03  0.50400001928E-02 0.  1.
       -1    1    3    3    0  502  0.17942401298E+03  0.15413556146E+03  0.94085877823E+03  0.97013709770E+03  0.50400001928E-02 0. -1.
</event>
<event>
 5   0  0.6114266E-04  0.1391791E+04  0.7818609E-02  0.8959782E-01
       -1   -1    0    0    0  501  0.00000000000E+00  0.00000000000E+00  0.61561645577E+03  0.61561645579E+03  0.50400001928E-02 0.  1.
        1   -1    0    0  501    0  0.00000000000E+00  0.00000000000E+00 -0.78664283780E+03  0.78664283782E+03  0.50400001928E-02 0. -1.
    10030    2    1    2    0    0  0.00000000000E+00  0.00000000000E+00 -0.17102638203E+03  0.14022592936E+04  0.13917906104E+04 0.  0.
        3    1    3    3  502    0 -0.48064436277E+03 -0.43320953684E+03  0.17250043677E+03  0.66966104647E+03  0.10100000352E+00 0.  1.
       -3    1    3    3    0  502  0.48064436277E+03  0.43320953684E+03 -0.34352681880E+03  0.73259824714E+03  0.10100000352E+00 0. -1.
</event>
<event>
 5   0  0.6114266E-04  0.1392088E+04  0.7818609E-02  0.8959566E-01
        1   -1    0    0  501    0  0.00000000000E+00  0.00000000000E+00  0.16467791292E+04  0.16467791292E+04  0.50400001928E-02 0. -1.
       -1   -1    0    0    0  501  0.00000000000E+00  0.00000000000E+00 -0.29419666313E+03  0.29419666317E+03  0.50400001928E-02 0.  1.
    10030    2    1    2    0    0  0.00000000000E+00  0.00000000000E+00  0.13525824661E+04  0.19409757924E+04  0.13920875328E+04 0.  0.
        3    1    3    3  502    0 -0.99983326806E+01  0.51347880540E+03  0.21246528435E+02  0.51401544279E+03  0.10100000352E+00 0.  1.
       -3    1    3    3    0  502  0.99983326806E+01 -0.51347880540E+03  0.13313359376E+04  0.14269603496E+04  0.10100000352E+00 0. -1.
</event>
<event>
 5   0  0.6097538E-04  0.1430120E+04  0.7818609E-02  0.8932300E-01
        1   -1    0    0  501    0  0.00000000000E+00  0.00000000000E+00  0.77820316747E+03  0.77820316748E+03  0.50400001928E-02 0. -1.
       -1   -1    0    0    0  501  0.00000000000E+00  0.00000000000E+00 -0.65704047620E+03  0.65704047622E+03  0.50400001928E-02 0.  1.
    10030    2    1    2    0    0  0.00000000000E+00  0.00000000000E+00  0.12116269126E+03  0.14352436437E+04  0.14301202464E+04 0.  0.
        2    1    3    3  502    0 -0.21136191007E+03  0.50932258266E+03  0.51743479331E+03  0.75618920620E+03  0.25500000920E-02 0. -1.
       -2    1    3    3    0  502  0.21136191007E+03 -0.50932258266E+03 -0.39627210205E+03  0.67905443751E+03  0.25500000920E-02 0.  1.
</event>
<event>
 5   0  0.1175146E-03  0.1368063E+04  0.7818609E-02  0.8977266E-01
        2   -1    0    0  501    0  0.00000000000E+00  0.00000000000E+00  0.12983728899E+04  0.12983728899E+04  0.25500000920E-02 0.  1.
       -2   -1    0    0    0  501  0.00000000000E+00  0.00000000000E+00 -0.36037332378E+03  0.36037332379E+03  0.25500000920E-02 0. -1.
    10030    2    1    2    0    0  0.00000000000E+00  0.00000000000E+00  0.93799956610E+03  0.16587462137E+04  0.13680627966E+04 0.  0.
        1    1    3    3  502    0 -0.32283427004E+03  0.39681509817E+03  0.10195967205E+04  0.11407285656E+04  0.50400001928E-02 0.  1.
       -1    1    3    3    0  502  0.32283427004E+03 -0.39681509817E+03 -0.81597154372E+02  0.51801764804E+03  0.50400001928E-02 0. -1.
</event>
<event>
 5   0  0.1108819E-03  0.1396091E+04  0.7818609E-02  0.8956653E-01
        2   -1    0    0  501    0  0.00000000000E+00  0.00000000000E+00  0.91569019655E+03  0.91569019656E+03  0.25500000920E-02 0. -1.
       -2   -1    0    0    0  501  0.00000000000E+00  0.00000000000E+00 -0.53213173090E+03  0.53213173090E+03  0.25500000920E-02 0.  1.
    10030    2    1    2    0    0  0.00000000000E+00  0.00000000000E+00  0.38355846566E+03  0.14478219275E+04  0.13960914143E+04 0.  0.
        3    1    3    3  502    0  0.30953180019E+03  0.53397448166E+03  0.52994325197E+03  0.81349772151E+03  0.10100000352E+00 0. -1.
       -3    1    3    3    0  502 -0.30953180019E+03 -0.53397448166E+03 -0.14638478631E+03  0.63432420595E+03  0.10100000352E+00 0.  1.
</event>
<event>
 5   0  0.6114266E-04  0.1420672E+04  0.7818609E-02  0.8938990E-01
       -1   -1    0    0    0  501  0.00000000000E+00  0.00000000000E+00  0.50946646598E+03  0.50946646601E+03  0.50400001928E-02 0. -1.
        1   -1    0    0  501    0  0.00000000000E+00  0.00000000000E+00 -0.99040327104E+03  0.99040327105E+03  0.50400001928E-02 0.  1.
    10030    2    1    2    0    0  0.00000000000E+00  0.00000000000E+00 -0.48093680506E+03  0.14998697371E+04  0.14206720303E+04 0.  0.
        3    1    3    3  502    0  0.47911666198E+03  0.19329388716E+02  0.31281823345E+03  0.57252219034E+03  0.10100000352E+00 0. -1.
       -3    1    3    3    0  502 -0.47911666198E+03 -0.19329388716E+02 -0.79375503851E+03  0.92734754672E+03  0.10100000352E+00 0.  1.
</event>
<event>
 5   0  0.1098949E-03  0.1399049E+04  0.7818609E-02  0.8954508E-01
       -2   -1    0    0    0  501  0.00000000000E+00  0.00000000000E+00  0.79784430676E+03  0.79784430677E+03  0.25500000920E-02 0.  1.
        2   -1    0    0  501    0  0.00000000000E+00  0.00000000000E+00 -0.61332043904E+03  0.61332043905E+03  0.25500000920E-02 0. -1.
    10030    2    1    2    0    0  0.00000000000E+00  0.00000000000E+00  0.18452386772E+03  0.14111647458E+04  0.13990485632E+04 0.  0.
        4    1    3    3  502    0 -0.36046843453E+03 -0.40649971927E+03  0.53670597300E+03  0.76369786462E+03  0.12699999809E+01 0.  1.
       -4    1    3    3    0  502  0.36046843453E+03  0.40649971927E+03 -0.35218210528E+03  0.64746688120E+03  0.12699999809E+01 0. -1.
</event>
<event>
 5   0  0.6114266E-04  0.1292544E+04  0.7818609E-02  0.9035499E-01
        1   -1    0    0  501    0  0.00000000000E+00  0.00000000000E+00  0.76664393534E+03  0.76664393535E+03  0.50400001928E-02 0. -1.
       -1   -1    0    0    0  501  0.00000000000E+00  0.00000000000E+00 -0.54479963654E+03  0.54479963657E+03  0.50400001928E-02 0.  1.
    10030    2    1    2    0    0  0.00000000000E+00  0.00000000000E+00  0.22184429879E+03  0.13114435719E+04  0.12925437515E+04 0.  0.
        3    1    3    3  502    0  0.23380897205E+03 -0.96647806280E+02  0.71431097358E+03  0.75779127142E+03  0.10100000352E+00 0. -1.
       -3    1    3    3    0  502 -0.23380897205E+03  0.96647806280E+02 -0.49246667479E+03  0.55365230050E+03  0.10100000352E+00 0.  1.
</event>
<event>
 5   0  0.6114266E-04  0.1406995E+04  0.7818609E-02  0.8948771E-01
       -1   -1    0    0    0  501  0.00000000000E+00  0.00000000000E+00  0.52055146835E+03  0.52055146837E+03  0.50400001928E-02 0. -1.
        1   -1    0    0  501    0  0.00000000000E+00  0.00000000000E+00 -0.95073951528E+03  0.95073951530E+03  0.50400001928E-02 0.  1.
    10030    2    1    2    0    0  0.00000000000E+00  0.00000000000E+00 -0.43018804694E+03  0.14712909837E+04  0.14069951680E+04 0.  0.
        3    1    3    3  502    0  0.55167260420E+03  0.20306022336E+03  0.18900096197E+03  0.61749290713E+03  0.10100000352E+00 0. -1.
       -3    1    3    3    0  502 -0.55167260420E+03 -0.20306022336E+03 -0.61918900891E+03  0.85379807653E+03  0.10100000352E+00 0.  1.
</event>
<event>
 5   0  0.1095119E-03  0.1426265E+04  0.7818609E-02  0.8935023E-01
       -2   -1    0    0    0  501  0.00000000000E+00  0.00000000000E+00  0.57827549506E+03  0.57827549507E+03  0.25500000920E-02 0.  1.
        2   -1    0    0  501    0  0.00000000000E+00  0.00000000000E+00 -0.87943863119E+03  0.87943863120E+03  0.25500000920E-02 0. -1.
    10030    2    1    2    0    0  0.00000000000E+00  0.00000000000E+00 -0.30116313613E+03  0.14577141263E+04  0.14262647858E+04 0.  0.
        5    1    3    3  502    0 -0.36439305806E+03  0.33732561401E+03 -0.67369240031E+03  0.83693154491E+03  0.46999998093E+01 0. -1.
       -5    1    3    3    0  502  0.36439305806E+03 -0.33732561401E+03  0.37252926418E+03  0.62078258135E+03  0.46999998093E+01 0.  1.
</event>
<event>
 5   0  0.6194742E-04  0.1393729E+04  0.7818609E-02  0.8958370E-01
        1   -1    0    0  501    0  0.00000000000E+00  0.00000000000E+00  0.19805859175E+04  0.19805859175E+04  0.50400001928E-02 0. -1.
       -1   -1    0    0    0  501  0.00000000000E+00  0.00000000000E+00 -0.24519029096E+03  0.24519029101E+03  0.50400001928E-02 0.  1.
    10030    2    1    2    0    0  0.00000000000E+00  0.00000000000E+00  0.17353956265E+04  0.22257762085E+04  0.13937294392E+04 0.  0.
        4    1    3    3  502    0  0.28803732363E+03 -0.41974940434E+03  0.10771743173E+03  0.52034576989E+03  0.12699999809E+01 0.  1.
       -4    1    3    3    0  502 -0.28803732363E+03  0.41974940434E+03  0.16276781948E+04  0.17054304386E+04  0.12699999809E+01 0. -1.
</event>
<event>
 5   0  0.6114266E-04  0.1407518E+04  0.7818609E-02  0.8948394E-01
       -1   -1    0    0    0  501  0.00000000000E+00  0.00000000000E+00  0.39500263040E+03  0.39500263043E+03  0.50400001928E-02 0.  1.
        1   -1    0    0  501    0  0.00000000000E+00  0.00000000000E+00 -0.12538574565E+04  0.12538574565E+04  0.50400001928E-02 0. -1.
    10030    2    1    2    0    0  0.00000000000E+00  0.00000000000E+00 -0.85885482607E+03  0.16488600869E+04  0.14075183743E+04 0.  0.
        3    1    3    3  502    0 -0.53922497131E+03 -0.23827297254E+03 -0.87970248465E+03  0.10589683899E+04  0.10100000352E+00 0. -1.
       -3    1    3    3    0  502  0.53922497131E+03  0.23827297254E+03  0.20847658584E+02  0.58989169700E+03  0.10100000352E+00 0.  1.
</event>
<event>
 5   0  0.1120053E-03  0.1383315E+04  0.7818609E-02  0.8965985E-01
       -2   -1    0    0    0  501  0.00000000000E+00  0.00000000000E+00  0.48819299686E+03  0.48819299687E+03  0.25500000920E-02 0.  1.
        2   -1    0    0  501    0  0.00000000000E+00  0.00000000000E+00 -0.97992014914E+03  0.97992014914E+03  0.25500000920E-02 0. -1.
    10030    2    1    2    0    0  0.00000000000E+00  0.00000000000E+00 -0.49172715227E+03  0.14681131460E+04  0.13833150824E+04 0.  0.
        2    1    3    3  502    0 -0.67791302559E+03 -0.52955264640E+02 -0.38019180401E+03  0.77904822582E+03  0.25500000920E-02 0. -1.
       -2    1    3    3    0  502  0.67791302559E+03  0.52955264640E+02 -0.11153534827E+03  0.68906492019E+03  0.25500000920E-02 0.  1.
</event>
<event>
 5   0  0.6194742E-04  0.1394555E+04  0.7818609E-02  0.8957769E-01
        1   -1    0    0  501    0  0.00000000000E+00  0.00000000000E+00  0.36931950565E+03  0.36931950568E+03  0.50400001928E-02 0.  1.
       -1   -1    0    0    0  501  0.00000000000E+00  0.00000000000E+00 -0.13164645800E+04  0.13164645801E+04  0.50400001928E-02 0. -1.
    10030    2    1    2    0    0  0.00000000000E+00  0.00000000000E+00 -0.94714507439E+03  0.16857840857E+04  0.13945551950E+04 0.  0.
        4    1    3    3  502    0 -0.23674621548E+03 -0.49902354500E+03 -0.98803162644E+03  0.11319370021E+04  0.12699999809E+01 0. -1.
       -4    1    3    3    0  502  0.23674621548E+03  0.49902354500E+03  0.40886552047E+02  0.55384708363E+03  0.12699999809E+01 0.  1.
</event>
<event>
 5   0  0.1175146E-03  0.1386522E+04  0.7818609E-02  0.8963633E-01
       -2   -1    0    0    0  501  0.00000000000E+00  0.00000000000E+00  0.40883593517E+03  0.40883593518E+03  0.25500000920E-02 0.  1.
        2   -1    0    0  501    0  0.00000000000E+00  0.00000000000E+00 -0.11755597171E+04  0.11755597171E+04  0.25500000920E-02 0. -1.
    10030    2    1    2    0    0  0.00000000000E+00  0.00000000000E+00 -0.76672378188E+03  0.15843956522E+04  0.13865223493E+04 0.  0.
        1    1    3    3  502    0 -0.33565122669E+03 -0.24490951371E+03  0.25078521599E+03  0.48532014225E+03  0.50400001928E-02 0.  1.
       -1    1    3    3    0  502  0.33565122669E+03  0.24490951371E+03 -0.10175089979E+04  0.10990755100E+04  0.50400001928E-02 0. -1.
</event>
<event>
 5   0  0.6097538E-04  0.1390838E+04  0.7818609E-02  0.8960477E-01
       -1   -1    0    0    0  501  0.00000000000E+00  0.00000000000E+00  0.66638340479E+03  0.66638340481E+03  0.50400001928E-02 0.  1.
        1   -1    0    0  501    0  0.00000000000E+00  0.00000000000E+00 -0.72572006565E+03  0.72572006566E+03  0.50400001928E-02 0. -1.
    10030    2    1    2    0    0  0.00000000000E+00  0.00000000000E+00 -0.59336660852E+02  0.13921034705E+04  0.13908383203E+04 0.  0.
        2    1    3    3  502    0 -0.24703455046E+03  0.57739850628E+02 -0.67775082342E+03  0.72367543700E+03  0.25500000920E-02 0. -1.
       -2    1    3    3    0  502  0.24703455046E+03 -0.57739850628E+02  0.61841416256E+03  0.66842803348E+03  0.25500000920E-02 0.  1.
</event>
<event>
 5   0  0.6194742E-04  0.1528129E+04  0.7818609E-02  0.8865960E-01
        1   -1    0    0  501    0  0.00000000000E+00  0.00000000000E+00  0.14721577376E+04  0.14721577376E+04  0.50400001928E-02 0. -1.
       -1   -1    0    0    0  501  0.00000000000E+00  0.00000000000E+00 -0.39655692176E+03  0.39655692180E+03  0.50400001928E-02 0.  1.
    10030    2    1    2    0    0  0.00000000000E+00  0.00000000000E+00  0.10756008159E+04  0.18687146594E+04  0.15281287129E+04 0.  0.
        4    1    3    3  502    0 -0.67599117378E+03 -0.88068936862E+01  0.97317083331E+03  0.11849492445E+04  0.12699999809E+01 0. -1.
       -4    1    3    3    0  502  0.67599117378E+03  0.88068936862E+01  0.10242998256E+03  0.68376541491E+03  0.12699999809E+01 0.  1.
</event>
<event>
 5   0  0.1108819E-03  0.1410610E+04  0.7818609E-02  0.8946174E-01
        2   -1    0    0  501    0  0.00000000000E+00  0.00000000000E+00  0.18586211294E+04  0.18586211294E+04  0.25500000920E-02 0. -1.
       -2   -1    0    0    0  501  0.00000000000E+00  0.00000000000E+00 -0.26764733316E+03  0.26764733317E+03  0.25500000920E-02 0.  1.
    10030    2    1    2    0    0  0.00000000000E+00  0.00000000000E+00  0.15909737963E+04  0.21262684626E+04  0.14106097811E+04 0.  0.
        3    1    3    3  502    0  0.69156514682E+03  0.10126758548E+03  0.65298544597E+03  0.95650796077E+03  0.10100000352E+00 0.  1.
       -3    1    3    3    0  502 -0.69156514682E+03 -0.10126758548E+03  0.93798835029E+03  0.11697605018E+04  0.10100000352E+00 0. -1.
</event>
<event>
 5   0  0.6114266E-04  0.1399509E+04  0.7818609E-02  0.8954174E-01
       -1   -1    0    0    0  501  0.00000000000E+00  0.00000000000E+00  0.87862895372E+03  0.87862895374E+03  0.50400001928E-02 0.  1.
        1   -1    0    0  501    0  0.00000000000E+00  0.00000000000E+00 -0.55729619516E+03  0.55729619518E+03  0.50400001928E-02 0. -1.
    10030    2    1    2    0    0  0.00000000000E+00  0.00000000000E+00  0.32133275856E+03  0.14359251489E+04  0.13995093039E+04 0.  0.
        3    1    3    3  502    0  0.49097582082E+02 -0.33537709167E+03  0.78877879239E+03  0.85852219524E+03  0.10100000352E+00 0.  1.
       -3    1    3    3    0  502 -0.49097582082E+02  0.33537709167E+03 -0.46744603383E+03  0.57740295369E+03  0.10100000352E+00 0. -1.
</event>
<event>
 5   0  0.1120053E-03  0.1397068E+04  0.7818609E-02  0.8955944E-01
        2   -1    0    0  501    0  0.00000000000E+00  0.00000000000E+00  0.14754381737E+04  0.14754381738E+04  0.25500000920E-02 0. -1.
       -2   -1    0    0    0  501  0.00000000000E+00  0.00000000000E+00 -0.33071499567E+03  0.33071499568E+03  0.25500000920E-02 0.  1.
    10030    2    1    2    0    0  0.00000000000E+00  0.00000000000E+00  0.11447231781E+04  0.18061531694E+04  0.13970676852E+04 0.  0.
        2    1    3    3  502    0  0.53982735492E+03  0.36105566876E+03  0.23979139928E+03  0.69229667357E+03  0.25500000920E-02 0.  1.
       -2    1    3    3    0  502 -0.53982735492E+03 -0.36105566876E+03  0.90493177880E+03  0.11138564959E+04  0.25500000920E-02 0. -1.
</event>
<event>
 5   0  0.1108819E-03  0.1412420E+04  0.7818609E-02  0.8944877E-01
       -2   -1    0    0    0  501  0.00000000000E+00  0.00000000000E+00  0.36752375516E+03  0.36752375517E+03  0.25500000920E-02 0. -1.
        2   -1    0    0  501    0  0.00000000000E+00  0.00000000000E+00 -0.13570072693E+04  0.13570072693E+04  0.25500000920E-02 0.  1.
    10030    2    1    2    0    0  0.00000000000E+00  0.00000000000E+00 -0.98948351415E+03  0.17245310245E+04  0.14124197781E+04 0.  0.
        3    1    3    3  502    0 -0.11231772260E+03  0.38346233594E+02 -0.13447435624E+04  0.13499707269E+04  0.10100000352E+00 0.  1.
       -3    1    3    3    0  502  0.11231772260E+03 -0.38346233594E+02  0.35526004830E+03  0.37456029763E+03  0.10100000352E+00 0. -1.
</event>
<event>
 5   0  0.1120053E-03  0.1404348E+04  0.7818609E-02  0.8950677E-01
        2   -1    0    0  501    0  0.00000000000E+00  0.00000000000E+00  0.52424067260E+03  0.52424067261E+03  0.25500000920E-02 0.  1.
       -2   -1    0    0    0  501  0.00000000000E+00  0.00000000000E+00 -0.94050042448E+03  0.94050042448E+03  0.25500000920E-02 0. -1.
    10030    2    1    2    0    0  0.00000000000E+00  0.00000000000E+00 -0.41625975188E+03  0.14647410971E+04  0.14043483544E+04 0.  0.
        2    1    3    3  502    0 -0.14660368018E+03 -0.67099959881E+03 -0.55853153931E+02  0.68909554885E+03  0.25500000920E-02 0. -1.
       -2    1    3    3    0  502  0.14660368018E+03  0.67099959881E+03 -0.36040659795E+03  0.77564554823E+03  0.25500000920E-02 0.  1.
</event>
<event>
 5   0  0.1120053E-03  0.1414766E+04  0.7818609E-02  0.8943199E-01
        2   -1    0    0  501    0  0.00000000000E+00  0.00000000000E+00  0.11817685586E+04  0.11817685586E+04  0.25500000920E-02 0.  1.
       -2   -1    0    0    0  501  0.00000000000E+00  0.00000000000E+00 -0.42342539725E+03  0.42342539726E+03  0.25500000920E-02 0. -1.
    10030    2    1    2    0    0  0.00000000000E+00  0.00000000000E+00  0.75834316134E+03  0.16051939559E+04  0.14147661593E+04 0.  0.
        2    1    3    3  502    0 -0.75124067525E+01 -0.39001701177E+03  0.10487021396E+04  0.11189038758E+04  0.25500000920E-02 0.  1.
       -2    1    3    3    0  502  0.75124067525E+01  0.39001701177E+03 -0.29035897822E+03  0.48629008006E+03  0.25500000920E-02 0. -1.
</event>
<event>
 5   0  0.6153318E-04  0.1415847E+04  0.7818609E-02  0.8942427E-01
        1   -1    0    0  501    0  0.00000000000E+00  0.00000000000E+00  0.59866634098E+03  0.59866634100E+03  0.50400001928E-02 0. -1.
       -1   -1    0    0    0  501  0.00000000000E+00  0.00000000000E+00 -0.83712075063E+03  0.83712075064E+03  0.50400001928E-02 0.  1.
    10030    2    1    2    0    0  0.00000000000E+00  0.00000000000E+00 -0.23845440964E+03  0.14357870916E+04  0.14158474731E+04 0.  0.
        5    1    3    3  502    0  0.57881805295E+03  0.31503008173E+03 -0.38144102529E+03  0.76144181431E+03  0.46999998093E+01 0.  1.
       -5    1    3    3    0  502 -0.57881805295E+03 -0.31503008173E+03  0.14298661564E+03  0.67434527733E+03  0.46999998093E+01 0. -1.
</event>
<event>
 5   0  0.6194742E-04  0.1407042E+04  0.7818609E-02  0.8948737E-01
       -1   -1    0    0    0  501  0.00000000000E+00  0.00000000000E+00  0.86221580000E+03  0.86221580002E+03  0.50400001928E-02 0. -1.
        1   -1    0    0  501    0  0.00000000000E+00  0.00000000000E+00 -0.57403469663E+03  0.57403469666E+03  0.50400001928E-02 0.  1.
    10030    2    1    2    0    0  0.00000000000E+00  0.00000000000E+00  0.28818110337E+03  0.14362504967E+04  0.14070419826E+04 0.  0.
        4    1    3    3  502    0 -0.49927504085E+03  0.39864372393E+03  0.44473441178E+03  0.77844890325E+03  0.12699999809E+01 0. -1.
       -4    1    3    3    0  502  0.49927504085E+03 -0.39864372393E+03 -0.15655330841E+03  0.65780159343E+03  0.12699999809E+01 0.  1.
</event>
<event>
 5   0  0.1120053E-03  0.1387451E+04  0.7818609E-02  0.8962953E-01
        2   -1    0    0  501    0  0.00000000000E+00  0.00000000000E+00  0.75753513629E+03  0.75753513629E+03  0.25500000920E-02 0.  1.
       -2   -1    0    0    0  501  0.00000000000E+00  0.00000000000E+00 -0.63529066944E+03  0.63529066944E+03  0.25500000920E-02 0. -1.
    10030    2    1    2    0    0  0.00000000000E+00  0.00000000000E+00  0.12224446685E+03  0.13928258057E+04  0.13874509056E+04 0.  0.
        2    1    3    3  502    0 -0.63117977525E+03  0.21670929969E+03  0.25134025199E+03  0.71310781200E+03  0.25500000920E-02 0.  1.
       -2    1    3    3    0  502  0.63117977525E+03 -0.21670929969E+03 -0.12909578514E+03  0.67971799373E+03  0.25500000920E-02 0. -1.
</event>
<event>
 5   0  0.1120053E-03  0.1397067E+04  0.7818609E-02  0.8955944E-01
       -2   -1    0    0    0  501  0.00000000000E+00  0.00000000000E+00  0.19154524476E+03  0.19154524478E+03  0.25500000920E-02 0.  1.
        2   -1    0    0  501    0  0.00000000000E+00  0.00000000000E+00 -0.25474343522E+04  0.25474343522E+04  0.25500000920E-02 0. -1.
    10030    2    1    2    0    0  0.00000000000E+00  0.00000000000E+00 -0.23558891075E+04  0.27389795970E+04  0.13970668367E+04 0.  0.
        2    1    3    3  502    0  0.63420820250E+03  0.95589309576E+02 -0.17205224751E+04  0.18361794432E+04  0.25500000920E-02 0. -1.
       -2    1    3    3    0  502 -0.63420820250E+03 -0.95589309576E+02 -0.63536663234E+03  0.90280015381E+03  0.25500000920E-02 0.  1.
</event>
<event>
 5   0  0.4176125E-04  0.1407388E+04  0.7818609E-02  0.8948488E-01
        3   -1    0    0  501    0  0.00000000000E+00  0.00000000000E+00  0.60166210825E+03  0.60166211673E+03  0.10100000352E+00 0.  1.
       -3   -1    0    0    0  501  0.00000000000E+00  0.00000000000E+00 -0.82302901603E+03  0.82302902223E+03  0.10100000352E+00 0. -1.
    10030    2    1    2    0    0  0.00000000000E+00  0.00000000000E+00 -0.22136690778E+03  0.14246911390E+04  0.14073881958E+04 0.  0.
        1    1    3    3  502    0  0.18975196306E+03 -0.48461996488E+03  0.36876705580E+03  0.63784908819E+03  0.50400001928E-02 0.  1.
       -1    1    3    3    0  502 -0.18975196306E+03  0.48461996488E+03 -0.59013396358E+03  0.78684205076E+03  0.50400001928E-02 0. -1.
</event>
<event>
 5   0  0.1108819E-03  0.1402490E+04  0.7818609E-02  0.8952018E-01
       -2   -1    0    0    0  501  0.00000000000E+00  0.00000000000E+00  0.31071352800E+03  0.31071352801E+03  0.25500000920E-02 0. -1.
        2   -1    0    0  501    0  0.00000000000E+00  0.00000000000E+00 -0.15826306405E+04  0.15826306406E+04  0.25500000920E-02 0.  1.
    10030    2    1    2    0    0  0.00000000000E+00  0.00000000000E+00 -0.12719171126E+04  0.18933441686E+04  0.14024902850E+04 0.  0.
        3    1    3    3  502    0  0.59153106551E+03 -0.87733327417E+02 -0.11303905801E+04  0.12788232920E+04  0.10100000352E+00 0.  1.
       -3    1    3    3    0  502 -0.59153106551E+03  0.87733327417E+02 -0.14152653243E+03  0.61452087661E+03  0.10100000352E+00 0. -1.
</event>
<event>
 5   0  0.6097538E-04  0.1403899E+04  0.7818609E-02  0.8951001E-01
       -1   -1    0    0    0  501  0.00000000000E+00  0.00000000000E+00  0.62314121180E+03  0.62314121182E+03  0.50400001928E-02 0.  1.
        1   -1    0    0  501    0  0.00000000000E+00  0.00000000000E+00 -0.79072446194E+03  0.79072446196E+03  0.50400001928E-02 0. -1.
    10030    2    1    2    0    0  0.00000000000E+00  0.00000000000E+00 -0.16758325015E+03  0.14138656738E+04  0.14038988560E+04 0.  0.
        2    1    3    3  502    0  0.23274051069E+03  0.21603498282E+03  0.54666685965E+03  0.63220559518E+03  0.25500000920E-02 0.  1.
       -2    1    3    3    0  502 -0.23274051069E+03 -0.21603498282E+03 -0.71425010980E+03  0.78166007860E+03  0.25500000920E-02 0. -1.
</event>
<event>
 5   0  0.5875298E-04  0.1388438E+04  0.7818609E-02  0.8962231E-01
       -1   -1    0    0    0  501  0.00000000000E+00  0.00000000000E+00  0.21350391513E+03  0.21350391519E+03  0.50400001928E-02 0.  1.
        1   -1    0    0  501    0  0.00000000000E+00  0.00000000000E+00 -0.22572874300E+04  0.22572874300E+04  0.50400001928E-02 0. -1.
    10030    2    1    2    0    0  0.00000000000E+00  0.00000000000E+00 -0.20437835148E+04  0.24707913452E+04  0.13884375448E+04 0.  0.
        1    1    3    3  502    0 -0.64750055104E+02 -0.32038064407E+03 -0.21117881361E+04  0.21369336580E+04  0.50400001928E-02 0. -1.
       -1    1    3    3    0  502  0.64750055104E+02  0.32038064407E+03  0.68004621306E+02  0.33385768716E+03  0.50400001928E-02 0.  1.
</event>
<event>
 5   0  0.1120053E-03  0.1373307E+04  0.7818609E-02  0.8973370E-01
       -2   -1    0    0    0  501  0.00000000000E+00  0.00000000000E+00  0.46766573518E+03  0.46766573519E+03  0.25500000920E-02 0.  1.
        2   -1    0    0  501    0  0.00000000000E+00  0.00000000000E+00 -0.10081831886E+04  0.10081831886E+04  0.25500000920E-02 0. -1.
    10030    2    1    2    0    0  0.00000000000E+00  0.00000000000E+00 -0.54051745345E+03  0.14758489238E+04  0.13733065675E+04 0.  0.
        2    1    3    3  502    0  0.24141578286E+03  0.12053574102E+03  0.40830068158E+03  0.48940769473E+03  0.25500000920E-02 0.  1.
       -2    1    3    3    0  502 -0.24141578286E+03 -0.12053574102E+03 -0.94881813503E+03  0.98644122909E+03  0.25500000920E-02 0. -1.
</event>
<event>
 5   0  0.1095119E-03  0.1418702E+04  0.7818609E-02  0.8940391E-01
       -2   -1    0    0    0  501  0.00000000000E+00  0.00000000000E+00  0.45454427850E+03  0.45454427851E+03  0.25500000920E-02 0. -1.
        2   -1    0    0  501    0  0.00000000000E+00  0.00000000000E+00 -0.11069966769E+04  0.11069966769E+04  0.25500000920E-02 0.  1.
    10030    2    1    2    0    0  0.00000000000E+00  0.00000000000E+00 -0.65245239839E+03  0.15615409554E+04  0.14187022321E+04 0.  0.
        5    1    3    3  502    0  0.41756522171E+03 -0.26799643813E+03  0.23173861527E+03  0.54763827572E+03  0.46999998093E+01 0. -1.
       -5    1    3    3    0  502 -0.41756522171E+03  0.26799643813E+03 -0.88419101366E+03  0.10139026797E+04  0.46999998093E+01 0.  1.
</event>
<event>
 5   0  0.4176125E-04  0.1226353E+04  0.7818609E-02  0.9090098E-01
        4   -1    0    0  501    0  0.00000000000E+00  0.00000000000E+00  0.85384650449E+03  0.85384744898E+03  0.12699999809E+01 0.  1.
       -4   -1    0    0    0  501  0.00000000000E+00  0.00000000000E+00 -0.44034064199E+03  0.44034247341E+03  0.12699999809E+01 0. -1.
    10030    2    1    2    0    0  0.00000000000E+00  0.00000000000E+00  0.41350586250E+03  0.12941899224E+04  0.12263525011E+04 0.  0.
        5    1    3    3  502    0 -0.48273979256E+03  0.28167661765E+01 -0.19220326977E+03  0.51962469957E+03  0.46999998093E+01 0. -1.
       -5    1    3    3    0  502  0.48273979256E+03 -0.28167661765E+01  0.60570913226E+03  0.77456522282E+03  0.46999998093E+01 0.  1.
</event>
<event>
 5   0  0.6153318E-04  0.1476211E+04  0.7818609E-02  0.8900429E-01
        1   -1    0    0  501    0  0.00000000000E+00  0.00000000000E+00  0.95327288401E+03  0.95327288402E+03  0.50400001928E-02 0.  1.
       -1   -1    0    0    0  501  0.00000000000E+00  0.00000000000E+00 -0.57150418143E+03  0.57150418145E+03  0.50400001928E-02 0. -1.
    10030    2    1    2    0    0  0.00000000000E+00  0.00000000000E+00  0.38176870258E+03  0.15247770655E+04  0.14762106073E+04 0.  0.
        5    1    3    3  502    0  0.14473811702E+03  0.50689735577E+03 -0.34271921914E+03  0.62878661323E+03  0.46999998093E+01 0. -1.
       -5    1    3    3    0  502 -0.14473811702E+03 -0.50689735577E+03  0.72448792171E+03  0.89599045225E+03  0.46999998093E+01 0.  1.
</event>
<event>
 5   0  0.1098949E-03  0.1384360E+04  0.7818609E-02  0.8965218E-01
        2   -1    0    0  501    0  0.00000000000E+00  0.00000000000E+00  0.39215565341E+03  0.39215565342E+03  0.25500000920E-02 0.  1.
       -2   -1    0    0    0  501  0.00000000000E+00  0.00000000000E+00 -0.12217425185E+04  0.12217425185E+04  0.25500000920E-02 0. -1.
    10030    2    1    2    0    0  0.00000000000E+00  0.00000000000E+00 -0.82958686513E+03  0.16138981720E+04  0.13843601203E+04 0.  0.
        4    1    3    3  502    0  0.30914254659E+03 -0.34011210331E+03 -0.10181666954E+04  0.11170990957E+04  0.12699999809E+01 0. -1.
       -4    1    3    3    0  502 -0.30914254659E+03  0.34011210331E+03  0.18857983030E+03  0.49679907631E+03  0.12699999809E+01 0.  1.
</event>
<event>
 5   0  0.6114266E-04  0.1407807E+04  0.7818609E-02  0.8948186E-01
        1   -1    0    0  501    0  0.00000000000E+00  0.00000000000E+00  0.14267949605E+04  0.14267949605E+04  0.50400001928E-02 0.  1.
       -1   -1    0    0    0  501  0.00000000000E+00  0.00000000000E+00 -0.34726814065E+03  0.34726814069E+03  0.50400001928E-02 0. -1.
    10030    2    1    2    0    0  0.00000000000E+00  0.00000000000E+00  0.10795268198E+04  0.17740631012E+04  0.14078074201E+04 0.  0.
        3    1    3    3  502    0  0.56236730087E+03 -0.39358549201E+03  0.34326766675E+03  0.76746284721E+03  0.10100000352E+00 0. -1.
       -3    1    3    3    0  502 -0.56236730087E+03  0.39358549201E+03  0.73625915307E+03  0.10066002540E+04  0.10100000352E+00 0.  1.
</event>
<event>
 5   0  0.6097538E-04  0.1386943E+04  0.7818609E-02  0.8963324E-01
       -1   -1    0    0    0  501  0.00000000000E+00  0.00000000000E+00  0.97789364959E+03  0.97789364960E+03  0.50400001928E-02 0.  1.
        1   -1    0    0  501    0  0.00000000000E+00  0.00000000000E+00 -0.49177424476E+03  0.49177424478E+03  0.50400001928E-02 0. -1.
    10030    2    1    2    0    0  0.00000000000E+00  0.00000000000E+00  0.48611940483E+03  0.14696678944E+04  0.13869432735E+04 0.  0.
        2    1    3    3  502    0  0.67130732140E+03  0.14212744983E+03  0.34928447365E+03  0.76996972363E+03  0.25500000920E-02 0.  1.
       -2    1    3    3    0  502 -0.67130732140E+03 -0.14212744983E+03  0.13683493119E+03  0.69969817076E+03  0.25500000920E-02 0. -1.
</event>
<event>
 5   0  0.1120053E-03  0.1399937E+04  0.7818609E-02  0.8953865E-01
       -2   -1    0    0    0  501  0.00000000000E+00  0.00000000000E+00  0.91646499577E+03  0.91646499578E+03  0.25500000920E-02 0. -1.
        2   -1    0    0  501    0  0.00000000000E+00  0.00000000000E+00 -0.53461458852E+03  0.53461458853E+03  0.25500000920E-02 0.  1.
    10030    2    1    2    0    0  0.00000000000E+00  0.00000000000E+00  0.38185040725E+03  0.14510795843E+04  0.13999365080E+04 0.  0.
        2    1    3    3  502    0  0.28771102911E+03  0.19683378512E+03 -0.43823749697E+03  0.55997614144E+03  0.25500000920E-02 0.  1.
       -2    1    3    3    0  502 -0.28771102911E+03 -0.19683378512E+03  0.82008790422E+03  0.89110344286E+03  0.25500000920E-02 0. -1.
</event>
<event>
 5   0  0.1095119E-03  0.1391718E+04  0.7818609E-02  0.8959836E-01
       -2   -1    0    0    0  501  0.00000000000E+00  0.00000000000E+00  0.22513271326E+03  0.22513271327E+03  0.25500000920E-02 0. -1.
        2   -1    0    0  501    0  0.00000000000E+00  0.00000000000E+00 -0.21508176163E+04  0.21508176163E+04  0.25500000920E-02 0.  1.
    10030    2    1    2    0    0  0.00000000000E+00  0.00000000000E+00 -0.19256849031E+04  0.23759503296E+04  0.13917175083E+04 0.  0.
        5    1    3    3  502    0 -0.21721304327E+03  0.13662489519E+03  0.14137820286E+03  0.29301493885E+03  0.46999998093E+01 0. -1.
       -5    1    3    3    0  502  0.21721304327E+03 -0.13662489519E+03 -0.20670631059E+04  0.20829353907E+04  0.46999998093E+01 0.  1.
</event>
<event>
 5   0  0.6194742E-04  0.1409550E+04  0.7818609E-02  0.8946934E-01
        1   -1    0    0  501    0  0.00000000000E+00  0.00000000000E+00  0.98703929177E+03  0.98703929178E+03  0.50400001928E-02 0. -1.
       -1   -1    0    0    0  501  0.00000000000E+00  0.00000000000E+00 -0.50323022230E+03  0.50323022233E+03  0.50400001928E-02 0.  1.
    10030    2    1    2    0    0  0.00000000000E+00  0.00000000000E+00  0.48380906947E+03  0.14902695141E+04  0.14095502861E+04 0.  0.
        4    1    3    3  502    0  0.30900671365E+03 -0.47854932643E+03  0.68065306453E+03  0.88757242750E+03  0.12699999809E+01 0. -1.
       -4    1    3    3    0  502 -0.30900671365E+03  0.47854932643E+03 -0.19684399507E+03  0.60269708660E+03  0.12699999809E+01 0.  1.
</event>
<event>
 5   0  0.1095119E-03  0.1376748E+04  0.7818609E-02  0.8970823E-01
       -2   -1    0    0    0  501  0.00000000000E+00  0.00000000000E+00  0.11778759162E+04  0.11778759162E+04  0.25500000920E-02 0.  1.
        2   -1    0    0  501    0  0.00000000000E+00  0.00000000000E+00 -0.40229956836E+03  0.40229956836E+03  0.25500000920E-02 0. -1.
    10030    2    1    2    0    0  0.00000000000E+00  0.00000000000E+00  0.77557634787E+03  0.15801754846E+04  0.13767483033E+04 0.  0.
        5    1    3    3  502    0  0.63948779803E+03  0.12211430236E+03  0.64438445374E+03  0.91602945416E+03  0.46999998093E+01 0.  1.
       -5    1    3    3    0  502 -0.63948779803E+03 -0.12211430236E+03  0.13119189414E+03  0.66414603044E+03  0.46999998093E+01 0. -1.
</event>
<event>
 5   0  0.6114266E-04  0.1392139E+04  0.7818609E-02  0.8959529E-01
       -1   -1    0    0    0  501  0.00000000000E+00  0.00000000000E+00  0.23484603774E+03  0.23484603780E+03  0.50400001928E-02 0. -1.
        1   -1    0    0  501    0  0.00000000000E+00  0.00000000000E+00 -0.20631071498E+04  0.20631071498E+04  0.50400001928E-02 0.  1.
    10030    2    1    2    0    0  0.00000000000E+00  0.00000000000E+00 -0.18282611120E+04  0.22979531876E+04  0.13921386995E+04 0.  0.
        3    1    3    3  502    0 -0.39748189170E+03 -0.79328101532E+02  0.19958185444E+02  0.40581170670E+03  0.10100000352E+00 0. -1.
       -3    1    3    3    0  502  0.39748189170E+03  0.79328101532E+02 -0.18482192975E+04  0.18921414809E+04  0.10100000352E+00 0.  1.
</event>
<event>
 5   0  0.1120053E-03  0.1387901E+04  0.7818609E-02  0.8962623E-01
        2   -1    0    0  501    0  0.00000000000E+00  0.00000000000E+00  0.54732698326E+03  0.54732698326E+03  0.25500000920E-02 0.  1.
       -2   -1    0    0    0  501  0.00000000000E+00  0.00000000000E+00 -0.87985302958E+03  0.87985302958E+03  0.25500000920E-02 0. -1.
    10030    2    1    2    0    0  0.00000000000E+00  0.00000000000E+00 -0.33252604632E+03  0.14271800128E+04  0.13879010114E+04 0.  0.
        2    1    3    3  502    0  0.36037120089E+03  0.21321128868E+03 -0.73531485045E+03  0.84617633231E+03  0.25500000920E-02 0. -1.
       -2    1    3    3    0  502 -0.36037120089E+03 -0.21321128868E+03  0.40278880413E+03  0.58100368054E+03  0.25500000920E-02 0.  1.
</event>
<event>
 5   0  0.1108819E-03  0.1237272E+04  0.7818609E-02  0.9080844E-01
        2   -1    0    0  501    0  0.00000000000E+00  0.00000000000E+00  0.15760276269E+04  0.15760276269E+04  0.25500000920E-02 0. -1.
       -2   -1    0    0    0  501  0.00000000000E+00  0.00000000000E+00 -0.24283238147E+03  0.24283238149E+03  0.25500000920E-02 0.  1.
    10030    2    1    2    0    0  0.00000000000E+00  0.00000000000E+00  0.13331952454E+04  0.18188600084E+04  0.12372720670E+04 0.  0.
        3    1    3    3  502    0  0.35549572668E+03 -0.50478053851E+03  0.60909739567E+03  0.86728325901E+03  0.10100000352E+00 0.  1.
       -3    1    3    3    0  502 -0.35549572668E+03  0.50478053851E+03  0.72409784977E+03  0.95157674939E+03  0.10100000352E+00 0. -1.
</event>
<event>
 5   0  0.1175146E-03  0.1409553E+04  0.7818609E-02  0.8946933E-01
        2   -1    0    0  501    0  0.00000000000E+00  0.00000000000E+00  0.32508635328E+03  0.32508635329E+03  0.25500000920E-02 0. -1.
       -2   -1    0    0    0  501  0.00000000000E+00  0.00000000000E+00 -0.15279314202E+04  0.15279314202E+04  0.25500000920E-02 0.  1.
    10030    2    1    2    0    0  0.00000000000E+00  0.00000000000E+00 -0.12028450670E+04  0.18530177735E+04  0.14095526290E+04 0.  0.
        1    1    3    3  502    0 -0.46666586962E+03  0.48890598204E+02 -0.12927424949E+04  0.13752637866E+04  0.50400001928E-02 0.  1.
       -1    1    3    3    0  502  0.46666586962E+03 -0.48890598204E+02  0.89897427978E+02  0.47775398695E+03  0.50400001928E-02 0. -1.
</event>
<event>
 5   0  0.5875298E-04  0.1397612E+04  0.7818609E-02  0.8955549E-01
        1   -1    0    0  501    0  0.00000000000E+00  0.00000000000E+00  0.75430110379E+03  0.75430110380E+03  0.50400001928E-02 0. -1.
       -1   -1    0    0    0  501  0.00000000000E+00  0.00000000000E+00 -0.64739330225E+03  0.64739330227E+03  0.50400001928E-02 0.  1.
    10030    2    1    2    0    0  0.00000000000E+00  0.00000000000E+00  0.10690780154E+03  0.14016944061E+04  0.13976115090E+04 0.  0.
        1    1    3    3  502    0 -0.86268336790E+02 -0.69123776740E+03  0.10909213564E+03  0.70509075380E+03  0.50400001928E-02 0. -1.
       -1    1    3    3    0  502  0.86268336790E+02  0.69123776740E+03 -0.21843341069E+01  0.69660365227E+03  0.50400001928E-02 0.  1.
</event>
<event>
 5   0  0.1108819E-03  0.1391261E+04  0.7818609E-02  0.8960168E-01
        2   -1    0    0  501    0  0.00000000000E+00  0.00000000000E+00  0.54405081628E+03  0.54405081628E+03  0.25500000920E-02 0.  1.
       -2   -1    0    0    0  501  0.00000000000E+00  0.00000000000E+00 -0.88944269371E+03  0.88944269371E+03  0.25500000920E-02 0. -1.
    10030    2    1    2    0    0  0.00000000000E+00  0.00000000000E+00 -0.34539187743E+03  0.14334935100E+04  0.13912613321E+04 0.  0.
        3    1    3    3  502    0 -0.67045983175E+03  0.17219047347E+03 -0.10178781553E+03  0.69966185742E+03  0.10100000352E+00 0.  1.
       -3    1    3    3    0  502  0.67045983175E+03 -0.17219047347E+03 -0.24360406190E+03  0.73383165257E+03  0.10100000352E+00 0. -1.
</event>
<event>
 5   0  0.6194742E-04  0.1180836E+04  0.7818609E-02  0.9129798E-01
       -1   -1    0    0    0  501  0.00000000000E+00  0.00000000000E+00  0.36933782443E+03  0.36933782447E+03  0.50400001928E-02 0.  1.
        1   -1    0    0  501    0  0.00000000000E+00  0.00000000000E+00 -0.94383305412E+03  0.94383305414E+03  0.50400001928E-02 0. -1.
    10030    2    1    2    0    0  0.00000000000E+00  0.00000000000E+00 -0.57449522969E+03  0.13131708786E+04  0.11808357157E+04 0.  0.
        4    1    3    3  502    0  0.25239598217E+03  0.44773718155E+03 -0.61035931418E+03  0.79794261752E+03  0.12699999809E+01 0. -1.
       -4    1    3    3    0  502 -0.25239598217E+03 -0.44773718155E+03  0.35864084486E+02  0.51522826108E+03  0.12699999809E+01 0.  1.
</event>
<event>
 5   0  0.1095119E-03  0.1411432E+04  0.7818609E-02  0.8945585E-01
        2   -1    0    0  501    0  0.00000000000E+00  0.00000000000E+00  0.11759058387E+04  0.11759058387E+04  0.25500000920E-02 0.  1.
       -2   -1    0    0    0  501  0.00000000000E+00  0.00000000000E+00 -0.42353286714E+03  0.42353286715E+03  0.25500000920E-02 0. -1.
    10030    2    1    2    0    0  0.00000000000E+00  0.00000000000E+00  0.75237297158E+03  0.15994387059E+04  0.14114315731E+04 0.  0.
        5    1    3    3  502    0 -0.27904909063E+03 -0.29100938078E+03 -0.28015028794E+03  0.49097976385E+03  0.46999998093E+01 0. -1.
       -5    1    3    3    0  502  0.27904909063E+03  0.29100938078E+03  0.10325232595E+04  0.11084589420E+04  0.46999998093E+01 0.  1.
</event>
<event>
 5   0  0.6194742E-04  0.1483155E+04  0.7818609E-02  0.8895732E-01
        1   -1    0    0  501    0  0.00000000000E+00  0.00000000000E+00  0.12188929795E+04  0.12188929795E+04  0.50400001928E-02 0.  1.
       -1   -1    0    0    0  501  0.00000000000E+00  0.00000000000E+00 -0.45117775507E+03  0.45117775510E+03  0.50400001928E-02 0. -1.
    10030    2    1    2    0    0  0.00000000000E+00  0.00000000000E+00  0.76771522442E+03  0.16700707346E+04  0.14831552828E+04 0.  0.
        4    1    3    3  502    0 -0.41690861812E+03  0.18024829994E+01 -0.30671811060E+03  0.51758444439E+03  0.12699999809E+01 0. -1.
       -4    1    3    3    0  502  0.41690861812E+03 -0.18024829994E+01  0.10744333350E+04  0.11524862902E+04  0.12699999809E+01 0.  1.
</event>
<event>
 5   0  0.6114266E-04  0.1393740E+04  0.7818609E-02  0.8958362E-01
       -1   -1    0    0    0  501  0.00000000000E+00  0.00000000000E+00  0.56451328333E+03  0.56451328335E+03  0.50400001928E-02 0. -1.
        1   -1    0    0  501    0  0.00000000000E+00  0.00000000000E+00 -0.86025943748E+03  0.86025943749E+03  0.50400001928E-02 0.  1.
    10030    2    1    2    0    0  0.00000000000E+00  0.00000000000E+00 -0.29574615415E+03  0.14247727208E+04  0.13937401187E+04 0.  0.
        3    1    3    3  502    0 -0.32356631766E+03 -0.28061628066E+03  0.41408229842E+03  0.59573888488E+03  0.10100000352E+00 0. -1.
       -3    1    3    3    0  502  0.32356631766E+03  0.28061628066E+03 -0.70982845257E+03  0.82903383596E+03  0.10100000352E+00 0.  1.
</event>
<event>
 5   0  0.1175146E-03  0.1400048E+04  0.7818609E-02  0.8953784E-01
        2   -1    0    0  501    0  0.00000000000E+00  0.00000000000E+00  0.11523105247E+04  0.11523105247E+04  0.25500000920E-02 0.  1.
       -2   -1    0    0    0  501  0.00000000000E+00  0.00000000000E+00 -0.42526199128E+03  0.42526199129E+03  0.25500000920E-02 0. -1.
    10030    2    1    2    0    0  0.00000000000E+00  0.00000000000E+00  0.72704853339E+03  0.15775725160E+04  0.14000483825E+04 0.  0.
        1    1    3    3  502    0  0.67385139406E+02 -0.17696343569E+03  0.11229037891E+04  0.11387579787E+04  0.50400001928E-02 0.  1.
       -1    1    3    3    0  502 -0.67385139406E+02  0.17696343569E+03 -0.39585525570E+03  0.43881453722E+03  0.50400001928E-02 0. -1.
</event>
<event>
 5   0  0.1098949E-03  0.1370784E+04  0.7818609E-02  0.8975242E-01
       -2   -1    0    0    0  501  0.00000000000E+00  0.00000000000E+00  0.71919339636E+03  0.71919339636E+03  0.25500000920E-02 0.  1.
        2   -1    0    0  501    0  0.00000000000E+00  0.00000000000E+00 -0.65317915834E+03  0.65317915835E+03  0.25500000920E-02 0. -1.
    10030    2    1    2    0    0  0.00000000000E+00  0.00000000000E+00  0.66014238011E+02  0.13723725547E+04  0.13707839178E+04 0.  0.
        4    1    3    3  502    0  0.32756847030E+03  0.44769354164E+03 -0.36998877849E+03  0.66680125905E+03  0.12699999809E+01 0. -1.
       -4    1    3    3    0  502 -0.32756847030E+03 -0.44769354164E+03  0.43600301650E+03  0.70557129566E+03  0.12699999809E+01 0.  1.
</event>
<event>
 5   0  0.1108819E-03  0.1417277E+04  0.7818609E-02  0.8941407E-01
        2   -1    0    0  501    0  0.00000000000E+00  0.00000000000E+00  0.18787398403E+04  0.18787398403E+04  0.25500000920E-02 0.  1.
       -2   -1    0    0    0  501  0.00000000000E+00  0.00000000000E+00 -0.26729011918E+03  0.26729011919E+03  0.25500000920E-02 0. -1.
    10030    2    1    2    0    0  0.00000000000E+00  0.00000000000E+00  0.16114497212E+04  0.21460299595E+04  0.14172771018E+04 0.  0.
        3    1    3    3  502    0  0.48575785894E+03 -0.72867858460E+02  0.32302861383E+02  0.49225390539E+03  0.10100000352E+00 0. -1.
       -3    1    3    3    0  502 -0.48575785894E+03  0.72867858460E+02  0.15791468598E+04  0.16537760541E+04  0.10100000352E+00 0.  1.
</event>
<event>
 5   0  0.6194742E-04  0.1382850E+04  0.7818609E-02  0.8966327E-01
       -1   -1    0    0    0  501  0.00000000000E+00  0.00000000000E+00  0.73788694413E+03  0.73788694415E+03  0.50400001928E-02 0.  1.
        1   -1    0    0  501    0  0.00000000000E+00  0.00000000000E+00 -0.64788899335E+03  0.64788899337E+03  0.50400001928E-02 0. -1.
    10030    2    1    2    0    0  0.00000000000E+00  0.00000000000E+00  0.89997950784E+02  0.13857759375E+04  0.13828504322E+04 0.  0.
        4    1    3    3  502    0 -0.54301542652E+03 -0.12280917386E+03 -0.36589207605E+03  0.66620302523E+03  0.12699999809E+01 0. -1.
       -4    1    3    3    0  502  0.54301542652E+03  0.12280917386E+03  0.45589002683E+03  0.71957291228E+03  0.12699999809E+01 0.  1.
</event>
<event>
 5   0  0.6097538E-04  0.1378476E+04  0.7818609E-02  0.8969548E-01
        1   -1    0    0  501    0  0.00000000000E+00  0.00000000000E+00  0.15254390670E+04  0.15254390670E+04  0.50400001928E-02 0.  1.
       -1   -1    0    0    0  501  0.00000000000E+00  0.00000000000E+00 -0.31141787200E+03  0.31141787204E+03  0.50400001928E-02 0. -1.
    10030    2    1    2    0    0  0.00000000000E+00  0.00000000000E+00  0.12140211950E+04  0.18368569391E+04  0.13784759529E+04 0.  0.
        2    1    3    3  502    0  0.54308048102E+03 -0.31877301137E+03  0.23367374589E+03  0.67168151766E+03  0.25500000920E-02 0.  1.
       -2    1    3    3    0  502 -0.54308048102E+03  0.31877301137E+03  0.98034744912E+03  0.11651754214E+04  0.25500000920E-02 0. -1.
</event>
<event>
 5   0  0.1095119E-03  0.1400618E+04  0.7818609E-02  0.8953372E-01
        2   -1    0    0  501    0  0.00000000000E+00  0.00000000000E+00  0.90611196211E+03  0.90611196212E+03  0.25500000920E-02 0. -1.
       -2   -1    0    0    0  501  0.00000000000E+00  0.00000000000E+00 -0.54124932882E+03  0.54124932883E+03  0.25500000920E-02 0.  1.
    10030    2    1    2    0    0  0.00000000000E+00  0.00000000000E+00  0.36486263329E+03  0.14473612909E+04  0.14006177085E+04 0.  0.
        5    1    3    3  502    0 -0.32341667272E+03 -0.12636864829E+03  0.81087455072E+03  0.88210373907E+03  0.46999998093E+01 0. -1.
       -5    1    3    3    0  502  0.32341667272E+03  0.12636864829E+03 -0.44601191743E+03  0.56525755188E+03  0.46999998093E+01 0.  1.
</event>
<event>
 5   0  0.5875298E-04  0.1393199E+04  0.7818609E-02  0.8958756E-01
        1   -1    0    0  501    0  0.00000000000E+00  0.00000000000E+00  0.95637901569E+03  0.95637901570E+03  0.50400001928E-02 0.  1.
       -1   -1    0    0    0  501  0.00000000000E+00  0.00000000000E+00 -0.50738343891E+03  0.50738343893E+03  0.50400001928E-02 0. -1.
    10030    2    1    2    0    0  0.00000000000E+00  0.00000000000E+00  0.44899557678E+03  0.14637624546E+04  0.13931990151E+04 0.  0.
        1    1    3    3  502    0 -0.17313781734E+03 -0.23707542504E+03 -0.43921726177E+03  0.52829278247E+03  0.50400001928E-02 0. -1.
       -1    1    3    3    0  502  0.17313781734E+03  0.23707542504E+03  0.88821283855E+03  0.93546967216E+03  0.50400001928E-02 0.  1.
</event>
<event>
 5   0  0.1108819E-03  0.1466068E+04  0.7818609E-02  0.8907336E-01
        2   -1    0    0  501    0  0.00000000000E+00  0.00000000000E+00  0.12763433808E+04  0.12763433808E+04  0.25500000920E-02 0.  1.
       -2   -1    0    0    0  501  0.00000000000E+00  0.00000000000E+00 -0.42099893497E+03  0.42099893498E+03  0.25500000920E-02 0. -1.
    10030    2    1    2    0    0  0.00000000000E+00  0.00000000000E+00  0.85534444580E+03  0.16973423158E+04  0.14660684895E+04 0.  0.
        3    1    3    3  502    0  0.40175669104E+03  0.61185866185E+03  0.47339581020E+03  0.87171271884E+03  0.10100000352E+00 0. -1.
       -3    1    3    3    0  502 -0.40175669104E+03 -0.61185866185E+03  0.38194863560E+03  0.82562959692E+03  0.10100000352E+00 0.  1.
</event>
<event>
 5   0  0.6097538E-04  0.1401287E+04  0.7818609E-02  0.8952887E-01
       -1   -1    0    0    0  501  0.00000000000E+00  0.00000000000E+00  0.40184282708E+03  0.40184282711E+03  0.50400001928E-02 0. -1.
        1   -1    0    0  501    0  0.00000000000E+00  0.00000000000E+00 -0.12216256826E+04  0.12216256826E+04  0.50400001928E-02 0.  1.
    10030    2    1    2    0    0  0.00000000000E+00  0.00000000000E+00 -0.81978285555E+03  0.16234685098E+04  0.14012872910E+04 0.  0.
        2    1    3    3  502    0  0.64855705663E+03 -0.24602385294E+03 -0.52427506131E+03  0.86949314651E+03  0.25500000920E-02 0.  1.
       -2    1    3    3    0  502 -0.64855705663E+03  0.24602385294E+03 -0.29550779424E+03  0.75397536324E+03  0.25500000920E-02 0. -1.
</event>
<event>
 5   0  0.6194742E-04  0.1400782E+04  0.7818609E-02  0.8953253E-01
       -1   -1    0    0    0  501  0.00000000000E+00  0.00000000000E+00  0.55687561478E+03  0.55687561480E+03  0.50400001928E-02 0. -1.
        1   -1    0    0  501    0  0.00000000000E+00  0.00000000000E+00 -0.88089232421E+03  0.88089232422E+03  0.50400001928E-02 0.  1.
    10030    2    1    2    0    0  0.00000000000E+00  0.00000000000E+00 -0.32401670943E+03  0.14377679390E+04  0.14007818597E+04 0.  0.
        4    1    3    3  502    0  0.52919824068E+03  0.20145398795E+03  0.26107845620E+03  0.62353673540E+03  0.12699999809E+01 0. -1.
       -4    1    3    3    0  502 -0.52919824068E+03 -0.20145398795E+03 -0.58509516563E+03  0.81423120362E+03  0.12699999809E+01 0.  1.
</event>
<event>
 5   0  0.4176125E-04  0.1410999E+04  0.7818609E-02  0.8945895E-01
        3   -1    0    0  501    0  0.00000000000E+00  0.00000000000E+00  0.35815192275E+03  0.35815193699E+03  0.10100000352E+00 0.  1.
       -3   -1    0    0    0  501  0.00000000000E+00  0.00000000000E+00 -0.13897161471E+04  0.13897161508E+04  0.10100000352E+00 0. -1.
    10030    2    1    2    0    0  0.00000000000E+00  0.00000000000E+00 -0.10315642243E+04  0.17478680878E+04  0.14109989735E+04 0.  0.
        2    1    3    3  502    0  0.26128093300E+03  0.25651912499E+03  0.23123330724E+03  0.43305730547E+03  0.25500000920E-02 0.  1.
       -2    1    3    3    0  502 -0.26128093300E+03 -0.25651912499E+03 -0.12627975316E+04  0.13148107823E+04  0.25500000920E-02 0. -1.
</event>
<event>
 5   0  0.1098949E-03  0.1405069E+04  0.7818609E-02  0.8950158E-01
       -2   -1    0    0    0  501  0.00000000000E+00  0.00000000000E+00  0.41428329960E+03  0.41428329961E+03  0.25500000920E-02 0. -1.
        2   -1    0    0  501    0  0.00000000000E+00  0.00000000000E+00 -0.11913456797E+04  0.11913456797E+04  0.25500000920E-02 0.  1.
    10030    2    1    2    0    0  0.00000000000E+00  0.00000000000E+00 -0.77706238005E+03  0.16056289793E+04  0.14050688512E+04 0.  0.
        4    1    3    3  502    0 -0.26131094347E+03  0.12334781231E+03 -0.11202910827E+04  0.11569580005E+04  0.12699999809E+01 0.  1.
       -4    1    3    3    0  502  0.26131094347E+03 -0.12334781231E+03  0.34322870265E+03  0.44867097879E+03  0.12699999809E+01 0. -1.
</event>
<event>
 5   0  0.6153318E-04  0.1388121E+04  0.7818609E-02  0.8962462E-01
       -1   -1    0    0    0  501  0.00000000000E+00  0.00000000000E+00  0.69186061212E+03  0.69186061214E+03  0.50400001928E-02 0.  1.
        1   -1    0    0  501    0  0.00000000000E+00  0.00000000000E+00 -0.69626722269E+03  0.69626722271E+03  0.50400001928E-02 0. -1.
    10030    2    1    2    0    0  0.00000000000E+00  0.00000000000E+00 -0.44066105740E+01  0.13881278348E+04  0.13881208404E+04 0.  0.
        5    1    3    3  502    0  0.28230831451E+02  0.32919943998E+03 -0.61255753028E+03  0.69600148637E+03  0.46999998093E+01 0. -1.
       -5    1    3    3    0  502 -0.28230831451E+02 -0.32919943998E+03  0.60815091970E+03  0.69212634848E+03  0.46999998093E+01 0.  1.
</event>
<event>
 5   0  0.1120053E-03  0.1413032E+04  0.7818609E-02  0.8944439E-01
        2   -1    0    0  501    0  0.00000000000E+00  0.00000000000E+00  0.99539321872E+03  0.99539321873E+03  0.25500000920E-02 0.  1.
       -2   -1    0    0    0  501  0.00000000000E+00  0.00000000000E+00 -0.50147501668E+03  0.50147501668E+03  0.25500000920E-02 0. -1.
    10030    2    1    2    0    0  0.00000000000E+00  0.00000000000E+00  0.49391820205E+03  0.14968682354E+04  0.14130319614E+04 0.  0.
        2    1    3    3  502    0 -0.46884913402E+03 -0.12759390878E+02 -0.31276717809E+03  0.56374251234E+03  0.25500000920E-02 0. -1.
       -2    1    3    3    0  502  0.46884913402E+03  0.12759390878E+02  0.80668538014E+03  0.93312572307E+03  0.25500000920E-02 0.  1.
</event>
<event>
 5   0  0.6097538E-04  0.1398658E+04  0.7818609E-02  0.8954790E-01
       -1   -1    0    0    0  501  0.00000000000E+00  0.00000000000E+00  0.49806399101E+03  0.49806399104E+03  0.50400001928E-02 0. -1.
        1   -1    0    0  501    0  0.00000000000E+00  0.00000000000E+00 -0.98192467388E+03  0.98192467389E+03  0.50400001928E-02 0.  1.
    10030    2    1    2    0    0  0.00000000000E+00  0.00000000000E+00 -0.48386068287E+03  0.14799886649E+04  0.13986583886E+04 0.  0.
        2    1    3    3  502    0  0.34826997991E+03 -0.60231112283E+03 -0.16717788269E+03  0.71555510763E+03  0.25500000920E-02 0. -1.
       -2    1    3    3    0  502 -0.34826997991E+03  0.60231112283E+03 -0.31668280018E+03  0.76443355730E+03  0.25500000920E-02 0.  1.
</event>
<event>
 5   0  0.5875298E-04  0.1599400E+04  0.7818609E-02  0.8820916E-01
        1   -1    0    0  501    0  0.00000000000E+00  0.00000000000E+00  0.15788451254E+04  0.15788451254E+04  0.50400001928E-02 0.  1.
       -1   -1    0    0    0  501  0.00000000000E+00  0.00000000000E+00 -0.40505583166E+03  0.40505583169E+03  0.50400001928E-02 0. -1.
    10030    2    1    2    0    0  0.00000000000E+00  0.00000000000E+00  0.11737892937E+04  0.19839009571E+04  0.15994004193E+04 0.  0.
        1    1    3    3  502    0 -0.49432595748E+03 -0.62333151588E+03  0.48597054985E+03  0.93223800946E+03  0.50400001928E-02 0. -1.
       -1    1    3    3    0  502  0.49432595748E+03  0.62333151588E+03  0.68781874385E+03  0.10516629476E+04  0.50400001928E-02 0.  1.
</event>
<event>
 5   0  0.1120053E-03  0.1395595E+04  0.7818609E-02  0.8957013E-01
        2   -1    0    0  501    0  0.00000000000E+00  0.00000000000E+00  0.24001602542E+04  0.24001602542E+04  0.25500000920E-02 0. -1.
       -2   -1    0    0    0  501  0.00000000000E+00  0.00000000000E+00 -0.20287027698E+03  0.20287027700E+03  0.25500000920E-02 0.  1.
    10030    2    1    2    0    0  0.00000000000E+00  0.00000000000E+00  0.21972899773E+04  0.26030305312E+04  0.13955947486E+04 0.  0.
        2    1    3    3  502    0  0.98375150156E+02 -0.64790947873E+03  0.65155936899E+03  0.92411794384E+03  0.25500000920E-02 0.  1.
       -2    1    3    3    0  502 -0.98375150156E+02  0.64790947873E+03  0.15457306083E+04  0.16789125874E+04  0.25500000920E-02 0. -1.
</event>
<event>
 5   0  0.1175146E-03  0.1404790E+04  0.7818609E-02  0.8950358E-01
        2   -1    0    0  501    0  0.00000000000E+00  0.00000000000E+00  0.51700073269E+03  0.51700073269E+03  0.25500000920E-02 0.  1.
       -2   -1    0    0    0  501  0.00000000000E+00  0.00000000000E+00 -0.95427149986E+03  0.95427149987E+03  0.25500000920E-02 0. -1.
    10030    2    1    2    0    0  0.00000000000E+00  0.00000000000E+00 -0.43727076718E+03  0.14712722326E+04  0.14047904678E+04 0.  0.
        1    1    3    3  502    0 -0.30100349369E+03 -0.41020178800E+03  0.28852353964E+03  0.58490549924E+03  0.50400001928E-02 0.  1.
       -1    1    3    3    0  502  0.30100349369E+03  0.41020178800E+03 -0.72579430682E+03  0.88636673332E+03  0.50400001928E-02 0. -1.
</event>
<event>
 5   0  0.6097538E-04  0.1398367E+04  0.7818609E-02  0.8955001E-01
        1   -1    0    0  501    0  0.00000000000E+00  0.00000000000E+00  0.45654699146E+03  0.45654699149E+03  0.50400001928E-02 0. -1.
       -1   -1    0    0    0  501  0.00000000000E+00  0.00000000000E+00 -0.10707716459E+04  0.10707716459E+04  0.50400001928E-02 0.  1.
    10030    2    1    2    0    0  0.00000000000E+00  0.00000000000E+00 -0.61422465442E+03  0.15273186374E+04  0.13983670098E+04 0.  0.
        2    1    3    3  502    0  0.46162578450E+03 -0.29367447858E+03  0.16836489228E+03  0.57244196320E+03  0.25500000920E-02 0. -1.
       -2    1    3    3    0  502 -0.46162578450E+03  0.29367447858E+03 -0.78258954670E+03  0.95487667418E+03  0.25500000920E-02 0.  1.
</event>
<event>
 5   0  0.5875298E-04  0.1404785E+04  0.7818609E-02  0.8950362E-01
       -1   -1    0    0    0  501  0.00000000000E+00  0.00000000000E+00  0.32766588578E+03  0.32766588582E+03  0.50400001928E-02 0. -1.
        1   -1    0    0  501    0  0.00000000000E+00  0.00000000000E+00 -0.15056661618E+04  0.15056661618E+04  0.50400001928E-02 0.  1.
    10030    2    1    2    0    0  0.00000000000E+00  0.00000000000E+00 -0.11780002761E+04  0.18333320477E+04  0.14047853027E+04 0.  0.
        1    1    3    3  502    0 -0.38767723691E+03  0.46709284216E+03 -0.12780132503E+03  0.62032454563E+03  0.50400001928E-02 0. -1.
       -1    1    3    3    0  502  0.38767723691E+03 -0.46709284216E+03 -0.10501989510E+04  0.12130075020E+04  0.50400001928E-02 0.  1.
</event>
<event>
 5   0  0.6194742E-04  0.1414040E+04  0.7818609E-02  0.8943718E-01
        1   -1    0    0  501    0  0.00000000000E+00  0.00000000000E+00  0.33097559140E+03  0.33097559144E+03  0.50400001928E-02 0.  1.
       -1   -1    0    0    0  501  0.00000000000E+00  0.00000000000E+00 -0.15103142959E+04  0.15103142959E+04  0.50400001928E-02 0. -1.
    10030    2    1    2    0    0  0.00000000000E+00  0.00000000000E+00 -0.11793387045E+04  0.18412898873E+04  0.14140398400E+04 0.  0.
        4    1    3    3  502    0  0.54087425266E+03 -0.40976872590E+03 -0.84820466481E+03  0.10862357627E+04  0.12699999809E+01 0. -1.
       -4    1    3    3    0  502 -0.54087425266E+03  0.40976872590E+03 -0.33113403964E+03  0.75505412457E+03  0.12699999809E+01 0.  1.
</event>
<event>
 5   0  0.1098949E-03  0.1226248E+04  0.7818609E-02  0.9090187E-01
       -2   -1    0    0    0  501  0.00000000000E+00  0.00000000000E+00  0.28954446895E+03  0.28954446896E+03  0.25500000920E-02 0.  1.
        2   -1    0    0  501    0  0.00000000000E+00  0.00000000000E+00 -0.12983192391E+04  0.12983192391E+04  0.25500000920E-02 0. -1.
    10030    2    1    2    0    0  0.00000000000E+00  0.00000000000E+00 -0.10087747702E+04  0.15878637081E+04  0.12262481880E+04 0.  0.
        4    1    3    3  502    0  0.40675118842E+02 -0.87185503866E+02 -0.12884826667E+04  0.12920700340E+04  0.12699999809E+01 0. -1.
       -4    1    3    3    0  502 -0.40675118842E+02  0.87185503866E+02  0.27970789652E+03  0.29579367413E+03  0.12699999809E+01 0.  1.
</event>
<event>
 5   0  0.6114266E-04  0.1400726E+04  0.7818609E-02  0.8953293E-01
       -1   -1    0    0    0  501  0.00000000000E+00  0.00000000000E+00  0.38452637595E+03  0.38452637598E+03  0.50400001928E-02 0.  1.
        1   -1    0    0  501    0  0.00000000000E+00  0.00000000000E+00 -0.12756176450E+04  0.12756176450E+04  0.50400001928E-02 0. -1.
    10030    2    1    2    0    0  0.00000000000E+00  0.00000000000E+00 -0.89109126906E+03  0.16601440210E+04  0.14007264261E+04 0.  0.
        3    1    3    3  502    0  0.40779322705E+03 -0.56597355119E+03 -0.37165093203E+03  0.79040862986E+03  0.10100000352E+00 0. -1.
       -3    1    3    3    0  502 -0.40779322705E+03  0.56597355119E+03 -0.51944033703E+03  0.86973539114E+03  0.10100000352E+00 0.  1.
</event>
<event>
 5   0  0.5875298E-04  0.1409411E+04  0.7818609E-02  0.8947035E-01
       -1   -1    0    0    0  501  0.00000000000E+00  0.00000000000E+00  0.87344949191E+03  0.87344949192E+03  0.50400001928E-02 0.  1.
        1   -1    0    0  501    0  0.00000000000E+00  0.00000000000E+00 -0.56856147012E+03  0.56856147014E+03  0.50400001928E-02 0. -1.
    10030    2    1    2    0    0  0.00000000000E+00  0.00000000000E+00  0.30488802179E+03  0.14420109621E+04  0.14094108375E+04 0.  0.
        1    1    3    3  502    0 -0.64155794299E+03 -0.10593833374E+03 -0.12548271170E+03  0.66224273173E+03  0.50400001928E-02 0. -1.
       -1    1    3    3    0  502  0.64155794299E+03  0.10593833374E+03  0.43037073349E+03  0.77976823033E+03  0.50400001928E-02 0.  1.
</event>
<event>
 5   0  0.5875298E-04  0.1409754E+04  0.7818609E-02  0.8946788E-01
       -1   -1    0    0    0  501  0.00000000000E+00  0.00000000000E+00  0.11568461961E+04  0.11568461961E+04  0.50400001928E-02 0.  1.
        1   -1    0    0  501    0  0.00000000000E+00  0.00000000000E+00 -0.42948826939E+03  0.42948826942E+03  0.50400001928E-02 0. -1.
    10030    2    1    2    0    0  0.00000000000E+00  0.00000000000E+00  0.72735792668E+03  0.15863344655E+04  0.14097544052E+04 0.  0.
        1    1    3    3  502    0  0.16105575754E+03 -0.55532762633E+03  0.81731781196E+03  0.10011673863E+04  0.50400001928E-02 0.  1.
       -1    1    3    3    0  502 -0.16105575754E+03  0.55532762633E+03 -0.89959885282E+02  0.58516707920E+03  0.50400001928E-02 0. -1.
</event>
<event>
 5   0  0.1098949E-03  0.1407073E+04  0.7818609E-02  0.8948714E-01
       -2   -1    0    0    0  501  0.00000000000E+00  0.00000000000E+00  0.92425566362E+03  0.92425566362E+03  0.25500000920E-02 0.  1.
        2   -1    0    0  501    0  0.00000000000E+00  0.00000000000E+00 -0.53552692654E+03  0.53552692654E+03  0.25500000920E-02 0. -1.
    10030    2    1    2    0    0  0.00000000000E+00  0.00000000000E+00  0.38872873709E+03  0.14597825902E+04  0.14070732673E+04 0.  0.
        4    1    3    3  502    0 -0.39342318003E+02 -0.37869524979E+03 -0.41940914082E+03  0.56644818872E+03  0.12699999809E+01 0. -1.
       -4    1    3    3    0  502  0.39342318003E+02  0.37869524979E+03  0.80813787791E+03  0.89333440145E+03  0.12699999809E+01 0.  1.
</event>
<event>
 5   0  0.1108819E-03  0.1211045E+04  0.7818609E-02  0.9103243E-01
       -2   -1    0    0    0  501  0.00000000000E+00  0.00000000000E+00  0.31450014287E+03  0.31450014288E+03  0.25500000920E-02 0.  1.
        2   -1    0    0  501    0  0.00000000000E+00  0.00000000000E+00 -0.11658425313E+04  0.11658425313E+04  0.25500000920E-02 0. -1.
    10030    2    1    2    0    0  0.00000000000E+00  0.00000000000E+00 -0.85134238847E+03  0.14803426742E+04  0.12110452389E+04 0.  0.
        3    1    3    3  502    0  0.19709240481E+03 -0.46718003526E+03 -0.83026390618E+03  0.97285187233E+03  0.10100000352E+00 0. -1.
       -3    1    3    3    0  502 -0.19709240481E+03  0.46718003526E+03 -0.21078482282E+02  0.50749080189E+03  0.10100000352E+00 0.  1.
</event>
<event>
 5   0  0.1095119E-03  0.1306631E+04  0.7818609E-02  0.9024323E-01
        2   -1    0    0  501    0  0.00000000000E+00  0.00000000000E+00  0.11821873618E+04  0.11821873618E+04  0.25500000920E-02 0.  1.
       -2   -1    0    0    0  501  0.00000000000E+00  0.00000000000E+00 -0.36104362621E+03  0.36104362622E+03  0.25500000920E-02 0. -1.
    10030    2    1    2    0    0  0.00000000000E+00  0.00000000000E+00  0.82114373555E+03  0.15432309880E+04  0.13066311063E+04 0.  0.
        5    1    3    3  502    0 -0.36746045439E+03  0.54007270896E+03  0.39915717933E+03  0.76554180834E+03  0.46999998093E+01 0. -1.
       -5    1    3    3    0  502  0.36746045439E+03 -0.54007270896E+03  0.42198655621E+03  0.77768917964E+03  0.46999998093E+01 0.  1.
</event>
<event>
 5   0  0.1108819E-03  0.1387275E+04  0.7818609E-02  0.8963081E-01
       -2   -1    0    0    0  501  0.00000000000E+00  0.00000000000E+00  0.84453444602E+03  0.84453444602E+03  0.25500000920E-02 0. -1.
        2   -1    0    0  501    0  0.00000000000E+00  0.00000000000E+00 -0.56970229672E+03  0.56970229673E+03  0.25500000920E-02 0.  1.
    10030    2    1    2    0    0  0.00000000000E+00  0.00000000000E+00  0.27483214930E+03  0.14142367428E+04  0.13872753347E+04 0.  0.
        3    1    3    3  502    0 -0.35005388632E+03 -0.33219397104E+03 -0.37050665392E+03  0.60841248222E+03  0.10100000352E+00 0.  1.
       -3    1    3    3    0  502  0.35005388632E+03  0.33219397104E+03  0.64533880322E+03  0.80582426053E+03  0.10100000352E+00 0. -1.
</event>
<event>
 5   0  0.6153318E-04  0.1413724E+04  0.7818609E-02  0.8943944E-01
        1   -1    0    0  501    0  0.00000000000E+00  0.00000000000E+00  0.87776342630E+03  0.87776342632E+03  0.50400001928E-02 0. -1.
       -1   -1    0    0    0  501  0.00000000000E+00  0.00000000000E+00 -0.56923539980E+03  0.56923539983E+03  0.50400001928E-02 0.  1.
    10030    2    1    2    0    0  0.00000000000E+00  0.00000000000E+00  0.30852802650E+03  0.14469988261E+04  0.14137241809E+04 0.  0.
        5    1    3    3  502    0 -0.13044701366E+03 -0.60768529976E+02  0.86259492960E+03  0.87452921060E+03  0.46999998093E+01 0. -1.
       -5    1    3    3    0  502  0.13044701366E+03  0.60768529976E+02 -0.55406690311E+03  0.57246961555E+03  0.46999998093E+01 0.  1.
</event>
<event>
 5   0  0.1095119E-03  0.1415462E+04  0.7818609E-02  0.8942702E-01
       -2   -1    0    0    0  501  0.00000000000E+00  0.00000000000E+00  0.29435928944E+03  0.29435928945E+03  0.25500000920E-02 0. -1.
        2   -1    0    0  501    0  0.00000000000E+00  0.00000000000E+00 -0.17016036863E+04  0.17016036863E+04  0.25500000920E-02 0.  1.
    10030    2    1    2    0    0  0.00000000000E+00  0.00000000000E+00 -0.14072443968E+04  0.19959629757E+04  0.14154615530E+04 0.  0.
        5    1    3    3  502    0 -0.43395766134E+03  0.19407949660E+03 -0.14429239846E+04  0.15192227678E+04  0.46999998093E+01 0.  1.
       -5    1    3    3    0  502  0.43395766134E+03 -0.19407949660E+03  0.35679587815E+02  0.47674020790E+03  0.46999998093E+01 0. -1.
</event>
<event>
 5   0  0.1120053E-03  0.1384913E+04  0.7818609E-02  0.8964812E-01
        2   -1    0    0  501    0  0.00000000000E+00  0.00000000000E+00  0.10844937700E+04  0.10844937700E+04  0.25500000920E-02 0.  1.
       -2   -1    0    0    0  501  0.00000000000E+00  0.00000000000E+00 -0.44213806589E+03  0.44213806589E+03  0.25500000920E-02 0. -1.
    10030    2    1    2    0    0  0.00000000000E+00  0.00000000000E+00  0.64235570409E+03  0.15266318359E+04  0.13849129618E+04 0.  0.
        2    1    3    3  502    0  0.22217272519E+03 -0.60058685026E+03  0.30717013982E+02  0.64109969542E+03  0.25500000920E-02 0. -1.
       -2    1    3    3    0  502 -0.22217272519E+03  0.60058685026E+03  0.61163869010E+03  0.88553214044E+03  0.25500000920E-02 0.  1.
</event>
<event>
 5   0  0.1095119E-03  0.1405705E+04  0.7818609E-02  0.8949700E-01
       -2   -1    0    0    0  501  0.00000000000E+00  0.00000000000E+00  0.27247108739E+03  0.27247108740E+03  0.25500000920E-02 0. -1.
        2   -1    0    0  501    0  0.00000000000E+00  0.00000000000E+00 -0.18130413674E+04  0.18130413674E+04  0.25500000920E-02 0.  1.
    10030    2    1    2    0    0  0.00000000000E+00  0.00000000000E+00 -0.15405702800E+04  0.20855124548E+04  0.14057045961E+04 0.  0.
        5    1    3    3  502    0 -0.18454385473E+03 -0.59360248896E+02 -0.17725699655E+04  0.17831450996E+04  0.46999998093E+01 0.  1.
       -5    1    3    3    0  502  0.18454385473E+03  0.59360248896E+02  0.23199968548E+03  0.30236735526E+03  0.46999998093E+01 0. -1.
</event>
<event>
 5   0  0.5875298E-04  0.1389723E+04  0.7818609E-02  0.8961291E-01
       -1   -1    0    0    0  501  0.00000000000E+00  0.00000000000E+00  0.66899538085E+03  0.66899538087E+03  0.50400001928E-02 0. -1.
        1   -1    0    0  501    0  0.00000000000E+00  0.00000000000E+00 -0.72172759662E+03  0.72172759663E+03  0.50400001928E-02 0.  1.
    10030    2    1    2    0    0  0.00000000000E+00  0.00000000000E+00 -0.52732215767E+02  0.13907229775E+04  0.13897228909E+04 0.  0.
        1    1    3    3  502    0 -0.34368348226E+03 -0.12141287243E+03 -0.61837699489E+03  0.71780883904E+03  0.50400001928E-02 0.  1.
       -1    1    3    3    0  502  0.34368348226E+03  0.12141287243E+03  0.56564477912E+03  0.67291413846E+03  0.50400001928E-02 0. -1.
</event>
<event>
 5   0  0.1120053E-03  0.1391951E+04  0.7818609E-02  0.8959665E-01
        2   -1    0    0  501    0  0.00000000000E+00  0.00000000000E+00  0.30713878585E+03  0.30713878586E+03  0.25500000920E-02 0. -1.
       -2   -1    0    0    0  501  0.00000000000E+00  0.00000000000E+00 -0.15770788864E+04  0.15770788865E+04  0.25500000920E-02 0.  1.
    10030    2    1    2    0    0  0.00000000000E+00  0.00000000000E+00 -0.12699401006E+04  0.18842176723E+04  0.13919512842E+04 0.  0.
        2    1    3    3  502    0 -0.10303773979E+03  0.67016933045E+03 -0.42249243979E+03  0.79890147640E+03  0.25500000920E-02 0. -1.
       -2    1    3    3    0  502  0.10303773979E+03 -0.67016933045E+03 -0.84744766081E+03  0.10853161959E+04  0.25500000920E-02 0.  1.
</event>
<event>
 5   0  0.6153318E-04  0.1397742E+04  0.7818609E-02  0.8955455E-01
       -1   -1    0    0    0  501  0.00000000000E+00  0.00000000000E+00  0.88193569852E+03  0.88193569854E+03  0.50400001928E-02 0. -1.
        1   -1    0    0  501    0  0.00000000000E+00  0.00000000000E+00 -0.55380512699E+03  0.55380512701E+03  0.50400001928E-02 0.  1.
    10030    2    1    2    0    0  0.00000000000E+00  0.00000000000E+00  0.32813057154E+03  0.14357408255E+04  0.13977417666E+04 0.  0.
        5    1    3    3  502    0 -0.31915294883E+03  0.55949308420E+03 -0.11442776255E+03  0.65422237722E+03  0.46999998093E+01 0.  1.
       -5    1    3    3    0  502  0.31915294883E+03 -0.55949308420E+03  0.44255833408E+03  0.78151844833E+03  0.46999998093E+01 0. -1.
</event>
<event>
 5   0  0.6114266E-04  0.1365441E+04  0.7818609E-02  0.8979221E-01
       -1   -1    0    0    0  501  0.00000000000E+00  0.00000000000E+00  0.59792993588E+03  0.59792993590E+03  0.50400001928E-02 0.  1.
        1   -1    0    0  501    0  0.00000000000E+00  0.00000000000E+00 -0.77953479774E+03  0.77953479775E+03  0.50400001928E-02 0. -1.
    10030    2    1    2    0    0  0.00000000000E+00  0.00000000000E+00 -0.18160486186E+03  0.13774647337E+04  0.13654408690E+04 0.  0.
        3    1    3    3  502    0 -0.66441785691E+03 -0.55570982983E+02  0.57351136363E+02  0.66919981005E+03  0.10100000352E+00 0.  1.
       -3    1    3    3    0  502  0.66441785691E+03  0.55570982983E+02 -0.23895599822E+03  0.70826492361E+03  0.10100000352E+00 0. -1.
</event>
<event>
 5   0  0.1098949E-03  0.1310453E+04  0.7818609E-02  0.9021317E-01
       -2   -1    0    0    0  501  0.00000000000E+00  0.00000000000E+00  0.94894311458E+03  0.94894311458E+03  0.25500000920E-02 0. -1.
        2   -1    0    0  501    0  0.00000000000E+00  0.00000000000E+00 -0.45242066694E+03  0.45242066695E+03  0.25500000920E-02 0.  1.
    10030    2    1    2    0    0  0.00000000000E+00  0.00000000000E+00  0.49652244763E+03  0.14013637815E+04  0.13104525582E+04 0.  0.
        4    1    3    3  502    0  0.16306884270E+03  0.60695776664E+03  0.50121831613E+02  0.63047838095E+03  0.12699999809E+01 0. -1.
       -4    1    3    3    0  502 -0.16306884270E+03 -0.60695776664E+03  0.44640061602E+03  0.77088540058E+03  0.12699999809E+01 0.  1.
</event>
<event>
 5   0  0.6153318E-04  0.1386948E+04  0.7818609E-02  0.8963321E-01
       -1   -1    0    0    0  501  0.00000000000E+00  0.00000000000E+00  0.23003304567E+03  0.23003304573E+03  0.50400001928E-02 0. -1.
        1   -1    0    0  501    0  0.00000000000E+00  0.00000000000E+00 -0.20905947446E+04  0.20905947446E+04  0.50400001928E-02 0.  1.
    10030    2    1    2    0    0  0.00000000000E+00  0.00000000000E+00 -0.18605616990E+04  0.23206277904E+04  0.13869475498E+04 0.  0.
        5    1    3    3  502    0  0.61459904355E+03 -0.14754736169E+03 -0.14075996108E+04  0.15430038764E+04  0.46999998093E+01 0.  1.
       -5    1    3    3    0  502 -0.61459904355E+03  0.14754736169E+03 -0.45296208819E+03  0.77762391399E+03  0.46999998093E+01 0. -1.
</event>
<event>
 5   0  0.5875298E-04  0.1397017E+04  0.7818609E-02  0.8955981E-01
        1   -1    0    0  501    0  0.00000000000E+00  0.00000000000E+00  0.14310286426E+04  0.14310286426E+04  0.50400001928E-02 0.  1.
       -1   -1    0    0    0  501  0.00000000000E+00  0.00000000000E+00 -0.34095324803E+03  0.34095324807E+03  0.50400001928E-02 0. -1.
    10030    2    1    2    0    0  0.00000000000E+00  0.00000000000E+00  0.10900753946E+04  0.17719818907E+04  0.13970166266E+04 0.  0.
        1    1    3    3  502    0  0.11963469847E+03  0.67752011803E+03  0.69813095540E+03  0.98016978240E+03  0.50400001928E-02 0.  1.
       -1    1    3    3    0  502 -0.11963469847E+03 -0.67752011803E+03  0.39194443917E+03  0.79181210829E+03  0.50400001928E-02 0. -1.
</event>
<event>
 5   0  0.6114266E-04  0.1406316E+04  0.7818609E-02  0.8949259E-01
        1   -1    0    0  501    0  0.00000000000E+00  0.00000000000E+00  0.93722351362E+03  0.93722351363E+03  0.50400001928E-02 0. -1.
       -1   -1    0    0    0  501  0.00000000000E+00  0.00000000000E+00 -0.52754914567E+03  0.52754914570E+03  0.50400001928E-02 0.  1.
    10030    2    1    2    0    0  0.00000000000E+00  0.00000000000E+00  0.40967436795E+03  0.14647726593E+04  0.14063164138E+04 0.  0.
        3    1    3    3  502    0  0.89585611008E+01 -0.30818766001E+02  0.93646021582E+03  0.93701003099E+03  0.10100000352E+00 0. -1.
       -3    1    3    3    0  502 -0.89585611008E+01  0.30818766001E+02 -0.52678584787E+03  0.52776262834E+03  0.10100000352E+00 0.  1.
</event>
<event>
 5   0  0.1095119E-03  0.1399067E+04  0.7818609E-02  0.8954494E-01
       -2   -1    0    0    0  501  0.00000000000E+00  0.00000000000E+00  0.46409141621E+03  0.46409141622E+03  0.25500000920E-02 0.  1.
        2   -1    0    0  501    0  0.00000000000E+00  0.00000000000E+00 -0.10544194876E+04  0.10544194876E+04  0.25500000920E-02 0. -1.
    10030    2    1    2    0    0  0.00000000000E+00  0.00000000000E+00 -0.59032807137E+03  0.15185109038E+04  0.13990668794E+04 0.  0.
        5    1    3    3  502    0  0.18960600741E+03 -0.29924037777E+03  0.35951512102E+03  0.50474593012E+03  0.46999998093E+01 0.  1.
       -5    1    3    3    0  502 -0.18960600741E+03  0.29924037777E+03 -0.94984319239E+03  0.10137649737E+04  0.46999998093E+01 0. -1.
</event>
<event>
 5   0  0.6194742E-04  0.1419628E+04  0.7818609E-02  0.8939732E-01
        1   -1    0    0  501    0  0.00000000000E+00  0.00000000000E+00  0.13533679420E+04  0.13533679420E+04  0.50400001928E-02 0. -1.
       -1   -1    0    0    0  501  0.00000000000E+00  0.00000000000E+00 -0.37228278402E+03  0.37228278405E+03  0.50400001928E-02 0.  1.
    10030    2    1    2    0    0  0.00000000000E+00  0.00000000000E+00  0.98108515802E+03  0.17256507261E+04  0.14196275361E+04 0.  0.
        4    1    3    3  502    0 -0.19782716009E+03 -0.99829120525E+02  0.13102455276E+04  0.13288515320E+04  0.12699999809E+01 0. -1.
       -4    1    3    3    0  502  0.19782716009E+03  0.99829120525E+02 -0.32916036963E+03  0.39679919406E+03  0.12699999809E+01 0.  1.
</event>
<event>
 5   0  0.6153318E-04  0.1400216E+04  0.7818609E-02  0.8953662E-01
        1   -1    0    0  501    0  0.00000000000E+00  0.00000000000E+00  0.10411569360E+04  0.10411569361E+04  0.50400001928E-02 0. -1.
       -1   -1    0    0    0  501  0.00000000000E+00  0.00000000000E+00 -0.47077543157E+03  0.47077543160E+03  0.50400001928E-02 0.  1.
    10030    2    1    2    0    0  0.00000000000E+00  0.00000000000E+00  0.57038150447E+03  0.15119323677E+04  0.14002158490E+04 0.  0.
        5    1    3    3  502    0 -0.23688092934E+03 -0.54977458108E+03  0.67714587009E+03  0.90383255311E+03  0.46999998093E+01 0. -1.
       -5    1    3    3    0  502  0.23688092934E+03  0.54977458108E+03 -0.10676436562E+03  0.60809981455E+03  0.46999998093E+01 0.  1.
</event>
<event>
 5   0  0.1095119E-03  0.1445975E+04  0.7818609E-02  0.8921195E-01
        2   -1    0    0  501    0  0.00000000000E+00  0.00000000000E+00  0.11673476930E+04  0.11673476930E+04  0.25500000920E-02 0.  1.
       -2   -1    0    0    0  501  0.00000000000E+00  0.00000000000E+00 -0.44777678197E+03  0.44777678198E+03  0.25500000920E-02 0. -1.
    10030    2    1    2    0    0  0.00000000000E+00  0.00000000000E+00  0.71957091100E+03  0.16151244750E+04  0.14459753710E+04 0.  0.
        5    1    3    3  502    0  0.19218680722E+03  0.41681486753E+03  0.98371480407E+03  0.10855354939E+04  0.46999998093E+01 0.  1.
       -5    1    3    3    0  502 -0.19218680722E+03 -0.41681486753E+03 -0.26414389307E+03  0.52958898111E+03  0.46999998093E+01 0. -1.
</event>
<event>
 5   0  0.6153318E-04  0.1405196E+04  0.7818609E-02  0.8950066E-01
        1   -1    0    0  501    0  0.00000000000E+00  0.00000000000E+00  0.63025239975E+03  0.63025239977E+03  0.50400001928E-02 0.  1.
       -1   -1    0    0    0  501  0.00000000000E+00  0.00000000000E+00 -0.78324749639E+03  0.78324749640E+03  0.50400001928E-02 0. -1.
    10030    2    1    2    0    0  0.00000000000E+00  0.00000000000E+00 -0.15299509663E+03  0.14134998962E+04  0.14051955227E+04 0.  0.
        5    1    3    3  502    0 -0.48403441650E+03  0.18732349199E+03  0.39984307015E+03  0.65519155806E+03  0.46999998093E+01 0.  1.
       -5    1    3    3    0  502  0.48403441650E+03 -0.18732349199E+03 -0.55283816678E+03  0.75830833811E+03  0.46999998093E+01 0. -1.
</event>
<event>
 5   0  0.1098949E-03  0.1398645E+04  0.7818609E-02  0.8954800E-01
       -2   -1    0    0    0  501  0.00000000000E+00  0.00000000000E+00  0.44924673363E+03  0.44924673363E+03  0.25500000920E-02 0. -1.
        2   -1    0    0  501    0  0.00000000000E+00  0.00000000000E+00 -0.10886043159E+04  0.10886043159E+04  0.25500000920E-02 0.  1.
    10030    2    1    2    0    0  0.00000000000E+00  0.00000000000E+00 -0.63935758226E+03  0.15378510495E+04  0.13986449630E+04 0.  0.
        4    1    3    3  502    0  0.13740029221E+03  0.66877128793E+03 -0.48612749022E+03  0.83812613938E+03  0.12699999809E+01 0. -1.
       -4    1    3    3    0  502 -0.13740029221E+03 -0.66877128793E+03 -0.15323009203E+03  0.69972491014E+03  0.12699999809E+01 0.  1.
</event>
<event>
 5   0  0.6194742E-04  0.1415020E+04  0.7818609E-02  0.8943017E-01
        1   -1    0    0  501    0  0.00000000000E+00  0.00000000000E+00  0.52936553470E+03  0.52936553472E+03  0.50400001928E-02 0.  1.
       -1   -1    0    0    0  501  0.00000000000E+00  0.00000000000E+00 -0.94560466489E+03  0.94560466490E+03  0.50400001928E-02 0. -1.
    10030    2    1    2    0    0  0.00000000000E+00  0.00000000000E+00 -0.41623913019E+03  0.14749701996E+04  0.14150201682E+04 0.  0.
        4    1    3    3  502    0 -0.29326282302E+03  0.16445148916E+03  0.44076662947E+03  0.55436829834E+03  0.12699999809E+01 0.  1.
       -4    1    3    3    0  502  0.29326282302E+03 -0.16445148916E+03 -0.85700575966E+03  0.92060190129E+03  0.12699999809E+01 0. -1.
</event>
<event>
 5   0  0.6097538E-04  0.1346461E+04  0.7818609E-02  0.8993512E-01
        1   -1    0    0  501    0  0.00000000000E+00  0.00000000000E+00  0.16655765187E+04  0.16655765188E+04  0.50400001928E-02 0. -1.
       -1   -1    0    0    0  501  0.00000000000E+00  0.00000000000E+00 -0.27212151323E+03  0.27212151328E+03  0.50400001928E-02 0.  1.
    10030    2    1    2    0    0  0.00000000000E+00  0.00000000000E+00  0.13934550055E+04  0.19376980320E+04  0.13464608464E+04 0.  0.
        2    1    3    3  502    0  0.48011259845E+03 -0.35560631468E+03  0.25019848773E+03  0.64773701569E+03  0.25500000920E-02 0.  1.
       -2    1    3    3    0  502 -0.48011259845E+03  0.35560631468E+03  0.11432565178E+04  0.12899610163E+04  0.25500000920E-02 0. -1.
</event>
<event>
 5   0  0.6114266E-04  0.1401160E+04  0.7818609E-02  0.8952979E-01
       -1   -1    0    0    0  501  0.00000000000E+00  0.00000000000E+00  0.40996354904E+03  0.40996354907E+03  0.50400001928E-02 0.  1.
        1   -1    0    0  501    0  0.00000000000E+00  0.00000000000E+00 -0.11972102482E+04  0.11972102482E+04  0.50400001928E-02 0. -1.
    10030    2    1    2    0    0  0.00000000000E+00  0.00000000000E+00 -0.78724669914E+03  0.16071737973E+04  0.14011603225E+04 0.  0.
        3    1    3    3  502    0  0.23684610998E+03  0.30464490925E+03 -0.10643253677E+04  0.11321188538E+04  0.10100000352E+00 0. -1.
       -3    1    3    3    0  502 -0.23684610998E+03 -0.30464490925E+03  0.27707866857E+03  0.47505494347E+03  0.10100000352E+00 0.  1.
</event>
<event>
 5   0  0.1108819E-03  0.1379986E+04  0.7818609E-02  0.8968434E-01
        2   -1    0    0  501    0  0.00000000000E+00  0.00000000000E+00  0.92468217930E+03  0.92468217931E+03  0.25500000920E-02 0. -1.
       -2   -1    0    0    0  501  0.00000000000E+00  0.00000000000E+00 -0.51486944939E+03  0.51486944940E+03  0.25500000920E-02 0.  1.
    10030    2    1    2    0    0  0.00000000000E+00  0.00000000000E+00  0.40981272991E+03  0.14395516287E+04  0.13799863833E+04 0.  0.
        3    1    3    3  502    0 -0.64884222917E+03  0.80764683562E+02 -0.24995689694E+02  0.65432711022E+03  0.10100000352E+00 0.  1.
       -3    1    3    3    0  502  0.64884222917E+03 -0.80764683562E+02  0.43480841960E+03  0.78522451848E+03  0.10100000352E+00 0. -1.
</event>
<event>
 5   0  0.6097538E-04  0.1404926E+04  0.7818609E-02  0.8950261E-01
       -1   -1    0    0    0  501  0.00000000000E+00  0.00000000000E+00  0.49040553819E+03  0.49040553821E+03  0.50400001928E-02 0. -1.
        1   -1    0    0  501    0  0.00000000000E+00  0.00000000000E+00 -0.10062167532E+04  0.10062167532E+04  0.50400001928E-02 0.  1.
    10030    2    1    2    0    0  0.00000000000E+00  0.00000000000E+00 -0.51581121498E+03  0.14966222914E+04  0.14049260029E+04 0.  0.
        2    1    3    3  502    0  0.20098724327E+03 -0.80627652416E+02 -0.96977036174E+03  0.99365549603E+03  0.25500000920E-02 0.  1.
       -2    1    3    3    0  502 -0.20098724327E+03  0.80627652416E+02  0.45395914676E+03  0.50296679535E+03  0.25500000920E-02 0. -1.
</event>
<event>
 5   0  0.6097538E-04  0.1402055E+04  0.7818609E-02  0.8952332E-01
       -1   -1    0    0    0  501  0.00000000000E+00  0.00000000000E+00  0.51016668067E+03  0.51016668070E+03  0.50400001928E-02 0.  1.
        1   -1    0    0  501    0  0.00000000000E+00  0.00000000000E+00 -0.96329249581E+03  0.96329249582E+03  0.50400001928E-02 0. -1.
    10030    2    1    2    0    0  0.00000000000E+00  0.00000000000E+00 -0.45312581514E+03  0.14734591765E+04  0.14020552559E+04 0.  0.
        2    1    3    3  502    0 -0.24197500460E+03  0.46083684842E+03  0.26694514529E+03  0.58496342989E+03  0.25500000920E-02 0.  1.
       -2    1    3    3    0  502  0.24197500460E+03 -0.46083684842E+03 -0.72007096043E+03  0.88849574663E+03  0.25500000920E-02 0. -1.
</event>
<event>
 5   0  0.1095119E-03  0.1399344E+04  0.7818609E-02  0.8954293E-01
        2   -1    0    0  501    0  0.00000000000E+00  0.00000000000E+00  0.85168977753E+03  0.85168977753E+03  0.25500000920E-02 0. -1.
       -2   -1    0    0    0  501  0.00000000000E+00  0.00000000000E+00 -0.57478796229E+03  0.57478796229E+03  0.25500000920E-02 0.  1.
    10030    2    1    2    0    0  0.00000000000E+00  0.00000000000E+00  0.27690181524E+03  0.14264777398E+04  0.13993441774E+04 0.  0.
        5    1    3    3  502    0  0.23971043980E+03  0.58690770524E+03 -0.16325620386E+03  0.65467276369E+03  0.46999998093E+01 0.  1.
       -5    1    3    3    0  502 -0.23971043980E+03 -0.58690770524E+03  0.44015801911E+03  0.77180497614E+03  0.46999998093E+01 0. -1.
</event>
<event>
 5   0  0.1098949E-03  0.1416781E+04  0.7818609E-02  0.8941760E-01
        2   -1    0    0  501    0  0.00000000000E+00  0.00000000000E+00  0.71326265456E+03  0.71326265456E+03  0.25500000920E-02 0. -1.
       -2   -1    0    0    0  501  0.00000000000E+00  0.00000000000E+00 -0.70355160676E+03  0.70355160676E+03  0.25500000920E-02 0.  1.
    10030    2    1    2    0    0  0.00000000000E+00  0.00000000000E+00  0.97110478023E+01  0.14168142613E+04  0.14167809805E+04 0.  0.
        4    1    3    3  502    0  0.83582198519E+02 -0.15923575331E+03 -0.68034190844E+03  0.70371068936E+03  0.12699999809E+01 0.  1.
       -4    1    3    3    0  502 -0.83582198519E+02  0.15923575331E+03  0.69005295624E+03  0.71310357197E+03  0.12699999809E+01 0. -1.
</event>
<event>
 5   0  0.6097538E-04  0.1449238E+04  0.7818609E-02  0.8918929E-01
        1   -1    0    0  501    0  0.00000000000E+00  0.00000000000E+00  0.75085342373E+03  0.75085342375E+03  0.50400001928E-02 0.  1.
       -1   -1    0    0    0  501  0.00000000000E+00  0.00000000000E+00 -0.69930104539E+03  0.69930104541E+03  0.50400001928E-02 0. -1.
    10030    2    1    2    0    0  0.00000000000E+00  0.00000000000E+00  0.51552378337E+02  0.14501544692E+04  0.14492378468E+04 0.  0.
        2    1    3    3  502    0 -0.59931914570E+03  0.10164597432E+03 -0.36888072435E+03  0.71104734814E+03  0.25500000920E-02 0. -1.
       -2    1    3    3    0  502  0.59931914570E+03 -0.10164597432E+03  0.42043310268E+03  0.73910712102E+03  0.25500000920E-02 0.  1.
</event>
<event>
 5   0  0.5875298E-04  0.1388964E+04  0.7818609E-02  0.8961846E-01
        1   -1    0    0  501    0  0.00000000000E+00  0.00000000000E+00  0.53731959481E+03  0.53731959483E+03  0.50400001928E-02 0. -1.
       -1   -1    0    0    0  501  0.00000000000E+00  0.00000000000E+00 -0.89761352316E+03  0.89761352318E+03  0.50400001928E-02 0.  1.
    10030    2    1    2    0    0  0.00000000000E+00  0.00000000000E+00 -0.36029392835E+03  0.14349331180E+04  0.13889641242E+04 0.  0.
        1    1    3    3  502    0 -0.54138958659E+02 -0.10735191891E+03  0.52648599274E+03  0.54003977809E+03  0.50400001928E-02 0. -1.
       -1    1    3    3    0  502  0.54138958659E+02  0.10735191891E+03 -0.88677992110E+03  0.89489333992E+03  0.50400001928E-02 0.  1.
</event>
<event>
 5   0  0.6114266E-04  0.1410282E+04  0.7818609E-02  0.8946409E-01
       -1   -1    0    0    0  501  0.00000000000E+00  0.00000000000E+00  0.54710657067E+03  0.54710657069E+03  0.50400001928E-02 0. -1.
        1   -1    0    0  501    0  0.00000000000E+00  0.00000000000E+00 -0.90882473535E+03  0.90882473536E+03  0.50400001928E-02 0.  1.
    10030    2    1    2    0    0  0.00000000000E+00  0.00000000000E+00 -0.36171816468E+03  0.14559313061E+04  0.14102822190E+04 0.  0.
        3    1    3    3  502    0 -0.66325973485E+02  0.70124637019E+03 -0.21476053281E+03  0.73638828285E+03  0.10100000352E+00 0.  1.
       -3    1    3    3    0  502  0.66325973485E+02 -0.70124637019E+03 -0.14695763186E+03  0.71954302320E+03  0.10100000352E+00 0. -1.
</event>
<event>
 5   0  0.1120053E-03  0.1392346E+04  0.7818609E-02  0.8959378E-01
       -2   -1    0    0    0  501  0.00000000000E+00  0.00000000000E+00  0.10219883484E+04  0.10219883484E+04  0.25500000920E-02 0.  1.
        2   -1    0    0  501    0  0.00000000000E+00  0.00000000000E+00 -0.47422910582E+03  0.47422910583E+03  0.25500000920E-02 0. -1.
    10030    2    1    2    0    0  0.00000000000E+00  0.00000000000E+00  0.54775924258E+03  0.14962174542E+04  0.13923456764E+04 0.  0.
        2    1    3    3  502    0  0.47322528141E+03  0.16376407873E+03 -0.24582770544E+03  0.55784594756E+03  0.25500000920E-02 0. -1.
       -2    1    3    3    0  502 -0.47322528141E+03 -0.16376407873E+03  0.79358694802E+03  0.93837150667E+03  0.25500000920E-02 0.  1.
</event>
<event>
 5   0  0.5875298E-04  0.1343042E+04  0.7818609E-02  0.8996112E-01
        1   -1    0    0  501    0  0.00000000000E+00  0.00000000000E+00  0.77827421424E+03  0.77827421426E+03  0.50400001928E-02 0. -1.
       -1   -1    0    0    0  501  0.00000000000E+00  0.00000000000E+00 -0.57941107370E+03  0.57941107372E+03  0.50400001928E-02 0.  1.
    10030    2    1    2    0    0  0.00000000000E+00  0.00000000000E+00  0.19886314054E+03  0.13576852880E+04  0.13430423644E+04 0.  0.
        1    1    3    3  502    0 -0.16564321764E+03 -0.62044326820E+03 -0.99058811139E+02  0.64976932268E+03  0.50400001928E-02 0.  1.
       -1    1    3    3    0  502  0.16564321764E+03  0.62044326820E+03  0.29792195168E+03  0.70791596530E+03  0.50400001928E-02 0. -1.
</event>
<event>
 5   0  0.1095119E-03  0.1324813E+04  0.7818609E-02  0.9010117E-01
       -2   -1    0    0    0  501  0.00000000000E+00  0.00000000000E+00  0.37078027595E+03  0.37078027595E+03  0.25500000920E-02 0.  1.
        2   -1    0    0  501    0  0.00000000000E+00  0.00000000000E+00 -0.11834020750E+04  0.11834020750E+04  0.25500000920E-02 0. -1.
    10030    2    1    2    0    0  0.00000000000E+00  0.00000000000E+00 -0.81262179901E+03  0.15541823509E+04  0.13248126629E+04 0.  0.
        5    1    3    3  502    0  0.64311518132E+03 -0.15844363117E+03 -0.39733529842E+03  0.77239818104E+03  0.46999998093E+01 0. -1.
       -5    1    3    3    0  502 -0.64311518132E+03  0.15844363117E+03 -0.41528650058E+03  0.78178416987E+03  0.46999998093E+01 0.  1.
</event>
<event>
 5   0  0.6114266E-04  0.1375710E+04  0.7818609E-02  0.8971591E-01
       -1   -1    0    0    0  501  0.00000000000E+00  0.00000000000E+00  0.20446833701E+03  0.20446833708E+03  0.50400001928E-02 0.  1.
        1   -1    0    0  501    0  0.00000000000E+00  0.00000000000E+00 -0.23140241407E+04  0.23140241407E+04  0.50400001928E-02 0. -1.
    10030    2    1    2    0    0  0.00000000000E+00  0.00000000000E+00 -0.21095558037E+04  0.25184924778E+04  0.13757102427E+04 0.  0.
        3    1    3    3  502    0 -0.64159447624E+03  0.67230822868E+02 -0.61777985950E+03  0.89320513909E+03  0.10100000352E+00 0.  1.
       -3    1    3    3    0  502  0.64159447624E+03 -0.67230822868E+02 -0.14917759442E+04  0.16252873387E+04  0.10100000352E+00 0. -1.
</event>
<event>
 5   0  0.1120053E-03  0.1612316E+04  0.7818609E-02  0.8813017E-01
        2   -1    0    0  501    0  0.00000000000E+00  0.00000000000E+00  0.16194178901E+04  0.16194178901E+04  0.25500000920E-02 0.  1.
       -2   -1    0    0    0  501  0.00000000000E+00  0.00000000000E+00 -0.40131120019E+03  0.40131120020E+03  0.25500000920E-02 0. -1.
    10030    2    1    2    0    0  0.00000000000E+00  0.00000000000E+00  0.12181066899E+04  0.20207290903E+04  0.16123157719E+04 0.  0.
        2    1    3    3  502    0 -0.25881174321E+03 -0.22195465976E+03 -0.30649959140E+03  0.45846416321E+03  0.25500000920E-02 0. -1.
       -2    1    3    3    0  502  0.25881174321E+03  0.22195465976E+03  0.15246062813E+04  0.15622649271E+04  0.25500000920E-02 0.  1.
</event>
<event>
 5   0  0.4176125E-04  0.1423669E+04  0.7818609E-02  0.8936862E-01
        3   -1    0    0  501    0  0.00000000000E+00  0.00000000000E+00  0.97639978179E+03  0.97639978701E+03  0.10100000352E+00 0. -1.
       -3   -1    0    0    0  501  0.00000000000E+00  0.00000000000E+00 -0.51895585724E+03  0.51895586707E+03  0.10100000352E+00 0.  1.
    10030    2    1    2    0    0  0.00000000000E+00  0.00000000000E+00  0.45744392455E+03  0.14953556541E+04  0.14236690585E+04 0.  0.
        1    1    3    3  502    0 -0.36563533477E+03  0.90558837590E+02 -0.40569349525E+03  0.55360393171E+03  0.50400001928E-02 0.  1.
       -1    1    3    3    0  502  0.36563533477E+03 -0.90558837590E+02  0.86313741980E+03  0.94175172236E+03  0.50400001928E-02 0. -1.
</event>
<event>
 5   0  0.1095119E-03  0.1408685E+04  0.7818609E-02  0.8947556E-01
        2   -1    0    0  501    0  0.00000000000E+00  0.00000000000E+00  0.36973544971E+03  0.36973544972E+03  0.25500000920E-02 0.  1.
       -2   -1    0    0    0  501  0.00000000000E+00  0.00000000000E+00 -0.13417652029E+04  0.13417652029E+04  0.25500000920E-02 0. -1.
    10030    2    1    2    0    0  0.00000000000E+00  0.00000000000E+00 -0.97202975320E+03  0.17115006526E+04  0.14086847209E+04 0.  0.
        5    1    3    3  502    0  0.24735330970E+03  0.16260342529E+03 -0.12625016527E+04  0.12967482588E+04  0.46999998093E+01 0. -1.
       -5    1    3    3    0  502 -0.24735330970E+03 -0.16260342529E+03  0.29047189951E+03  0.41475239377E+03  0.46999998093E+01 0.  1.
</event>
<event>
 5   0  0.5875298E-04  0.1398683E+04  0.7818609E-02  0.8954773E-01
        1   -1    0    0  501    0  0.00000000000E+00  0.00000000000E+00  0.14109896384E+04  0.14109896384E+04  0.50400001928E-02 0.  1.
       -1   -1    0    0    0  501  0.00000000000E+00  0.00000000000E+00 -0.34662068297E+03  0.34662068300E+03  0.50400001928E-02 0. -1.
    10030    2    1    2    0    0  0.00000000000E+00  0.00000000000E+00  0.10643689554E+04  0.17576103214E+04  0.13986825117E+04 0.  0.
        1    1    3    3  502    0 -0.80473477445E+02  0.30604968861E+03  0.13158710567E+04  0.13533879822E+04  0.50400001928E-02 0.  1.
       -1    1    3    3    0  502  0.80473477445E+02 -0.30604968861E+03 -0.25150210133E+03  0.40422233915E+03  0.50400001928E-02 0. -1.
</event>
<event>
 5   0  0.6194742E-04  0.1400655E+04  0.7818609E-02  0.8953345E-01
       -1   -1    0    0    0  501  0.00000000000E+00  0.00000000000E+00  0.65613382551E+03  0.65613382553E+03  0.50400001928E-02 0. -1.
        1   -1    0    0  501    0  0.00000000000E+00  0.00000000000E+00 -0.74749788597E+03  0.74749788599E+03  0.50400001928E-02 0.  1.
    10030    2    1    2    0    0  0.00000000000E+00  0.00000000000E+00 -0.91364060461E+02  0.14036317115E+04  0.14006550575E+04 0.  0.
        4    1    3    3  502    0  0.51119560147E+03 -0.25038239913E+03  0.36316139951E+03  0.67520374980E+03  0.12699999809E+01 0. -1.
       -4    1    3    3    0  502 -0.51119560147E+03  0.25038239913E+03 -0.45452545997E+03  0.72842796172E+03  0.12699999809E+01 0.  1.
</event>
<event>
 5   0  0.1108819E-03  0.1398344E+04  0.7818609E-02  0.8955018E-01
       -2   -1    0    0    0  501  0.00000000000E+00  0.00000000000E+00  0.20403465159E+03  0.20403465160E+03  0.25500000920E-02 0.  1.
        2   -1    0    0  501    0  0.00000000000E+00  0.00000000000E+00 -0.23958762136E+04  0.23958762136E+04  0.25500000920E-02 0. -1.
    10030    2    1    2    0    0  0.00000000000E+00  0.00000000000E+00 -0.21918415620E+04  0.25999108652E+04  0.13983444047E+04 0.  0.
        3    1    3    3  502    0 -0.40433434383E+03 -0.56194750105E+03 -0.91402958159E+03  0.11466129869E+04  0.10100000352E+00 0.  1.
       -3    1    3    3    0  502  0.40433434383E+03  0.56194750105E+03 -0.12778119805E+04  0.14532978783E+04  0.10100000352E+00 0. -1.
</event>
<event>
 5   0  0.6153318E-04  0.1387187E+04  0.7818609E-02  0.8963146E-01
        1   -1    0    0  501    0  0.00000000000E+00  0.00000000000E+00  0.11966346723E+04  0.11966346723E+04  0.50400001928E-02 0.  1.
       -1   -1    0    0    0  501  0.00000000000E+00  0.00000000000E+00 -0.40202090790E+03  0.40202090793E+03  0.50400001928E-02 0. -1.
    10030    2    1    2    0    0  0.00000000000E+00  0.00000000000E+00  0.79461376440E+03  0.15986555802E+04  0.13871873088E+04 0.  0.
        5    1    3    3  502    0  0.56256221373E+03  0.34038307128E+03  0.14295024366E+03  0.67289950341E+03  0.46999998093E+01 0. -1.
       -5    1    3    3    0  502 -0.56256221373E+03 -0.34038307128E+03  0.65166352074E+03  0.92575607683E+03  0.46999998093E+01 0.  1.
</event>
<event>
 5   0  0.1175146E-03  0.1393408E+04  0.7818609E-02  0.8958604E-01
       -2   -1    0    0    0  501  0.00000000000E+00  0.00000000000E+00  0.34088491435E+03  0.34088491436E+03  0.25500000920E-02 0.  1.
        2   -1    0    0  501    0  0.00000000000E+00  0.00000000000E+00 -0.14239296103E+04  0.14239296103E+04  0.25500000920E-02 0. -1.
    10030    2    1    2    0    0  0.00000000000E+00  0.00000000000E+00 -0.10830446959E+04  0.17648145247E+04  0.13934075115E+04 0.  0.
        1    1    3    3  502    0 -0.13500786560E+03  0.24445308812E+03 -0.13499434916E+04  0.13785252506E+04  0.50400001928E-02 0. -1.
       -1    1    3    3    0  502  0.13500786560E+03 -0.24445308812E+03  0.26689879567E+03  0.38628927402E+03  0.50400001928E-02 0.  1.
</event>
<event>
 5   0  0.5875298E-04  0.1413072E+04  0.7818609E-02  0.8944410E-01
        1   -1    0    0  501    0  0.00000000000E+00  0.00000000000E+00  0.49432007748E+03  0.49432007750E+03  0.50400001928E-02 0.  1.
       -1   -1    0    0    0  501  0.00000000000E+00  0.00000000000E+00 -0.10098581517E+04  0.10098581517E+04  0.50400001928E-02 0. -1.
    10030    2    1    2    0    0  0.00000000000E+00  0.00000000000E+00 -0.51553807418E+03  0.15041782292E+04  0.14130720573E+04 0.  0.
        1    1    3    3  502    0 -0.16638710855E+03  0.50772860201E+03  0.23433591102E+03  0.58342636417E+03  0.50400001928E-02 0.  1.
       -1    1    3    3    0  502  0.16638710855E+03 -0.50772860201E+03 -0.74987398520E+03  0.92075186500E+03  0.50400001928E-02 0. -1.
</event>
<event>
 5   0  0.1120053E-03  0.1396563E+04  0.7818609E-02  0.8956310E-01
        2   -1    0    0  501    0  0.00000000000E+00  0.00000000000E+00  0.45638784435E+03  0.45638784435E+03  0.25500000920E-02 0.  1.
       -2   -1    0    0    0  501  0.00000000000E+00  0.00000000000E+00 -0.10683836921E+04  0.10683836921E+04  0.25500000920E-02 0. -1.
    10030    2    1    2    0    0  0.00000000000E+00  0.00000000000E+00 -0.61199584777E+03  0.15247715365E+04  0.13965633966E+04 0.  0.
        2    1    3    3  502    0 -0.12110757084E+02 -0.14878837088E+03 -0.10507583041E+04  0.10613094098E+04  0.25500000920E-02 0. -1.
       -2    1    3    3    0  502  0.12110757084E+02  0.14878837088E+03  0.43876245633E+03  0.46346212665E+03  0.25500000920E-02 0.  1.
</event>
<event>
 5   0  0.6114266E-04  0.1428648E+04  0.7818609E-02  0.8933338E-01
        1   -1    0    0  501    0  0.00000000000E+00  0.00000000000E+00  0.16919574593E+04  0.16919574593E+04  0.50400001928E-02 0. -1.
       -1   -1    0    0    0  501  0.00000000000E+00  0.00000000000E+00 -0.30157916064E+03  0.30157916069E+03  0.50400001928E-02 0.  1.
    10030    2    1    2    0    0  0.00000000000E+00  0.00000000000E+00  0.13903782987E+04  0.19935366200E+04  0.14286484669E+04 0.  0.
        3    1    3    3  502    0  0.46445902870E+03 -0.32276178322E+03  0.86369481571E+02  0.57215125237E+03  0.10100000352E+00 0.  1.
       -3    1    3    3    0  502 -0.46445902870E+03  0.32276178322E+03  0.13040088171E+04  0.14213853676E+04  0.10100000352E+00 0. -1.
</event>
<event>
 5   0  0.1098949E-03  0.1400820E+04  0.7818609E-02  0.8953225E-01
        2   -1    0    0  501    0  0.00000000000E+00  0.00000000000E+00  0.73390046502E+03  0.73390046503E+03  0.25500000920E-02 0.  1.
       -2   -1    0    0    0  501  0.00000000000E+00  0.00000000000E+00 -0.66844810746E+03  0.66844810747E+03  0.25500000920E-02 0. -1.
    10030    2    1    2    0    0  0.00000000000E+00  0.00000000000E+00  0.65452357564E+02  0.14023485725E+04  0.14008202981E+04 0.  0.
        4    1    3    3  502    0  0.30988296236E+02 -0.43735925351E+03  0.57951743136E+03  0.72669488596E+03  0.12699999809E+01 0.  1.
       -4    1    3    3    0  502 -0.30988296236E+02  0.43735925351E+03 -0.51406507380E+03  0.67565368653E+03  0.12699999809E+01 0. -1.
</event>
<event>
 5   0  0.1175146E-03  0.1398533E+04  0.7818609E-02  0.8954881E-01
       -2   -1    0    0    0  501  0.00000000000E+00  0.00000000000E+00  0.28344260271E+03  0.28344260272E+03  0.25500000920E-02 0. -1.
        2   -1    0    0  501    0  0.00000000000E+00  0.00000000000E+00 -0.17251246697E+04  0.17251246697E+04  0.25500000920E-02 0.  1.
    10030    2    1    2    0    0  0.00000000000E+00  0.00000000000E+00 -0.14416820670E+04  0.20085672724E+04  0.13985332694E+04 0.  0.
        1    1    3    3  502    0 -0.65346275275E+03  0.12683870231E+03 -0.10284424761E+04  0.12250696112E+04  0.50400001928E-02 0. -1.
       -1    1    3    3    0  502  0.65346275275E+03 -0.12683870231E+03 -0.41323959089E+03  0.78349766122E+03  0.50400001928E-02 0.  1.
</event>
<event>
 5   0  0.6114266E-04  0.1392106E+04  0.7818609E-02  0.8959553E-01
        1   -1    0    0  501    0  0.00000000000E+00  0.00000000000E+00  0.11294246763E+04  0.11294246763E+04  0.50400001928E-02 0. -1.
       -1   -1    0    0    0  501  0.00000000000E+00  0.00000000000E+00 -0.42897027125E+03  0.42897027128E+03  0.50400001928E-02 0.  1.
    10030    2    1    2    0    0  0.00000000000E+00  0.00000000000E+00  0.70045440500E+03  0.15583949475E+04  0.13921057571E+04 0.  0.
        3    1    3    3  502    0  0.35074145182E+03  0.46014480473E+03 -0.82953962079E+02  0.58449480525E+03  0.10100000352E+00 0.  1.
       -3    1    3    3    0  502 -0.35074145182E+03 -0.46014480473E+03  0.78340836708E+03  0.97390014229E+03  0.10100000352E+00 0. -1.
</event>
<event>
 5   0  0.6153318E-04  0.1401272E+04  0.7818609E-02  0.8952898E-01
       -1   -1    0    0    0  501  0.00000000000E+00  0.00000000000E+00  0.35962235611E+03  0.35962235614E+03  0.50400001928E-02 0. -1.
        1   -1    0    0  501    0  0.00000000000E+00  0.00000000000E+00 -0.13650184304E+04  0.13650184304E+04  0.50400001928E-02 0.  1.
    10030    2    1    2    0    0  0.00000000000E+00  0.00000000000E+00 -0.10053960743E+04  0.17246407865E+04  0.14012724847E+04 0.  0.
        5    1    3    3  502    0 -0.59712245553E+03 -0.32999363770E+03 -0.30647636576E+03  0.74793106673E+03  0.46999998093E+01 0.  1.
       -5    1    3    3    0  502  0.59712245553E+03  0.32999363770E+03 -0.69891970853E+03  0.97670971981E+03  0.46999998093E+01 0. -1.
</event>
<event>
 5   0  0.6114266E-04  0.1384045E+04  0.7818609E-02  0.8965449E-01
        1   -1    0    0  501    0  0.00000000000E+00  0.00000000000E+00  0.56498489899E+03  0.56498489901E+03  0.50400001928E-02 0.  1.
       -1   -1    0    0    0  501  0.00000000000E+00  0.00000000000E+00 -0.84762492146E+03  0.84762492147E+03  0.50400001928E-02 0. -1.
    10030    2    1    2    0    0  0.00000000000E+00  0.00000000000E+00 -0.28264002247E+03  0.14126098205E+04  0.13840452025E+04 0.  0.
        3    1    3    3  502    0  0.62460737595E+03  0.14869223838E+03  0.12217776737E+03  0.65358333278E+03  0.10100000352E+00 0.  1.
       -3    1    3    3    0  502 -0.62460737595E+03 -0.14869223838E+03 -0.40481778984E+03  0.75902648770E+03  0.10100000352E+00 0. -1.
</event>
<event>
 5   0  0.6153318E-04  0.1391610E+04  0.7818609E-02  0.8959914E-01
       -1   -1    0    0    0  501  0.00000000000E+00  0.00000000000E+00  0.12679705243E+04  0.12679705243E+04  0.50400001928E-02 0. -1.
        1   -1    0    0  501    0  0.00000000000E+00  0.00000000000E+00 -0.38182661437E+03  0.38182661441E+03  0.50400001928E-02 0.  1.
    10030    2    1    2    0    0  0.00000000000E+00  0.00000000000E+00  0.88614390992E+03  0.16497971387E+04  0.13916104231E+04 0.  0.
        5    1    3    3  502    0  0.39321896089E+03  0.96811726933E+02  0.11138448076E+04  0.11851860643E+04  0.46999998093E+01 0. -1.
       -5    1    3    3    0  502 -0.39321896089E+03 -0.96811726933E+02 -0.22770089764E+03  0.46461107441E+03  0.46999998093E+01 0.  1.
</event>
<event>
 5   0  0.1120053E-03  0.1395251E+04  0.7818609E-02  0.8957263E-01
       -2   -1    0    0    0  501  0.00000000000E+00  0.00000000000E+00  0.70232067123E+03  0.70232067123E+03  0.25500000920E-02 0.  1.
        2   -1    0    0  501    0  0.00000000000E+00  0.00000000000E+00 -0.69296208745E+03  0.69296208746E+03  0.25500000920E-02 0. -1.
    10030    2    1    2    0    0  0.00000000000E+00  0.00000000000E+00  0.93585837765E+01  0.13952827587E+04  0.13952513729E+04 0.  0.
        2    1    3    3  502    0 -0.26722101910E+03 -0.41570949169E+03 -0.48773420521E+03  0.69433861298E+03  0.25500000920E-02 0. -1.
       -2    1    3    3    0  502  0.26722101910E+03  0.41570949169E+03  0.49709278899E+03  0.70094414571E+03  0.25500000920E-02 0.  1.
</event>
<event>
 5   0  0.6114266E-04  0.1373478E+04  0.7818609E-02  0.8973244E-01
       -1   -1    0    0    0  501  0.00000000000E+00  0.00000000000E+00  0.54478499966E+03  0.54478499969E+03  0.50400001928E-02 0. -1.
        1   -1    0    0  501    0  0.00000000000E+00  0.00000000000E+00 -0.86568133957E+03  0.86568133959E+03  0.50400001928E-02 0.  1.
    10030    2    1    2    0    0  0.00000000000E+00  0.00000000000E+00 -0.32089633991E+03  0.14104663393E+04  0.13734776421E+04 0.  0.
        3    1    3    3  502    0 -0.50642294719E+03  0.26402076344E+03  0.23118694192E+03  0.61613194795E+03  0.10100000352E+00 0. -1.
       -3    1    3    3    0  502  0.50642294719E+03 -0.26402076344E+03 -0.55208328183E+03  0.79433439133E+03  0.10100000352E+00 0.  1.
</event>
<event>
 5   0  0.1175146E-03  0.1407721E+04  0.7818609E-02  0.8948248E-01
       -2   -1    0    0    0  501  0.00000000000E+00  0.00000000000E+00  0.33602513456E+03  0.33602513457E+03  0.25500000920E-02 0.  1.
        2   -1    0    0  501    0  0.00000000000E+00  0.00000000000E+00 -0.14743533416E+04  0.14743533416E+04  0.25500000920E-02 0. -1.
    10030    2    1    2    0    0  0.00000000000E+00  0.00000000000E+00 -0.11383282070E+04  0.18103784761E+04  0.14077212508E+04 0.  0.
        1    1    3    3  502    0  0.49802500661E+02 -0.10767301705E+03  0.32307530234E+03  0.34416771883E+03  0.50400001928E-02 0.  1.
       -1    1    3    3    0  502 -0.49802500661E+02  0.10767301705E+03 -0.14614035094E+04  0.14662107573E+04  0.50400001928E-02 0. -1.
</event>
<event>
 5   0  0.1098949E-03  0.1386928E+04  0.7818609E-02  0.8963335E-01
        2   -1    0    0  501    0  0.00000000000E+00  0.00000000000E+00  0.35695083613E+03  0.35695083614E+03  0.25500000920E-02 0. -1.
       -2   -1    0    0    0  501  0.00000000000E+00  0.00000000000E+00 -0.13472227980E+04  0.13472227980E+04  0.25500000920E-02 0.  1.
    10030    2    1    2    0    0  0.00000000000E+00  0.00000000000E+00 -0.99027196189E+03  0.17041736342E+04  0.13869279783E+04 0.  0.
        4    1    3    3  502    0 -0.35908798603E+03 -0.55698877740E+03 -0.24419009087E+03  0.70626559681E+03  0.12699999809E+01 0. -1.
       -4    1    3    3    0  502  0.35908798603E+03  0.55698877740E+03 -0.74608187102E+03  0.99790803736E+03  0.12699999809E+01 0.  1.
</event>
<event>
 5   0  0.6114266E-04  0.1411182E+04  0.7818609E-02  0.8945764E-01
        1   -1    0    0  501    0  0.00000000000E+00  0.00000000000E+00  0.67757040115E+03  0.67757040117E+03  0.50400001928E-02 0. -1.
       -1   -1    0    0    0  501  0.00000000000E+00  0.00000000000E+00 -0.73476986213E+03  0.73476986215E+03  0.50400001928E-02 0.  1.
    10030    2    1    2    0    0  0.00000000000E+00  0.00000000000E+00 -0.57199460981E+02  0.14123402633E+04  0.14111815054E+04 0.  0.
        3    1    3    3  502    0 -0.18433866974E+03  0.49695956041E+03 -0.49471679234E+03  0.72504776716E+03  0.10100000352E+00 0. -1.
       -3    1    3    3    0  502  0.18433866974E+03 -0.49695956041E+03  0.43751733136E+03  0.68729249616E+03  0.10100000352E+00 0.  1.
</event>
<event>
 5   0  0.1108819E-03  0.1391734E+04  0.7818609E-02  0.8959824E-01
       -2   -1    0    0    0  501  0.00000000000E+00  0.00000000000E+00  0.78629887762E+03  0.78629887762E+03  0.25500000920E-02 0.  1.
        2   -1    0    0  501    0  0.00000000000E+00  0.00000000000E+00 -0.61583529448E+03  0.61583529448E+03  0.25500000920E-02 0. -1.
    10030    2    1    2    0    0  0.00000000000E+00  0.00000000000E+00  0.17046358314E+03  0.14021341721E+04  0.13917335964E+04 0.  0.
        3    1    3    3  502    0 -0.35828437953E+03  0.96265206129E+02  0.67835535201E+03  0.77317571116E+03  0.10100000352E+00 0.  1.
       -3    1    3    3    0  502  0.35828437953E+03 -0.96265206129E+02 -0.50789176886E+03  0.62895846095E+03  0.10100000352E+00 0. -1.
</event>
<event>
 5   0  0.1108819E-03  0.1397931E+04  0.7818609E-02  0.8955318E-01
        2   -1    0    0  501    0  0.00000000000E+00  0.00000000000E+00  0.18938174128E+04  0.18938174128E+04  0.25500000920E-02 0. -1.
       -2   -1    0    0    0  501  0.00000000000E+00  0.00000000000E+00 -0.25797247127E+03  0.25797247129E+03  0.25500000920E-02 0.  1.
    10030    2    1    2    0    0  0.00000000000E+00  0.00000000000E+00  0.16358449416E+04  0.21517898841E+04  0.13979309828E+04 0.  0.
        3    1    3    3  502    0  0.39987126038E+03  0.67007450327E+02 -0.58468062595E+02  0.40964075459E+03  0.10100000352E+00 0.  1.
       -3    1    3    3    0  502 -0.39987126038E+03 -0.67007450327E+02  0.16943130041E+04  0.17421491295E+04  0.10100000352E+00 0. -1.
</event>
<event>
 5   0  0.6097538E-04  0.1424160E+04  0.7818609E-02  0.8936514E-01
        1   -1    0    0  501    0  0.00000000000E+00  0.00000000000E+00  0.12070649167E+04  0.12070649167E+04  0.50400001928E-02 0.  1.
       -1   -1    0    0    0  501  0.00000000000E+00  0.00000000000E+00 -0.42007488547E+03  0.42007488550E+03  0.50400001928E-02 0. -1.
    10030    2    1    2    0    0  0.00000000000E+00  0.00000000000E+00  0.78699003123E+03  0.16271398022E+04  0.14241596212E+04 0.  0.
        2    1    3    3  502    0 -0.66398713645E+03  0.47699791967E+02  0.68231578343E+03  0.95326230171E+03  0.25500000920E-02 0. -1.
       -2    1    3    3    0  502  0.66398713645E+03 -0.47699791967E+02  0.10467424780E+03  0.67387750050E+03  0.25500000920E-02 0.  1.
</event>
<event>
 5   0  0.6153318E-04  0.1434723E+04  0.7818609E-02  0.8929061E-01
        1   -1    0    0  501    0  0.00000000000E+00  0.00000000000E+00  0.13558819017E+04  0.13558819017E+04  0.50400001928E-02 0.  1.
       -1   -1    0    0    0  501  0.00000000000E+00  0.00000000000E+00 -0.37953731930E+03  0.37953731933E+03  0.50400001928E-02 0. -1.
    10030    2    1    2    0    0  0.00000000000E+00  0.00000000000E+00  0.97634458244E+03  0.17354192211E+04  0.14347233633E+04 0.  0.
        5    1    3    3  502    0  0.43093214480E+03 -0.56508183267E+03  0.60647498670E+03  0.93426655218E+03  0.46999998093E+01 0.  1.
       -5    1    3    3    0  502 -0.43093214480E+03  0.56508183267E+03  0.36986959573E+03  0.80115266890E+03  0.46999998093E+01 0. -1.
</event>
<event>
 5   0  0.5875298E-04  0.1394502E+04  0.7818609E-02  0.8957808E-01
       -1   -1    0    0    0  501  0.00000000000E+00  0.00000000000E+00  0.57200974875E+03  0.57200974877E+03  0.50400001928E-02 0. -1.
        1   -1    0    0  501    0  0.00000000000E+00  0.00000000000E+00 -0.84991428060E+03  0.84991428062E+03  0.50400001928E-02 0.  1.
    10030    2    1    2    0    0  0.00000000000E+00  0.00000000000E+00 -0.27790453185E+03  0.14219240294E+04  0.13945024261E+04 0.  0.
        1    1    3    3  502    0 -0.64727374983E+03 -0.52222025861E+02  0.11994766573E+03  0.66036193845E+03  0.50400001928E-02 0.  1.
       -1    1    3    3    0  502  0.64727374983E+03  0.52222025861E+02 -0.39785219759E+03  0.76156209094E+03  0.50400001928E-02 0. -1.
</event>
<event>
 5   0  0.1095119E-03  0.1403992E+04  0.7818609E-02  0.8950934E-01
        2   -1    0    0  501    0  0.00000000000E+00  0.00000000000E+00  0.74930997650E+03  0.74930997651E+03  0.25500000920E-02 0. -1.
       -2   -1    0    0    0  501  0.00000000000E+00  0.00000000000E+00 -0.65766932586E+03  0.65766932586E+03  0.25500000920E-02 0.  1.
    10030    2    1    2    0    0  0.00000000000E+00  0.00000000000E+00  0.91640650646E+02  0.14069793024E+04  0.14039917195E+04 0.  0.
        5    1    3    3  502    0 -0.59130567484E+03  0.12410975811E+03 -0.31233417051E+03  0.68016200807E+03  0.46999998093E+01 0.  1.
       -5    1    3    3    0  502  0.59130567484E+03 -0.12410975811E+03  0.40397482116E+03  0.72681729429E+03  0.46999998093E+01 0. -1.
</event>
<event>
 5   0  0.1108819E-03  0.1429060E+04  0.7818609E-02  0.8933048E-01
        2   -1    0    0  501    0  0.00000000000E+00  0.00000000000E+00  0.56193353665E+03  0.56193353666E+03  0.25500000920E-02 0.  1.
       -2   -1    0    0    0  501  0.00000000000E+00  0.00000000000E+00 -0.90856522618E+03  0.90856522618E+03  0.25500000920E-02 0. -1.
    10030    2    1    2    0    0  0.00000000000E+00  0.00000000000E+00 -0.34663168953E+03  0.14704987628E+04  0.14290602098E+04 0.  0.
        3    1    3    3  502    0  0.41403305043E+03 -0.57804992168E+03 -0.10064080558E+03  0.71811813844E+03  0.10100000352E+00 0. -1.
       -3    1    3    3    0  502 -0.41403305043E+03  0.57804992168E+03 -0.24599088395E+03  0.75238062441E+03  0.10100000352E+00 0.  1.
</event>
<event>
 5   0  0.1098949E-03  0.1393551E+04  0.7818609E-02  0.8958500E-01
       -2   -1    0    0    0  501  0.00000000000E+00  0.00000000000E+00  0.51910462499E+03  0.51910462500E+03  0.25500000920E-02 0.  1.
        2   -1    0    0  501    0  0.00000000000E+00  0.00000000000E+00 -0.93525705037E+03  0.93525705038E+03  0.25500000920E-02 0. -1.
    10030    2    1    2    0    0  0.00000000000E+00  0.00000000000E+00 -0.41615242538E+03  0.14543616754E+04  0.13935512340E+04 0.  0.
        4    1    3    3  502    0 -0.28344483576E+03  0.48959935649E+03  0.21642389492E+03  0.60571397539E+03  0.12699999809E+01 0.  1.
       -4    1    3    3    0  502  0.28344483576E+03 -0.48959935649E+03 -0.63257632030E+03  0.84864769999E+03  0.12699999809E+01 0. -1.
</event>
<event>
 5   0  0.1108819E-03  0.1399967E+04  0.7818609E-02  0.8953842E-01
        2   -1    0    0  501    0  0.00000000000E+00  0.00000000000E+00  0.10943401441E+04  0.10943401441E+04  0.25500000920E-02 0. -1.
       -2   -1    0    0    0  501  0.00000000000E+00  0.00000000000E+00 -0.44773753573E+03  0.44773753573E+03  0.25500000920E-02 0.  1.
    10030    2    1    2    0    0  0.00000000000E+00  0.00000000000E+00  0.64660260840E+03  0.15420776799E+04  0.13999673702E+04 0.  0.
        3    1    3    3  502    0 -0.11600604913E+03  0.69021035711E+03  0.33583185162E+03  0.77629297515E+03  0.10100000352E+00 0.  1.
       -3    1    3    3    0  502  0.11600604913E+03 -0.69021035711E+03  0.31077075678E+03  0.76578470471E+03  0.10100000352E+00 0. -1.
</event>
<event>
 5   0  0.6153318E-04  0.1384372E+04  0.7818609E-02  0.8965210E-01
       -1   -1    0    0    0  501  0.00000000000E+00  0.00000000000E+00  0.43675276553E+03  0.43675276556E+03  0.50400001928E-02 0.  1.
        1   -1    0    0  501    0  0.00000000000E+00  0.00000000000E+00 -0.10970076861E+04  0.10970076861E+04  0.50400001928E-02 0. -1.
    10030    2    1    2    0    0  0.00000000000E+00  0.00000000000E+00 -0.66025492053E+03  0.15337604516E+04  0.13843715408E+04 0.  0.
        5    1    3    3  502    0 -0.64150692219E+03  0.24866812879E+03 -0.24624695448E+03  0.73077125155E+03  0.46999998093E+01 0. -1.
       -5    1    3    3    0  502  0.64150692219E+03 -0.24866812879E+03 -0.41400796605E+03  0.80298920008E+03  0.46999998093E+01 0.  1.
</event>
<event>
 5   0  0.6194742E-04  0.1471142E+04  0.7818609E-02  0.8903874E-01
       -1   -1    0    0    0  501  0.00000000000E+00  0.00000000000E+00  0.43705227159E+03  0.43705227162E+03  0.50400001928E-02 0.  1.
        1   -1    0    0  501    0  0.00000000000E+00  0.00000000000E+00 -0.12379854084E+04  0.12379854084E+04  0.50400001928E-02 0. -1.
    10030    2    1    2    0    0  0.00000000000E+00  0.00000000000E+00 -0.80093313678E+03  0.16750376800E+04  0.14711415091E+04 0.  0.
        4    1    3    3  502    0  0.17135507502E+03 -0.70923837161E+03 -0.50655238524E+03  0.88824465176E+03  0.12699999809E+01 0. -1.
       -4    1    3    3    0  502 -0.17135507502E+03  0.70923837161E+03 -0.29438075154E+03  0.78679302823E+03  0.12699999809E+01 0.  1.
</event>
<event>
 5   0  0.6153318E-04  0.1405658E+04  0.7818609E-02  0.8949733E-01
       -1   -1    0    0    0  501  0.00000000000E+00  0.00000000000E+00  0.85036982654E+03  0.85036982655E+03  0.50400001928E-02 0. -1.
        1   -1    0    0  501    0  0.00000000000E+00  0.00000000000E+00 -0.58088696577E+03  0.58088696580E+03  0.50400001928E-02 0.  1.
    10030    2    1    2    0    0  0.00000000000E+00  0.00000000000E+00  0.26948286076E+03  0.14312567923E+04  0.14056582065E+04 0.  0.
        5    1    3    3  502    0  0.63057594252E+03 -0.28271889435E+03  0.26509896145E+03  0.74017264329E+03  0.46999998093E+01 0.  1.
       -5    1    3    3    0  502 -0.63057594252E+03  0.28271889435E+03  0.43838993122E+01  0.69108414906E+03  0.46999998093E+01 0. -1.
</event>
<event>
 5   0  0.6194742E-04  0.1399971E+04  0.7818609E-02  0.8953839E-01
        1   -1    0    0  501    0  0.00000000000E+00  0.00000000000E+00  0.41981633706E+03  0.41981633709E+03  0.50400001928E-02 0.  1.
       -1   -1    0    0    0  501  0.00000000000E+00  0.00000000000E+00 -0.11671288484E+04  0.11671288485E+04  0.50400001928E-02 0. -1.
    10030    2    1    2    0    0  0.00000000000E+00  0.00000000000E+00 -0.74731251139E+03  0.15869451855E+04  0.13999710826E+04 0.  0.
        4    1    3    3  502    0 -0.28293338166E+03 -0.64006994391E+03 -0.39111866590E+03  0.80169586207E+03  0.12699999809E+01 0. -1.
       -4    1    3    3    0  502  0.28293338166E+03  0.64006994391E+03 -0.35619384549E+03  0.78524932347E+03  0.12699999809E+01 0.  1.
</event>
<event>
 5   0  0.1108819E-03  0.1397491E+04  0.7818609E-02  0.8955637E-01
        2   -1    0    0  501    0  0.00000000000E+00  0.00000000000E+00  0.19739653151E+04  0.19739653151E+04  0.25500000920E-02 0. -1.
       -2   -1    0    0    0  501  0.00000000000E+00  0.00000000000E+00 -0.24734229381E+03  0.24734229382E+03  0.25500000920E-02 0.  1.
    10030    2    1    2    0    0  0.00000000000E+00  0.00000000000E+00  0.17266230213E+04  0.22213076090E+04  0.13974907641E+04 0.  0.
        3    1    3    3  502    0  0.32409893200E+03  0.37306191908E+03  0.16485131128E+04  0.17209912279E+04  0.10100000352E+00 0. -1.
       -3    1    3    3    0  502 -0.32409893200E+03 -0.37306191908E+03  0.78109908572E+02  0.50031638111E+03  0.10100000352E+00 0.  1.
</event>
<event>
 5   0  0.6114266E-04  0.1418029E+04  0.7818609E-02  0.8940871E-01
        1   -1    0    0  501    0  0.00000000000E+00  0.00000000000E+00  0.13904243568E+04  0.13904243568E+04  0.50400001928E-02 0. -1.
       -1   -1    0    0    0  501  0.00000000000E+00  0.00000000000E+00 -0.36154542033E+03  0.36154542036E+03  0.50400001928E-02 0.  1.
    10030    2    1    2    0    0  0.00000000000E+00  0.00000000000E+00  0.10288789364E+04  0.17519697771E+04  0.14180289962E+04 0.  0.
        3    1    3    3  502    0 -0.17507909182E+02 -0.39710758957E+03  0.12398143419E+04  0.13019756438E+04  0.10100000352E+00 0. -1.
       -3    1    3    3    0  502  0.17507909182E+02  0.39710758957E+03 -0.21093540541E+03  0.44999413334E+03  0.10100000352E+00 0.  1.
</event>
<event>
 5   0  0.4176125E-04  0.1432369E+04  0.7818609E-02  0.8930716E-01
       -4   -1    0    0    0  501  0.00000000000E+00  0.00000000000E+00  0.95122970218E+03  0.95123054998E+03  0.12699999809E+01 0.  1.
        4   -1    0    0  501    0  0.00000000000E+00  0.00000000000E+00 -0.53921603840E+03  0.53921753400E+03  0.12699999809E+01 0. -1.
    10030    2    1    2    0    0  0.00000000000E+00  0.00000000000E+00  0.41201366378E+03  0.14904480840E+04  0.14323687486E+04 0.  0.
        4    1    3    3  502    0 -0.38570446495E+03 -0.59989872747E+03  0.27401781285E+03  0.76402473269E+03  0.12699999809E+01 0. -1.
       -4    1    3    3    0  502  0.38570446495E+03  0.59989872747E+03  0.13799585093E+03  0.72642335128E+03  0.12699999809E+01 0.  1.
</event>
<event>
 5   0  0.1108819E-03  0.1399658E+04  0.7818609E-02  0.8954066E-01
        2   -1    0    0  501    0  0.00000000000E+00  0.00000000000E+00  0.69006189407E+03  0.69006189407E+03  0.25500000920E-02 0.  1.
       -2   -1    0    0    0  501  0.00000000000E+00  0.00000000000E+00 -0.70973405334E+03  0.70973405335E+03  0.25500000920E-02 0. -1.
    10030    2    1    2    0    0  0.00000000000E+00  0.00000000000E+00 -0.19672159274E+02  0.13997959474E+04  0.13996577084E+04 0.  0.
        3    1    3    3  502    0 -0.33025537817E+03 -0.21447751081E+03 -0.58841823733E+03  0.70802913053E+03  0.10100000352E+00 0. -1.
       -3    1    3    3    0  502  0.33025537817E+03  0.21447751081E+03  0.56874607805E+03  0.69176681689E+03  0.10100000352E+00 0.  1.
</event>
<event>
 5   0  0.6114266E-04  0.1412643E+04  0.7818609E-02  0.8944717E-01
       -1   -1    0    0    0  501  0.00000000000E+00  0.00000000000E+00  0.88728966387E+03  0.88728966388E+03  0.50400001928E-02 0. -1.
        1   -1    0    0  501    0  0.00000000000E+00  0.00000000000E+00 -0.56226306313E+03  0.56226306315E+03  0.50400001928E-02 0.  1.
    10030    2    1    2    0    0  0.00000000000E+00  0.00000000000E+00  0.32502660073E+03  0.14495527270E+04  0.14126432024E+04 0.  0.
        3    1    3    3  502    0 -0.17340832304E+03  0.78616907745E+02  0.86046073345E+03  0.88127393510E+03  0.10100000352E+00 0. -1.
       -3    1    3    3    0  502  0.17340832304E+03 -0.78616907745E+02 -0.53543413271E+03  0.56827879193E+03  0.10100000352E+00 0.  1.
</event>
<event>
 5   0  0.1098949E-03  0.1396799E+04  0.7818609E-02  0.8956138E-01
        2   -1    0    0  501    0  0.00000000000E+00  0.00000000000E+00  0.12926408383E+04  0.12926408383E+04  0.25500000920E-02 0.  1.
       -2   -1    0    0    0  501  0.00000000000E+00  0.00000000000E+00 -0.37733776825E+03  0.37733776826E+03  0.25500000920E-02 0. -1.
    10030    2    1    2    0    0  0.00000000000E+00  0.00000000000E+00  0.91530307002E+03  0.16699786065E+04  0.13967994975E+04 0.  0.
        4    1    3    3  502    0  0.12209039900E+03  0.32747760540E+03  0.11805671767E+04  0.12312140834E+04  0.12699999809E+01 0.  1.
       -4    1    3    3    0  502 -0.12209039900E+03 -0.32747760540E+03 -0.26526410668E+03  0.43876452313E+03  0.12699999809E+01 0. -1.
</event>
<event>
 5   0  0.4176125E-04  0.1398469E+04  0.7818609E-02  0.8954928E-01
       -4   -1    0    0    0  501  0.00000000000E+00  0.00000000000E+00  0.50370219324E+03  0.50370379428E+03  0.12699999809E+01 0. -1.
        4   -1    0    0  501    0  0.00000000000E+00  0.00000000000E+00 -0.97066641694E+03  0.97066724776E+03  0.12699999809E+01 0.  1.
    10030    2    1    2    0    0  0.00000000000E+00  0.00000000000E+00 -0.46696422370E+03  0.14743710420E+04  0.13984685851E+04 0.  0.
        1    1    3    3  502    0 -0.21103216223E+02 -0.43950550322E+03  0.33944471258E+03  0.55572758256E+03  0.50400001928E-02 0. -1.
       -1    1    3    3    0  502  0.21103216223E+02  0.43950550322E+03 -0.80640893629E+03  0.91864345948E+03  0.50400001928E-02 0.  1.
</event>
<event>
 5   0  0.6097538E-04  0.1407716E+04  0.7818609E-02  0.8948252E-01
        1   -1    0    0  501    0  0.00000000000E+00  0.00000000000E+00  0.90713777246E+03  0.90713777247E+03  0.50400001928E-02 0. -1.
       -1   -1    0    0    0  501  0.00000000000E+00  0.00000000000E+00 -0.54613071311E+03  0.54613071313E+03  0.50400001928E-02 0.  1.
    10030    2    1    2    0    0  0.00000000000E+00  0.00000000000E+00  0.36100705935E+03  0.14532684856E+04  0.14077155943E+04 0.  0.
        2    1    3    3  502    0 -0.36051271465E+03  0.28203276680E+03  0.73250593959E+03  0.86375740258E+03  0.25500000920E-02 0. -1.
       -2    1    3    3    0  502  0.36051271465E+03 -0.28203276680E+03 -0.37149888024E+03  0.58951108302E+03  0.25500000920E-02 0.  1.
</event>
<event>
 5   0  0.6194742E-04  0.1401156E+04  0.7818609E-02  0.8952982E-01
       -1   -1    0    0    0  501  0.00000000000E+00  0.00000000000E+00  0.11199862538E+04  0.11199862538E+04  0.50400001928E-02 0.  1.
        1   -1    0    0  501    0  0.00000000000E+00  0.00000000000E+00 -0.43822801656E+03  0.43822801659E+03  0.50400001928E-02 0. -1.
    10030    2    1    2    0    0  0.00000000000E+00  0.00000000000E+00  0.68175823719E+03  0.15582142704E+04  0.14011557438E+04 0.  0.
        4    1    3    3  502    0  0.25218038785E+03 -0.57838468507E+03  0.67944487684E+03  0.92723823557E+03  0.12699999809E+01 0.  1.
       -4    1    3    3    0  502 -0.25218038785E+03  0.57838468507E+03  0.23133603489E+01  0.63097603478E+03  0.12699999809E+01 0. -1.
</event>
<event>
 5   0  0.6114266E-04  0.1378056E+04  0.7818609E-02  0.8969858E-01
       -1   -1    0    0    0  501  0.00000000000E+00  0.00000000000E+00  0.25499583754E+03  0.25499583759E+03  0.50400001928E-02 0.  1.
        1   -1    0    0  501    0  0.00000000000E+00  0.00000000000E+00 -0.18618332660E+04  0.18618332660E+04  0.50400001928E-02 0. -1.
    10030    2    1    2    0    0  0.00000000000E+00  0.00000000000E+00 -0.16068374285E+04  0.21168291036E+04  0.13780562152E+04 0.  0.
        3    1    3    3  502    0 -0.26387386220E+03 -0.18199623198E+03 -0.17403221168E+04  0.17695968818E+04  0.10100000352E+00 0. -1.
       -3    1    3    3    0  502  0.26387386220E+03  0.18199623198E+03  0.13348468838E+03  0.34723222178E+03  0.10100000352E+00 0.  1.
</event>
<event>
 5   0  0.6153318E-04  0.1395876E+04  0.7818609E-02  0.8956809E-01
        1   -1    0    0  501    0  0.00000000000E+00  0.00000000000E+00  0.50781311197E+03  0.50781311199E+03  0.50400001928E-02 0. -1.
       -1   -1    0    0    0  501  0.00000000000E+00  0.00000000000E+00 -0.95924493937E+03  0.95924493938E+03  0.50400001928E-02 0.  1.
    10030    2    1    2    0    0  0.00000000000E+00  0.00000000000E+00 -0.45143182740E+03  0.14670580514E+04  0.13958755787E+04 0.  0.
        5    1    3    3  502    0 -0.42701660600E+03  0.32949157295E+03  0.23980147999E+03  0.59028359138E+03  0.46999998093E+01 0. -1.
       -5    1    3    3    0  502  0.42701660600E+03 -0.32949157295E+03 -0.69123330739E+03  0.87677445999E+03  0.46999998093E+01 0.  1.
</event>
<event>
 5   0  0.1108819E-03  0.1373881E+04  0.7818609E-02  0.8972945E-01
       -2   -1    0    0    0  501  0.00000000000E+00  0.00000000000E+00  0.32543971608E+03  0.32543971609E+03  0.25500000920E-02 0.  1.
        2   -1    0    0  501    0  0.00000000000E+00  0.00000000000E+00 -0.14499988069E+04  0.14499988069E+04  0.25500000920E-02 0. -1.
    10030    2    1    2    0    0  0.00000000000E+00  0.00000000000E+00 -0.11245590909E+04  0.17754385230E+04  0.13738809265E+04 0.  0.
        3    1    3    3  502    0 -0.23951262960E+03  0.49905472303E+03 -0.10879456514E+04  0.12206750865E+04  0.10100000352E+00 0. -1.
       -3    1    3    3    0  502  0.23951262960E+03 -0.49905472303E+03 -0.36613439458E+02  0.55476343649E+03  0.10100000352E+00 0.  1.
</event>
<event>
 5   0  0.5875298E-04  0.1399867E+04  0.7818609E-02  0.8953915E-01
        1   -1    0    0  501    0  0.00000000000E+00  0.00000000000E+00  0.61270770126E+03  0.61270770128E+03  0.50400001928E-02 0.  1.
       -1   -1    0    0    0  501  0.00000000000E+00  0.00000000000E+00 -0.79957693871E+03  0.79957693873E+03  0.50400001928E-02 0. -1.
    10030    2    1    2    0    0  0.00000000000E+00  0.00000000000E+00 -0.18686923745E+03  0.14122846400E+04  0.13998670624E+04 0.  0.
        1    1    3    3  502    0 -0.80955191057E+02  0.49915337416E+03  0.39479943171E+03  0.64154066527E+03  0.50400001928E-02 0.  1.
       -1    1    3    3    0  502  0.80955191057E+02 -0.49915337416E+03 -0.58166866916E+03  0.77074397474E+03  0.50400001928E-02 0. -1.
</event>
<event>
 5   0  0.1175146E-03  0.1384345E+04  0.7818609E-02  0.8965229E-01
       -2   -1    0    0    0  501  0.00000000000E+00  0.00000000000E+00  0.80559106042E+03  0.80559106043E+03  0.25500000920E-02 0. -1.
        2   -1    0    0  501    0  0.00000000000E+00  0.00000000000E+00 -0.59472173464E+03  0.59472173464E+03  0.25500000920E-02 0.  1.
    10030    2    1    2    0    0  0.00000000000E+00  0.00000000000E+00  0.21086932578E+03  0.14003127951E+04  0.13843446289E+04 0.  0.
        1    1    3    3  502    0 -0.32605119344E+03  0.56099634798E+03  0.34920454319E+03  0.73686504612E+03  0.50400001928E-02 0. -1.
       -1    1    3    3    0  502  0.32605119344E+03 -0.56099634798E+03 -0.13833521740E+03  0.66344774895E+03  0.50400001928E-02 0.  1.
</event>
<event>
 5   0  0.6114266E-04  0.1368484E+04  0.7818609E-02  0.8976952E-01
        1   -1    0    0  501    0  0.00000000000E+00  0.00000000000E+00  0.92727197062E+03  0.92727197063E+03  0.50400001928E-02 0. -1.
       -1   -1    0    0    0  501  0.00000000000E+00  0.00000000000E+00 -0.50490843022E+03  0.50490843025E+03  0.50400001928E-02 0.  1.
    10030    2    1    2    0    0  0.00000000000E+00  0.00000000000E+00  0.42236354039E+03  0.14321804009E+04  0.13684844685E+04 0.  0.
        3    1    3    3  502    0 -0.13908476614E+03 -0.22392054700E+02 -0.48956692662E+03  0.50943278470E+03  0.10100000352E+00 0.  1.
       -3    1    3    3    0  502  0.13908476614E+03  0.22392054700E+02  0.91193046702E+03  0.92274761618E+03  0.10100000352E+00 0. -1.
</event>
<event>
 5   0  0.6097538E-04  0.1397920E+04  0.7818609E-02  0.8955325E-01
        1   -1    0    0  501    0  0.00000000000E+00  0.00000000000E+00  0.56369794023E+03  0.56369794025E+03  0.50400001928E-02 0.  1.
       -1   -1    0    0    0  501  0.00000000000E+00  0.00000000000E+00 -0.86667912030E+03  0.86667912031E+03  0.50400001928E-02 0. -1.
    10030    2    1    2    0    0  0.00000000000E+00  0.00000000000E+00 -0.30298118007E+03  0.14303770606E+04  0.13979202194E+04 0.  0.
        2    1    3    3  502    0  0.17047386876E+03 -0.67319534245E+03 -0.70327242476E+02  0.69799658314E+03  0.25500000920E-02 0.  1.
       -2    1    3    3    0  502 -0.17047386876E+03  0.67319534245E+03 -0.23265393759E+03  0.73238047743E+03  0.25500000920E-02 0. -1.
</event>
<event>
 5   0  0.6153318E-04  0.1499386E+04  0.7818609E-02  0.8884861E-01
       -1   -1    0    0    0  501  0.00000000000E+00  0.00000000000E+00  0.89691063583E+03  0.89691063584E+03  0.50400001928E-02 0. -1.
        1   -1    0    0  501    0  0.00000000000E+00  0.00000000000E+00 -0.62663940964E+03  0.62663940966E+03  0.50400001928E-02 0.  1.
    10030    2    1    2    0    0  0.00000000000E+00  0.00000000000E+00  0.27027122619E+03  0.15235500455E+04  0.14993859428E+04 0.  0.
        5    1    3    3  502    0 -0.13412702710E+03  0.71608179285E+03  0.31477350709E+03  0.79364201263E+03  0.46999998093E+01 0. -1.
       -5    1    3    3    0  502  0.13412702710E+03 -0.71608179285E+03 -0.44502280903E+02  0.72990803287E+03  0.46999998093E+01 0.  1.
</event>
<event>
 5   0  0.1095119E-03  0.1358795E+04  0.7818609E-02  0.8984197E-01
        2   -1    0    0  501    0  0.00000000000E+00  0.00000000000E+00  0.83576644295E+03  0.83576644296E+03  0.25500000920E-02 0. -1.
       -2   -1    0    0    0  501  0.00000000000E+00  0.00000000000E+00 -0.55228447107E+03  0.55228447108E+03  0.25500000920E-02 0.  1.
    10030    2    1    2    0    0  0.00000000000E+00  0.00000000000E+00  0.28348197188E+03  0.13880509140E+04  0.13587948011E+04 0.  0.
        5    1    3    3  502    0  0.31579751570E+02  0.66677858128E+03  0.12656574169E+02  0.66766251657E+03  0.46999998093E+01 0.  1.
       -5    1    3    3    0  502 -0.31579751570E+02 -0.66677858128E+03  0.27082539771E+03  0.72038839747E+03  0.46999998093E+01 0. -1.
</event>
<event>
 5   0  0.1095119E-03  0.1339366E+04  0.7818609E-02  0.8998917E-01
        2   -1    0    0  501    0  0.00000000000E+00  0.00000000000E+00  0.10521058290E+04  0.10521058290E+04  0.25500000920E-02 0. -1.
       -2   -1    0    0    0  501  0.00000000000E+00  0.00000000000E+00 -0.42626421520E+03  0.42626421521E+03  0.25500000920E-02 0.  1.
    10030    2    1    2    0    0  0.00000000000E+00  0.00000000000E+00  0.62584161381E+03  0.14783700442E+04  0.13393656193E+04 0.  0.
        5    1    3    3  502    0 -0.58457853595E+03  0.16701614965E+03  0.62281980695E+03  0.87037524141E+03  0.46999998093E+01 0. -1.
       -5    1    3    3    0  502  0.58457853595E+03 -0.16701614965E+03  0.30218068638E+01  0.60799480282E+03  0.46999998093E+01 0.  1.
</event>
<event>
 5   0  0.1095119E-03  0.1387100E+04  0.7818609E-02  0.8963209E-01
        2   -1    0    0  501    0  0.00000000000E+00  0.00000000000E+00  0.13729544663E+04  0.13729544663E+04  0.25500000920E-02 0. -1.
       -2   -1    0    0    0  501  0.00000000000E+00  0.00000000000E+00 -0.35034804282E+03  0.35034804283E+03  0.25500000920E-02 0.  1.
    10030    2    1    2    0    0  0.00000000000E+00  0.00000000000E+00  0.10226064235E+04  0.17233025092E+04  0.13871004436E+04 0.  0.
        5    1    3    3  502    0 -0.67401340345E+03 -0.16317417844E+03  0.52169320541E+03  0.86781666906E+03  0.46999998093E+01 0. -1.
       -5    1    3    3    0  502  0.67401340345E+03  0.16317417844E+03  0.50091321811E+03  0.85548584010E+03  0.46999998093E+01 0.  1.
</event>
<event>
 5   0  0.6194742E-04  0.1380741E+04  0.7818609E-02  0.8967878E-01
       -1   -1    0    0    0  501  0.00000000000E+00  0.00000000000E+00  0.47531926065E+03  0.47531926068E+03  0.50400001928E-02 0. -1.
        1   -1    0    0  501    0  0.00000000000E+00  0.00000000000E+00 -0.10027189033E+04  0.10027189033E+04  0.50400001928E-02 0.  1.
    10030    2    1    2    0    0  0.00000000000E+00  0.00000000000E+00 -0.52739964261E+03  0.14780381640E+04  0.13807412614E+04 0.  0.
        4    1    3    3  502    0 -0.58689003500E+03 -0.13381791090E+03  0.98147921425E+02  0.60990308562E+03  0.12699999809E+01 0. -1.
       -4    1    3    3    0  502  0.58689003500E+03  0.13381791090E+03 -0.62554756404E+03  0.86813507834E+03  0.12699999809E+01 0.  1.
</event>
<event>
 5   0  0.1120053E-03  0.1391761E+04  0.7818609E-02  0.8959804E-01
       -2   -1    0    0    0  501  0.00000000000E+00  0.00000000000E+00  0.10643196643E+04  0.10643196643E+04  0.25500000920E-02 0. -1.
        2   -1    0    0  501    0  0.00000000000E+00  0.00000000000E+00 -0.45498542299E+03  0.45498542299E+03  0.25500000920E-02 0.  1.
    10030    2    1    2    0    0  0.00000000000E+00  0.00000000000E+00  0.60933424130E+03  0.15193050873E+04  0.13917613770E+04 0.  0.
        2    1    3    3  502    0 -0.47280263081E+03 -0.42363002792E+03  0.61582376533E+03  0.88444538452E+03  0.25500000920E-02 0. -1.
       -2    1    3    3    0  502  0.47280263081E+03  0.42363002792E+03 -0.64895240297E+01  0.63485970276E+03  0.25500000920E-02 0.  1.
</event>
<event>
 5   0  0.1108819E-03  0.1375386E+04  0.7818609E-02  0.8971831E-01
       -2   -1    0    0    0  501  0.00000000000E+00  0.00000000000E+00  0.52051688787E+03  0.52051688787E+03  0.25500000920E-02 0. -1.
        2   -1    0    0  501    0  0.00000000000E+00  0.00000000000E+00 -0.90856143945E+03  0.90856143945E+03  0.25500000920E-02 0.  1.
    10030    2    1    2    0    0  0.00000000000E+00  0.00000000000E+00 -0.38804455158E+03  0.14290783273E+04  0.13753858701E+04 0.  0.
        3    1    3    3  502    0  0.50335261886E+03  0.20785378209E+03 -0.63036200601E+03  0.83302060146E+03  0.10100000352E+00 0.  1.
       -3    1    3    3    0  502 -0.50335261886E+03 -0.20785378209E+03  0.24231745442E+03  0.59605772586E+03  0.10100000352E+00 0. -1.
</event>
<event>
 5   0  0.5875298E-04  0.1477690E+04  0.7818609E-02  0.8899426E-01
        1   -1    0    0  501    0  0.00000000000E+00  0.00000000000E+00  0.63682160079E+03  0.63682160081E+03  0.50400001928E-02 0.  1.
       -1   -1    0    0    0  501  0.00000000000E+00  0.00000000000E+00 -0.85721340148E+03  0.85721340149E+03  0.50400001928E-02 0. -1.
    10030    2    1    2    0    0  0.00000000000E+00  0.00000000000E+00 -0.22039180069E+03  0.14940350023E+04  0.14776901036E+04 0.  0.
        1    1    3    3  502    0  0.58698032077E+03 -0.27582278144E+03 -0.46804284853E+03  0.79980510864E+03  0.50400001928E-02 0. -1.
       -1    1    3    3    0  502 -0.58698032077E+03  0.27582278144E+03  0.24765104784E+03  0.69422989366E+03  0.50400001928E-02 0.  1.
</event>
<event>
 5   0  0.1108819E-03  0.1407303E+04  0.7818609E-02  0.8948549E-01
        2   -1    0    0  501    0  0.00000000000E+00  0.00000000000E+00  0.15670364846E+04  0.15670364846E+04  0.25500000920E-02 0.  1.
       -2   -1    0    0    0  501  0.00000000000E+00  0.00000000000E+00 -0.31596276445E+03  0.31596276446E+03  0.25500000920E-02 0. -1.
    10030    2    1    2    0    0  0.00000000000E+00  0.00000000000E+00  0.12510737202E+04  0.18829992491E+04  0.14073026394E+04 0.  0.
        3    1    3    3  502    0 -0.68258121448E+03 -0.39662887912E+02  0.84796599637E+03  0.10892826081E+04  0.10100000352E+00 0. -1.
       -3    1    3    3    0  502  0.68258121448E+03  0.39662887912E+02  0.40310772382E+03  0.79371664103E+03  0.10100000352E+00 0.  1.
</event>
<event>
 5   0  0.6194742E-04  0.1402208E+04  0.7818609E-02  0.8952222E-01
        1   -1    0    0  501    0  0.00000000000E+00  0.00000000000E+00  0.16712783018E+04  0.16712783018E+04  0.50400001928E-02 0. -1.
       -1   -1    0    0    0  501  0.00000000000E+00  0.00000000000E+00 -0.29411439349E+03  0.29411439353E+03  0.50400001928E-02 0.  1.
    10030    2    1    2    0    0  0.00000000000E+00  0.00000000000E+00  0.13771639083E+04  0.19653926953E+04  0.14022082643E+04 0.  0.
        4    1    3    3  502    0  0.10155651901E+03 -0.82224103631E+02 -0.27689428127E+03  0.30618064222E+03  0.12699999809E+01 0.  1.
       -4    1    3    3    0  502 -0.10155651901E+03  0.82224103631E+02  0.16540581896E+04  0.16592120531E+04  0.12699999809E+01 0. -1.
</event>
<event>
 5   0  0.1095119E-03  0.1312118E+04  0.7818609E-02  0.9020011E-01
        2   -1    0    0  501    0  0.00000000000E+00  0.00000000000E+00  0.70376692178E+03  0.70376692178E+03  0.25500000920E-02 0.  1.
       -2   -1    0    0    0  501  0.00000000000E+00  0.00000000000E+00 -0.61158472220E+03  0.61158472221E+03  0.25500000920E-02 0. -1.
    10030    2    1    2    0    0  0.00000000000E+00  0.00000000000E+00  0.92182199572E+02  0.13153516440E+04  0.13121175212E+04 0.  0.
        5    1    3    3  502    0  0.49195728164E+03 -0.37910635853E+03  0.25791124873E+03  0.67252055749E+03  0.46999998093E+01 0. -1.
       -5    1    3    3    0  502 -0.49195728164E+03  0.37910635853E+03 -0.16572904916E+03  0.64283108650E+03  0.46999998093E+01 0.  1.
</event>
<event>
 5   0  0.6114266E-04  0.1407448E+04  0.7818609E-02  0.8948445E-01
       -1   -1    0    0    0  501  0.00000000000E+00  0.00000000000E+00  0.60126890933E+03  0.60126890935E+03  0.50400001928E-02 0.  1.
        1   -1    0    0  501    0  0.00000000000E+00  0.00000000000E+00 -0.82363759683E+03  0.82363759685E+03  0.50400001928E-02 0. -1.
    10030    2    1    2    0    0  0.00000000000E+00  0.00000000000E+00 -0.22236868751E+03  0.14249065062E+04  0.14074483004E+04 0.  0.
        3    1    3    3  502    0 -0.39857774746E+03  0.33081072903E+03 -0.59346260220E+03  0.78771684610E+03  0.10100000352E+00 0. -1.
       -3    1    3    3    0  502  0.39857774746E+03 -0.33081072903E+03  0.37109391469E+03  0.63718966010E+03  0.10100000352E+00 0.  1.
</event>
<event>
 5   0  0.1120053E-03  0.1403179E+04  0.7818609E-02  0.8951521E-01
        2   -1    0    0  501    0  0.00000000000E+00  0.00000000000E+00  0.49538088057E+03  0.49538088057E+03  0.25500000920E-02 0. -1.
       -2   -1    0    0    0  501  0.00000000000E+00  0.00000000000E+00 -0.99363514594E+03  0.99363514594E+03  0.25500000920E-02 0.  1.
    10030    2    1    2    0    0  0.00000000000E+00  0.00000000000E+00 -0.49825426537E+03  0.14890160265E+04  0.14031790386E+04 0.  0.
        2    1    3    3  502    0  0.23983818657E+03 -0.41376135522E+02  0.44914864775E+03  0.51085110170E+03  0.25500000920E-02 0. -1.
       -2    1    3    3    0  502 -0.23983818657E+03  0.41376135522E+02 -0.94740291312E+03  0.97816492481E+03  0.25500000920E-02 0.  1.
</event>
<event>
 5   0  0.6153318E-04  0.1399530E+04  0.7818609E-02  0.8954159E-01
       -1   -1    0    0    0  501  0.00000000000E+00  0.00000000000E+00  0.78430173209E+03  0.78430173210E+03  0.50400001928E-02 0. -1.
        1   -1    0    0  501    0  0.00000000000E+00  0.00000000000E+00 -0.62433983377E+03  0.62433983379E+03  0.50400001928E-02 0.  1.
    10030    2    1    2    0    0  0.00000000000E+00  0.00000000000E+00  0.15996189832E+03  0.14086415659E+04  0.13995296539E+04 0.  0.
        5    1    3    3  502    0  0.41519698130E+03  0.43003215861E+03  0.44612476730E+03  0.74589918133E+03  0.46999998093E+01 0. -1.
       -5    1    3    3    0  502 -0.41519698130E+03 -0.43003215861E+03 -0.28616286898E+03  0.66274238456E+03  0.46999998093E+01 0.  1.
</event>
<event>
 5   0  0.6097538E-04  0.1399542E+04  0.7818609E-02  0.8954150E-01
        1   -1    0    0  501    0  0.00000000000E+00  0.00000000000E+00  0.11336077599E+04  0.11336077599E+04  0.50400001928E-02 0.  1.
       -1   -1    0    0    0  501  0.00000000000E+00  0.00000000000E+00 -0.43196573653E+03  0.43196573656E+03  0.50400001928E-02 0. -1.
    10030    2    1    2    0    0  0.00000000000E+00  0.00000000000E+00  0.70164202341E+03  0.15655734965E+04  0.13995423695E+04 0.  0.
        2    1    3    3  502    0  0.57468203067E+03  0.27647989610E+03  0.67305539494E+03  0.92720231556E+03  0.25500000920E-02 0.  1.
       -2    1    3    3    0  502 -0.57468203067E+03 -0.27647989610E+03  0.28586628471E+02  0.63837118094E+03  0.25500000920E-02 0. -1.
</event>
<event>
 5   0  0.6153318E-04  0.1397411E+04  0.7818609E-02  0.8955695E-01
        1   -1    0    0  501    0  0.00000000000E+00  0.00000000000E+00  0.95620792211E+03  0.95620792212E+03  0.50400001928E-02 0. -1.
       -1   -1    0    0    0  501  0.00000000000E+00  0.00000000000E+00 -0.51054735758E+03  0.51054735760E+03  0.50400001928E-02 0.  1.
    10030    2    1    2    0    0  0.00000000000E+00  0.00000000000E+00  0.44566056453E+03  0.14667552797E+04  0.13974110747E+04 0.  0.
        5    1    3    3  502    0  0.23921923064E+03  0.63922577790E+03  0.37968455052E+03  0.78103641614E+03  0.46999998093E+01 0. -1.
       -5    1    3    3    0  502 -0.23921923064E+03 -0.63922577790E+03  0.65976014006E+02  0.68571886358E+03  0.46999998093E+01 0.  1.
</event>
<event>
 5   0  0.1095119E-03  0.1399852E+04  0.7818609E-02  0.8953926E-01
       -2   -1    0    0    0  501  0.00000000000E+00  0.00000000000E+00  0.31696650622E+03  0.31696650623E+03  0.25500000920E-02 0. -1.
        2   -1    0    0  501    0  0.00000000000E+00  0.00000000000E+00 -0.15455770095E+04  0.15455770095E+04  0.25500000920E-02 0.  1.
    10030    2    1    2    0    0  0.00000000000E+00  0.00000000000E+00 -0.12286105033E+04  0.18625435158E+04  0.13998516276E+04 0.  0.
        5    1    3    3  502    0 -0.23386151426E+03 -0.64253078673E+03 -0.41544994517E+03  0.80009859810E+03  0.46999998093E+01 0. -1.
       -5    1    3    3    0  502  0.23386151426E+03  0.64253078673E+03 -0.81316055813E+03  0.10624449176E+04  0.46999998093E+01 0.  1.
</event>
<event>
 5   0  0.6153318E-04  0.1399770E+04  0.7818609E-02  0.8953985E-01
       -1   -1    0    0    0  501  0.00000000000E+00  0.00000000000E+00  0.30436420194E+03  0.30436420199E+03  0.50400001928E-02 0.  1.
        1   -1    0    0  501    0  0.00000000000E+00  0.00000000000E+00 -0.16093854052E+04  0.16093854052E+04  0.50400001928E-02 0. -1.
    10030    2    1    2    0    0  0.00000000000E+00  0.00000000000E+00 -0.13050212032E+04  0.19137496072E+04  0.13997704162E+04 0.  0.
        5    1    3    3  502    0  0.19612770982E+03 -0.51026543618E+03 -0.12499895570E+04  0.13643067384E+04  0.46999998093E+01 0. -1.
       -5    1    3    3    0  502 -0.19612770982E+03  0.51026543618E+03 -0.55031646222E+02  0.54944286873E+03  0.46999998093E+01 0.  1.
</event>
<event>
 5   0  0.1175146E-03  0.1392256E+04  0.7818609E-02  0.8959443E-01
        2   -1    0    0  501    0  0.00000000000E+00  0.00000000000E+00  0.15034896798E+04  0.15034896798E+04  0.25500000920E-02 0.  1.
       -2   -1    0    0    0  501  0.00000000000E+00  0.00000000000E+00 -0.32231280898E+03  0.32231280899E+03  0.25500000920E-02 0. -1.
    10030    2    1    2    0    0  0.00000000000E+00  0.00000000000E+00  0.11811768708E+04  0.18258024888E+04  0.13922556977E+04 0.  0.
        1    1    3    3  502    0  0.98479074095E+02 -0.64591356678E+03  0.27560278119E+03  0.70912576939E+03  0.50400001928E-02 0. -1.
       -1    1    3    3    0  502 -0.98479074095E+02  0.64591356678E+03  0.90557408962E+03  0.11166767194E+04  0.50400001928E-02 0.  1.
</event>
<event>
 5   0  0.1095119E-03  0.1331753E+04  0.7818609E-02  0.9004757E-01
       -2   -1    0    0    0  501  0.00000000000E+00  0.00000000000E+00  0.59805031978E+03  0.59805031979E+03  0.25500000920E-02 0. -1.
        2   -1    0    0  501    0  0.00000000000E+00  0.00000000000E+00 -0.74139549775E+03  0.74139549775E+03  0.25500000920E-02 0.  1.
    10030    2    1    2    0    0  0.00000000000E+00  0.00000000000E+00 -0.14334517796E+03  0.13394458175E+04  0.13317534524E+04 0.  0.
        5    1    3    3  502    0  0.33793297708E+03  0.18745929901E+03  0.47370485190E+03  0.61135755700E+03  0.46999998093E+01 0. -1.
       -5    1    3    3    0  502 -0.33793297708E+03 -0.18745929901E+03 -0.61705002986E+03  0.72808826054E+03  0.46999998093E+01 0.  1.
</event>
<event>
 5   0  0.1095119E-03  0.1395200E+04  0.7818609E-02  0.8957300E-01
       -2   -1    0    0    0  501  0.00000000000E+00  0.00000000000E+00  0.32962516764E+03  0.32962516765E+03  0.25500000920E-02 0. -1.
        2   -1    0    0  501    0  0.00000000000E+00  0.00000000000E+00 -0.14763617930E+04  0.14763617930E+04  0.25500000920E-02 0.  1.
    10030    2    1    2    0    0  0.00000000000E+00  0.00000000000E+00 -0.11467366253E+04  0.18059869606E+04  0.13952003491E+04 0.  0.
        5    1    3    3  502    0  0.60924629467E+03  0.82246277430E+02 -0.10000948814E+04  0.11739494706E+04  0.46999998093E+01 0.  1.
       -5    1    3    3    0  502 -0.60924629467E+03 -0.82246277430E+02 -0.14664174390E+03  0.63203749001E+03  0.46999998093E+01 0. -1.
</event>
<event>
 5   0  0.6153318E-04  0.1403361E+04  0.7818609E-02  0.8951389E-01
       -1   -1    0    0    0  501  0.00000000000E+00  0.00000000000E+00  0.57764932913E+03  0.57764932915E+03  0.50400001928E-02 0. -1.
        1   -1    0    0  501    0  0.00000000000E+00  0.00000000000E+00 -0.85234306148E+03  0.85234306150E+03  0.50400001928E-02 0.  1.
    10030    2    1    2    0    0  0.00000000000E+00  0.00000000000E+00 -0.27469373236E+03  0.14299923906E+04  0.14033608199E+04 0.  0.
        5    1    3    3  502    0 -0.17772056015E+03 -0.20964117174E+03 -0.79519835813E+03  0.84136587592E+03  0.46999998093E+01 0.  1.
       -5    1    3    3    0  502  0.17772056015E+03  0.20964117174E+03  0.52050462578E+03  0.58862651473E+03  0.46999998093E+01 0. -1.
</event>
<event>
 5   0  0.6153318E-04  0.1649462E+04  0.7818609E-02  0.8790725E-01
        1   -1    0    0  501    0  0.00000000000E+00  0.00000000000E+00  0.23267681409E+04  0.23267681409E+04  0.50400001928E-02 0. -1.
       -1   -1    0    0    0  501  0.00000000000E+00  0.00000000000E+00 -0.29232866891E+03  0.29232866895E+03  0.50400001928E-02 0.  1.
    10030    2    1    2    0    0  0.00000000000E+00  0.00000000000E+00  0.20344394720E+04  0.26190968098E+04  0.16494617711E+04 0.  0.
        5    1    3    3  502    0 -0.28734340109E+03  0.61452942736E+03  0.27254327919E+03  0.73110503778E+03  0.46999998093E+01 0.  1.
       -5    1    3    3    0  502  0.28734340109E+03 -0.61452942736E+03  0.17618961928E+04  0.18879917721E+04  0.46999998093E+01 0. -1.
</event>
<event>
 5   0  0.1095119E-03  0.1380648E+04  0.7818609E-02  0.8967947E-01
       -2   -1    0    0    0  501  0.00000000000E+00  0.00000000000E+00  0.45429374247E+03  0.45429374248E+03  0.25500000920E-02 0.  1.
        2   -1    0    0  501    0  0.00000000000E+00  0.00000000000E+00 -0.10489849731E+04  0.10489849731E+04  0.25500000920E-02 0. -1.
    10030    2    1    2    0    0  0.00000000000E+00  0.00000000000E+00 -0.59469123059E+03  0.15032787155E+04  0.13806481220E+04 0.  0.
        5    1    3    3  502    0 -0.33316473553E+03 -0.25652198846E+03  0.29875078536E+03  0.51582593316E+03  0.46999998093E+01 0.  1.
       -5    1    3    3    0  502  0.33316473553E+03  0.25652198846E+03 -0.89344201594E+03  0.98745278238E+03  0.46999998093E+01 0. -1.
</event>
<event>
 5   0  0.6194742E-04  0.1450163E+04  0.7818609E-02  0.8918287E-01
       -1   -1    0    0    0  501  0.00000000000E+00  0.00000000000E+00  0.36525797763E+03  0.36525797766E+03  0.50400001928E-02 0. -1.
        1   -1    0    0  501    0  0.00000000000E+00  0.00000000000E+00 -0.14393749913E+04  0.14393749913E+04  0.50400001928E-02 0.  1.
    10030    2    1    2    0    0  0.00000000000E+00  0.00000000000E+00 -0.10741170137E+04  0.18046329690E+04  0.14501630231E+04 0.  0.
        4    1    3    3  502    0  0.57520106472E+03  0.35176274989E+03 -0.20512255842E+03  0.70474830538E+03  0.12699999809E+01 0. -1.
       -4    1    3    3    0  502 -0.57520106472E+03 -0.35176274989E+03 -0.86899445527E+03  0.10998846636E+04  0.12699999809E+01 0.  1.
</event>
<event>
 5   0  0.1175146E-03  0.1414561E+04  0.7818609E-02  0.8943346E-01
       -2   -1    0    0    0  501  0.00000000000E+00  0.00000000000E+00  0.38324490700E+03  0.38324490700E+03  0.25500000920E-02 0.  1.
        2   -1    0    0  501    0  0.00000000000E+00  0.00000000000E+00 -0.13052890464E+04  0.13052890464E+04  0.25500000920E-02 0. -1.
    10030    2    1    2    0    0  0.00000000000E+00  0.00000000000E+00 -0.92204413944E+03  0.16885339534E+04  0.14145605384E+04 0.  0.
        1    1    3    3  502    0 -0.57433729902E+02  0.15873807525E+02 -0.13022875176E+04  0.13036500258E+04  0.50400001928E-02 0. -1.
       -1    1    3    3    0  502  0.57433729902E+02 -0.15873807525E+02  0.38024337819E+03  0.38488392767E+03  0.50400001928E-02 0.  1.
</event>
<event>
 5   0  0.6153318E-04  0.1403188E+04  0.7818609E-02  0.8951514E-01
       -1   -1    0    0    0  501  0.00000000000E+00  0.00000000000E+00  0.34922300256E+03  0.34922300259E+03  0.50400001928E-02 0. -1.
        1   -1    0    0  501    0  0.00000000000E+00  0.00000000000E+00 -0.14095128579E+04  0.14095128579E+04  0.50400001928E-02 0.  1.
    10030    2    1    2    0    0  0.00000000000E+00  0.00000000000E+00 -0.10602898554E+04  0.17587358605E+04  0.14031882446E+04 0.  0.
        5    1    3    3  502    0 -0.22884635763E+03 -0.65913653501E+03 -0.43820591340E+03  0.82394061662E+03  0.46999998093E+01 0.  1.
       -5    1    3    3    0  502  0.22884635763E+03  0.65913653501E+03 -0.62208394196E+03  0.93479524390E+03  0.46999998093E+01 0. -1.
</event>
<event>
 5   0  0.5875298E-04  0.1404923E+04  0.7818609E-02  0.8950263E-01
        1   -1    0    0  501    0  0.00000000000E+00  0.00000000000E+00  0.72488128675E+03  0.72488128677E+03  0.50400001928E-02 0. -1.
       -1   -1    0    0    0  501  0.00000000000E+00  0.00000000000E+00 -0.68073482332E+03  0.68073482334E+03  0.50400001928E-02 0.  1.
    10030    2    1    2    0    0  0.00000000000E+00  0.00000000000E+00  0.44146463432E+02  0.14056161101E+04  0.14049226807E+04 0.  0.
        1    1    3    3  502    0  0.53406724254E+03 -0.21292618596E+03  0.42586449753E+03  0.71549000728E+03  0.50400001928E-02 0. -1.
       -1    1    3    3    0  502 -0.53406724254E+03  0.21292618596E+03 -0.38171803410E+03  0.69012610283E+03  0.50400001928E-02 0.  1.
</event>
<event>
 5   0  0.5875298E-04  0.1398204E+04  0.7818609E-02  0.8955119E-01
        1   -1    0    0  501    0  0.00000000000E+00  0.00000000000E+00  0.71904325427E+03  0.71904325428E+03  0.50400001928E-02 0. -1.
       -1   -1    0    0    0  501  0.00000000000E+00  0.00000000000E+00 -0.67971397865E+03  0.67971397867E+03  0.50400001928E-02 0.  1.
    10030    2    1    2    0    0  0.00000000000E+00  0.00000000000E+00  0.39329275616E+02  0.13987572330E+04  0.13982042071E+04 0.  0.
        1    1    3    3  502    0  0.19917404244E+03  0.23703800789E+02  0.68963959838E+03  0.71821650289E+03  0.50400001928E-02 0. -1.
       -1    1    3    3    0  502 -0.19917404244E+03 -0.23703800789E+02 -0.65031032276E+03  0.68054073006E+03  0.50400001928E-02 0.  1.
</event>
<event>
 5   0  0.6194742E-04  0.1397387E+04  0.7818609E-02  0.8955712E-01
        1   -1    0    0  501    0  0.00000000000E+00  0.00000000000E+00  0.73486853242E+03  0.73486853243E+03  0.50400001928E-02 0. -1.
       -1   -1    0    0    0  501  0.00000000000E+00  0.00000000000E+00 -0.66429959571E+03  0.66429959573E+03  0.50400001928E-02 0.  1.
    10030    2    1    2    0    0  0.00000000000E+00  0.00000000000E+00  0.70568936706E+02  0.13991681282E+04  0.13973873751E+04 0.  0.
        4    1    3    3  502    0 -0.68088412703E+03 -0.19417010659E+02 -0.12044843148E+03  0.69172946467E+03  0.12699999809E+01 0.  1.
       -4    1    3    3    0  502  0.68088412703E+03  0.19417010659E+02  0.19101736819E+03  0.70743866349E+03  0.12699999809E+01 0. -1.
</event>
<event>
 5   0  0.1098949E-03  0.1412803E+04  0.7818609E-02  0.8944603E-01
        2   -1    0    0  501    0  0.00000000000E+00  0.00000000000E+00  0.66163704830E+03  0.66163704830E+03  0.25500000920E-02 0.  1.
       -2   -1    0    0    0  501  0.00000000000E+00  0.00000000000E+00 -0.75419491958E+03  0.75419491959E+03  0.25500000920E-02 0. -1.
    10030    2    1    2    0    0  0.00000000000E+00  0.00000000000E+00 -0.92557871287E+02  0.14158319679E+04  0.14128033132E+04 0.  0.
        4    1    3    3  502    0 -0.36468878849E+03  0.51667202344E+02  0.55778539777E+03  0.66842619272E+03  0.12699999809E+01 0.  1.
       -4    1    3    3    0  502  0.36468878849E+03 -0.51667202344E+02 -0.65034326906E+03  0.74740577517E+03  0.12699999809E+01 0. -1.
</event>
<event>
 5   0  0.1108819E-03  0.1429413E+04  0.7818609E-02  0.8932799E-01
        2   -1    0    0  501    0  0.00000000000E+00  0.00000000000E+00  0.75903389994E+03  0.75903389995E+03  0.25500000920E-02 0.  1.
       -2   -1    0    0    0  501  0.00000000000E+00  0.00000000000E+00 -0.67296761287E+03  0.67296761288E+03  0.25500000920E-02 0. -1.
    10030    2    1    2    0    0  0.00000000000E+00  0.00000000000E+00  0.86066287070E+02  0.14320015128E+04  0.14294127910E+04 0.  0.
        3    1    3    3  502    0 -0.59220186512E+03  0.37964196605E+03 -0.83584636066E+02  0.70839076294E+03  0.10100000352E+00 0.  1.
       -3    1    3    3    0  502  0.59220186512E+03 -0.37964196605E+03  0.16965092314E+03  0.72361074989E+03  0.10100000352E+00 0. -1.
</event>
<event>
 5   0  0.6194742E-04  0.1320193E+04  0.7818609E-02  0.9013703E-01
        1   -1    0    0  501    0  0.00000000000E+00  0.00000000000E+00  0.14344113339E+04  0.14344113339E+04  0.50400001928E-02 0. -1.
       -1   -1    0    0    0  501  0.00000000000E+00  0.00000000000E+00 -0.30376748928E+03  0.30376748932E+03  0.50400001928E-02 0.  1.
    10030    2    1    2    0    0  0.00000000000E+00  0.00000000000E+00  0.11306438446E+04  0.17381788232E+04  0.13201932124E+04 0.  0.
        4    1    3    3  502    0 -0.30437420480E+03 -0.58381410045E+03  0.62768191812E+03  0.90965310073E+03  0.12699999809E+01 0.  1.
       -4    1    3    3    0  502  0.30437420480E+03  0.58381410045E+03  0.50296192649E+03  0.82852572249E+03  0.12699999809E+01 0. -1.
</event>
<event>
 5   0  0.1095119E-03  0.1342331E+04  0.7818609E-02  0.8996654E-01
       -2   -1    0    0    0  501  0.00000000000E+00  0.00000000000E+00  0.34675438690E+03  0.34675438691E+03  0.25500000920E-02 0.  1.
        2   -1    0    0  501    0  0.00000000000E+00  0.00000000000E+00 -0.12990841012E+04  0.12990841012E+04  0.25500000920E-02 0. -1.
    10030    2    1    2    0    0  0.00000000000E+00  0.00000000000E+00 -0.95232971426E+03  0.16458384881E+04  0.13423309741E+04 0.  0.
        5    1    3    3  502    0  0.18994279845E+03 -0.59966230963E+03 -0.18922523430E+03  0.65688768565E+03  0.46999998093E+01 0.  1.
       -5    1    3    3    0  502 -0.18994279845E+03  0.59966230963E+03 -0.76310447996E+03  0.98895080242E+03  0.46999998093E+01 0. -1.
</event>
<event>
 5   0  0.1108819E-03  0.1430413E+04  0.7818609E-02  0.8932094E-01
       -2   -1    0    0    0  501  0.00000000000E+00  0.00000000000E+00  0.62372676925E+03  0.62372676926E+03  0.25500000920E-02 0. -1.
        2   -1    0    0  501    0  0.00000000000E+00  0.00000000000E+00 -0.82010291607E+03  0.82010291608E+03  0.25500000920E-02 0.  1.
    10030    2    1    2    0    0  0.00000000000E+00  0.00000000000E+00 -0.19637614682E+03  0.14438296853E+04  0.14304127269E+04 0.  0.
        3    1    3    3  502    0  0.61648783018E+03 -0.27795355037E+03  0.13681477081E+03  0.68995196401E+03  0.10100000352E+00 0. -1.
       -3    1    3    3    0  502 -0.61648783018E+03  0.27795355037E+03 -0.33319091763E+03  0.75387772133E+03  0.10100000352E+00 0.  1.
</event>
<event>
 5   0  0.1098949E-03  0.1385016E+04  0.7818609E-02  0.8964736E-01
        2   -1    0    0  501    0  0.00000000000E+00  0.00000000000E+00  0.61231437475E+03  0.61231437475E+03  0.25500000920E-02 0.  1.
       -2   -1    0    0    0  501  0.00000000000E+00  0.00000000000E+00 -0.78320482827E+03  0.78320482827E+03  0.25500000920E-02 0. -1.
    10030    2    1    2    0    0  0.00000000000E+00  0.00000000000E+00 -0.17089045352E+03  0.13955192030E+04  0.13850163533E+04 0.  0.
        4    1    3    3  502    0 -0.22504883904E+03  0.17017298003E+03 -0.72266503986E+03  0.77579133523E+03  0.12699999809E+01 0. -1.
       -4    1    3    3    0  502  0.22504883904E+03 -0.17017298003E+03  0.55177458634E+03  0.61972786779E+03  0.12699999809E+01 0.  1.
</event>
<event>
 5   0  0.1120053E-03  0.1368938E+04  0.7818609E-02  0.8976615E-01
        2   -1    0    0  501    0  0.00000000000E+00  0.00000000000E+00  0.15646258480E+04  0.15646258480E+04  0.25500000920E-02 0.  1.
       -2   -1    0    0    0  501  0.00000000000E+00  0.00000000000E+00 -0.29943118054E+03  0.29943118055E+03  0.25500000920E-02 0. -1.
    10030    2    1    2    0    0  0.00000000000E+00  0.00000000000E+00  0.12651946675E+04  0.18640570286E+04  0.13689379311E+04 0.  0.
        2    1    3    3  502    0 -0.37950004267E+03  0.85848837495E+02 -0.13419659716E+03  0.41158113657E+03  0.25500000920E-02 0. -1.
       -2    1    3    3    0  502  0.37950004267E+03 -0.85848837495E+02  0.13993912647E+04  0.14524758920E+04  0.25500000920E-02 0.  1.
</event>
<event>
 5   0  0.1120053E-03  0.1388086E+04  0.7818609E-02  0.8962488E-01
        2   -1    0    0  501    0  0.00000000000E+00  0.00000000000E+00  0.10279069443E+04  0.10279069443E+04  0.25500000920E-02 0. -1.
       -2   -1    0    0    0  501  0.00000000000E+00  0.00000000000E+00 -0.46861786229E+03  0.46861786230E+03  0.25500000920E-02 0.  1.
    10030    2    1    2    0    0  0.00000000000E+00  0.00000000000E+00  0.55928908199E+03  0.14965248066E+04  0.13880858113E+04 0.  0.
        2    1    3    3  502    0  0.20277942831E+03  0.20573781454E+03  0.96001337641E+03  0.10025334048E+04  0.25500000920E-02 0. -1.
       -2    1    3    3    0  502 -0.20277942831E+03 -0.20573781454E+03 -0.40072429442E+03  0.49399140177E+03  0.25500000920E-02 0.  1.
</event>
<event>
 5   0  0.1120053E-03  0.1409495E+04  0.7818609E-02  0.8946974E-01
       -2   -1    0    0    0  501  0.00000000000E+00  0.00000000000E+00  0.41963380474E+03  0.41963380475E+03  0.25500000920E-02 0. -1.
        2   -1    0    0  501    0  0.00000000000E+00  0.00000000000E+00 -0.11835769686E+04  0.11835769686E+04  0.25500000920E-02 0.  1.
    10030    2    1    2    0    0  0.00000000000E+00  0.00000000000E+00 -0.76394316390E+03  0.16032107734E+04  0.14094948124E+04 0.  0.
        2    1    3    3  502    0 -0.25881991250E+02 -0.68421714786E+03 -0.19216644818E+03  0.71116167410E+03  0.25500000920E-02 0.  1.
       -2    1    3    3    0  502  0.25881991250E+02  0.68421714786E+03 -0.57177671572E+03  0.89204909929E+03  0.25500000920E-02 0. -1.
</event>
<event>
 5   0  0.1108819E-03  0.1374448E+04  0.7818609E-02  0.8972525E-01
       -2   -1    0    0    0  501  0.00000000000E+00  0.00000000000E+00  0.39278012663E+03  0.39278012663E+03  0.25500000920E-02 0.  1.
        2   -1    0    0  501    0  0.00000000000E+00  0.00000000000E+00 -0.12023940835E+04  0.12023940835E+04  0.25500000920E-02 0. -1.
    10030    2    1    2    0    0  0.00000000000E+00  0.00000000000E+00 -0.80961395687E+03  0.15951742101E+04  0.13744475259E+04 0.  0.
        3    1    3    3  502    0  0.57720362192E+03  0.74660427531E+02  0.19307267290E+02  0.58233236332E+03  0.10100000352E+00 0.  1.
       -3    1    3    3    0  502 -0.57720362192E+03 -0.74660427531E+02 -0.82892122416E+03  0.10128418468E+04  0.10100000352E+00 0. -1.
</event>
<event>
 5   0  0.1098949E-03  0.1384280E+04  0.7818609E-02  0.8965277E-01
       -2   -1    0    0    0  501  0.00000000000E+00  0.00000000000E+00  0.78210473763E+03  0.78210473764E+03  0.25500000920E-02 0.  1.
        2   -1    0    0  501    0  0.00000000000E+00  0.00000000000E+00 -0.61252345175E+03  0.61252345176E+03  0.25500000920E-02 0. -1.
    10030    2    1    2    0    0  0.00000000000E+00  0.00000000000E+00  0.16958128588E+03  0.13946281894E+04  0.13842795867E+04 0.  0.
        4    1    3    3  502    0  0.38497780680E+01  0.65029610151E+03  0.32353486113E+03  0.72634444976E+03  0.12699999809E+01 0.  1.
       -4    1    3    3    0  502 -0.38497780680E+01 -0.65029610151E+03 -0.15395357524E+03  0.66828373964E+03  0.12699999809E+01 0. -1.
</event>
<event>
 5   0  0.1175146E-03  0.1417311E+04  0.7818609E-02  0.8941382E-01
       -2   -1    0    0    0  501  0.00000000000E+00  0.00000000000E+00  0.32114734155E+03  0.32114734156E+03  0.25500000920E-02 0. -1.
        2   -1    0    0  501    0  0.00000000000E+00  0.00000000000E+00 -0.15637450365E+04  0.15637450365E+04  0.25500000920E-02 0.  1.
    10030    2    1    2    0    0  0.00000000000E+00  0.00000000000E+00 -0.12425976949E+04  0.18848923780E+04  0.14173109205E+04 0.  0.
        1    1    3    3  502    0  0.34772765071E+03 -0.32005197124E+03  0.80968834272E+02  0.47948277916E+03  0.50400001928E-02 0. -1.
       -1    1    3    3    0  502 -0.34772765071E+03  0.32005197124E+03 -0.13235665292E+04  0.14054095989E+04  0.50400001928E-02 0.  1.
</event>
<event>
 5   0  0.5875298E-04  0.1384496E+04  0.7818609E-02  0.8965119E-01
        1   -1    0    0  501    0  0.00000000000E+00  0.00000000000E+00  0.40140756948E+03  0.40140756951E+03  0.50400001928E-02 0.  1.
       -1   -1    0    0    0  501  0.00000000000E+00  0.00000000000E+00 -0.11938164917E+04  0.11938164917E+04  0.50400001928E-02 0. -1.
    10030    2    1    2    0    0  0.00000000000E+00  0.00000000000E+00 -0.79240892218E+03  0.15952240612E+04  0.13844955419E+04 0.  0.
        1    1    3    3  502    0 -0.55994414953E+03  0.39589062528E+02 -0.86295773602E+03  0.10294662688E+04  0.50400001928E-02 0.  1.
       -1    1    3    3    0  502  0.55994414953E+03 -0.39589062528E+02  0.70548813839E+02  0.56575779236E+03  0.50400001928E-02 0. -1.
</event>
<event>
 5   0  0.6114266E-04  0.1397557E+04  0.7818609E-02  0.8955589E-01
       -1   -1    0    0    0  501  0.00000000000E+00  0.00000000000E+00  0.49420850984E+03  0.49420850987E+03  0.50400001928E-02 0. -1.
        1   -1    0    0  501    0  0.00000000000E+00  0.00000000000E+00 -0.98802650119E+03  0.98802650120E+03  0.50400001928E-02 0.  1.
    10030    2    1    2    0    0  0.00000000000E+00  0.00000000000E+00 -0.49381799135E+03  0.14822350111E+04  0.13975565890E+04 0.  0.
        3    1    3    3  502    0 -0.57755974933E+03 -0.14545270433E+03  0.14069192469E+03  0.61198527852E+03  0.10100000352E+00 0. -1.
       -3    1    3    3    0  502  0.57755974933E+03  0.14545270433E+03 -0.63450991605E+03  0.87024973255E+03  0.10100000352E+00 0.  1.
</event>
<event>
 5   0  0.5875298E-04  0.1390228E+04  0.7818609E-02  0.8960923E-01
        1   -1    0    0  501    0  0.00000000000E+00  0.00000000000E+00  0.54705342317E+03  0.54705342319E+03  0.50400001928E-02 0.  1.
       -1   -1    0    0    0  501  0.00000000000E+00  0.00000000000E+00 -0.88324709020E+03  0.88324709021E+03  0.50400001928E-02 0. -1.
    10030    2    1    2    0    0  0.00000000000E+00  0.00000000000E+00 -0.33619366703E+03  0.14303005134E+04  0.13902278147E+04 0.  0.
        1    1    3    3  502    0 -0.33649341795E+03 -0.19544199556E+03  0.42448999036E+03  0.57586208930E+03  0.50400001928E-02 0.  1.
       -1    1    3    3    0  502  0.33649341795E+03  0.19544199556E+03 -0.76068365738E+03  0.85443842411E+03  0.50400001928E-02 0. -1.
</event>
<event>
 5   0  0.1098949E-03  0.1360166E+04  0.7818609E-02  0.8983168E-01
       -2   -1    0    0    0  501  0.00000000000E+00  0.00000000000E+00  0.33498220939E+03  0.33498220940E+03  0.25500000920E-02 0.  1.
        2   -1    0    0  501    0  0.00000000000E+00  0.00000000000E+00 -0.13807082871E+04  0.13807082871E+04  0.25500000920E-02 0. -1.
    10030    2    1    2    0    0  0.00000000000E+00  0.00000000000E+00 -0.10457260777E+04  0.17156904965E+04  0.13601657436E+04 0.  0.
        4    1    3    3  502    0  0.73547389980E+00 -0.56895859214E+03 -0.52929273749E+02  0.57141713434E+03  0.12699999809E+01 0.  1.
       -4    1    3    3    0  502 -0.73547389980E+00  0.56895859214E+03 -0.99279680395E+03  0.11442733622E+04  0.12699999809E+01 0. -1.
</event>
<event>
 5   0  0.1120053E-03  0.1397234E+04  0.7818609E-02  0.8955823E-01
        2   -1    0    0  501    0  0.00000000000E+00  0.00000000000E+00  0.16768613926E+04  0.16768613926E+04  0.25500000920E-02 0.  1.
       -2   -1    0    0    0  501  0.00000000000E+00  0.00000000000E+00 -0.29105914827E+03  0.29105914828E+03  0.25500000920E-02 0. -1.
    10030    2    1    2    0    0  0.00000000000E+00  0.00000000000E+00  0.13858022443E+04  0.19679205409E+04  0.13972341947E+04 0.  0.
        2    1    3    3  502    0 -0.30558571196E+03  0.58530296919E+03  0.37140743431E+03  0.75756562446E+03  0.25500000920E-02 0. -1.
       -2    1    3    3    0  502  0.30558571196E+03 -0.58530296919E+03  0.10143948100E+04  0.12103549164E+04  0.25500000920E-02 0.  1.
</event>
<event>
 5   0  0.1120053E-03  0.1402369E+04  0.7818609E-02  0.8952106E-01
       -2   -1    0    0    0  501  0.00000000000E+00  0.00000000000E+00  0.83975105803E+03  0.83975105804E+03  0.25500000920E-02 0.  1.
        2   -1    0    0  501    0  0.00000000000E+00  0.00000000000E+00 -0.58548261060E+03  0.58548261060E+03  0.25500000920E-02 0. -1.
    10030    2    1    2    0    0  0.00000000000E+00  0.00000000000E+00  0.25426844743E+03  0.14252336686E+04  0.14023689125E+04 0.  0.
        2    1    3    3  502    0  0.55048319633E+01  0.63732132561E+03  0.42422011861E+03  0.76561836727E+03  0.25500000920E-02 0. -1.
       -2    1    3    3    0  502 -0.55048319633E+01 -0.63732132561E+03 -0.16995167118E+03  0.65961530137E+03  0.25500000920E-02 0.  1.
</event>
<event>
 5   0  0.1175146E-03  0.1456192E+04  0.7818609E-02  0.8914119E-01
       -2   -1    0    0    0  501  0.00000000000E+00  0.00000000000E+00  0.98426727732E+03  0.98426727732E+03  0.25500000920E-02 0.  1.
        2   -1    0    0  501    0  0.00000000000E+00  0.00000000000E+00 -0.53859769066E+03  0.53859769066E+03  0.25500000920E-02 0. -1.
    10030    2    1    2    0    0  0.00000000000E+00  0.00000000000E+00  0.44566958666E+03  0.15228649680E+04  0.14561924084E+04 0.  0.
        1    1    3    3  502    0 -0.21269477944E+02 -0.61467247224E+03  0.63035508297E+03  0.88069414071E+03  0.50400001928E-02 0.  1.
       -1    1    3    3    0  502  0.21269477944E+02  0.61467247224E+03 -0.18468549631E+03  0.64217082727E+03  0.50400001928E-02 0. -1.
</event>
<event>
 5   0  0.1095119E-03  0.1376749E+04  0.7818609E-02  0.8970823E-01
        2   -1    0    0  501    0  0.00000000000E+00  0.00000000000E+00  0.21871632504E+04  0.21871632504E+04  0.25500000920E-02 0.  1.
       -2   -1    0    0    0  501  0.00000000000E+00  0.00000000000E+00 -0.21665475050E+03  0.21665475051E+03  0.25500000920E-02 0. -1.
    10030    2    1    2    0    0  0.00000000000E+00  0.00000000000E+00  0.19705084999E+04  0.24038180009E+04  0.13767487909E+04 0.  0.
        5    1    3    3  502    0 -0.12660622895E+03  0.67281646321E+03  0.11102628542E+04  0.13043836958E+04  0.46999998093E+01 0.  1.
       -5    1    3    3    0  502  0.12660622895E+03 -0.67281646321E+03  0.86024564564E+03  0.10994343051E+04  0.46999998093E+01 0. -1.
</event>
<event>
 5   0  0.6097538E-04  0.1402134E+04  0.7818609E-02  0.8952275E-01
       -1   -1    0    0    0  501  0.00000000000E+00  0.00000000000E+00  0.33558836524E+03  0.33558836528E+03  0.50400001928E-02 0.  1.
        1   -1    0    0  501    0  0.00000000000E+00  0.00000000000E+00 -0.14645774709E+04  0.14645774709E+04  0.50400001928E-02 0. -1.
    10030    2    1    2    0    0  0.00000000000E+00  0.00000000000E+00 -0.11289891056E+04  0.18001658362E+04  0.14021343149E+04 0.  0.
        2    1    3    3  502    0  0.27498289984E+03 -0.49367362231E+03 -0.31777634672E+02  0.56598503394E+03  0.25500000920E-02 0.  1.
       -2    1    3    3    0  502 -0.27498289984E+03  0.49367362231E+03 -0.10972114710E+04  0.12341808022E+04  0.25500000920E-02 0. -1.
</event>
<event>
 5   0  0.6114266E-04  0.1414215E+04  0.7818609E-02  0.8943593E-01
       -1   -1    0    0    0  501  0.00000000000E+00  0.00000000000E+00  0.37795069532E+03  0.37795069535E+03  0.50400001928E-02 0.  1.
        1   -1    0    0  501    0  0.00000000000E+00  0.00000000000E+00 -0.13229272402E+04  0.13229272402E+04  0.50400001928E-02 0. -1.
    10030    2    1    2    0    0  0.00000000000E+00  0.00000000000E+00 -0.94497654492E+03  0.17008779356E+04  0.14142153589E+04 0.  0.
        3    1    3    3  502    0  0.71299471812E+02  0.70170200560E+03 -0.41197029987E+03  0.81681629362E+03  0.10100000352E+00 0. -1.
       -3    1    3    3    0  502 -0.71299471812E+02 -0.70170200560E+03 -0.53300624505E+03  0.88406164197E+03  0.10100000352E+00 0.  1.
</event>
<event>
 5   0  0.5875298E-04  0.1395901E+04  0.7818609E-02  0.8956791E-01
        1   -1    0    0  501    0  0.00000000000E+00  0.00000000000E+00  0.10854153144E+04  0.10854153144E+04  0.50400001928E-02 0. -1.
       -1   -1    0    0    0  501  0.00000000000E+00  0.00000000000E+00 -0.44880048884E+03  0.44880048887E+03  0.50400001928E-02 0.  1.
    10030    2    1    2    0    0  0.00000000000E+00  0.00000000000E+00  0.63661482552E+03  0.15342158032E+04  0.13959010333E+04 0.  0.
        1    1    3    3  502    0  0.21110904676E+03  0.19843895778E+03 -0.37958203444E+03  0.47752232460E+03  0.50400001928E-02 0. -1.
       -1    1    3    3    0  502 -0.21110904676E+03 -0.19843895778E+03  0.10161968600E+04  0.10566934787E+04  0.50400001928E-02 0.  1.
</event>
<event>
 5   0  0.6097538E-04  0.1397827E+04  0.7818609E-02  0.8955393E-01
       -1   -1    0    0    0  501  0.00000000000E+00  0.00000000000E+00  0.13409119734E+04  0.13409119734E+04  0.50400001928E-02 0. -1.
        1   -1    0    0  501    0  0.00000000000E+00  0.00000000000E+00 -0.36428944155E+03  0.36428944159E+03  0.50400001928E-02 0.  1.
    10030    2    1    2    0    0  0.00000000000E+00  0.00000000000E+00  0.97662253180E+03  0.17052014149E+04  0.13978269907E+04 0.  0.
        2    1    3    3  502    0  0.22869798399E+03  0.31742466725E+03 -0.21819500162E+03  0.44796232654E+03  0.25500000920E-02 0.  1.
       -2    1    3    3    0  502 -0.22869798399E+03 -0.31742466725E+03  0.11948175334E+04  0.12572390884E+04  0.25500000920E-02 0. -1.
</event>
<event>
 5   0  0.1108819E-03  0.1430484E+04  0.7818609E-02  0.8932044E-01
       -2   -1    0    0    0  501  0.00000000000E+00  0.00000000000E+00  0.34331155627E+03  0.34331155628E+03  0.25500000920E-02 0.  1.
        2   -1    0    0  501    0  0.00000000000E+00  0.00000000000E+00 -0.14901075084E+04  0.14901075084E+04  0.25500000920E-02 0. -1.
    10030    2    1    2    0    0  0.00000000000E+00  0.00000000000E+00 -0.11467959521E+04  0.18334190646E+04  0.14304840128E+04 0.  0.
        3    1    3    3  502    0 -0.36113368148E+01  0.65874946856E+03 -0.21634736595E+03  0.69337586996E+03  0.10100000352E+00 0.  1.
       -3    1    3    3    0  502  0.36113368148E+01 -0.65874946856E+03 -0.93044858615E+03  0.11400431947E+04  0.10100000352E+00 0. -1.
</event>
<event>
 5   0  0.6097538E-04  0.1429812E+04  0.7818609E-02  0.8932517E-01
        1   -1    0    0  501    0  0.00000000000E+00  0.00000000000E+00  0.17936188613E+04  0.17936188613E+04  0.50400001928E-02 0.  1.
       -1   -1    0    0    0  501  0.00000000000E+00  0.00000000000E+00 -0.28494952025E+03  0.28494952029E+03  0.50400001928E-02 0. -1.
    10030    2    1    2    0    0  0.00000000000E+00  0.00000000000E+00  0.15086693411E+04  0.20785683816E+04  0.14298123431E+04 0.  0.
        2    1    3    3  502    0 -0.70063402276E+03 -0.33314909655E+02  0.55346173911E+03  0.89348632542E+03  0.25500000920E-02 0. -1.
       -2    1    3    3    0  502  0.70063402276E+03  0.33314909655E+02  0.95520760196E+03  0.11850820562E+04  0.25500000920E-02 0.  1.
</event>
<event>
 5   0  0.1095119E-03  0.1401107E+04  0.7818609E-02  0.8953018E-01
        2   -1    0    0  501    0  0.00000000000E+00  0.00000000000E+00  0.63787471551E+03  0.63787471551E+03  0.25500000920E-02 0. -1.
       -2   -1    0    0    0  501  0.00000000000E+00  0.00000000000E+00 -0.76939123186E+03  0.76939123186E+03  0.25500000920E-02 0.  1.
    10030    2    1    2    0    0  0.00000000000E+00  0.00000000000E+00 -0.13151651635E+03  0.14072659474E+04  0.14011070097E+04 0.  0.
        5    1    3    3  502    0  0.48731434782E+03 -0.15045452962E+03 -0.54812060190E+03  0.74871231010E+03  0.46999998093E+01 0.  1.
       -5    1    3    3    0  502 -0.48731434782E+03  0.15045452962E+03  0.41660408555E+03  0.65855363727E+03  0.46999998093E+01 0. -1.
</event>
<event>
 5   0  0.1175146E-03  0.1401686E+04  0.7818609E-02  0.8952599E-01
       -2   -1    0    0    0  501  0.00000000000E+00  0.00000000000E+00  0.93274532903E+03  0.93274532903E+03  0.25500000920E-02 0.  1.
        2   -1    0    0  501    0  0.00000000000E+00  0.00000000000E+00 -0.52659721420E+03  0.52659721420E+03  0.25500000920E-02 0. -1.
    10030    2    1    2    0    0  0.00000000000E+00  0.00000000000E+00  0.40614811483E+03  0.14593425432E+04  0.14016862585E+04 0.  0.
        1    1    3    3  502    0  0.47850569331E+03  0.13762371006E+03 -0.31044135064E+03  0.58675532917E+03  0.50400001928E-02 0. -1.
       -1    1    3    3    0  502 -0.47850569331E+03 -0.13762371006E+03  0.71658946547E+03  0.87258721407E+03  0.50400001928E-02 0.  1.
</event>
<event>
 5   0  0.6153318E-04  0.1252496E+04  0.7818609E-02  0.9068108E-01
       -1   -1    0    0    0  501  0.00000000000E+00  0.00000000000E+00  0.89246834763E+03  0.89246834765E+03  0.50400001928E-02 0.  1.
        1   -1    0    0  501    0  0.00000000000E+00  0.00000000000E+00 -0.43944053468E+03  0.43944053471E+03  0.50400001928E-02 0. -1.
    10030    2    1    2    0    0  0.00000000000E+00  0.00000000000E+00  0.45302781295E+03  0.13319088824E+04  0.12524963360E+04 0.  0.
        5    1    3    3  502    0 -0.52835221460E+03  0.28995560515E+03  0.40739992867E+03  0.72747997052E+03  0.46999998093E+01 0.  1.
       -5    1    3    3    0  502  0.52835221460E+03 -0.28995560515E+03  0.45627884285E+02  0.60442891183E+03  0.46999998093E+01 0. -1.
</event>
<event>
 5   0  0.6114266E-04  0.1401359E+04  0.7818609E-02  0.8952835E-01
       -1   -1    0    0    0  501  0.00000000000E+00  0.00000000000E+00  0.11373715726E+04  0.11373715727E+04  0.50400001928E-02 0. -1.
        1   -1    0    0  501    0  0.00000000000E+00  0.00000000000E+00 -0.43165466975E+03  0.43165466978E+03  0.50400001928E-02 0.  1.
    10030    2    1    2    0    0  0.00000000000E+00  0.00000000000E+00  0.70571690289E+03  0.15690262424E+04  0.14013589841E+04 0.  0.
        3    1    3    3  502    0  0.14666730796E+03  0.63329689918E+03  0.64563143268E+03  0.91619660488E+03  0.10100000352E+00 0. -1.
       -3    1    3    3    0  502 -0.14666730796E+03 -0.63329689918E+03  0.60085470215E+02  0.65282963755E+03  0.10100000352E+00 0.  1.
</event>
<event>
 5   0  0.5875298E-04  0.1414271E+04  0.7818609E-02  0.8943553E-01
        1   -1    0    0  501    0  0.00000000000E+00  0.00000000000E+00  0.54667136596E+03  0.54667136598E+03  0.50400001928E-02 0. -1.
       -1   -1    0    0    0  501  0.00000000000E+00  0.00000000000E+00 -0.91470106646E+03  0.91470106648E+03  0.50400001928E-02 0.  1.
    10030    2    1    2    0    0  0.00000000000E+00  0.00000000000E+00 -0.36802970050E+03  0.14613724325E+04  0.14142713763E+04 0.  0.
        1    1    3    3  502    0 -0.74240044001E+02 -0.30180671783E+03 -0.84033949797E+03  0.89597396777E+03  0.50400001928E-02 0.  1.
       -1    1    3    3    0  502  0.74240044001E+02  0.30180671783E+03  0.47230979746E+03  0.56539846468E+03  0.50400001928E-02 0. -1.
</event>
<event>
 5   0  0.6153318E-04  0.1404624E+04  0.7818609E-02  0.8950478E-01
       -1   -1    0    0    0  501  0.00000000000E+00  0.00000000000E+00  0.76430230404E+03  0.76430230406E+03  0.50400001928E-02 0. -1.
        1   -1    0    0  501    0  0.00000000000E+00  0.00000000000E+00 -0.64534967508E+03  0.64534967510E+03  0.50400001928E-02 0.  1.
    10030    2    1    2    0    0  0.00000000000E+00  0.00000000000E+00  0.11895262896E+03  0.14096519792E+04  0.14046241399E+04 0.  0.
        5    1    3    3  502    0 -0.41630451425E+03 -0.46639253895E+03  0.38060403887E+03  0.73192415821E+03  0.46999998093E+01 0. -1.
       -5    1    3    3    0  502  0.41630451425E+03  0.46639253895E+03 -0.26165140991E+03  0.67772782094E+03  0.46999998093E+01 0.  1.
</event>
<event>
 5   0  0.1120053E-03  0.1394368E+04  0.7818609E-02  0.8957906E-01
        2   -1    0    0  501    0  0.00000000000E+00  0.00000000000E+00  0.95533087856E+03  0.95533087857E+03  0.25500000920E-02 0. -1.
       -2   -1    0    0    0  501  0.00000000000E+00  0.00000000000E+00 -0.50879270674E+03  0.50879270675E+03  0.25500000920E-02 0.  1.
    10030    2    1    2    0    0  0.00000000000E+00  0.00000000000E+00  0.44653817182E+03  0.14641235853E+04  0.13943677901E+04 0.  0.
        2    1    3    3  502    0 -0.34769708627E+03 -0.58197865673E+03  0.39411384854E+03  0.78416716732E+03  0.25500000920E-02 0. -1.
       -2    1    3    3    0  502  0.34769708627E+03  0.58197865673E+03  0.52424323275E+02  0.67995641799E+03  0.25500000920E-02 0.  1.
</event>
<event>
 5   0  0.6097538E-04  0.1395266E+04  0.7818609E-02  0.8957253E-01
       -1   -1    0    0    0  501  0.00000000000E+00  0.00000000000E+00  0.25230313478E+03  0.25230313483E+03  0.50400001928E-02 0.  1.
        1   -1    0    0  501    0  0.00000000000E+00  0.00000000000E+00 -0.19289955900E+04  0.19289955900E+04  0.50400001928E-02 0. -1.
    10030    2    1    2    0    0  0.00000000000E+00  0.00000000000E+00 -0.16766924552E+04  0.21812987248E+04  0.13952657588E+04 0.  0.
        2    1    3    3  502    0 -0.47051411305E+03 -0.47740683797E+03 -0.11406479865E+04  0.13230187635E+04  0.25500000920E-02 0. -1.
       -2    1    3    3    0  502  0.47051411305E+03  0.47740683797E+03 -0.53604446871E+03  0.85827996130E+03  0.25500000920E-02 0.  1.
</event>
<event>
 5   0  0.1095119E-03  0.1387661E+04  0.7818609E-02  0.8962799E-01
       -2   -1    0    0    0  501  0.00000000000E+00  0.00000000000E+00  0.26495906708E+03  0.26495906709E+03  0.25500000920E-02 0.  1.
        2   -1    0    0  501    0  0.00000000000E+00  0.00000000000E+00 -0.18168871255E+04  0.18168871255E+04  0.25500000920E-02 0. -1.
    10030    2    1    2    0    0  0.00000000000E+00  0.00000000000E+00 -0.15519280584E+04  0.20818461925E+04  0.13876609352E+04 0.  0.
        5    1    3    3  502    0  0.14284176592E+03 -0.10405593441E+03 -0.17825307426E+04  0.17912758989E+04  0.46999998093E+01 0. -1.
       -5    1    3    3    0  502 -0.14284176592E+03  0.10405593441E+03  0.23060268424E+03  0.29057029366E+03  0.46999998093E+01 0.  1.
</event>
<event>
 5   0  0.5875298E-04  0.1399567E+04  0.7818609E-02  0.8954132E-01
        1   -1    0    0  501    0  0.00000000000E+00  0.00000000000E+00  0.73968107921E+03  0.73968107923E+03  0.50400001928E-02 0. -1.
       -1   -1    0    0    0  501  0.00000000000E+00  0.00000000000E+00 -0.66203837485E+03  0.66203837487E+03  0.50400001928E-02 0.  1.
    10030    2    1    2    0    0  0.00000000000E+00  0.00000000000E+00  0.77642704360E+02  0.14017194541E+04  0.13995674469E+04 0.  0.
        1    1    3    3  502    0 -0.39043701850E+03 -0.57506394769E+03 -0.42282483372E+02  0.69636730091E+03  0.50400001928E-02 0.  1.
       -1    1    3    3    0  502  0.39043701850E+03  0.57506394769E+03  0.11992518773E+03  0.70535215320E+03  0.50400001928E-02 0. -1.
</event>
<event>
 5   0  0.1108819E-03  0.1401547E+04  0.7818609E-02  0.8952700E-01
       -2   -1    0    0    0  501  0.00000000000E+00  0.00000000000E+00  0.41686077614E+03  0.41686077615E+03  0.25500000920E-02 0. -1.
        2   -1    0    0  501    0  0.00000000000E+00  0.00000000000E+00 -0.11780510830E+04  0.11780510830E+04  0.25500000920E-02 0.  1.
    10030    2    1    2    0    0  0.00000000000E+00  0.00000000000E+00 -0.76119030682E+03  0.15949118591E+04  0.14015467010E+04 0.  0.
        3    1    3    3  502    0 -0.42944611511E+03 -0.45540169565E+03 -0.73913306187E+03  0.96857233263E+03  0.10100000352E+00 0.  1.
       -3    1    3    3    0  502  0.42944611511E+03  0.45540169565E+03 -0.22057244952E+02  0.62633952649E+03  0.10100000352E+00 0. -1.
</event>
<event>
 5   0  0.1095119E-03  0.1403130E+04  0.7818609E-02  0.8951556E-01
       -2   -1    0    0    0  501  0.00000000000E+00  0.00000000000E+00  0.72619024427E+03  0.72619024428E+03  0.25500000920E-02 0. -1.
        2   -1    0    0  501    0  0.00000000000E+00  0.00000000000E+00 -0.67777524248E+03  0.67777524248E+03  0.25500000920E-02 0.  1.
    10030    2    1    2    0    0  0.00000000000E+00  0.00000000000E+00  0.48415001797E+02  0.14039654868E+04  0.14031304557E+04 0.  0.
        5    1    3    3  502    0  0.67623455351E+03  0.11410469592E+03  0.17214211711E+03  0.70708418980E+03  0.46999998093E+01 0. -1.
       -5    1    3    3    0  502 -0.67623455351E+03 -0.11410469592E+03 -0.12372711531E+03  0.69688129696E+03  0.46999998093E+01 0.  1.
</event>
<event>
 5   0  0.1095119E-03  0.1411440E+04  0.7818609E-02  0.8945579E-01
        2   -1    0    0  501    0  0.00000000000E+00  0.00000000000E+00  0.13892373632E+04  0.13892373632E+04  0.25500000920E-02 0.  1.
       -2   -1    0    0    0  501  0.00000000000E+00  0.00000000000E+00 -0.35849924728E+03  0.35849924729E+03  0.25500000920E-02 0. -1.
    10030    2    1    2    0    0  0.00000000000E+00  0.00000000000E+00  0.10307381159E+04  0.17477366104E+04  0.14114397599E+04 0.  0.
        5    1    3    3  502    0 -0.20096763430E+03 -0.21404744684E+02 -0.32187792945E+03  0.38009688844E+03  0.46999998093E+01 0. -1.
       -5    1    3    3    0  502  0.20096763430E+03  0.21404744684E+02  0.13526160453E+04  0.13676397220E+04  0.46999998093E+01 0.  1.
</event>
<event>
 5   0  0.1108819E-03  0.1371027E+04  0.7818609E-02  0.8975062E-01
       -2   -1    0    0    0  501  0.00000000000E+00  0.00000000000E+00  0.11206058859E+04  0.11206058859E+04  0.25500000920E-02 0.  1.
        2   -1    0    0  501    0  0.00000000000E+00  0.00000000000E+00 -0.41935239308E+03  0.41935239308E+03  0.25500000920E-02 0. -1.
    10030    2    1    2    0    0  0.00000000000E+00  0.00000000000E+00  0.70125349285E+03  0.15399582790E+04  0.13710270019E+04 0.  0.
        3    1    3    3  502    0  0.53873080024E+03  0.39929943951E+03  0.19075952304E+03  0.69718012260E+03  0.10100000352E+00 0. -1.
       -3    1    3    3    0  502 -0.53873080024E+03 -0.39929943951E+03  0.51049396981E+03  0.84277815641E+03  0.10100000352E+00 0.  1.
</event>
<event>
 5   0  0.5875298E-04  0.1395565E+04  0.7818609E-02  0.8957035E-01
        1   -1    0    0  501    0  0.00000000000E+00  0.00000000000E+00  0.61984245695E+03  0.61984245697E+03  0.50400001928E-02 0.  1.
       -1   -1    0    0    0  501  0.00000000000E+00  0.00000000000E+00 -0.78552336441E+03  0.78552336443E+03  0.50400001928E-02 0. -1.
    10030    2    1    2    0    0  0.00000000000E+00  0.00000000000E+00 -0.16568090746E+03  0.14053658214E+04  0.13955654513E+04 0.  0.
        1    1    3    3  502    0 -0.47729029290E+03  0.49188761228E+03 -0.21468460549E+03  0.71822623641E+03  0.50400001928E-02 0. -1.
       -1    1    3    3    0  502  0.47729029290E+03 -0.49188761228E+03  0.49003698035E+02  0.68713958499E+03  0.50400001928E-02 0.  1.
</event>
<event>
 5   0  0.6194742E-04  0.1435972E+04  0.7818609E-02  0.8928184E-01
        1   -1    0    0  501    0  0.00000000000E+00  0.00000000000E+00  0.10163765988E+04  0.10163765988E+04  0.50400001928E-02 0.  1.
       -1   -1    0    0    0  501  0.00000000000E+00  0.00000000000E+00 -0.50719770841E+03  0.50719770843E+03  0.50400001928E-02 0. -1.
    10030    2    1    2    0    0  0.00000000000E+00  0.00000000000E+00  0.50917889035E+03  0.15235743072E+04  0.14359719799E+04 0.  0.
        4    1    3    3  502    0 -0.33877032710E+03 -0.62458294096E+03  0.14518189291E+03  0.72522312400E+03  0.12699999809E+01 0. -1.
       -4    1    3    3    0  502  0.33877032710E+03  0.62458294096E+03  0.36399699744E+03  0.79835118319E+03  0.12699999809E+01 0.  1.
</event>
<event>
 5   0  0.6153318E-04  0.1480577E+04  0.7818609E-02  0.8897473E-01
       -1   -1    0    0    0  501  0.00000000000E+00  0.00000000000E+00  0.63328215877E+03  0.63328215879E+03  0.50400001928E-02 0. -1.
        1   -1    0    0  501    0  0.00000000000E+00  0.00000000000E+00 -0.86537529813E+03  0.86537529814E+03  0.50400001928E-02 0.  1.
    10030    2    1    2    0    0  0.00000000000E+00  0.00000000000E+00 -0.23209313936E+03  0.14986574569E+04  0.14805765593E+04 0.  0.
        5    1    3    3  502    0  0.80301898605E+02  0.18813969189E+03 -0.83618385182E+03  0.86085449562E+03  0.46999998093E+01 0.  1.
       -5    1    3    3    0  502 -0.80301898605E+02 -0.18813969189E+03  0.60409071246E+03  0.63780296132E+03  0.46999998093E+01 0. -1.
</event>
<event>
 5   0  0.1120053E-03  0.1400656E+04  0.7818609E-02  0.8953344E-01
       -2   -1    0    0    0  501  0.00000000000E+00  0.00000000000E+00  0.28228097072E+03  0.28228097073E+03  0.25500000920E-02 0.  1.
        2   -1    0    0  501    0  0.00000000000E+00  0.00000000000E+00 -0.17374864364E+04  0.17374864364E+04  0.25500000920E-02 0. -1.
    10030    2    1    2    0    0  0.00000000000E+00  0.00000000000E+00 -0.14552054656E+04  0.20197674071E+04  0.14006560718E+04 0.  0.
        2    1    3    3  502    0  0.93608340850E+02  0.29933976560E+03 -0.16305536465E+04  0.16604433176E+04  0.25500000920E-02 0. -1.
       -2    1    3    3    0  502 -0.93608340850E+02 -0.29933976560E+03  0.17534818089E+03  0.35932408950E+03  0.25500000920E-02 0.  1.
</event>
<event>
 5   0  0.6114266E-04  0.1394758E+04  0.7818609E-02  0.8957622E-01
       -1   -1    0    0    0  501  0.00000000000E+00  0.00000000000E+00  0.99762249603E+03  0.99762249604E+03  0.50400001928E-02 0.  1.
        1   -1    0    0  501    0  0.00000000000E+00  0.00000000000E+00 -0.48749669077E+03  0.48749669080E+03  0.50400001928E-02 0. -1.
    10030    2    1    2    0    0  0.00000000000E+00  0.00000000000E+00  0.51012580526E+03  0.14851191868E+04  0.13947582808E+04 0.  0.
        3    1    3    3  502    0 -0.57838790172E+03  0.31662398372E+03  0.13297033426E+02  0.65951507430E+03  0.10100000352E+00 0.  1.
       -3    1    3    3    0  502  0.57838790172E+03 -0.31662398372E+03  0.49682877183E+03  0.82560411254E+03  0.10100000352E+00 0. -1.
</event>
<event>
 5   0  0.6194742E-04  0.1388177E+04  0.7818609E-02  0.8962421E-01
       -1   -1    0    0    0  501  0.00000000000E+00  0.00000000000E+00  0.39791438476E+03  0.39791438480E+03  0.50400001928E-02 0.  1.
        1   -1    0    0  501    0  0.00000000000E+00  0.00000000000E+00 -0.12107097798E+04  0.12107097798E+04  0.50400001928E-02 0. -1.
    10030    2    1    2    0    0  0.00000000000E+00  0.00000000000E+00 -0.81279539502E+03  0.16086241646E+04  0.13881769875E+04 0.  0.
        4    1    3    3  502    0  0.65370794539E+02 -0.60377204248E+03 -0.16958375888E+02  0.60753865677E+03  0.12699999809E+01 0.  1.
       -4    1    3    3    0  502 -0.65370794539E+02  0.60377204248E+03 -0.79583701913E+03  0.10010855078E+04  0.12699999809E+01 0. -1.
</event>
<event>
 5   0  0.1098949E-03  0.1389203E+04  0.7818609E-02  0.8961671E-01
       -2   -1    0    0    0  501  0.00000000000E+00  0.00000000000E+00  0.79489486788E+03  0.79489486789E+03  0.25500000920E-02 0. -1.
        2   -1    0    0  501    0  0.00000000000E+00  0.00000000000E+00 -0.60696239598E+03  0.60696239598E+03  0.25500000920E-02 0.  1.
    10030    2    1    2    0    0  0.00000000000E+00  0.00000000000E+00  0.18793247191E+03  0.14018572639E+04  0.13892030716E+04 0.  0.
        4    1    3    3  502    0  0.33831770949E+03 -0.38744473425E+03  0.56501305088E+03  0.76407699561E+03  0.12699999809E+01 0. -1.
       -4    1    3    3    0  502 -0.33831770949E+03  0.38744473425E+03 -0.37708057897E+03  0.63778026826E+03  0.12699999809E+01 0.  1.
</event>
<event>
 5   0  0.6194742E-04  0.1365617E+04  0.7818609E-02  0.8979089E-01
       -1   -1    0    0    0  501  0.00000000000E+00  0.00000000000E+00  0.35587235818E+03  0.35587235821E+03  0.50400001928E-02 0. -1.
        1   -1    0    0  501    0  0.00000000000E+00  0.00000000000E+00 -0.13100982734E+04  0.13100982734E+04  0.50400001928E-02 0.  1.
    10030    2    1    2    0    0  0.00000000000E+00  0.00000000000E+00 -0.95422591518E+03  0.16659706316E+04  0.13656174604E+04 0.  0.
        4    1    3    3  502    0  0.14368554853E+03  0.17038559120E+03  0.31024372422E+03  0.38200728771E+03  0.12699999809E+01 0. -1.
       -4    1    3    3    0  502 -0.14368554853E+03 -0.17038559120E+03 -0.12644696394E+04  0.12839633439E+04  0.12699999809E+01 0.  1.
</event>
<event>
 5   0  0.6194742E-04  0.1385316E+04  0.7818609E-02  0.8964517E-01
       -1   -1    0    0    0  501  0.00000000000E+00  0.00000000000E+00  0.24341603602E+03  0.24341603607E+03  0.50400001928E-02 0.  1.
        1   -1    0    0  501    0  0.00000000000E+00  0.00000000000E+00 -0.19710074457E+04  0.19710074457E+04  0.50400001928E-02 0. -1.
    10030    2    1    2    0    0  0.00000000000E+00  0.00000000000E+00 -0.17275914097E+04  0.22144234818E+04  0.13853155878E+04 0.  0.
        4    1    3    3  502    0 -0.12907534713E+02  0.68551766305E+03 -0.70658824557E+03  0.98456570755E+03  0.12699999809E+01 0.  1.
       -4    1    3    3    0  502  0.12907534713E+02 -0.68551766305E+03 -0.10210031641E+04  0.12298577742E+04  0.12699999809E+01 0. -1.
</event>
<event>
 5   0  0.5875298E-04  0.1392785E+04  0.7818609E-02  0.8959058E-01
        1   -1    0    0  501    0  0.00000000000E+00  0.00000000000E+00  0.67066059720E+03  0.67066059722E+03  0.50400001928E-02 0.  1.
       -1   -1    0    0    0  501  0.00000000000E+00  0.00000000000E+00 -0.72311150060E+03  0.72311150062E+03  0.50400001928E-02 0. -1.
    10030    2    1    2    0    0  0.00000000000E+00  0.00000000000E+00 -0.52450903400E+02  0.13937720978E+04  0.13927848231E+04 0.  0.
        1    1    3    3  502    0  0.67030048316E+03  0.17729933859E+03 -0.91268429616E+02  0.69933376828E+03  0.50400001928E-02 0.  1.
       -1    1    3    3    0  502 -0.67030048316E+03 -0.17729933859E+03  0.38817526216E+02  0.69443832956E+03  0.50400001928E-02 0. -1.
</event>
<event>
 5   0  0.1175146E-03  0.1397529E+04  0.7818609E-02  0.8955609E-01
        2   -1    0    0  501    0  0.00000000000E+00  0.00000000000E+00  0.31957121538E+03  0.31957121539E+03  0.25500000920E-02 0.  1.
       -2   -1    0    0    0  501  0.00000000000E+00  0.00000000000E+00 -0.15278977386E+04  0.15278977386E+04  0.25500000920E-02 0. -1.
    10030    2    1    2    0    0  0.00000000000E+00  0.00000000000E+00 -0.12083265232E+04  0.18474689540E+04  0.13975294449E+04 0.  0.
        1    1    3    3  502    0  0.11941530236E+03 -0.61366801449E+03 -0.10167815482E+04  0.11936051120E+04  0.50400001928E-02 0. -1.
       -1    1    3    3    0  502 -0.11941530236E+03  0.61366801449E+03 -0.19154497498E+03  0.65386384203E+03  0.50400001928E-02 0.  1.
</event>
<event>
 5   0  0.6114266E-04  0.1430038E+04  0.7818609E-02  0.8932358E-01
        1   -1    0    0  501    0  0.00000000000E+00  0.00000000000E+00  0.46340891987E+03  0.46340891990E+03  0.50400001928E-02 0. -1.
       -1   -1    0    0    0  501  0.00000000000E+00  0.00000000000E+00 -0.11032424213E+04  0.11032424213E+04  0.50400001928E-02 0.  1.
    10030    2    1    2    0    0  0.00000000000E+00  0.00000000000E+00 -0.63983350144E+03  0.15666513412E+04  0.14300382916E+04 0.  0.
        3    1    3    3  502    0 -0.16170165472E+03  0.32123409471E+03  0.35711221569E+03  0.50682138229E+03  0.10100000352E+00 0. -1.
       -3    1    3    3    0  502  0.16170165472E+03 -0.32123409471E+03 -0.99694571713E+03  0.10598299589E+04  0.10100000352E+00 0.  1.
</event>
<event>
 5   0  0.1120053E-03  0.1405796E+04  0.7818609E-02  0.8949634E-01
       -2   -1    0    0    0  501  0.00000000000E+00  0.00000000000E+00  0.58491706147E+03  0.58491706148E+03  0.25500000920E-02 0.  1.
        2   -1    0    0  501    0  0.00000000000E+00  0.00000000000E+00 -0.84467605725E+03  0.84467605725E+03  0.25500000920E-02 0. -1.
    10030    2    1    2    0    0  0.00000000000E+00  0.00000000000E+00 -0.25975899578E+03  0.14295931187E+04  0.14057957708E+04 0.  0.
        2    1    3    3  502    0 -0.18433751068E+03 -0.28899569059E+03  0.49415862396E+03  0.60140799185E+03  0.25500000920E-02 0.  1.
       -2    1    3    3    0  502  0.18433751068E+03  0.28899569059E+03 -0.75391761974E+03  0.82818512688E+03  0.25500000920E-02 0. -1.
</event>
<event>
 5   0  0.1108819E-03  0.1390458E+04  0.7818609E-02  0.8960755E-01
       -2   -1    0    0    0  501  0.00000000000E+00  0.00000000000E+00  0.50214809079E+03  0.50214809080E+03  0.25500000920E-02 0. -1.
        2   -1    0    0  501    0  0.00000000000E+00  0.00000000000E+00 -0.96255161251E+03  0.96255161252E+03  0.25500000920E-02 0.  1.
    10030    2    1    2    0    0  0.00000000000E+00  0.00000000000E+00 -0.46040352172E+03  0.14646997033E+04  0.13904581324E+04 0.  0.
        3    1    3    3  502    0 -0.31767079300E+03 -0.45815045566E+03 -0.66774305876E+03  0.86988354132E+03  0.10100000352E+00 0.  1.
       -3    1    3    3    0  502  0.31767079300E+03  0.45815045566E+03  0.20733953703E+03  0.59481616199E+03  0.10100000352E+00 0. -1.
</event>
<event>
 5   0  0.4176125E-04  0.1363916E+04  0.7818609E-02  0.8980360E-01
       -3   -1    0    0    0  501  0.00000000000E+00  0.00000000000E+00  0.83035733484E+03  0.83035734098E+03  0.10100000352E+00 0.  1.
        3   -1    0    0  501    0  0.00000000000E+00  0.00000000000E+00 -0.56008027134E+03  0.56008028045E+03  0.10100000352E+00 0. -1.
    10030    2    1    2    0    0  0.00000000000E+00  0.00000000000E+00  0.27027706350E+03  0.13904376214E+04  0.13639160854E+04 0.  0.
        3    1    3    3  502    0 -0.19380270480E+03  0.64871658927E+03  0.21842202244E+03  0.71140768317E+03  0.10100000352E+00 0.  1.
       -3    1    3    3    0  502  0.19380270480E+03 -0.64871658927E+03  0.51855041058E+02  0.67902993827E+03  0.10100000352E+00 0. -1.
</event>
<event>
 5   0  0.6153318E-04  0.1422852E+04  0.7818609E-02  0.8937441E-01
        1   -1    0    0  501    0  0.00000000000E+00  0.00000000000E+00  0.22771257954E+04  0.22771257954E+04  0.50400001928E-02 0.  1.
       -1   -1    0    0    0  501  0.00000000000E+00  0.00000000000E+00 -0.22226561611E+03  0.22226561617E+03  0.50400001928E-02 0. -1.
    10030    2    1    2    0    0  0.00000000000E+00  0.00000000000E+00  0.20548601793E+04  0.24993914116E+04  0.14228517392E+04 0.  0.
        5    1    3    3  502    0  0.68027383183E+03 -0.19648292731E+03  0.11481979553E+04  0.13489843074E+04  0.46999998093E+01 0. -1.
       -5    1    3    3    0  502 -0.68027383183E+03  0.19648292731E+03  0.90666222397E+03  0.11504071042E+04  0.46999998093E+01 0.  1.
</event>
<event>
 5   0  0.1098949E-03  0.1399014E+04  0.7818609E-02  0.8954533E-01
        2   -1    0    0  501    0  0.00000000000E+00  0.00000000000E+00  0.42532545894E+03  0.42532545895E+03  0.25500000920E-02 0. -1.
       -2   -1    0    0    0  501  0.00000000000E+00  0.00000000000E+00 -0.11504369128E+04  0.11504369128E+04  0.25500000920E-02 0.  1.
    10030    2    1    2    0    0  0.00000000000E+00  0.00000000000E+00 -0.72511145389E+03  0.15757623718E+04  0.13990140928E+04 0.  0.
        4    1    3    3  502    0 -0.83977595042E+02  0.27546176287E+03 -0.10805702633E+04  0.11182866923E+04  0.12699999809E+01 0.  1.
       -4    1    3    3    0  502  0.83977595042E+02 -0.27546176287E+03  0.35545880941E+03  0.45747567952E+03  0.12699999809E+01 0. -1.
</event>
<event>
 5   0  0.1098949E-03  0.1250855E+04  0.7818609E-02  0.9069472E-01
       -2   -1    0    0    0  501  0.00000000000E+00  0.00000000000E+00  0.19118401333E+03  0.19118401335E+03  0.25500000920E-02 0.  1.
        2   -1    0    0  501    0  0.00000000000E+00  0.00000000000E+00 -0.20459844729E+04  0.20459844729E+04  0.25500000920E-02 0. -1.
    10030    2    1    2    0    0  0.00000000000E+00  0.00000000000E+00 -0.18548004596E+04  0.22371684863E+04  0.12508549441E+04 0.  0.
        4    1    3    3  502    0 -0.51283906194E+03 -0.17022918010E+03 -0.36415812962E+03  0.65160926442E+03  0.12699999809E+01 0.  1.
       -4    1    3    3    0  502  0.51283906194E+03  0.17022918010E+03 -0.14906423299E+04  0.15855592218E+04  0.12699999809E+01 0. -1.
</event>
<event>
 5   0  0.1120053E-03  0.1403468E+04  0.7818609E-02  0.8951312E-01
       -2   -1    0    0    0  501  0.00000000000E+00  0.00000000000E+00  0.66333635875E+03  0.66333635875E+03  0.25500000920E-02 0.  1.
        2   -1    0    0  501    0  0.00000000000E+00  0.00000000000E+00 -0.74235445795E+03  0.74235445796E+03  0.25500000920E-02 0. -1.
    10030    2    1    2    0    0  0.00000000000E+00  0.00000000000E+00 -0.79018099204E+02  0.14056908167E+04  0.14034681372E+04 0.  0.
        2    1    3    3  502    0 -0.42152240088E+03  0.31618951189E+03 -0.50367989789E+03  0.72893784469E+03  0.25500000920E-02 0. -1.
       -2    1    3    3    0  502  0.42152240088E+03 -0.31618951189E+03  0.42466179869E+03  0.67675297202E+03  0.25500000920E-02 0.  1.
</event>
<event>
 5   0  0.6153318E-04  0.1397307E+04  0.7818609E-02  0.8955770E-01
        1   -1    0    0  501    0  0.00000000000E+00  0.00000000000E+00  0.87763022783E+03  0.87763022785E+03  0.50400001928E-02 0. -1.
       -1   -1    0    0    0  501  0.00000000000E+00  0.00000000000E+00 -0.55617548640E+03  0.55617548642E+03  0.50400001928E-02 0.  1.
    10030    2    1    2    0    0  0.00000000000E+00  0.00000000000E+00  0.32145474144E+03  0.14338057143E+04  0.13973065789E+04 0.  0.
        5    1    3    3  502    0  0.11418324145E+03 -0.20480351298E+03  0.83603045006E+03  0.86830368822E+03  0.46999998093E+01 0. -1.
       -5    1    3    3    0  502 -0.11418324145E+03  0.20480351298E+03 -0.51457570862E+03  0.56550202604E+03  0.46999998093E+01 0.  1.
</event>
<event>
 5   0  0.1108819E-03  0.1408476E+04  0.7818609E-02  0.8947706E-01
       -2   -1    0    0    0  501  0.00000000000E+00  0.00000000000E+00  0.22026397901E+03  0.22026397903E+03  0.25500000920E-02 0. -1.
        2   -1    0    0  501    0  0.00000000000E+00  0.00000000000E+00 -0.22516225294E+04  0.22516225294E+04  0.25500000920E-02 0.  1.
    10030    2    1    2    0    0  0.00000000000E+00  0.00000000000E+00 -0.20313585504E+04  0.24718865084E+04  0.14084762512E+04 0.  0.
        3    1    3    3  502    0  0.39849957261E+03 -0.56883371962E+01  0.33094166053E+01  0.39855392231E+03  0.10100000352E+00 0. -1.
       -3    1    3    3    0  502 -0.39849957261E+03  0.56883371962E+01 -0.20346679670E+04  0.20733325861E+04  0.10100000352E+00 0.  1.
</event>
<event>
 5   0  0.4176125E-04  0.1396660E+04  0.7818609E-02  0.8956240E-01
        3   -1    0    0  501    0  0.00000000000E+00  0.00000000000E+00  0.59035614538E+03  0.59035615402E+03  0.10100000352E+00 0.  1.
       -3   -1    0    0    0  501  0.00000000000E+00  0.00000000000E+00 -0.82605144510E+03  0.82605145128E+03  0.10100000352E+00 0. -1.
    10030    2    1    2    0    0  0.00000000000E+00  0.00000000000E+00 -0.23569529972E+03  0.14164076053E+04  0.13966596687E+04 0.  0.
        4    1    3    3  502    0 -0.31827997417E+03 -0.49990215699E+02 -0.74617374198E+03  0.81275951532E+03  0.12699999809E+01 0. -1.
       -4    1    3    3    0  502  0.31827997417E+03  0.49990215699E+02  0.51047844226E+03  0.60364808998E+03  0.12699999809E+01 0.  1.
</event>
<event>
 5   0  0.6114266E-04  0.1370931E+04  0.7818609E-02  0.8975133E-01
       -1   -1    0    0    0  501  0.00000000000E+00  0.00000000000E+00  0.66244580711E+03  0.66244580713E+03  0.50400001928E-02 0. -1.
        1   -1    0    0  501    0  0.00000000000E+00  0.00000000000E+00 -0.70928488984E+03  0.70928488985E+03  0.50400001928E-02 0.  1.
    10030    2    1    2    0    0  0.00000000000E+00  0.00000000000E+00 -0.46839082726E+02  0.13717306970E+04  0.13709307807E+04 0.  0.
        3    1    3    3  502    0 -0.38659208172E+03  0.14094909171E+03 -0.57195717284E+03  0.70459570100E+03  0.10100000352E+00 0.  1.
       -3    1    3    3    0  502  0.38659208172E+03 -0.14094909171E+03  0.52511809011E+03  0.66713499598E+03  0.10100000352E+00 0. -1.
</event>
<event>
 5   0  0.4176125E-04  0.1410494E+04  0.7818609E-02  0.8946257E-01
        3   -1    0    0  501    0  0.00000000000E+00  0.00000000000E+00  0.70196179587E+03  0.70196180314E+03  0.10100000352E+00 0. -1.
       -3   -1    0    0    0  501  0.00000000000E+00  0.00000000000E+00 -0.70854754830E+03  0.70854755550E+03  0.10100000352E+00 0.  1.
    10030    2    1    2    0    0  0.00000000000E+00  0.00000000000E+00 -0.65857524288E+01  0.14105093586E+04  0.14104939839E+04 0.  0.
        4    1    3    3  502    0 -0.88809250251E+02  0.62684186639E+03  0.30744174258E+03  0.70380384083E+03  0.12699999809E+01 0. -1.
       -4    1    3    3    0  502  0.88809250251E+02 -0.62684186639E+03 -0.31402749501E+03  0.70670551781E+03  0.12699999809E+01 0.  1.
</event>
<event>
 5   0  0.1098949E-03  0.1424936E+04  0.7818609E-02  0.8935964E-01
       -2   -1    0    0    0  501  0.00000000000E+00  0.00000000000E+00  0.81954330485E+03  0.81954330485E+03  0.25500000920E-02 0.  1.
        2   -1    0    0  501    0  0.00000000000E+00  0.00000000000E+00 -0.61938206733E+03  0.61938206733E+03  0.25500000920E-02 0. -1.
    10030    2    1    2    0    0  0.00000000000E+00  0.00000000000E+00  0.20016123752E+03  0.14389253722E+04  0.14249356848E+04 0.  0.
        4    1    3    3  502    0  0.50608039373E+03 -0.15432076226E+03  0.58191985263E+03  0.78648877320E+03  0.12699999809E+01 0.  1.
       -4    1    3    3    0  502 -0.50608039373E+03  0.15432076226E+03 -0.38175861511E+03  0.65243659899E+03  0.12699999809E+01 0. -1.
</event>
<event>
 5   0  0.6194742E-04  0.1364708E+04  0.7818609E-02  0.8979768E-01
        1   -1    0    0  501    0  0.00000000000E+00  0.00000000000E+00  0.36889054022E+03  0.36889054026E+03  0.50400001928E-02 0.  1.
       -1   -1    0    0    0  501  0.00000000000E+00  0.00000000000E+00 -0.12621819772E+04  0.12621819772E+04  0.50400001928E-02 0. -1.
    10030    2    1    2    0    0  0.00000000000E+00  0.00000000000E+00 -0.89329143700E+03  0.16310725175E+04  0.13647080149E+04 0.  0.
        4    1    3    3  502    0  0.30208424775E+03  0.54328363446E+03 -0.78298528737E+03  0.99973975281E+03  0.12699999809E+01 0. -1.
       -4    1    3    3    0  502 -0.30208424775E+03 -0.54328363446E+03 -0.11030614963E+03  0.63133276468E+03  0.12699999809E+01 0.  1.
</event>
<event>
 5   0  0.6114266E-04  0.1372281E+04  0.7818609E-02  0.8974131E-01
       -1   -1    0    0    0  501  0.00000000000E+00  0.00000000000E+00  0.60025317365E+03  0.60025317367E+03  0.50400001928E-02 0. -1.
        1   -1    0    0  501    0  0.00000000000E+00  0.00000000000E+00 -0.78431738815E+03  0.78431738816E+03  0.50400001928E-02 0.  1.
    10030    2    1    2    0    0  0.00000000000E+00  0.00000000000E+00 -0.18406421449E+03  0.13845705618E+04  0.13722813143E+04 0.  0.
        3    1    3    3  502    0 -0.62821280133E+03 -0.25683687688E+03  0.97298606671E+01  0.67875708871E+03  0.10100000352E+00 0. -1.
       -3    1    3    3    0  502  0.62821280133E+03  0.25683687688E+03 -0.19379407516E+03  0.70581347313E+03  0.10100000352E+00 0.  1.
</event>
<event>
 5   0  0.1120053E-03  0.1343005E+04  0.7818609E-02  0.8996140E-01
       -2   -1    0    0    0  501  0.00000000000E+00  0.00000000000E+00  0.21128277096E+03  0.21128277098E+03  0.25500000920E-02 0.  1.
        2   -1    0    0  501    0  0.00000000000E+00  0.00000000000E+00 -0.21341797515E+04  0.21341797515E+04  0.25500000920E-02 0. -1.
    10030    2    1    2    0    0  0.00000000000E+00  0.00000000000E+00 -0.19228969806E+04  0.23454625225E+04  0.13430047083E+04 0.  0.
        2    1    3    3  502    0 -0.13449012716E+03  0.39110721329E+02 -0.21083860357E+04  0.21130331087E+04  0.25500000920E-02 0. -1.
       -2    1    3    3    0  502  0.13449012716E+03 -0.39110721329E+02  0.18548905515E+03  0.23242941382E+03  0.25500000920E-02 0.  1.
</event>
<event>
 5   0  0.6114266E-04  0.1401971E+04  0.7818609E-02  0.8952393E-01
        1   -1    0    0  501    0  0.00000000000E+00  0.00000000000E+00  0.38846154456E+03  0.38846154459E+03  0.50400001928E-02 0. -1.
       -1   -1    0    0    0  501  0.00000000000E+00  0.00000000000E+00 -0.12649403640E+04  0.12649403640E+04  0.50400001928E-02 0.  1.
    10030    2    1    2    0    0  0.00000000000E+00  0.00000000000E+00 -0.87647881942E+03  0.16534019086E+04  0.14019710234E+04 0.  0.
        3    1    3    3  502    0  0.33122887972E+03  0.61776519656E+03 -0.43133562414E+03  0.82304121385E+03  0.10100000352E+00 0.  1.
       -3    1    3    3    0  502 -0.33122887972E+03 -0.61776519656E+03 -0.44514319529E+03  0.83036069473E+03  0.10100000352E+00 0. -1.
</event>
<event>
 5   0  0.1098949E-03  0.1404295E+04  0.7818609E-02  0.8950716E-01
        2   -1    0    0  501    0  0.00000000000E+00  0.00000000000E+00  0.91719414943E+03  0.91719414944E+03  0.25500000920E-02 0. -1.
       -2   -1    0    0    0  501  0.00000000000E+00  0.00000000000E+00 -0.53752062645E+03  0.53752062646E+03  0.25500000920E-02 0.  1.
    10030    2    1    2    0    0  0.00000000000E+00  0.00000000000E+00  0.37967352298E+03  0.14547147759E+04  0.14042945187E+04 0.  0.
        4    1    3    3  502    0  0.32564333056E+03  0.14655368716E+03  0.81609863419E+03  0.89080870876E+03  0.12699999809E+01 0. -1.
       -4    1    3    3    0  502 -0.32564333056E+03 -0.14655368716E+03 -0.43642511122E+03  0.56390606714E+03  0.12699999809E+01 0.  1.
</event>
<event>
 5   0  0.1175146E-03  0.1349497E+04  0.7818609E-02  0.8991209E-01
        2   -1    0    0  501    0  0.00000000000E+00  0.00000000000E+00  0.23143481831E+04  0.23143481831E+04  0.25500000920E-02 0.  1.
       -2   -1    0    0    0  501  0.00000000000E+00  0.00000000000E+00 -0.19672298767E+03  0.19672298769E+03  0.25500000920E-02 0. -1.
    10030    2    1    2    0    0  0.00000000000E+00  0.00000000000E+00  0.21176251955E+04  0.25110711708E+04  0.13494969272E+04 0.  0.
        1    1    3    3  502    0 -0.30110892534E+03 -0.60280044550E+03  0.99301141915E+03  0.12000444328E+04  0.50400001928E-02 0.  1.
       -1    1    3    3    0  502  0.30110892534E+03  0.60280044550E+03  0.11246137763E+04  0.13110267381E+04  0.50400001928E-02 0. -1.
</event>
<event>
 5   0  0.1108819E-03  0.1402243E+04  0.7818609E-02  0.8952197E-01
        2   -1    0    0  501    0  0.00000000000E+00  0.00000000000E+00  0.17439853158E+04  0.17439853158E+04  0.25500000920E-02 0. -1.
       -2   -1    0    0    0  501  0.00000000000E+00  0.00000000000E+00 -0.28186669349E+03  0.28186669351E+03  0.25500000920E-02 0.  1.
    10030    2    1    2    0    0  0.00000000000E+00  0.00000000000E+00  0.14621186223E+04  0.20258520093E+04  0.14022430239E+04 0.  0.
        3    1    3    3  502    0 -0.46160655278E+03  0.51279943032E+03  0.55103333143E+03  0.88299581418E+03  0.10100000352E+00 0.  1.
       -3    1    3    3    0  502  0.46160655278E+03 -0.51279943032E+03  0.91108529091E+03  0.11428561952E+04  0.10100000352E+00 0. -1.
</event>
<event>
 5   0  0.1108819E-03  0.1431610E+04  0.7818609E-02  0.8931250E-01
        2   -1    0    0  501    0  0.00000000000E+00  0.00000000000E+00  0.23354232856E+04  0.23354232856E+04  0.25500000920E-02 0.  1.
       -2   -1    0    0    0  501  0.00000000000E+00  0.00000000000E+00 -0.21939362974E+03  0.21939362975E+03  0.25500000920E-02 0. -1.
    10030    2    1    2    0    0  0.00000000000E+00  0.00000000000E+00  0.21160296558E+04  0.25548169153E+04  0.14316102705E+04 0.  0.
        3    1    3    3  502    0  0.45473323234E+02  0.27316930440E+03 -0.11992368677E+03  0.30177970913E+03  0.10100000352E+00 0. -1.
       -3    1    3    3    0  502 -0.45473323234E+02 -0.27316930440E+03  0.22359533426E+04  0.22530372062E+04  0.10100000352E+00 0.  1.
</event>
<event>
 5   0  0.1095119E-03  0.1234464E+04  0.7818609E-02  0.9083214E-01
        2   -1    0    0  501    0  0.00000000000E+00  0.00000000000E+00  0.11523696263E+04  0.11523696263E+04  0.25500000920E-02 0.  1.
       -2   -1    0    0    0  501  0.00000000000E+00  0.00000000000E+00 -0.33060150606E+03  0.33060150607E+03  0.25500000920E-02 0. -1.
    10030    2    1    2    0    0  0.00000000000E+00  0.00000000000E+00  0.82176812020E+03  0.14829711323E+04  0.12344636633E+04 0.  0.
        5    1    3    3  502    0 -0.13441500469E+03  0.81617685980E+02  0.11278790128E+04  0.11387984886E+04  0.46999998093E+01 0.  1.
       -5    1    3    3    0  502  0.13441500469E+03 -0.81617685980E+02 -0.30611089258E+03  0.34417264375E+03  0.46999998093E+01 0. -1.
</event>
<event>
 5   0  0.6114266E-04  0.1417498E+04  0.7818609E-02  0.8941249E-01
       -1   -1    0    0    0  501  0.00000000000E+00  0.00000000000E+00  0.41226521920E+03  0.41226521923E+03  0.50400001928E-02 0.  1.
        1   -1    0    0  501    0  0.00000000000E+00  0.00000000000E+00 -0.12184508313E+04  0.12184508313E+04  0.50400001928E-02 0. -1.
    10030    2    1    2    0    0  0.00000000000E+00  0.00000000000E+00 -0.80618561206E+03  0.16307160505E+04  0.14174976530E+04 0.  0.
        3    1    3    3  502    0 -0.38356448910E+03  0.58888922265E+03 -0.50860983085E+03  0.86752302799E+03  0.10100000352E+00 0.  1.
       -3    1    3    3    0  502  0.38356448910E+03 -0.58888922265E+03 -0.29757578121E+03  0.76319302251E+03  0.10100000352E+00 0. -1.
</event>
<event>
 5   0  0.6194742E-04  0.1400103E+04  0.7818609E-02  0.8953744E-01
       -1   -1    0    0    0  501  0.00000000000E+00  0.00000000000E+00  0.13235227252E+04  0.13235227252E+04  0.50400001928E-02 0. -1.
        1   -1    0    0  501    0  0.00000000000E+00  0.00000000000E+00 -0.37027873894E+03  0.37027873898E+03  0.50400001928E-02 0.  1.
    10030    2    1    2    0    0  0.00000000000E+00  0.00000000000E+00  0.95324398628E+03  0.16938014642E+04  0.14001033186E+04 0.  0.
        4    1    3    3  502    0  0.26452865236E+03  0.58058305330E+03  0.12805185221E+03  0.65073111148E+03  0.12699999809E+01 0.  1.
       -4    1    3    3    0  502 -0.26452865236E+03 -0.58058305330E+03  0.82519213407E+03  0.10430703527E+04  0.12699999809E+01 0. -1.
</event>
<event>
 5   0  0.1098949E-03  0.1397168E+04  0.7818609E-02  0.8955871E-01
        2   -1    0    0  501    0  0.00000000000E+00  0.00000000000E+00  0.99979964780E+03  0.99979964780E+03  0.25500000920E-02 0. -1.
       -2   -1    0    0    0  501  0.00000000000E+00  0.00000000000E+00 -0.48811711935E+03  0.48811711935E+03  0.25500000920E-02 0.  1.
    10030    2    1    2    0    0  0.00000000000E+00  0.00000000000E+00  0.51168252845E+03  0.14879167672E+04  0.13971675977E+04 0.  0.
        4    1    3    3  502    0 -0.39932997013E+03 -0.23617192539E+03  0.81204422540E+03  0.93523207831E+03  0.12699999809E+01 0. -1.
       -4    1    3    3    0  502  0.39932997013E+03  0.23617192539E+03 -0.30036169695E+03  0.55268468884E+03  0.12699999809E+01 0.  1.
</event>
<event>
 5   0  0.6114266E-04  0.1354858E+04  0.7818609E-02  0.8987159E-01
       -1   -1    0    0    0  501  0.00000000000E+00  0.00000000000E+00  0.63291402932E+03  0.63291402934E+03  0.50400001928E-02 0.  1.
        1   -1    0    0  501    0  0.00000000000E+00  0.00000000000E+00 -0.72507443117E+03  0.72507443119E+03  0.50400001928E-02 0. -1.
    10030    2    1    2    0    0  0.00000000000E+00  0.00000000000E+00 -0.92160401855E+02  0.13579884605E+04  0.13548576011E+04 0.  0.
        3    1    3    3  502    0  0.37574828923E+02 -0.30499687959E+03 -0.65119278355E+03  0.72006042516E+03  0.10100000352E+00 0. -1.
       -3    1    3    3    0  502 -0.37574828923E+02  0.30499687959E+03  0.55903238170E+03  0.63792803537E+03  0.10100000352E+00 0.  1.
</event>
<event>
 5   0  0.6097538E-04  0.1400034E+04  0.7818609E-02  0.8953794E-01
       -1   -1    0    0    0  501  0.00000000000E+00  0.00000000000E+00  0.68605251806E+03  0.68605251808E+03  0.50400001928E-02 0. -1.
        1   -1    0    0  501    0  0.00000000000E+00  0.00000000000E+00 -0.71426622529E+03  0.71426622530E+03  0.50400001928E-02 0.  1.
    10030    2    1    2    0    0  0.00000000000E+00  0.00000000000E+00 -0.28213707228E+02  0.14003187434E+04  0.14000344888E+04 0.  0.
        2    1    3    3  502    0  0.33267908077E+03 -0.12436361367E+03 -0.61745603881E+03  0.71231568778E+03  0.25500000920E-02 0.  1.
       -2    1    3    3    0  502 -0.33267908077E+03  0.12436361367E+03  0.58924233158E+03  0.68800305560E+03  0.25500000920E-02 0. -1.
</event>
<event>
 5   0  0.6114266E-04  0.1414435E+04  0.7818609E-02  0.8943435E-01
       -1   -1    0    0    0  501  0.00000000000E+00  0.00000000000E+00  0.83787597712E+03  0.83787597714E+03  0.50400001928E-02 0. -1.
        1   -1    0    0  501    0  0.00000000000E+00  0.00000000000E+00 -0.59693420769E+03  0.59693420771E+03  0.50400001928E-02 0.  1.
    10030    2    1    2    0    0  0.00000000000E+00  0.00000000000E+00  0.24094176943E+03  0.14348101848E+04  0.14144353397E+04 0.  0.
        3    1    3    3  502    0  0.65014956183E+03  0.21887766244E+03 -0.53921044516E+02  0.68812017345E+03  0.10100000352E+00 0.  1.
       -3    1    3    3    0  502 -0.65014956183E+03 -0.21887766244E+03  0.29486281395E+03  0.74669001140E+03  0.10100000352E+00 0. -1.
</event>
<event>
 5   0  0.6114266E-04  0.1391025E+04  0.7818609E-02  0.8960341E-01
        1   -1    0    0  501    0  0.00000000000E+00  0.00000000000E+00  0.58343129378E+03  0.58343129381E+03  0.50400001928E-02 0.  1.
       -1   -1    0    0    0  501  0.00000000000E+00  0.00000000000E+00 -0.82912504530E+03  0.82912504532E+03  0.50400001928E-02 0. -1.
    10030    2    1    2    0    0  0.00000000000E+00  0.00000000000E+00 -0.24569375152E+03  0.14125563391E+04  0.13910247991E+04 0.  0.
        3    1    3    3  502    0  0.54838252488E+03 -0.14673680813E+03  0.28522203420E+03  0.63530048280E+03  0.10100000352E+00 0.  1.
       -3    1    3    3    0  502 -0.54838252488E+03  0.14673680813E+03 -0.53091578572E+03  0.77725585632E+03  0.10100000352E+00 0. -1.
</event>
<event>
 5   0  0.6153318E-04  0.1417163E+04  0.7818609E-02  0.8941488E-01
        1   -1    0    0  501    0  0.00000000000E+00  0.00000000000E+00  0.16285887622E+04  0.16285887622E+04  0.50400001928E-02 0. -1.
       -1   -1    0    0    0  501  0.00000000000E+00  0.00000000000E+00 -0.30829600156E+03  0.30829600161E+03  0.50400001928E-02 0.  1.
    10030    2    1    2    0    0  0.00000000000E+00  0.00000000000E+00  0.13202927606E+04  0.19368847638E+04  0.14171625223E+04 0.  0.
        5    1    3    3  502    0  0.18324324727E+03 -0.42259130523E+03  0.13960333098E+04  0.14700655057E+04  0.46999998093E+01 0. -1.
       -5    1    3    3    0  502 -0.18324324727E+03  0.42259130523E+03 -0.75740549214E+02  0.46681925808E+03  0.46999998093E+01 0.  1.
</event>
<event>
 5   0  0.6097538E-04  0.1405642E+04  0.7818609E-02  0.8949745E-01
       -1   -1    0    0    0  501  0.00000000000E+00  0.00000000000E+00  0.54673707911E+03  0.54673707914E+03  0.50400001928E-02 0. -1.
        1   -1    0    0  501    0  0.00000000000E+00  0.00000000000E+00 -0.90346398843E+03  0.90346398845E+03  0.50400001928E-02 0.  1.
    10030    2    1    2    0    0  0.00000000000E+00  0.00000000000E+00 -0.35672690932E+03  0.14502010676E+04  0.14056418636E+04 0.  0.
        2    1    3    3  502    0  0.52423766787E+03 -0.45841981673E+03 -0.80578072158E+02  0.70104685044E+03  0.25500000920E-02 0. -1.
       -2    1    3    3    0  502 -0.52423766787E+03  0.45841981673E+03 -0.27614883716E+03  0.74915421714E+03  0.25500000920E-02 0.  1.
</event>
<event>
 5   0  0.4176125E-04  0.1407138E+04  0.7818609E-02  0.8948668E-01
       -3   -1    0    0    0  501  0.00000000000E+00  0.00000000000E+00  0.48438223817E+03  0.48438224870E+03  0.10100000352E+00 0.  1.
        3   -1    0    0  501    0  0.00000000000E+00  0.00000000000E+00 -0.10219401550E+04  0.10219401600E+04  0.10100000352E+00 0. -1.
    10030    2    1    2    0    0  0.00000000000E+00  0.00000000000E+00 -0.53755791687E+03  0.15063224087E+04  0.14071384740E+04 0.  0.
        5    1    3    3  502    0  0.65683838282E+03 -0.10830261051E+03 -0.25089949900E+02  0.66619645164E+03  0.46999998093E+01 0.  1.
       -5    1    3    3    0  502 -0.65683838282E+03  0.10830261051E+03 -0.51246796697E+03  0.84012595709E+03  0.46999998093E+01 0. -1.
</event>
<event>
 5   0  0.6097538E-04  0.1408014E+04  0.7818609E-02  0.8948038E-01
        1   -1    0    0  501    0  0.00000000000E+00  0.00000000000E+00  0.59201650742E+03  0.59201650744E+03  0.50400001928E-02 0.  1.
       -1   -1    0    0    0  501  0.00000000000E+00  0.00000000000E+00 -0.83718281336E+03  0.83718281338E+03  0.50400001928E-02 0. -1.
    10030    2    1    2    0    0  0.00000000000E+00  0.00000000000E+00 -0.24516630595E+03  0.14291993208E+04  0.14080142688E+04 0.  0.
        2    1    3    3  502    0 -0.41995046734E+03  0.47780192437E+02  0.44890192865E+03  0.61656652792E+03  0.25500000920E-02 0.  1.
       -2    1    3    3    0  502  0.41995046734E+03 -0.47780192437E+02 -0.69406823460E+03  0.81263279289E+03  0.25500000920E-02 0. -1.
</event>
<event>
 5   0  0.1095119E-03  0.1403505E+04  0.7818609E-02  0.8951285E-01
       -2   -1    0    0    0  501  0.00000000000E+00  0.00000000000E+00  0.67061575136E+03  0.67061575137E+03  0.25500000920E-02 0.  1.
        2   -1    0    0  501    0  0.00000000000E+00  0.00000000000E+00 -0.73433532182E+03  0.73433532182E+03  0.25500000920E-02 0. -1.
    10030    2    1    2    0    0  0.00000000000E+00  0.00000000000E+00 -0.63719570455E+02  0.14049510732E+04  0.14035053738E+04 0.  0.
        5    1    3    3  502    0 -0.28641510824E+03 -0.58368182701E+03 -0.29617087712E+03  0.71446299264E+03  0.46999998093E+01 0. -1.
       -5    1    3    3    0  502  0.28641510824E+03  0.58368182701E+03  0.23245130666E+03  0.69048808055E+03  0.46999998093E+01 0.  1.
</event>
<event>
 5   0  0.6114266E-04  0.1395750E+04  0.7818609E-02  0.8956901E-01
       -1   -1    0    0    0  501  0.00000000000E+00  0.00000000000E+00  0.88722132090E+03  0.88722132091E+03  0.50400001928E-02 0. -1.
        1   -1    0    0  501    0  0.00000000000E+00  0.00000000000E+00 -0.54893803363E+03  0.54893803366E+03  0.50400001928E-02 0.  1.
    10030    2    1    2    0    0  0.00000000000E+00  0.00000000000E+00  0.33828328726E+03  0.14361593546E+04  0.13957500168E+04 0.  0.
        3    1    3    3  502    0 -0.24887800256E+03 -0.13641056091E+03 -0.48687572365E+03  0.56355663581E+03  0.10100000352E+00 0.  1.
       -3    1    3    3    0  502  0.24887800256E+03  0.13641056091E+03  0.82515901091E+03  0.87260271876E+03  0.10100000352E+00 0. -1.
</event>
<event>
 5   0  0.1095119E-03  0.1405293E+04  0.7818609E-02  0.8949996E-01
        2   -1    0    0  501    0  0.00000000000E+00  0.00000000000E+00  0.65092672851E+03  0.65092672852E+03  0.25500000920E-02 0. -1.
       -2   -1    0    0    0  501  0.00000000000E+00  0.00000000000E+00 -0.75847589436E+03  0.75847589436E+03  0.25500000920E-02 0.  1.
    10030    2    1    2    0    0  0.00000000000E+00  0.00000000000E+00 -0.10754916584E+03  0.14094026229E+04  0.14052931830E+04 0.  0.
        5    1    3    3  502    0  0.46777183395E+03  0.47674201824E+03  0.16503007670E+03  0.68800469243E+03  0.46999998093E+01 0. -1.
       -5    1    3    3    0  502 -0.46777183395E+03 -0.47674201824E+03 -0.27257924255E+03  0.72139793045E+03  0.46999998093E+01 0.  1.
</event>
<event>
 5   0  0.6114266E-04  0.1401246E+04  0.7818609E-02  0.8952917E-01
        1   -1    0    0  501    0  0.00000000000E+00  0.00000000000E+00  0.18717279946E+04  0.18717279946E+04  0.50400001928E-02 0.  1.
       -1   -1    0    0    0  501  0.00000000000E+00  0.00000000000E+00 -0.26225653181E+03  0.26225653186E+03  0.50400001928E-02 0. -1.
    10030    2    1    2    0    0  0.00000000000E+00  0.00000000000E+00  0.16094714628E+04  0.21339845264E+04  0.14012464343E+04 0.  0.
        3    1    3    3  502    0  0.52071442670E+03 -0.20773244879E+03  0.14446817152E+04  0.15496456217E+04  0.10100000352E+00 0.  1.
       -3    1    3    3    0  502 -0.52071442670E+03  0.20773244879E+03  0.16478974754E+03  0.58433890470E+03  0.10100000352E+00 0. -1.
</event>
<event>
 5   0  0.1098949E-03  0.1400281E+04  0.7818609E-02  0.8953615E-01
        2   -1    0    0  501    0  0.00000000000E+00  0.00000000000E+00  0.10515755374E+04  0.10515755374E+04  0.25500000920E-02 0.  1.
       -2   -1    0    0    0  501  0.00000000000E+00  0.00000000000E+00 -0.46615454946E+03  0.46615454947E+03  0.25500000920E-02 0. -1.
    10030    2    1    2    0    0  0.00000000000E+00  0.00000000000E+00  0.58542098797E+03  0.15177300869E+04  0.14002810016E+04 0.  0.
        4    1    3    3  502    0  0.35018870435E+03  0.52223162021E+03  0.62649679756E+03  0.88761356685E+03  0.12699999809E+01 0. -1.
       -4    1    3    3    0  502 -0.35018870435E+03 -0.52223162021E+03 -0.41075809588E+02  0.63011652005E+03  0.12699999809E+01 0.  1.
</event>
<event>
 5   0  0.6194742E-04  0.1417638E+04  0.7818609E-02  0.8941149E-01
        1   -1    0    0  501    0  0.00000000000E+00  0.00000000000E+00  0.69580913203E+03  0.69580913204E+03  0.50400001928E-02 0.  1.
       -1   -1    0    0    0  501  0.00000000000E+00  0.00000000000E+00 -0.72207193717E+03  0.72207193719E+03  0.50400001928E-02 0. -1.
    10030    2    1    2    0    0  0.00000000000E+00  0.00000000000E+00 -0.26262805145E+02  0.14178810692E+04  0.14176378210E+04 0.  0.
        4    1    3    3  502    0  0.63122991448E+03 -0.26102420087E+03  0.17620981393E+03  0.70543344817E+03  0.12699999809E+01 0.  1.
       -4    1    3    3    0  502 -0.63122991448E+03  0.26102420087E+03 -0.20247261908E+03  0.71244762106E+03  0.12699999809E+01 0. -1.
</event>
<event>
 5   0  0.1098949E-03  0.1384436E+04  0.7818609E-02  0.8965162E-01
        2   -1    0    0  501    0  0.00000000000E+00  0.00000000000E+00  0.47886254396E+03  0.47886254396E+03  0.25500000920E-02 0.  1.
       -2   -1    0    0    0  501  0.00000000000E+00  0.00000000000E+00 -0.10006327102E+04  0.10006327102E+04  0.25500000920E-02 0. -1.
    10030    2    1    2    0    0  0.00000000000E+00  0.00000000000E+00 -0.52177016629E+03  0.14794952542E+04  0.13844356615E+04 0.  0.
        4    1    3    3  502    0  0.56728914271E+03 -0.15215050052E+03  0.13059752320E+03  0.60168436261E+03  0.12699999809E+01 0.  1.
       -4    1    3    3    0  502 -0.56728914271E+03  0.15215050052E+03 -0.65236768948E+03  0.87781089161E+03  0.12699999809E+01 0. -1.
</event>
<event>
 5   0  0.1120053E-03  0.1397520E+04  0.7818609E-02  0.8955616E-01
       -2   -1    0    0    0  501  0.00000000000E+00  0.00000000000E+00  0.45022267346E+03  0.45022267347E+03  0.25500000920E-02 0. -1.
        2   -1    0    0  501    0  0.00000000000E+00  0.00000000000E+00 -0.10844980473E+04  0.10844980473E+04  0.25500000920E-02 0.  1.
    10030    2    1    2    0    0  0.00000000000E+00  0.00000000000E+00 -0.63427537381E+03  0.15347207207E+04  0.13975201039E+04 0.  0.
        2    1    3    3  502    0 -0.56898870607E+03  0.18405445114E+03  0.79790318114E+02  0.60331640413E+03  0.25500000920E-02 0. -1.
       -2    1    3    3    0  502  0.56898870607E+03 -0.18405445114E+03 -0.71406569193E+03  0.93140431662E+03  0.25500000920E-02 0.  1.
</event>
<event>
 5   0  0.5875298E-04  0.1406592E+04  0.7818609E-02  0.8949060E-01
       -1   -1    0    0    0  501  0.00000000000E+00  0.00000000000E+00  0.31635576069E+03  0.31635576073E+03  0.50400001928E-02 0.  1.
        1   -1    0    0  501    0  0.00000000000E+00  0.00000000000E+00 -0.15635104697E+04  0.15635104697E+04  0.50400001928E-02 0. -1.
    10030    2    1    2    0    0  0.00000000000E+00  0.00000000000E+00 -0.12471547090E+04  0.18798662304E+04  0.14065923987E+04 0.  0.
        1    1    3    3  502    0  0.26566882769E+03  0.61569058646E+03 -0.90699285530E+03  0.11279587155E+04  0.50400001928E-02 0. -1.
       -1    1    3    3    0  502 -0.26566882769E+03 -0.61569058646E+03 -0.34016185370E+03  0.75190751492E+03  0.50400001928E-02 0.  1.
</event>
<event>
 5   0  0.4176125E-04  0.1402449E+04  0.7818609E-02  0.8952048E-01
        3   -1    0    0  501    0  0.00000000000E+00  0.00000000000E+00  0.49076149226E+03  0.49076150265E+03  0.10100000352E+00 0.  1.
       -3   -1    0    0    0  501  0.00000000000E+00  0.00000000000E+00 -0.10019448027E+04  0.10019448078E+04  0.10100000352E+00 0. -1.
    10030    2    1    2    0    0  0.00000000000E+00  0.00000000000E+00 -0.51118331048E+03  0.14927063105E+04  0.14024491978E+04 0.  0.
        1    1    3    3  502    0  0.49280227162E+03 -0.26579595195E+02 -0.78580308036E+03  0.92792620122E+03  0.50400001928E-02 0. -1.
       -1    1    3    3    0  502 -0.49280227162E+03  0.26579595195E+02  0.27461976987E+03  0.56478010927E+03  0.50400001928E-02 0.  1.
</event>
<event>
 5   0  0.5875298E-04  0.1417274E+04  0.7818609E-02  0.8941409E-01
        1   -1    0    0  501    0  0.00000000000E+00  0.00000000000E+00  0.12651150619E+04  0.12651150619E+04  0.50400001928E-02 0. -1.
       -1   -1    0    0    0  501  0.00000000000E+00  0.00000000000E+00 -0.39693333790E+03  0.39693333793E+03  0.50400001928E-02 0.  1.
    10030    2    1    2    0    0  0.00000000000E+00  0.00000000000E+00  0.86818172396E+03  0.16620483998E+04  0.14172739246E+04 0.  0.
        1    1    3    3  502    0  0.64341825131E+03 -0.28681380078E+03  0.34388269417E+03  0.78390338040E+03  0.50400001928E-02 0.  1.
       -1    1    3    3    0  502 -0.64341825131E+03  0.28681380078E+03  0.52429902979E+03  0.87814501940E+03  0.50400001928E-02 0. -1.
</event>
<event>
 5   0  0.1095119E-03  0.1504359E+04  0.7818609E-02  0.8881560E-01
        2   -1    0    0  501    0  0.00000000000E+00  0.00000000000E+00  0.18002177337E+04  0.18002177337E+04  0.25500000920E-02 0. -1.
       -2   -1    0    0    0  501  0.00000000000E+00  0.00000000000E+00 -0.31428075511E+03  0.31428075512E+03  0.25500000920E-02 0.  1.
    10030    2    1    2    0    0  0.00000000000E+00  0.00000000000E+00  0.14859369786E+04  0.21144984888E+04  0.15043587188E+04 0.  0.
        5    1    3    3  502    0 -0.38814054479E+03 -0.58349091063E+03  0.35896693539E+03  0.78739702565E+03  0.46999998093E+01 0.  1.
       -5    1    3    3    0  502  0.38814054479E+03  0.58349091063E+03  0.11269700432E+04  0.13271014632E+04  0.46999998093E+01 0. -1.
</event>
<event>
 5   0  0.1108819E-03  0.1182435E+04  0.7818609E-02  0.9128372E-01
       -2   -1    0    0    0  501  0.00000000000E+00  0.00000000000E+00  0.44186172998E+03  0.44186172998E+03  0.25500000920E-02 0. -1.
        2   -1    0    0  501    0  0.00000000000E+00  0.00000000000E+00 -0.79105710696E+03  0.79105710696E+03  0.25500000920E-02 0.  1.
    10030    2    1    2    0    0  0.00000000000E+00  0.00000000000E+00 -0.34919537698E+03  0.12329188369E+04  0.11824345425E+04 0.  0.
        3    1    3    3  502    0 -0.32358872589E+03 -0.48439378866E+03 -0.27985747625E+03  0.64627178743E+03  0.10100000352E+00 0. -1.
       -3    1    3    3    0  502  0.32358872589E+03  0.48439378866E+03 -0.69337900732E+02  0.58664704951E+03  0.10100000352E+00 0.  1.
</event>
<event>
 5   0  0.1095119E-03  0.1411261E+04  0.7818609E-02  0.8945708E-01
        2   -1    0    0  501    0  0.00000000000E+00  0.00000000000E+00  0.19044605399E+04  0.19044605399E+04  0.25500000920E-02 0.  1.
       -2   -1    0    0    0  501  0.00000000000E+00  0.00000000000E+00 -0.26144626069E+03  0.26144626070E+03  0.25500000920E-02 0. -1.
    10030    2    1    2    0    0  0.00000000000E+00  0.00000000000E+00  0.16430142792E+04  0.21659068006E+04  0.14112605526E+04 0.  0.
        5    1    3    3  502    0  0.63235771566E+03 -0.16861743468E+03  0.12263503628E+04  0.13900595031E+04  0.46999998093E+01 0.  1.
       -5    1    3    3    0  502 -0.63235771566E+03  0.16861743468E+03  0.41666391644E+03  0.77584729753E+03  0.46999998093E+01 0. -1.
</event>
<event>
 5   0  0.6097538E-04  0.1414162E+04  0.7818609E-02  0.8943631E-01
       -1   -1    0    0    0  501  0.00000000000E+00  0.00000000000E+00  0.89058128336E+03  0.89058128337E+03  0.50400001928E-02 0. -1.
        1   -1    0    0  501    0  0.00000000000E+00  0.00000000000E+00 -0.56139014020E+03  0.56139014022E+03  0.50400001928E-02 0.  1.
    10030    2    1    2    0    0  0.00000000000E+00  0.00000000000E+00  0.32919114316E+03  0.14519714236E+04  0.14141620155E+04 0.  0.
        2    1    3    3  502    0  0.56685813850E+03 -0.15368016667E+03  0.56884526382E+03  0.81763725269E+03  0.25500000920E-02 0.  1.
       -2    1    3    3    0  502 -0.56685813850E+03  0.15368016667E+03 -0.23965412067E+03  0.63433417090E+03  0.25500000920E-02 0. -1.
</event>
<event>
 5   0  0.1098949E-03  0.1397071E+04  0.7818609E-02  0.8955941E-01
       -2   -1    0    0    0  501  0.00000000000E+00  0.00000000000E+00  0.33724762074E+03  0.33724762075E+03  0.25500000920E-02 0.  1.
        2   -1    0    0  501    0  0.00000000000E+00  0.00000000000E+00 -0.14468661880E+04  0.14468661880E+04  0.25500000920E-02 0. -1.
    10030    2    1    2    0    0  0.00000000000E+00  0.00000000000E+00 -0.11096185672E+04  0.17841138087E+04  0.13970714791E+04 0.  0.
        4    1    3    3  502    0 -0.19225912369E+03 -0.79074422728E+02 -0.14064456675E+04  0.14217268948E+04  0.12699999809E+01 0. -1.
       -4    1    3    3    0  502  0.19225912369E+03  0.79074422728E+02  0.29682710029E+03  0.36238691387E+03  0.12699999809E+01 0.  1.
</event>
<event>
 5   0  0.5875298E-04  0.1374018E+04  0.7818609E-02  0.8972843E-01
       -1   -1    0    0    0  501  0.00000000000E+00  0.00000000000E+00  0.37346291473E+03  0.37346291477E+03  0.50400001928E-02 0.  1.
        1   -1    0    0  501    0  0.00000000000E+00  0.00000000000E+00 -0.12637968008E+04  0.12637968008E+04  0.50400001928E-02 0. -1.
    10030    2    1    2    0    0  0.00000000000E+00  0.00000000000E+00 -0.89033388606E+03  0.16372597156E+04  0.13740178120E+04 0.  0.
        1    1    3    3  502    0 -0.99962602891E+02  0.64814166235E+03 -0.68908161673E+03  0.95126947338E+03  0.50400001928E-02 0.  1.
       -1    1    3    3    0  502  0.99962602891E+02 -0.64814166235E+03 -0.20125226934E+03  0.68599024219E+03  0.50400001928E-02 0. -1.
</event>
<event>
 5   0  0.1108819E-03  0.1379803E+04  0.7818609E-02  0.8968569E-01
        2   -1    0    0  501    0  0.00000000000E+00  0.00000000000E+00  0.15615991972E+04  0.15615991972E+04  0.25500000920E-02 0.  1.
       -2   -1    0    0    0  501  0.00000000000E+00  0.00000000000E+00 -0.30479284456E+03  0.30479284457E+03  0.25500000920E-02 0. -1.
    10030    2    1    2    0    0  0.00000000000E+00  0.00000000000E+00  0.12568063526E+04  0.18663920418E+04  0.13798032633E+04 0.  0.
        3    1    3    3  502    0 -0.40990331329E+03  0.35666424208E+03  0.53352910280E+02  0.54596396498E+03  0.10100000352E+00 0.  1.
       -3    1    3    3    0  502  0.40990331329E+03 -0.35666424208E+03  0.12034534424E+04  0.13204280768E+04  0.10100000352E+00 0. -1.
</event>
<event>
 5   0  0.5875298E-04  0.1412774E+04  0.7818609E-02  0.8944623E-01
        1   -1    0    0  501    0  0.00000000000E+00  0.00000000000E+00  0.34121665961E+03  0.34121665964E+03  0.50400001928E-02 0.  1.
       -1   -1    0    0    0  501  0.00000000000E+00  0.00000000000E+00 -0.14623634360E+04  0.14623634360E+04  0.50400001928E-02 0. -1.
    10030    2    1    2    0    0  0.00000000000E+00  0.00000000000E+00 -0.11211467764E+04  0.18035800956E+04  0.14127742449E+04 0.  0.
        1    1    3    3  502    0  0.59956663756E+03 -0.37210747592E+03 -0.60171632040E+03  0.92736543864E+03  0.50400001928E-02 0.  1.
       -1    1    3    3    0  502 -0.59956663756E+03  0.37210747592E+03 -0.51943045595E+03  0.87621465698E+03  0.50400001928E-02 0. -1.
</event>
<event>
 5   0  0.1095119E-03  0.1404454E+04  0.7818609E-02  0.8950601E-01
        2   -1    0    0  501    0  0.00000000000E+00  0.00000000000E+00  0.75778569652E+03  0.75778569653E+03  0.25500000920E-02 0. -1.
       -2   -1    0    0    0  501  0.00000000000E+00  0.00000000000E+00 -0.65074184562E+03  0.65074184563E+03  0.25500000920E-02 0.  1.
    10030    2    1    2    0    0  0.00000000000E+00  0.00000000000E+00  0.10704385090E+03  0.14085275422E+04  0.14044541470E+04 0.  0.
        5    1    3    3  502    0  0.22911614714E+03 -0.66041219401E+03  0.12051610265E+03  0.70935512677E+03  0.46999998093E+01 0. -1.
       -5    1    3    3    0  502 -0.22911614714E+03  0.66041219401E+03 -0.13472251749E+02  0.69917241539E+03  0.46999998093E+01 0.  1.
</event>
<event>
 5   0  0.4176125E-04  0.1388548E+04  0.7818609E-02  0.8962150E-01
       -3   -1    0    0    0  501  0.00000000000E+00  0.00000000000E+00  0.13593500012E+04  0.13593500049E+04  0.10100000352E+00 0. -1.
        3   -1    0    0  501    0  0.00000000000E+00  0.00000000000E+00 -0.35459326678E+03  0.35459328116E+03  0.10100000352E+00 0.  1.
    10030    2    1    2    0    0  0.00000000000E+00  0.00000000000E+00  0.10047567344E+04  0.17139432861E+04  0.13885479800E+04 0.  0.
        3    1    3    3  502    0  0.20779580513E+01  0.54372203788E+03  0.10352631698E+04  0.11693621395E+04  0.10100000352E+00 0. -1.
       -3    1    3    3    0  502 -0.20779580513E+01 -0.54372203788E+03 -0.30506435423E+02  0.54458114656E+03  0.10100000352E+00 0.  1.
</event>
<event>
 5   0  0.6194742E-04  0.1401516E+04  0.7818609E-02  0.8952722E-01
        1   -1    0    0  501    0  0.00000000000E+00  0.00000000000E+00  0.11288175646E+04  0.11288175646E+04  0.50400001928E-02 0. -1.
       -1   -1    0    0    0  501  0.00000000000E+00  0.00000000000E+00 -0.43502318153E+03  0.43502318156E+03  0.50400001928E-02 0.  1.
    10030    2    1    2    0    0  0.00000000000E+00  0.00000000000E+00  0.69379438305E+03  0.15638407461E+04  0.14015160482E+04 0.  0.
        4    1    3    3  502    0 -0.59889390649E+03  0.30864313805E+03  0.56189387502E+03  0.87730316173E+03  0.12699999809E+01 0. -1.
       -4    1    3    3    0  502  0.59889390649E+03 -0.30864313805E+03  0.13190050803E+03  0.68653758442E+03  0.12699999809E+01 0.  1.
</event>
<event>
 5   0  0.1120053E-03  0.1391064E+04  0.7818609E-02  0.8960312E-01
        2   -1    0    0  501    0  0.00000000000E+00  0.00000000000E+00  0.20610377734E+04  0.20610377734E+04  0.25500000920E-02 0. -1.
       -2   -1    0    0    0  501  0.00000000000E+00  0.00000000000E+00 -0.23471916883E+03  0.23471916884E+03  0.25500000920E-02 0.  1.
    10030    2    1    2    0    0  0.00000000000E+00  0.00000000000E+00  0.18263186046E+04  0.22957569423E+04  0.13910644458E+04 0.  0.
        2    1    3    3  502    0  0.23738314594E+03  0.64671113086E+03  0.10712757364E+04  0.12736631219E+04  0.25500000920E-02 0.  1.
       -2    1    3    3    0  502 -0.23738314594E+03 -0.64671113086E+03  0.75504286822E+03  0.10220938204E+04  0.25500000920E-02 0. -1.
</event>
<event>
 5   0  0.1108819E-03  0.1329449E+04  0.7818609E-02  0.9006532E-01
        2   -1    0    0  501    0  0.00000000000E+00  0.00000000000E+00  0.13795077852E+04  0.13795077852E+04  0.25500000920E-02 0.  1.
       -2   -1    0    0    0  501  0.00000000000E+00  0.00000000000E+00 -0.32030168661E+03  0.32030168662E+03  0.25500000920E-02 0. -1.
    10030    2    1    2    0    0  0.00000000000E+00  0.00000000000E+00  0.10592060986E+04  0.16998094719E+04  0.13294490142E+04 0.  0.
        3    1    3    3  502    0 -0.37038555682E+03  0.61267390863E+02  0.12309836164E+04  0.12869575859E+04  0.10100000352E+00 0.  1.
       -3    1    3    3    0  502  0.37038555682E+03 -0.61267390863E+02 -0.17177751780E+03  0.41285188592E+03  0.10100000352E+00 0. -1.
</event>
<event>
 5   0  0.6153318E-04  0.1401057E+04  0.7818609E-02  0.8953054E-01
       -1   -1    0    0    0  501  0.00000000000E+00  0.00000000000E+00  0.50393957022E+03  0.50393957024E+03  0.50400001928E-02 0. -1.
        1   -1    0    0  501    0  0.00000000000E+00  0.00000000000E+00 -0.97380748897E+03  0.97380748899E+03  0.50400001928E-02 0.  1.
    10030    2    1    2    0    0  0.00000000000E+00  0.00000000000E+00 -0.46986791875E+03  0.14777470592E+04  0.14010569260E+04 0.  0.
        5    1    3    3  502    0 -0.39282610673E+03 -0.12339411676E+03  0.36281425144E+03  0.54881210740E+03  0.46999998093E+01 0. -1.
       -5    1    3    3    0  502  0.39282610673E+03  0.12339411676E+03 -0.83268217019E+03  0.92893495183E+03  0.46999998093E+01 0.  1.
</event>
<event>
 5   0  0.4176125E-04  0.1401241E+04  0.7818609E-02  0.8952921E-01
        4   -1    0    0  501    0  0.00000000000E+00  0.00000000000E+00  0.63680816149E+03  0.63680942788E+03  0.12699999809E+01 0.  1.
       -4   -1    0    0    0  501  0.00000000000E+00  0.00000000000E+00 -0.77082470685E+03  0.77082575307E+03  0.12699999809E+01 0. -1.
    10030    2    1    2    0    0  0.00000000000E+00  0.00000000000E+00 -0.13401654536E+03  0.14076351809E+04  0.14012410100E+04 0.  0.
        3    1    3    3  502    0 -0.15350156490E+03  0.27230438188E+03 -0.69689158130E+03  0.76378681130E+03  0.10100000352E+00 0. -1.
       -3    1    3    3    0  502  0.15350156490E+03 -0.27230438188E+03  0.56287503594E+03  0.64384836965E+03  0.10100000352E+00 0.  1.
</event>
<event>
 5   0  0.1098949E-03  0.1403681E+04  0.7818609E-02  0.8951158E-01
       -2   -1    0    0    0  501  0.00000000000E+00  0.00000000000E+00  0.30276805288E+03  0.30276805289E+03  0.25500000920E-02 0.  1.
        2   -1    0    0  501    0  0.00000000000E+00  0.00000000000E+00 -0.16269233479E+04  0.16269233479E+04  0.25500000920E-02 0. -1.
    10030    2    1    2    0    0  0.00000000000E+00  0.00000000000E+00 -0.13241552951E+04  0.19296914008E+04  0.14036814656E+04 0.  0.
        4    1    3    3  502    0  0.10914974250E+03 -0.10368446233E+03  0.28030828906E+03  0.31817995511E+03  0.12699999809E+01 0.  1.
       -4    1    3    3    0  502 -0.10914974250E+03  0.10368446233E+03 -0.16044635841E+04  0.16115114457E+04  0.12699999809E+01 0. -1.
</event>
<event>
 5   0  0.1120053E-03  0.1398331E+04  0.7818609E-02  0.8955028E-01
       -2   -1    0    0    0  501  0.00000000000E+00  0.00000000000E+00  0.20542092119E+03  0.20542092121E+03  0.25500000920E-02 0.  1.
        2   -1    0    0  501    0  0.00000000000E+00  0.00000000000E+00 -0.23796615587E+04  0.23796615587E+04  0.25500000920E-02 0. -1.
    10030    2    1    2    0    0  0.00000000000E+00  0.00000000000E+00 -0.21742406375E+04  0.25850824799E+04  0.13983308186E+04 0.  0.
        2    1    3    3  502    0 -0.35779418591E+03  0.18472024374E+03 -0.21437798346E+04  0.21812680319E+04  0.25500000920E-02 0. -1.
       -2    1    3    3    0  502  0.35779418591E+03 -0.18472024374E+03 -0.30460802965E+02  0.40381444803E+03  0.25500000920E-02 0.  1.
</event>
<event>
 5   0  0.6097538E-04  0.1393981E+04  0.7818609E-02  0.8958187E-01
        1   -1    0    0  501    0  0.00000000000E+00  0.00000000000E+00  0.15494598174E+04  0.15494598174E+04  0.50400001928E-02 0.  1.
       -1   -1    0    0    0  501  0.00000000000E+00  0.00000000000E+00 -0.31352607294E+03  0.31352607298E+03  0.50400001928E-02 0. -1.
    10030    2    1    2    0    0  0.00000000000E+00  0.00000000000E+00  0.12359337445E+04  0.18629858904E+04  0.13939814228E+04 0.  0.
        2    1    3    3  502    0 -0.59723872465E+03 -0.28668512832E+03  0.32849795570E+03  0.73945477477E+03  0.25500000920E-02 0. -1.
       -2    1    3    3    0  502  0.59723872465E+03  0.28668512832E+03  0.90743578878E+03  0.11235311156E+04  0.25500000920E-02 0.  1.
</event>
<event>
 5   0  0.1120053E-03  0.1383328E+04  0.7818609E-02  0.8965976E-01
       -2   -1    0    0    0  501  0.00000000000E+00  0.00000000000E+00  0.48112090097E+03  0.48112090098E+03  0.25500000920E-02 0.  1.
        2   -1    0    0  501    0  0.00000000000E+00  0.00000000000E+00 -0.99434295985E+03  0.99434295985E+03  0.25500000920E-02 0. -1.
    10030    2    1    2    0    0  0.00000000000E+00  0.00000000000E+00 -0.51322205888E+03  0.14754638608E+04  0.13833281328E+04 0.  0.
        2    1    3    3  502    0 -0.63567225060E+03 -0.25816427910E+03 -0.35002983868E+03  0.77022652068E+03  0.25500000920E-02 0. -1.
       -2    1    3    3    0  502  0.63567225060E+03  0.25816427910E+03 -0.16319222020E+03  0.70523734014E+03  0.25500000920E-02 0.  1.
</event>
<event>
 5   0  0.1095119E-03  0.1490159E+04  0.7818609E-02  0.8891024E-01
       -2   -1    0    0    0  501  0.00000000000E+00  0.00000000000E+00  0.13387500747E+04  0.13387500747E+04  0.25500000920E-02 0. -1.
        2   -1    0    0  501    0  0.00000000000E+00  0.00000000000E+00 -0.41467274172E+03  0.41467274173E+03  0.25500000920E-02 0.  1.
    10030    2    1    2    0    0  0.00000000000E+00  0.00000000000E+00  0.92407733296E+03  0.17534228164E+04  0.14901586009E+04 0.  0.
        5    1    3    3  502    0 -0.39677256104E+03 -0.30444510540E+03  0.11118812984E+04  0.12191871879E+04  0.46999998093E+01 0. -1.
       -5    1    3    3    0  502  0.39677256104E+03  0.30444510540E+03 -0.18780396541E+03  0.53423562855E+03  0.46999998093E+01 0.  1.
</event>
<event>
 5   0  0.1098949E-03  0.1396046E+04  0.7818609E-02  0.8956686E-01
        2   -1    0    0  501    0  0.00000000000E+00  0.00000000000E+00  0.61789943743E+03  0.61789943744E+03  0.25500000920E-02 0. -1.
       -2   -1    0    0    0  501  0.00000000000E+00  0.00000000000E+00 -0.78853642341E+03  0.78853642342E+03  0.25500000920E-02 0.  1.
    10030    2    1    2    0    0  0.00000000000E+00  0.00000000000E+00 -0.17063698598E+03  0.14064358609E+04  0.13960461488E+04 0.  0.
        4    1    3    3  502    0  0.37416613949E+03 -0.42139421026E+03 -0.50028347411E+03  0.75356389759E+03  0.12699999809E+01 0.  1.
       -4    1    3    3    0  502 -0.37416613949E+03  0.42139421026E+03  0.32964648813E+03  0.65287196326E+03  0.12699999809E+01 0. -1.
</event>
<event>
 5   0  0.1120053E-03  0.1408356E+04  0.7818609E-02  0.8947792E-01
       -2   -1    0    0    0  501  0.00000000000E+00  0.00000000000E+00  0.33694926826E+03  0.33694926827E+03  0.25500000920E-02 0. -1.
        2   -1    0    0  501    0  0.00000000000E+00  0.00000000000E+00 -0.14716368828E+04  0.14716368828E+04  0.25500000920E-02 0.  1.
    10030    2    1    2    0    0  0.00000000000E+00  0.00000000000E+00 -0.11346876146E+04  0.18085861511E+04  0.14083564475E+04 0.  0.
        2    1    3    3  502    0  0.45356230679E+03  0.53613904138E+03 -0.50057704422E+03  0.86240432225E+03  0.25500000920E-02 0. -1.
       -2    1    3    3    0  502 -0.45356230679E+03 -0.53613904138E+03 -0.63411057036E+03  0.94618182887E+03  0.25500000920E-02 0.  1.
</event>
<event>
 5   0  0.4176125E-04  0.1361361E+04  0.7818609E-02  0.8982272E-01
        4   -1    0    0  501    0  0.00000000000E+00  0.00000000000E+00  0.67222271263E+03  0.67222391231E+03  0.12699999809E+01 0. -1.
       -4   -1    0    0    0  501  0.00000000000E+00  0.00000000000E+00 -0.68924267622E+03  0.68924384627E+03  0.12699999809E+01 0.  1.
    10030    2    1    2    0    0  0.00000000000E+00  0.00000000000E+00 -0.17019963588E+02  0.13614677586E+04  0.13613613696E+04 0.  0.
        2    1    3    3  502    0  0.32928439317E+03 -0.41837687490E+03  0.41562076013E+03  0.67543174141E+03  0.25500000920E-02 0. -1.
       -2    1    3    3    0  502 -0.32928439317E+03  0.41837687490E+03 -0.43264072372E+03  0.68603601718E+03  0.25500000920E-02 0.  1.
</event>
<event>
 5   0  0.5875298E-04  0.1417603E+04  0.7818609E-02  0.8941174E-01
       -1   -1    0    0    0  501  0.00000000000E+00  0.00000000000E+00  0.41242489603E+03  0.41242489606E+03  0.50400001928E-02 0.  1.
        1   -1    0    0  501    0  0.00000000000E+00  0.00000000000E+00 -0.12181604635E+04  0.12181604635E+04  0.50400001928E-02 0. -1.
    10030    2    1    2    0    0  0.00000000000E+00  0.00000000000E+00 -0.80573556748E+03  0.16305853596E+04  0.14176031921E+04 0.  0.
        1    1    3    3  502    0 -0.34290234200E+03 -0.34352233689E+03 -0.99700941077E+03  0.11088811376E+04  0.50400001928E-02 0. -1.
       -1    1    3    3    0  502  0.34290234200E+03  0.34352233689E+03  0.19127384330E+03  0.52170422199E+03  0.50400001928E-02 0.  1.
</event>
<event>
 5   0  0.1108819E-03  0.1375172E+04  0.7818609E-02  0.8971989E-01
        2   -1    0    0  501    0  0.00000000000E+00  0.00000000000E+00  0.97151842811E+03  0.97151842811E+03  0.25500000920E-02 0. -1.
       -2   -1    0    0    0  501  0.00000000000E+00  0.00000000000E+00 -0.48663435370E+03  0.48663435371E+03  0.25500000920E-02 0.  1.
    10030    2    1    2    0    0  0.00000000000E+00  0.00000000000E+00  0.48488407441E+03  0.14581527818E+04  0.13751716146E+04 0.  0.
        3    1    3    3  502    0  0.85862014314E+02 -0.41891877882E+03 -0.32848023150E+03  0.53922583529E+03  0.10100000352E+00 0.  1.
       -3    1    3    3    0  502 -0.85862014314E+02  0.41891877882E+03  0.81336430590E+03  0.91892694654E+03  0.10100000352E+00 0. -1.
</event>
<event>
 5   0  0.5875298E-04  0.1401617E+04  0.7818609E-02  0.8952649E-01
        1   -1    0    0  501    0  0.00000000000E+00  0.00000000000E+00  0.75264017943E+03  0.75264017944E+03  0.50400001928E-02 0.  1.
       -1   -1    0    0    0  501  0.00000000000E+00  0.00000000000E+00 -0.65254620134E+03  0.65254620135E+03  0.50400001928E-02 0. -1.
    10030    2    1    2    0    0  0.00000000000E+00  0.00000000000E+00  0.10009397809E+03  0.14051863808E+04  0.14016169093E+04 0.  0.
        1    1    3    3  502    0 -0.20963858347E+03  0.55009959123E+03  0.43124497249E+03  0.72974661511E+03  0.50400001928E-02 0.  1.
       -1    1    3    3    0  502  0.20963858347E+03 -0.55009959123E+03 -0.33115099440E+03  0.67543976568E+03  0.50400001928E-02 0. -1.
</event>
<event>
 5   0  0.1120053E-03  0.1382827E+04  0.7818609E-02  0.8966344E-01
       -2   -1    0    0    0  501  0.00000000000E+00  0.00000000000E+00  0.43479081959E+03  0.43479081960E+03  0.25500000920E-02 0.  1.
        2   -1    0    0  501    0  0.00000000000E+00  0.00000000000E+00 -0.10994996559E+04  0.10994996559E+04  0.25500000920E-02 0. -1.
    10030    2    1    2    0    0  0.00000000000E+00  0.00000000000E+00 -0.66470883633E+03  0.15342904755E+04  0.13828266074E+04 0.  0.
        2    1    3    3  502    0  0.61378570280E+03 -0.24140707882E+03 -0.56254446256E+03  0.86687169698E+03  0.25500000920E-02 0.  1.
       -2    1    3    3    0  502 -0.61378570280E+03  0.24140707882E+03 -0.10216437377E+03  0.66741877853E+03  0.25500000920E-02 0. -1.
</event>
<event>
 5   0  0.1095119E-03  0.1403773E+04  0.7818609E-02  0.8951092E-01
        2   -1    0    0  501    0  0.00000000000E+00  0.00000000000E+00  0.14856993284E+04  0.14856993284E+04  0.25500000920E-02 0.  1.
       -2   -1    0    0    0  501  0.00000000000E+00  0.00000000000E+00 -0.33159130042E+03  0.33159130043E+03  0.25500000920E-02 0. -1.
    10030    2    1    2    0    0  0.00000000000E+00  0.00000000000E+00  0.11541080280E+04  0.18172906288E+04  0.14037734466E+04 0.  0.
        5    1    3    3  502    0  0.75668648960E+02 -0.34462761408E+03  0.13625199355E+04  0.14074717054E+04  0.46999998093E+01 0.  1.
       -5    1    3    3    0  502 -0.75668648960E+02  0.34462761408E+03 -0.20841190752E+03  0.40981892345E+03  0.46999998093E+01 0. -1.
</event>
<event>
 5   0  0.5875298E-04  0.1385952E+04  0.7818609E-02  0.8964050E-01
       -1   -1    0    0    0  501  0.00000000000E+00  0.00000000000E+00  0.52537626226E+03  0.52537626228E+03  0.50400001928E-02 0.  1.
        1   -1    0    0  501    0  0.00000000000E+00  0.00000000000E+00 -0.91404192425E+03  0.91404192427E+03  0.50400001928E-02 0. -1.
    10030    2    1    2    0    0  0.00000000000E+00  0.00000000000E+00 -0.38866566199E+03  0.14394181865E+04  0.13859522787E+04 0.  0.
        1    1    3    3  502    0  0.85270782497E+02  0.37681000749E+03 -0.79181621741E+03  0.88103905150E+03  0.50400001928E-02 0. -1.
       -1    1    3    3    0  502 -0.85270782497E+02 -0.37681000749E+03  0.40315055542E+03  0.55837913504E+03  0.50400001928E-02 0.  1.
</event>
<event>
 5   0  0.5875298E-04  0.1420771E+04  0.7818609E-02  0.8938919E-01
       -1   -1    0    0    0  501  0.00000000000E+00  0.00000000000E+00  0.33327231909E+03  0.33327231913E+03  0.50400001928E-02 0. -1.
        1   -1    0    0  501    0  0.00000000000E+00  0.00000000000E+00 -0.15142198142E+04  0.15142198142E+04  0.50400001928E-02 0.  1.
    10030    2    1    2    0    0  0.00000000000E+00  0.00000000000E+00 -0.11809474951E+04  0.18474921334E+04  0.14207709867E+04 0.  0.
        1    1    3    3  502    0  0.65122080691E+02 -0.82475902081E+02  0.32310928365E+03  0.33976869930E+03  0.50400001928E-02 0. -1.
       -1    1    3    3    0  502 -0.65122080691E+02  0.82475902081E+02 -0.15040567788E+04  0.15077234341E+04  0.50400001928E-02 0.  1.
</event>
<event>
 5   0  0.6153318E-04  0.1444211E+04  0.7818609E-02  0.8922424E-01
       -1   -1    0    0    0  501  0.00000000000E+00  0.00000000000E+00  0.47516349465E+03  0.47516349467E+03  0.50400001928E-02 0.  1.
        1   -1    0    0  501    0  0.00000000000E+00  0.00000000000E+00 -0.10973831951E+04  0.10973831952E+04  0.50400001928E-02 0. -1.
    10030    2    1    2    0    0  0.00000000000E+00  0.00000000000E+00 -0.62221970050E+03  0.15725466898E+04  0.14442111120E+04 0.  0.
        5    1    3    3  502    0  0.34400512836E+03  0.10790210274E+03 -0.99235120398E+03  0.10558245092E+04  0.46999998093E+01 0. -1.
       -5    1    3    3    0  502 -0.34400512836E+03 -0.10790210274E+03  0.37013150349E+03  0.51672218066E+03  0.46999998093E+01 0.  1.
</event>
<event>
 5   0  0.4176125E-04  0.1385770E+04  0.7818609E-02  0.8964184E-01
        3   -1    0    0  501    0  0.00000000000E+00  0.00000000000E+00  0.69331171873E+03  0.69331172609E+03  0.10100000352E+00 0. -1.
       -3   -1    0    0    0  501  0.00000000000E+00  0.00000000000E+00 -0.69245868817E+03  0.69245869554E+03  0.10100000352E+00 0.  1.
    10030    2    1    2    0    0  0.00000000000E+00  0.00000000000E+00  0.85303055902E+00  0.13857704216E+04  0.13857701591E+04 0.  0.
        3    1    3    3  502    0 -0.30782794915E+03  0.32790049081E+03 -0.52665322286E+03  0.69256075943E+03  0.10100000352E+00 0.  1.
       -3    1    3    3    0  502  0.30782794915E+03 -0.32790049081E+03  0.52750625342E+03  0.69320966219E+03  0.10100000352E+00 0. -1.
</event>
<event>
 5   0  0.4176125E-04  0.1413536E+04  0.7818609E-02  0.8944078E-01
        3   -1    0    0  501    0  0.00000000000E+00  0.00000000000E+00  0.68608962760E+03  0.68608963503E+03  0.10100000352E+00 0. -1.
       -3   -1    0    0    0  501  0.00000000000E+00  0.00000000000E+00 -0.72806963583E+03  0.72806964284E+03  0.10100000352E+00 0.  1.
    10030    2    1    2    0    0  0.00000000000E+00  0.00000000000E+00 -0.41980008237E+02  0.14141592779E+04  0.14135360420E+04 0.  0.
        4    1    3    3  502    0  0.54311600528E+03 -0.55207179667E+02  0.42809163193E+03  0.69374843143E+03  0.12699999809E+01 0. -1.
       -4    1    3    3    0  502 -0.54311600528E+03  0.55207179667E+02 -0.47007164017E+03  0.72041084644E+03  0.12699999809E+01 0.  1.
</event>
<event>
 5   0  0.6114266E-04  0.1394700E+04  0.7818609E-02  0.8957664E-01
       -1   -1    0    0    0  501  0.00000000000E+00  0.00000000000E+00  0.66254418049E+03  0.66254418051E+03  0.50400001928E-02 0.  1.
        1   -1    0    0  501    0  0.00000000000E+00  0.00000000000E+00 -0.73398467267E+03  0.73398467269E+03  0.50400001928E-02 0. -1.
    10030    2    1    2    0    0  0.00000000000E+00  0.00000000000E+00 -0.71440492180E+02  0.13965288532E+04  0.13947003599E+04 0.  0.
        3    1    3    3  502    0 -0.59001993398E+03 -0.20986281506E+03 -0.34293079171E+03  0.71398001495E+03  0.10100000352E+00 0. -1.
       -3    1    3    3    0  502  0.59001993398E+03  0.20986281506E+03  0.27149029953E+03  0.68254883824E+03  0.10100000352E+00 0.  1.
</event>
<event>
 5   0  0.1095119E-03  0.1396298E+04  0.7818609E-02  0.8956503E-01
        2   -1    0    0  501    0  0.00000000000E+00  0.00000000000E+00  0.17586463895E+04  0.17586463895E+04  0.25500000920E-02 0.  1.
       -2   -1    0    0    0  501  0.00000000000E+00  0.00000000000E+00 -0.27715179336E+03  0.27715179337E+03  0.25500000920E-02 0. -1.
    10030    2    1    2    0    0  0.00000000000E+00  0.00000000000E+00  0.14814945962E+04  0.20357981829E+04  0.13962979635E+04 0.  0.
        5    1    3    3  502    0 -0.28743909483E+03 -0.59195537387E+03  0.40081971501E+03  0.77052639918E+03  0.46999998093E+01 0. -1.
       -5    1    3    3    0  502  0.28743909483E+03  0.59195537387E+03  0.10806748811E+04  0.12652717837E+04  0.46999998093E+01 0.  1.
</event>
<event>
 5   0  0.4176125E-04  0.1394015E+04  0.7818609E-02  0.8958162E-01
        3   -1    0    0  501    0  0.00000000000E+00  0.00000000000E+00  0.48799175748E+03  0.48799176793E+03  0.10100000352E+00 0. -1.
       -3   -1    0    0    0  501  0.00000000000E+00  0.00000000000E+00 -0.99554791993E+03  0.99554792505E+03  0.10100000352E+00 0.  1.
    10030    2    1    2    0    0  0.00000000000E+00  0.00000000000E+00 -0.50755616245E+03  0.14835396930E+04  0.13940146207E+04 0.  0.
        4    1    3    3  502    0 -0.63649901673E+03  0.23803046869E+03 -0.41874290034E+03  0.79820845135E+03  0.12699999809E+01 0.  1.
       -4    1    3    3    0  502  0.63649901673E+03 -0.23803046869E+03 -0.88813262109E+02  0.68533124163E+03  0.12699999809E+01 0. -1.
</event>
<event>
 5   0  0.1095119E-03  0.1409930E+04  0.7818609E-02  0.8946662E-01
       -2   -1    0    0    0  501  0.00000000000E+00  0.00000000000E+00  0.62971545815E+03  0.62971545815E+03  0.25500000920E-02 0. -1.
        2   -1    0    0  501    0  0.00000000000E+00  0.00000000000E+00 -0.78920645166E+03  0.78920645167E+03  0.25500000920E-02 0.  1.
    10030    2    1    2    0    0  0.00000000000E+00  0.00000000000E+00 -0.15949099351E+03  0.14189219098E+04  0.14099297887E+04 0.  0.
        5    1    3    3  502    0 -0.63920914179E+03 -0.23971293071E+03  0.97167564434E+02  0.68957540681E+03  0.46999998093E+01 0. -1.
       -5    1    3    3    0  502  0.63920914179E+03  0.23971293071E+03 -0.25665855795E+03  0.72934650302E+03  0.46999998093E+01 0.  1.
</event>
<event>
 5   0  0.5875298E-04  0.1397208E+04  0.7818609E-02  0.8955842E-01
        1   -1    0    0  501    0  0.00000000000E+00  0.00000000000E+00  0.17518747987E+04  0.17518747987E+04  0.50400001928E-02 0.  1.
       -1   -1    0    0    0  501  0.00000000000E+00  0.00000000000E+00 -0.27858573229E+03  0.27858573233E+03  0.50400001928E-02 0. -1.
    10030    2    1    2    0    0  0.00000000000E+00  0.00000000000E+00  0.14732890664E+04  0.20304605310E+04  0.13972076778E+04 0.  0.
        1    1    3    3  502    0  0.49258512006E+03 -0.39015542612E+03  0.11802622127E+04  0.13371163928E+04  0.50400001928E-02 0.  1.
       -1    1    3    3    0  502 -0.49258512006E+03  0.39015542612E+03  0.29302685367E+03  0.69334413824E+03  0.50400001928E-02 0. -1.
</event>
<event>
 5   0  0.6153318E-04  0.1405950E+04  0.7818609E-02  0.8949523E-01
       -1   -1    0    0    0  501  0.00000000000E+00  0.00000000000E+00  0.16647066626E+04  0.16647066626E+04  0.50400001928E-02 0. -1.
        1   -1    0    0  501    0  0.00000000000E+00  0.00000000000E+00 -0.29685349903E+03  0.29685349907E+03  0.50400001928E-02 0.  1.
    10030    2    1    2    0    0  0.00000000000E+00  0.00000000000E+00  0.13678531636E+04  0.19615601617E+04  0.14059502092E+04 0.  0.
        5    1    3    3  502    0  0.49042037194E+03 -0.20222996235E+03  0.13274422661E+04  0.14295223533E+04  0.46999998093E+01 0. -1.
       -5    1    3    3    0  502 -0.49042037194E+03  0.20222996235E+03  0.40410897493E+02  0.53203780836E+03  0.46999998093E+01 0.  1.
</event>
<event>
 5   0  0.1108819E-03  0.1381774E+04  0.7818609E-02  0.8967118E-01
       -2   -1    0    0    0  501  0.00000000000E+00  0.00000000000E+00  0.51340929216E+03  0.51340929217E+03  0.25500000920E-02 0. -1.
        2   -1    0    0  501    0  0.00000000000E+00  0.00000000000E+00 -0.92971537411E+03  0.92971537412E+03  0.25500000920E-02 0.  1.
    10030    2    1    2    0    0  0.00000000000E+00  0.00000000000E+00 -0.41630608195E+03  0.14431246663E+04  0.13817735157E+04 0.  0.
        3    1    3    3  502    0 -0.35422550786E+03 -0.49155685303E+03 -0.55488867220E+03  0.82158706107E+03  0.10100000352E+00 0.  1.
       -3    1    3    3    0  502  0.35422550786E+03  0.49155685303E+03  0.13858259025E+03  0.62153760522E+03  0.10100000352E+00 0. -1.
</event>
<event>
 5   0  0.1095119E-03  0.1409417E+04  0.7818609E-02  0.8947030E-01
       -2   -1    0    0    0  501  0.00000000000E+00  0.00000000000E+00  0.77494757077E+03  0.77494757077E+03  0.25500000920E-02 0.  1.
        2   -1    0    0  501    0  0.00000000000E+00  0.00000000000E+00 -0.64083547884E+03  0.64083547885E+03  0.25500000920E-02 0. -1.
    10030    2    1    2    0    0  0.00000000000E+00  0.00000000000E+00  0.13411209193E+03  0.14157830496E+04  0.14094167554E+04 0.  0.
        5    1    3    3  502    0 -0.19193087209E+03  0.23420458797E+03  0.70624982422E+03  0.76844007762E+03  0.46999998093E+01 0.  1.
       -5    1    3    3    0  502  0.19193087209E+03 -0.23420458797E+03 -0.57213773229E+03  0.64734297200E+03  0.46999998093E+01 0. -1.
</event>
<event>
 5   0  0.4176125E-04  0.1424229E+04  0.7818609E-02  0.8936465E-01
       -3   -1    0    0    0  501  0.00000000000E+00  0.00000000000E+00  0.80764505299E+03  0.80764505931E+03  0.10100000352E+00 0.  1.
        3   -1    0    0  501    0  0.00000000000E+00  0.00000000000E+00 -0.62788329963E+03  0.62788330776E+03  0.10100000352E+00 0. -1.
    10030    2    1    2    0    0  0.00000000000E+00  0.00000000000E+00  0.17976175336E+03  0.14355283671E+04  0.14242287052E+04 0.  0.
        4    1    3    3  502    0  0.44386924936E+03 -0.16810154655E+03  0.62496676235E+03  0.78476946132E+03  0.12699999809E+01 0.  1.
       -4    1    3    3    0  502 -0.44386924936E+03  0.16810154655E+03 -0.44520500899E+03  0.65075890575E+03  0.12699999809E+01 0. -1.
</event>
<event>
 5   0  0.1098949E-03  0.1411424E+04  0.7818609E-02  0.8945591E-01
       -2   -1    0    0    0  501  0.00000000000E+00  0.00000000000E+00  0.65023946161E+03  0.65023946161E+03  0.25500000920E-02 0. -1.
        2   -1    0    0  501    0  0.00000000000E+00  0.00000000000E+00 -0.76591688084E+03  0.76591688085E+03  0.25500000920E-02 0.  1.
    10030    2    1    2    0    0  0.00000000000E+00  0.00000000000E+00 -0.11567741924E+03  0.14161563425E+04  0.14114239338E+04 0.  0.
        4    1    3    3  502    0 -0.25775081404E+03 -0.46643972590E+03 -0.52201960594E+03  0.74599435784E+03  0.12699999809E+01 0.  1.
       -4    1    3    3    0  502  0.25775081404E+03  0.46643972590E+03  0.40634218671E+03  0.67016198462E+03  0.12699999809E+01 0. -1.
</event>
<event>
 5   0  0.5875298E-04  0.1400564E+04  0.7818609E-02  0.8953410E-01
        1   -1    0    0  501    0  0.00000000000E+00  0.00000000000E+00  0.72975363093E+03  0.72975363094E+03  0.50400001928E-02 0.  1.
       -1   -1    0    0    0  501  0.00000000000E+00  0.00000000000E+00 -0.67200097672E+03  0.67200097674E+03  0.50400001928E-02 0. -1.
    10030    2    1    2    0    0  0.00000000000E+00  0.00000000000E+00  0.57752654207E+02  0.14017546077E+04  0.14005643902E+04 0.  0.
        1    1    3    3  502    0  0.33643295843E+03 -0.21398034867E+03  0.60505681755E+03  0.72461608982E+03  0.50400001928E-02 0.  1.
       -1    1    3    3    0  502 -0.33643295843E+03  0.21398034867E+03 -0.54730416335E+03  0.67713851786E+03  0.50400001928E-02 0. -1.
</event>
<event>
 5   0  0.6194742E-04  0.1427771E+04  0.7818609E-02  0.8933958E-01
       -1   -1    0    0    0  501  0.00000000000E+00  0.00000000000E+00  0.16775364817E+04  0.16775364817E+04  0.50400001928E-02 0. -1.
        1   -1    0    0  501    0  0.00000000000E+00  0.00000000000E+00 -0.30379814216E+03  0.30379814220E+03  0.50400001928E-02 0.  1.
    10030    2    1    2    0    0  0.00000000000E+00  0.00000000000E+00  0.13737383395E+04  0.19813346239E+04  0.14277709433E+04 0.  0.
        4    1    3    3  502    0  0.35584140343E+03 -0.19430413970E+03 -0.12852655352E+03  0.42532092702E+03  0.12699999809E+01 0.  1.
       -4    1    3    3    0  502 -0.35584140343E+03  0.19430413970E+03  0.15022648931E+04  0.15560136969E+04  0.12699999809E+01 0. -1.
</event>
<event>
 5   0  0.6194742E-04  0.1464392E+04  0.7818609E-02  0.8908483E-01
       -1   -1    0    0    0  501  0.00000000000E+00  0.00000000000E+00  0.57762923987E+03  0.57762923989E+03  0.50400001928E-02 0. -1.
        1   -1    0    0  501    0  0.00000000000E+00  0.00000000000E+00 -0.92812266992E+03  0.92812266994E+03  0.50400001928E-02 0.  1.
    10030    2    1    2    0    0  0.00000000000E+00  0.00000000000E+00 -0.35049343005E+03  0.15057519098E+04  0.14643917404E+04 0.  0.
        4    1    3    3  502    0 -0.35093014240E+03  0.23213132738E+03  0.44090417545E+03  0.60945469300E+03  0.12699999809E+01 0. -1.
       -4    1    3    3    0  502  0.35093014240E+03 -0.23213132738E+03 -0.79139760550E+03  0.89629721683E+03  0.12699999809E+01 0.  1.
</event>
<event>
 5   0  0.6194742E-04  0.1390851E+04  0.7818609E-02  0.8960468E-01
       -1   -1    0    0    0  501  0.00000000000E+00  0.00000000000E+00  0.11484408389E+04  0.11484408389E+04  0.50400001928E-02 0.  1.
        1   -1    0    0  501    0  0.00000000000E+00  0.00000000000E+00 -0.42110716799E+03  0.42110716802E+03  0.50400001928E-02 0. -1.
    10030    2    1    2    0    0  0.00000000000E+00  0.00000000000E+00  0.72733367088E+03  0.15695480069E+04  0.13908510622E+04 0.  0.
        4    1    3    3  502    0  0.19193237991E+03 -0.17854299653E+03 -0.36321763288E+03  0.44793336759E+03  0.12699999809E+01 0. -1.
       -4    1    3    3    0  502 -0.19193237991E+03  0.17854299653E+03  0.10905513038E+04  0.11216146393E+04  0.12699999809E+01 0.  1.
</event>
<event>
 5   0  0.5875298E-04  0.1395636E+04  0.7818609E-02  0.8956983E-01
       -1   -1    0    0    0  501  0.00000000000E+00  0.00000000000E+00  0.29534426935E+03  0.29534426939E+03  0.50400001928E-02 0. -1.
        1   -1    0    0  501    0  0.00000000000E+00  0.00000000000E+00 -0.16487542405E+04  0.16487542405E+04  0.50400001928E-02 0.  1.
    10030    2    1    2    0    0  0.00000000000E+00  0.00000000000E+00 -0.13534099711E+04  0.19440985099E+04  0.13956362227E+04 0.  0.
        1    1    3    3  502    0  0.58993447848E+03  0.32258110067E+03 -0.93681969724E+03  0.11531315626E+04  0.50400001928E-02 0.  1.
       -1    1    3    3    0  502 -0.58993447848E+03 -0.32258110067E+03 -0.41659027389E+03  0.79096694731E+03  0.50400001928E-02 0. -1.
</event>
<event>
 5   0  0.6153318E-04  0.1406290E+04  0.7818609E-02  0.8949278E-01
       -1   -1    0    0    0  501  0.00000000000E+00  0.00000000000E+00  0.47451344648E+03  0.47451344650E+03  0.50400001928E-02 0.  1.
        1   -1    0    0  501    0  0.00000000000E+00  0.00000000000E+00 -0.10419367185E+04  0.10419367185E+04  0.50400001928E-02 0. -1.
    10030    2    1    2    0    0  0.00000000000E+00  0.00000000000E+00 -0.56742327203E+03  0.15164501650E+04  0.14062901313E+04 0.  0.
        5    1    3    3  502    0  0.47857099397E+03 -0.14388952445E+03  0.24966206046E+03  0.55864803405E+03  0.46999998093E+01 0.  1.
       -5    1    3    3    0  502 -0.47857099397E+03  0.14388952445E+03 -0.81708533249E+03  0.95780213097E+03  0.46999998093E+01 0. -1.
</event>
<event>
 5   0  0.1098949E-03  0.1384714E+04  0.7818609E-02  0.8964958E-01
       -2   -1    0    0    0  501  0.00000000000E+00  0.00000000000E+00  0.35065817437E+03  0.35065817438E+03  0.25500000920E-02 0.  1.
        2   -1    0    0  501    0  0.00000000000E+00  0.00000000000E+00 -0.13670239316E+04  0.13670239316E+04  0.25500000920E-02 0. -1.
    10030    2    1    2    0    0  0.00000000000E+00  0.00000000000E+00 -0.10163657572E+04  0.17176821059E+04  0.13847138566E+04 0.  0.
        4    1    3    3  502    0  0.21905781336E+03  0.65228516641E+03 -0.60341788983E+03  0.91519234403E+03  0.12699999809E+01 0.  1.
       -4    1    3    3    0  502 -0.21905781336E+03 -0.65228516641E+03 -0.41294786736E+03  0.80248976191E+03  0.12699999809E+01 0. -1.
</event>
<event>
 5   0  0.6153318E-04  0.1407315E+04  0.7818609E-02  0.8948541E-01
       -1   -1    0    0    0  501  0.00000000000E+00  0.00000000000E+00  0.25063098835E+03  0.25063098840E+03  0.50400001928E-02 0. -1.
        1   -1    0    0  501    0  0.00000000000E+00  0.00000000000E+00 -0.19755480186E+04  0.19755480186E+04  0.50400001928E-02 0.  1.
    10030    2    1    2    0    0  0.00000000000E+00  0.00000000000E+00 -0.17249170302E+04  0.22261790070E+04  0.14073145384E+04 0.  0.
        5    1    3    3  502    0 -0.55432634913E+02  0.20588878077E+03  0.19827302156E+03  0.29119967057E+03  0.46999998093E+01 0. -1.
       -5    1    3    3    0  502  0.55432634913E+02 -0.20588878077E+03 -0.19231900518E+04  0.19349793364E+04  0.46999998093E+01 0.  1.
</event>
<event>
 5   0  0.1098949E-03  0.1399042E+04  0.7818609E-02  0.8954513E-01
        2   -1    0    0  501    0  0.00000000000E+00  0.00000000000E+00  0.59598142301E+03  0.59598142302E+03  0.25500000920E-02 0. -1.
       -2   -1    0    0    0  501  0.00000000000E+00  0.00000000000E+00 -0.82104810909E+03  0.82104810909E+03  0.25500000920E-02 0.  1.
    10030    2    1    2    0    0  0.00000000000E+00  0.00000000000E+00 -0.22506668608E+03  0.14170295321E+04  0.13990417012E+04 0.  0.
        4    1    3    3  502    0 -0.64507584794E+03 -0.26233735003E+03 -0.17959698214E+03  0.71916647843E+03  0.12699999809E+01 0.  1.
       -4    1    3    3    0  502  0.64507584794E+03  0.26233735003E+03 -0.45469703938E+02  0.69786305368E+03  0.12699999809E+01 0. -1.
</event>
<event>
 5   0  0.5875298E-04  0.1393638E+04  0.7818609E-02  0.8958437E-01
       -1   -1    0    0    0  501  0.00000000000E+00  0.00000000000E+00  0.39923242666E+03  0.39923242670E+03  0.50400001928E-02 0. -1.
        1   -1    0    0  501    0  0.00000000000E+00  0.00000000000E+00 -0.12162250588E+04  0.12162250588E+04  0.50400001928E-02 0.  1.
    10030    2    1    2    0    0  0.00000000000E+00  0.00000000000E+00 -0.81699263214E+03  0.16154574855E+04  0.13936376597E+04 0.  0.
        1    1    3    3  502    0 -0.69632989685E+03 -0.11550300338E+02 -0.38136720078E+03  0.79400861238E+03  0.50400001928E-02 0. -1.
       -1    1    3    3    0  502  0.69632989685E+03  0.11550300338E+02 -0.43562543136E+03  0.82144887313E+03  0.50400001928E-02 0.  1.
</event>
<event>
 5   0  0.1175146E-03  0.1433225E+04  0.7818609E-02  0.8930113E-01
       -2   -1    0    0    0  501  0.00000000000E+00  0.00000000000E+00  0.74145216632E+03  0.74145216632E+03  0.25500000920E-02 0. -1.
        2   -1    0    0  501    0  0.00000000000E+00  0.00000000000E+00 -0.69260521038E+03  0.69260521038E+03  0.25500000920E-02 0.  1.
    10030    2    1    2    0    0  0.00000000000E+00  0.00000000000E+00  0.48846955938E+02  0.14340573767E+04  0.14332252212E+04 0.  0.
        1    1    3    3  502    0  0.58887106401E+03  0.36049617579E+03 -0.16753944768E+03  0.71049003465E+03  0.50400001928E-02 0.  1.
       -1    1    3    3    0  502 -0.58887106401E+03 -0.36049617579E+03  0.21638640361E+03  0.72356734205E+03  0.50400001928E-02 0. -1.
</event>
<event>
 5   0  0.6114266E-04  0.1395147E+04  0.7818609E-02  0.8957339E-01
        1   -1    0    0  501    0  0.00000000000E+00  0.00000000000E+00  0.15420698474E+04  0.15420698474E+04  0.50400001928E-02 0.  1.
       -1   -1    0    0    0  501  0.00000000000E+00  0.00000000000E+00 -0.31555564771E+03  0.31555564775E+03  0.50400001928E-02 0. -1.
    10030    2    1    2    0    0  0.00000000000E+00  0.00000000000E+00  0.12265141997E+04  0.18576254952E+04  0.13951470884E+04 0.  0.
        3    1    3    3  502    0 -0.68825683677E+03  0.62276532629E+02  0.48670942835E+03  0.84525849166E+03  0.10100000352E+00 0.  1.
       -3    1    3    3    0  502  0.68825683677E+03 -0.62276532629E+02  0.73980477135E+03  0.10123670035E+04  0.10100000352E+00 0. -1.
</event>
<event>
 5   0  0.1120053E-03  0.1438811E+04  0.7818609E-02  0.8926195E-01
        2   -1    0    0  501    0  0.00000000000E+00  0.00000000000E+00  0.11656124166E+04  0.11656124166E+04  0.25500000920E-02 0. -1.
       -2   -1    0    0    0  501  0.00000000000E+00  0.00000000000E+00 -0.44401049028E+03  0.44401049029E+03  0.25500000920E-02 0.  1.
    10030    2    1    2    0    0  0.00000000000E+00  0.00000000000E+00  0.72160192634E+03  0.16096229069E+04  0.14388108153E+04 0.  0.
        2    1    3    3  502    0  0.40869532797E+02  0.52077928540E+03  0.91415665773E+03  0.10528835537E+04  0.25500000920E-02 0.  1.
       -2    1    3    3    0  502 -0.40869532797E+02 -0.52077928540E+03 -0.19255473139E+03  0.55673935320E+03  0.25500000920E-02 0. -1.
</event>
<event>
 5   0  0.5875298E-04  0.1395260E+04  0.7818609E-02  0.8957257E-01
        1   -1    0    0  501    0  0.00000000000E+00  0.00000000000E+00  0.55771925472E+03  0.55771925474E+03  0.50400001928E-02 0. -1.
       -1   -1    0    0    0  501  0.00000000000E+00  0.00000000000E+00 -0.87263886544E+03  0.87263886545E+03  0.50400001928E-02 0.  1.
    10030    2    1    2    0    0  0.00000000000E+00  0.00000000000E+00 -0.31491961072E+03  0.14303581202E+04  0.13952598291E+04 0.  0.
        1    1    3    3  502    0  0.35585529576E+03  0.24846969765E+02 -0.77207199115E+03  0.85049722103E+03  0.50400001928E-02 0.  1.
       -1    1    3    3    0  502 -0.35585529576E+03 -0.24846969765E+02  0.45715238044E+03  0.57986089917E+03  0.50400001928E-02 0. -1.
</event>
<event>
 5   0  0.6114266E-04  0.1405079E+04  0.7818609E-02  0.8950151E-01
       -1   -1    0    0    0  501  0.00000000000E+00  0.00000000000E+00  0.16993388488E+04  0.16993388488E+04  0.50400001928E-02 0.  1.
        1   -1    0    0  501    0  0.00000000000E+00  0.00000000000E+00 -0.29044326245E+03  0.29044326250E+03  0.50400001928E-02 0. -1.
    10030    2    1    2    0    0  0.00000000000E+00  0.00000000000E+00  0.14088955863E+04  0.19897821113E+04  0.14050786729E+04 0.  0.
        3    1    3    3  502    0 -0.73569318973E+02 -0.23780597715E+03  0.16347933350E+04  0.16536364129E+04  0.10100000352E+00 0.  1.
       -3    1    3    3    0  502  0.73569318973E+02  0.23780597715E+03 -0.22589774874E+03  0.33614569839E+03  0.10100000352E+00 0. -1.
</event>
<event>
 5   0  0.5875298E-04  0.1413931E+04  0.7818609E-02  0.8943796E-01
        1   -1    0    0  501    0  0.00000000000E+00  0.00000000000E+00  0.79716786777E+03  0.79716786779E+03  0.50400001928E-02 0.  1.
       -1   -1    0    0    0  501  0.00000000000E+00  0.00000000000E+00 -0.62696969489E+03  0.62696969491E+03  0.50400001928E-02 0. -1.
    10030    2    1    2    0    0  0.00000000000E+00  0.00000000000E+00  0.17019817288E+03  0.14241375627E+04  0.14139308256E+04 0.  0.
        1    1    3    3  502    0 -0.10857073497E+03 -0.24974607667E+03  0.74221908334E+03  0.79060095813E+03  0.50400001928E-02 0.  1.
       -1    1    3    3    0  502  0.10857073497E+03  0.24974607667E+03 -0.57202091046E+03  0.63353660457E+03  0.50400001928E-02 0. -1.
</event>
<event>
 5   0  0.1095119E-03  0.1409982E+04  0.7818609E-02  0.8946625E-01
        2   -1    0    0  501    0  0.00000000000E+00  0.00000000000E+00  0.94061547759E+03  0.94061547759E+03  0.25500000920E-02 0. -1.
       -2   -1    0    0    0  501  0.00000000000E+00  0.00000000000E+00 -0.52839019509E+03  0.52839019510E+03  0.25500000920E-02 0.  1.
    10030    2    1    2    0    0  0.00000000000E+00  0.00000000000E+00  0.41222528250E+03  0.14690056727E+04  0.14099815541E+04 0.  0.
        5    1    3    3  502    0  0.62818643020E+02  0.17257769696E+03 -0.50301228866E+03  0.53551162073E+03  0.46999998093E+01 0.  1.
       -5    1    3    3    0  502 -0.62818643020E+02 -0.17257769696E+03  0.91523757115E+03  0.93349405196E+03  0.46999998093E+01 0. -1.
</event>
<event>
 5   0  0.1108819E-03  0.1408514E+04  0.7818609E-02  0.8947678E-01
       -2   -1    0    0    0  501  0.00000000000E+00  0.00000000000E+00  0.50110943959E+03  0.50110943959E+03  0.25500000920E-02 0.  1.
        2   -1    0    0  501    0  0.00000000000E+00  0.00000000000E+00 -0.98976006909E+03  0.98976006910E+03  0.25500000920E-02 0. -1.
    10030    2    1    2    0    0  0.00000000000E+00  0.00000000000E+00 -0.48865062950E+03  0.14908695087E+04  0.14085142719E+04 0.  0.
        3    1    3    3  502    0  0.20478837707E+02  0.53984386133E+03 -0.72254665686E+03  0.90217762050E+03  0.10100000352E+00 0. -1.
       -3    1    3    3    0  502 -0.20478837707E+02 -0.53984386133E+03  0.23389602735E+03  0.58869188819E+03  0.10100000352E+00 0.  1.
</event>
<event>
 5   0  0.1175146E-03  0.1380996E+04  0.7818609E-02  0.8967691E-01
        2   -1    0    0  501    0  0.00000000000E+00  0.00000000000E+00  0.22636147956E+04  0.22636147957E+04  0.25500000920E-02 0.  1.
       -2   -1    0    0    0  501  0.00000000000E+00  0.00000000000E+00 -0.21063090849E+03  0.21063090850E+03  0.25500000920E-02 0. -1.
    10030    2    1    2    0    0  0.00000000000E+00  0.00000000000E+00  0.20529838872E+04  0.24742457042E+04  0.13809956421E+04 0.  0.
        1    1    3    3  502    0 -0.16076855889E+03 -0.44879002361E+03  0.13151807221E+03  0.49452605408E+03  0.50400001928E-02 0. -1.
       -1    1    3    3    0  502  0.16076855889E+03  0.44879002361E+03  0.19214658150E+04  0.19797196501E+04  0.50400001928E-02 0.  1.
</event>
<event>
 5   0  0.6097538E-04  0.1403821E+04  0.7818609E-02  0.8951058E-01
        1   -1    0    0  501    0  0.00000000000E+00  0.00000000000E+00  0.62956237352E+03  0.62956237354E+03  0.50400001928E-02 0. -1.
       -1   -1    0    0    0  501  0.00000000000E+00  0.00000000000E+00 -0.78257232230E+03  0.78257232232E+03  0.50400001928E-02 0.  1.
    10030    2    1    2    0    0  0.00000000000E+00  0.00000000000E+00 -0.15300994878E+03  0.14121346959E+04  0.14038206277E+04 0.  0.
        2    1    3    3  502    0 -0.10481020299E+03  0.21639287496E+02  0.62130703157E+03  0.63045686997E+03  0.25500000920E-02 0. -1.
       -2    1    3    3    0  502  0.10481020299E+03 -0.21639287496E+02 -0.77431698035E+03  0.78167782588E+03  0.25500000920E-02 0.  1.
</event>
<event>
 5   0  0.5875298E-04  0.1343540E+04  0.7818609E-02  0.8995733E-01
       -1   -1    0    0    0  501  0.00000000000E+00  0.00000000000E+00  0.53800356894E+03  0.53800356896E+03  0.50400001928E-02 0.  1.
        1   -1    0    0  501    0  0.00000000000E+00  0.00000000000E+00 -0.83879557975E+03  0.83879557977E+03  0.50400001928E-02 0. -1.
    10030    2    1    2    0    0  0.00000000000E+00  0.00000000000E+00 -0.30079201082E+03  0.13767991487E+04  0.13435401230E+04 0.  0.
        1    1    3    3  502    0  0.40516311439E+03 -0.46740805361E+03  0.11809674067E+03  0.62974143744E+03  0.50400001928E-02 0.  1.
       -1    1    3    3    0  502 -0.40516311439E+03  0.46740805361E+03 -0.41888875149E+03  0.74705771129E+03  0.50400001928E-02 0. -1.
</event>
<event>
 5   0  0.1095119E-03  0.1374381E+04  0.7818609E-02  0.8972575E-01
        2   -1    0    0  501    0  0.00000000000E+00  0.00000000000E+00  0.36281309505E+03  0.36281309506E+03  0.25500000920E-02 0. -1.
       -2   -1    0    0    0  501  0.00000000000E+00  0.00000000000E+00 -0.13015806848E+04  0.13015806848E+04  0.25500000920E-02 0.  1.
    10030    2    1    2    0    0  0.00000000000E+00  0.00000000000E+00 -0.93876758973E+03  0.16643937798E+04  0.13743806121E+04 0.  0.
        5    1    3    3  502    0 -0.10775015150E+03 -0.67848250239E+03 -0.44986333868E+03  0.82118677211E+03  0.46999998093E+01 0.  1.
       -5    1    3    3    0  502  0.10775015150E+03  0.67848250239E+03 -0.48890425104E+03  0.84320700773E+03  0.46999998093E+01 0. -1.
</event>
<event>
 5   0  0.6153318E-04  0.1358627E+04  0.7818609E-02  0.8984323E-01
        1   -1    0    0  501    0  0.00000000000E+00  0.00000000000E+00  0.17100712938E+04  0.17100712938E+04  0.50400001928E-02 0. -1.
       -1   -1    0    0    0  501  0.00000000000E+00  0.00000000000E+00 -0.26985248373E+03  0.26985248378E+03  0.50400001928E-02 0.  1.
    10030    2    1    2    0    0  0.00000000000E+00  0.00000000000E+00  0.14402188100E+04  0.19799237776E+04  0.13586272278E+04 0.  0.
        5    1    3    3  502    0  0.54562753426E+03  0.27701597462E+03  0.11499445205E+04  0.13026287831E+04  0.46999998093E+01 0. -1.
       -5    1    3    3    0  502 -0.54562753426E+03 -0.27701597462E+03  0.29027428950E+03  0.67729499443E+03  0.46999998093E+01 0.  1.
</event>
<event>
 5   0  0.6194742E-04  0.1394941E+04  0.7818609E-02  0.8957488E-01
       -1   -1    0    0    0  501  0.00000000000E+00  0.00000000000E+00  0.35931620693E+03  0.35931620696E+03  0.50400001928E-02 0. -1.
        1   -1    0    0  501    0  0.00000000000E+00  0.00000000000E+00 -0.13538644151E+04  0.13538644151E+04  0.50400001928E-02 0.  1.
    10030    2    1    2    0    0  0.00000000000E+00  0.00000000000E+00 -0.99454820818E+03  0.17131806221E+04  0.13949414703E+04 0.  0.
        4    1    3    3  502    0 -0.48134058154E+03  0.43349106024E+03 -0.17970944240E+03  0.67223533924E+03  0.12699999809E+01 0. -1.
       -4    1    3    3    0  502  0.48134058154E+03 -0.43349106024E+03 -0.81483876578E+03  0.10409452828E+04  0.12699999809E+01 0.  1.
</event>
<event>
 5   0  0.1095119E-03  0.1391266E+04  0.7818609E-02  0.8960165E-01
        2   -1    0    0  501    0  0.00000000000E+00  0.00000000000E+00  0.13407585014E+04  0.13407585014E+04  0.25500000920E-02 0. -1.
       -2   -1    0    0    0  501  0.00000000000E+00  0.00000000000E+00 -0.36091901081E+03  0.36091901082E+03  0.25500000920E-02 0.  1.
    10030    2    1    2    0    0  0.00000000000E+00  0.00000000000E+00  0.97983949055E+03  0.17016775122E+04  0.13912659445E+04 0.  0.
        5    1    3    3  502    0  0.68087124046E+03 -0.10208551430E+03  0.36836872531E+03  0.78084870884E+03  0.46999998093E+01 0.  1.
       -5    1    3    3    0  502 -0.68087124046E+03  0.10208551430E+03  0.61147076524E+03  0.92082880334E+03  0.46999998093E+01 0. -1.
</event>
<event>
 5   0  0.6153318E-04  0.1399140E+04  0.7818609E-02  0.8954442E-01
        1   -1    0    0  501    0  0.00000000000E+00  0.00000000000E+00  0.14771817345E+04  0.14771817345E+04  0.50400001928E-02 0.  1.
       -1   -1    0    0    0  501  0.00000000000E+00  0.00000000000E+00 -0.33130514824E+03  0.33130514828E+03  0.50400001928E-02 0. -1.
    10030    2    1    2    0    0  0.00000000000E+00  0.00000000000E+00  0.11458765863E+04  0.18084868828E+04  0.13991396122E+04 0.  0.
        5    1    3    3  502    0 -0.43249013255E+03 -0.20299031593E+03  0.12334445070E+04  0.13227472264E+04  0.46999998093E+01 0.  1.
       -5    1    3    3    0  502  0.43249013255E+03  0.20299031593E+03 -0.87567920685E+02  0.48573965644E+03  0.46999998093E+01 0. -1.
</event>
<event>
 5   0  0.1095119E-03  0.1377410E+04  0.7818609E-02  0.8970334E-01
        2   -1    0    0  501    0  0.00000000000E+00  0.00000000000E+00  0.11204304627E+04  0.11204304627E+04  0.25500000920E-02 0.  1.
       -2   -1    0    0    0  501  0.00000000000E+00  0.00000000000E+00 -0.42333269120E+03  0.42333269121E+03  0.25500000920E-02 0. -1.
    10030    2    1    2    0    0  0.00000000000E+00  0.00000000000E+00  0.69709777147E+03  0.15437631539E+04  0.13774103863E+04 0.  0.
        5    1    3    3  502    0 -0.40193530792E+03 -0.41465687759E+03 -0.72002740050E+02  0.58197835222E+03  0.46999998093E+01 0. -1.
       -5    1    3    3    0  502  0.40193530792E+03  0.41465687759E+03  0.76910051153E+03  0.96178480166E+03  0.46999998093E+01 0.  1.
</event>
<event>
 5   0  0.1098949E-03  0.1410465E+04  0.7818609E-02  0.8946278E-01
        2   -1    0    0  501    0  0.00000000000E+00  0.00000000000E+00  0.17460577205E+04  0.17460577205E+04  0.25500000920E-02 0.  1.
       -2   -1    0    0    0  501  0.00000000000E+00  0.00000000000E+00 -0.28484337485E+03  0.28484337487E+03  0.25500000920E-02 0. -1.
    10030    2    1    2    0    0  0.00000000000E+00  0.00000000000E+00  0.14612143457E+04  0.20309010954E+04  0.14104651344E+04 0.  0.
        4    1    3    3  502    0 -0.40502973590E+03 -0.54346083022E+03  0.10111164217E+04  0.12172743290E+04  0.12699999809E+01 0.  1.
       -4    1    3    3    0  502  0.40502973590E+03  0.54346083022E+03  0.45009792403E+03  0.81362676643E+03  0.12699999809E+01 0. -1.
</event>
<event>
 5   0  0.1175146E-03  0.1398680E+04  0.7818609E-02  0.8954774E-01
        2   -1    0    0  501    0  0.00000000000E+00  0.00000000000E+00  0.12521723964E+04  0.12521723965E+04  0.25500000920E-02 0. -1.
       -2   -1    0    0    0  501  0.00000000000E+00  0.00000000000E+00 -0.39058253017E+03  0.39058253018E+03  0.25500000920E-02 0.  1.
    10030    2    1    2    0    0  0.00000000000E+00  0.00000000000E+00  0.86158986628E+03  0.16427549266E+04  0.13986803249E+04 0.  0.
        1    1    3    3  502    0 -0.10094605101E+01 -0.14604716489E+03 -0.37247089704E+03  0.40008169485E+03  0.50400001928E-02 0.  1.
       -1    1    3    3    0  502  0.10094605101E+01  0.14604716489E+03  0.12340607633E+04  0.12426732318E+04  0.50400001928E-02 0. -1.
</event>
<event>
 5   0  0.1175146E-03  0.1294745E+04  0.7818609E-02  0.9033743E-01
       -2   -1    0    0    0  501  0.00000000000E+00  0.00000000000E+00  0.31380111963E+03  0.31380111964E+03  0.25500000920E-02 0.  1.
        2   -1    0    0  501    0  0.00000000000E+00  0.00000000000E+00 -0.13355319398E+04  0.13355319398E+04  0.25500000920E-02 0. -1.
    10030    2    1    2    0    0  0.00000000000E+00  0.00000000000E+00 -0.10217308202E+04  0.16493330594E+04  0.12947454082E+04 0.  0.
        1    1    3    3  502    0  0.38056460739E+03  0.46964829074E+03 -0.21568963037E+03  0.64181068398E+03  0.50400001928E-02 0.  1.
       -1    1    3    3    0  502 -0.38056460739E+03 -0.46964829074E+03 -0.80604118979E+03  0.10075223755E+04  0.50400001928E-02 0. -1.
</event>
<event>
 5   0  0.6097538E-04  0.1405652E+04  0.7818609E-02  0.8949737E-01
        1   -1    0    0  501    0  0.00000000000E+00  0.00000000000E+00  0.92839429334E+03  0.92839429335E+03  0.50400001928E-02 0. -1.
       -1   -1    0    0    0  501  0.00000000000E+00  0.00000000000E+00 -0.53206318922E+03  0.53206318925E+03  0.50400001928E-02 0.  1.
    10030    2    1    2    0    0  0.00000000000E+00  0.00000000000E+00  0.39633110411E+03  0.14604574826E+04  0.14056520602E+04 0.  0.
        2    1    3    3  502    0  0.60503389660E+03  0.13168487640E+03  0.54363146417E+03  0.82397942423E+03  0.25500000920E-02 0. -1.
       -2    1    3    3    0  502 -0.60503389660E+03 -0.13168487640E+03 -0.14730036005E+03  0.63647805837E+03  0.25500000920E-02 0.  1.
</event>
<event>
 5   0  0.1175146E-03  0.1451215E+04  0.7818609E-02  0.8917558E-01
        2   -1    0    0  501    0  0.00000000000E+00  0.00000000000E+00  0.39960557068E+03  0.39960557069E+03  0.25500000920E-02 0.  1.
       -2   -1    0    0    0  501  0.00000000000E+00  0.00000000000E+00 -0.13175655452E+04  0.13175655452E+04  0.25500000920E-02 0. -1.
    10030    2    1    2    0    0  0.00000000000E+00  0.00000000000E+00 -0.91795997454E+03  0.17171711159E+04  0.14512153963E+04 0.  0.
        1    1    3    3  502    0 -0.36330222258E+03  0.56593014424E+03 -0.78138656381E+03  0.10309366592E+04  0.50400001928E-02 0. -1.
       -1    1    3    3    0  502  0.36330222258E+03 -0.56593014424E+03 -0.13657341074E+03  0.68623445675E+03  0.50400001928E-02 0.  1.
</event>
<event>
 5   0  0.6153318E-04  0.1401746E+04  0.7818609E-02  0.8952556E-01
       -1   -1    0    0    0  501  0.00000000000E+00  0.00000000000E+00  0.79854890089E+03  0.79854890091E+03  0.50400001928E-02 0. -1.
        1   -1    0    0  501    0  0.00000000000E+00  0.00000000000E+00 -0.61514419784E+03  0.61514419786E+03  0.50400001928E-02 0.  1.
    10030    2    1    2    0    0  0.00000000000E+00  0.00000000000E+00  0.18340470305E+03  0.14136930988E+04  0.14017456590E+04 0.  0.
        5    1    3    3  502    0  0.10070244726E+03 -0.12625208357E+03 -0.59610759839E+03  0.61761390071E+03  0.46999998093E+01 0.  1.
       -5    1    3    3    0  502 -0.10070244726E+03  0.12625208357E+03  0.77951230144E+03  0.79607919806E+03  0.46999998093E+01 0. -1.
</event>
<event>
 5   0  0.6114266E-04  0.1401250E+04  0.7818609E-02  0.8952914E-01
        1   -1    0    0  501    0  0.00000000000E+00  0.00000000000E+00  0.59718597472E+03  0.59718597474E+03  0.50400001928E-02 0. -1.
       -1   -1    0    0    0  501  0.00000000000E+00  0.00000000000E+00 -0.82198105196E+03  0.82198105198E+03  0.50400001928E-02 0.  1.
    10030    2    1    2    0    0  0.00000000000E+00  0.00000000000E+00 -0.22479507724E+03  0.14191670267E+04  0.14012502357E+04 0.  0.
        3    1    3    3  502    0  0.24958567284E+03 -0.14807855157E+03 -0.75824658287E+03  0.81188555608E+03  0.10100000352E+00 0.  1.
       -3    1    3    3    0  502 -0.24958567284E+03  0.14807855157E+03  0.53345150563E+03  0.60728147064E+03  0.10100000352E+00 0. -1.
</event>
<event>
 5   0  0.1098949E-03  0.1264557E+04  0.7818609E-02  0.9058153E-01
        2   -1    0    0  501    0  0.00000000000E+00  0.00000000000E+00  0.18408525234E+03  0.18408525236E+03  0.25500000920E-02 0. -1.
       -2   -1    0    0    0  501  0.00000000000E+00  0.00000000000E+00 -0.21716914068E+04  0.21716914068E+04  0.25500000920E-02 0.  1.
    10030    2    1    2    0    0  0.00000000000E+00  0.00000000000E+00 -0.19876061545E+04  0.23557766591E+04  0.12645574098E+04 0.  0.
        4    1    3    3  502    0 -0.38877452232E+03 -0.13275131015E+03 -0.98423076822E+02  0.42244201319E+03  0.12699999809E+01 0. -1.
       -4    1    3    3    0  502  0.38877452232E+03  0.13275131015E+03 -0.18891830776E+04  0.19333346460E+04  0.12699999809E+01 0.  1.
</event>
<event>
 5   0  0.6194742E-04  0.1382705E+04  0.7818609E-02  0.8966433E-01
        1   -1    0    0  501    0  0.00000000000E+00  0.00000000000E+00  0.15381078396E+04  0.15381078396E+04  0.50400001928E-02 0. -1.
       -1   -1    0    0    0  501  0.00000000000E+00  0.00000000000E+00 -0.31075099532E+03  0.31075099536E+03  0.50400001928E-02 0.  1.
    10030    2    1    2    0    0  0.00000000000E+00  0.00000000000E+00  0.12273568443E+04  0.18488588350E+04  0.13827053802E+04 0.  0.
        4    1    3    3  502    0 -0.42653525610E+03  0.12907829498E+03  0.13204297376E+04  0.13936031845E+04  0.12699999809E+01 0. -1.
       -4    1    3    3    0  502  0.42653525610E+03 -0.12907829498E+03 -0.93072893336E+02  0.45525565049E+03  0.12699999809E+01 0.  1.
</event>
<event>
 5   0  0.1108819E-03  0.1419590E+04  0.7818609E-02  0.8939759E-01
        2   -1    0    0  501    0  0.00000000000E+00  0.00000000000E+00  0.21409827330E+04  0.21409827330E+04  0.25500000920E-02 0.  1.
       -2   -1    0    0    0  501  0.00000000000E+00  0.00000000000E+00 -0.23531655327E+03  0.23531655328E+03  0.25500000920E-02 0. -1.
    10030    2    1    2    0    0  0.00000000000E+00  0.00000000000E+00  0.19056661798E+04  0.23762992863E+04  0.14195896271E+04 0.  0.
        3    1    3    3  502    0 -0.51304102714E+02  0.59933798247E+03  0.32211187984E+03  0.68234463545E+03  0.10100000352E+00 0. -1.
       -3    1    3    3    0  502  0.51304102714E+02 -0.59933798247E+03  0.15835542999E+04  0.16939546509E+04  0.10100000352E+00 0.  1.
</event>
<event>
 5   0  0.1108819E-03  0.1399205E+04  0.7818609E-02  0.8954394E-01
        2   -1    0    0  501    0  0.00000000000E+00  0.00000000000E+00  0.12515532835E+04  0.12515532835E+04  0.25500000920E-02 0. -1.
       -2   -1    0    0    0  501  0.00000000000E+00  0.00000000000E+00 -0.39106899391E+03  0.39106899392E+03  0.25500000920E-02 0.  1.
    10030    2    1    2    0    0  0.00000000000E+00  0.00000000000E+00  0.86048428963E+03  0.16426222775E+04  0.13992050363E+04 0.  0.
        3    1    3    3  502    0  0.55597690405E+03 -0.33273717740E+03  0.73999923545E+03  0.98357675131E+03  0.10100000352E+00 0. -1.
       -3    1    3    3    0  502 -0.55597690405E+03  0.33273717740E+03  0.12048505418E+03  0.65904552615E+03  0.10100000352E+00 0.  1.
</event>
<event>
 5   0  0.1108819E-03  0.1418340E+04  0.7818609E-02  0.8940649E-01
        2   -1    0    0  501    0  0.00000000000E+00  0.00000000000E+00  0.11484396160E+04  0.11484396160E+04  0.25500000920E-02 0. -1.
       -2   -1    0    0    0  501  0.00000000000E+00  0.00000000000E+00 -0.43791752750E+03  0.43791752751E+03  0.25500000920E-02 0.  1.
    10030    2    1    2    0    0  0.00000000000E+00  0.00000000000E+00  0.71052208845E+03  0.15863571435E+04  0.14183396449E+04 0.  0.
        3    1    3    3  502    0 -0.20288805017E+03 -0.67281612934E+03  0.24870324414E+03  0.74545182182E+03  0.10100000352E+00 0.  1.
       -3    1    3    3    0  502  0.20288805017E+03  0.67281612934E+03  0.46181884431E+03  0.84090532164E+03  0.10100000352E+00 0. -1.
</event>
<event>
 5   0  0.6097538E-04  0.1378531E+04  0.7818609E-02  0.8969507E-01
        1   -1    0    0  501    0  0.00000000000E+00  0.00000000000E+00  0.12879569873E+04  0.12879569874E+04  0.50400001928E-02 0. -1.
       -1   -1    0    0    0  501  0.00000000000E+00  0.00000000000E+00 -0.36886864185E+03  0.36886864189E+03  0.50400001928E-02 0.  1.
    10030    2    1    2    0    0  0.00000000000E+00  0.00000000000E+00  0.91908834549E+03  0.16568256292E+04  0.13785310221E+04 0.  0.
        2    1    3    3  502    0 -0.39662472404E+03  0.14841082640E+03  0.11131601151E+04  0.11909921860E+04  0.25500000920E-02 0. -1.
       -2    1    3    3    0  502  0.39662472404E+03 -0.14841082640E+03 -0.19407176963E+03  0.46583344329E+03  0.25500000920E-02 0.  1.
</event>
<event>
 5   0  0.1095119E-03  0.1365397E+04  0.7818609E-02  0.8979254E-01
       -2   -1    0    0    0  501  0.00000000000E+00  0.00000000000E+00  0.52145920015E+03  0.52145920016E+03  0.25500000920E-02 0.  1.
        2   -1    0    0  501    0  0.00000000000E+00  0.00000000000E+00 -0.89379409964E+03  0.89379409964E+03  0.25500000920E-02 0. -1.
    10030    2    1    2    0    0  0.00000000000E+00  0.00000000000E+00 -0.37233489948E+03  0.14152532998E+04  0.13653968746E+04 0.  0.
        5    1    3    3  502    0 -0.73852893299E+02  0.42868079293E+03  0.35919429125E+03  0.56414900597E+03  0.46999998093E+01 0.  1.
       -5    1    3    3    0  502  0.73852893299E+02 -0.42868079293E+03 -0.73152919074E+03  0.85110429383E+03  0.46999998093E+01 0. -1.
</event>
<event>
 5   0  0.1095119E-03  0.1394583E+04  0.7818609E-02  0.8957749E-01
        2   -1    0    0  501    0  0.00000000000E+00  0.00000000000E+00  0.40255679057E+03  0.40255679058E+03  0.25500000920E-02 0. -1.
       -2   -1    0    0    0  501  0.00000000000E+00  0.00000000000E+00 -0.12078180170E+04  0.12078180170E+04  0.25500000920E-02 0.  1.
    10030    2    1    2    0    0  0.00000000000E+00  0.00000000000E+00 -0.80526122642E+03  0.16103748076E+04  0.13945828688E+04 0.  0.
        5    1    3    3  502    0  0.55676803189E+03 -0.40040206162E+03 -0.54814933146E+03  0.87795343376E+03  0.46999998093E+01 0.  1.
       -5    1    3    3    0  502 -0.55676803189E+03  0.40040206162E+03 -0.25711189496E+03  0.73242137381E+03  0.46999998093E+01 0. -1.
</event>
<event>
 5   0  0.1098949E-03  0.1420141E+04  0.7818609E-02  0.8939367E-01
        2   -1    0    0  501    0  0.00000000000E+00  0.00000000000E+00  0.17523495275E+04  0.17523495275E+04  0.25500000920E-02 0.  1.
       -2   -1    0    0    0  501  0.00000000000E+00  0.00000000000E+00 -0.28772819536E+03  0.28772819537E+03  0.25500000920E-02 0. -1.
    10030    2    1    2    0    0  0.00000000000E+00  0.00000000000E+00  0.14646213321E+04  0.20400777229E+04  0.14201413552E+04 0.  0.
        4    1    3    3  502    0  0.69223358646E+03  0.87967250176E+02  0.54351097671E+03  0.88449498022E+03  0.12699999809E+01 0. -1.
       -4    1    3    3    0  502 -0.69223358646E+03 -0.87967250176E+02  0.92111035544E+03  0.11555827427E+04  0.12699999809E+01 0.  1.
</event>
<event>
 5   0  0.1098949E-03  0.1389222E+04  0.7818609E-02  0.8961657E-01
        2   -1    0    0  501    0  0.00000000000E+00  0.00000000000E+00  0.87529707801E+03  0.87529707801E+03  0.25500000920E-02 0. -1.
       -2   -1    0    0    0  501  0.00000000000E+00  0.00000000000E+00 -0.55122375373E+03  0.55122375373E+03  0.25500000920E-02 0.  1.
    10030    2    1    2    0    0  0.00000000000E+00  0.00000000000E+00  0.32407332428E+03  0.14265208317E+04  0.13892221435E+04 0.  0.
        4    1    3    3  502    0 -0.64938951596E+03  0.19915551412E+03  0.12831403814E+02  0.67936435001E+03  0.12699999809E+01 0.  1.
       -4    1    3    3    0  502  0.64938951596E+03 -0.19915551412E+03  0.31124192046E+03  0.74715648173E+03  0.12699999809E+01 0. -1.
</event>
<event>
 5   0  0.6097538E-04  0.1401040E+04  0.7818609E-02  0.8953066E-01
       -1   -1    0    0    0  501  0.00000000000E+00  0.00000000000E+00  0.49073589447E+03  0.49073589449E+03  0.50400001928E-02 0.  1.
        1   -1    0    0  501    0  0.00000000000E+00  0.00000000000E+00 -0.99998425063E+03  0.99998425064E+03  0.50400001928E-02 0. -1.
    10030    2    1    2    0    0  0.00000000000E+00  0.00000000000E+00 -0.50924835617E+03  0.14907201451E+04  0.14010398506E+04 0.  0.
        2    1    3    3  502    0 -0.48756881319E+03 -0.36757252497E+03 -0.61996129639E+03  0.87016373042E+03  0.25500000920E-02 0. -1.
       -2    1    3    3    0  502  0.48756881319E+03  0.36757252497E+03  0.11071294023E+03  0.62055641472E+03  0.25500000920E-02 0.  1.
</event>
<event>
 5   0  0.1108819E-03  0.1395083E+04  0.7818609E-02  0.8957385E-01
        2   -1    0    0  501    0  0.00000000000E+00  0.00000000000E+00  0.14122803484E+04  0.14122803484E+04  0.25500000920E-02 0. -1.
       -2   -1    0    0    0  501  0.00000000000E+00  0.00000000000E+00 -0.34452394149E+03  0.34452394150E+03  0.25500000920E-02 0.  1.
    10030    2    1    2    0    0  0.00000000000E+00  0.00000000000E+00  0.10677564069E+04  0.17568042899E+04  0.13950833554E+04 0.  0.
        3    1    3    3  502    0 -0.34847832514E+03 -0.53843704630E+03  0.87923584034E+03  0.10883047685E+04  0.10100000352E+00 0. -1.
       -3    1    3    3    0  502  0.34847832514E+03  0.53843704630E+03  0.18852056652E+03  0.66849952140E+03  0.10100000352E+00 0.  1.
</event>
<event>
 5   0  0.6194742E-04  0.1372408E+04  0.7818609E-02  0.8974036E-01
        1   -1    0    0  501    0  0.00000000000E+00  0.00000000000E+00  0.45264262018E+03  0.45264262021E+03  0.50400001928E-02 0. -1.
       -1   -1    0    0    0  501  0.00000000000E+00  0.00000000000E+00 -0.10402824983E+04  0.10402824983E+04  0.50400001928E-02 0.  1.
    10030    2    1    2    0    0  0.00000000000E+00  0.00000000000E+00 -0.58763987814E+03  0.14929251185E+04  0.13724083879E+04 0.  0.
        4    1    3    3  502    0 -0.51080380299E+03 -0.29223229308E+03 -0.67773407367E+03  0.89757747620E+03  0.12699999809E+01 0.  1.
       -4    1    3    3    0  502  0.51080380299E+03  0.29223229308E+03  0.90094195533E+02  0.59534764234E+03  0.12699999809E+01 0. -1.
</event>
<event>
 5   0  0.1175146E-03  0.1401007E+04  0.7818609E-02  0.8953090E-01
        2   -1    0    0  501    0  0.00000000000E+00  0.00000000000E+00  0.12145924848E+04  0.12145924848E+04  0.25500000920E-02 0. -1.
       -2   -1    0    0    0  501  0.00000000000E+00  0.00000000000E+00 -0.40400834597E+03  0.40400834598E+03  0.25500000920E-02 0.  1.
    10030    2    1    2    0    0  0.00000000000E+00  0.00000000000E+00  0.81058413880E+03  0.16186008308E+04  0.14010074958E+04 0.  0.
        1    1    3    3  502    0  0.26020452405E+03  0.39195651384E+03 -0.19432400450E+03  0.50901681880E+03  0.50400001928E-02 0.  1.
       -1    1    3    3    0  502 -0.26020452405E+03 -0.39195651384E+03  0.10049081433E+04  0.11095840119E+04  0.50400001928E-02 0. -1.
</event>
<event>
 5   0  0.1120053E-03  0.1415676E+04  0.7818609E-02  0.8942549E-01
       -2   -1    0    0    0  501  0.00000000000E+00  0.00000000000E+00  0.25279494749E+03  0.25279494750E+03  0.25500000920E-02 0.  1.
        2   -1    0    0  501    0  0.00000000000E+00  0.00000000000E+00 -0.19819797016E+04  0.19819797016E+04  0.25500000920E-02 0. -1.
    10030    2    1    2    0    0  0.00000000000E+00  0.00000000000E+00 -0.17291847541E+04  0.22347746491E+04  0.14156757462E+04 0.  0.
        2    1    3    3  502    0  0.48846335368E+03  0.37851639380E+03 -0.31966165934E+03  0.69574038601E+03  0.25500000920E-02 0.  1.
       -2    1    3    3    0  502 -0.48846335368E+03 -0.37851639380E+03 -0.14095230947E+04  0.15390342631E+04  0.25500000920E-02 0. -1.
</event>
<event>
 5   0  0.6194742E-04  0.1400059E+04  0.7818609E-02  0.8953776E-01
        1   -1    0    0  501    0  0.00000000000E+00  0.00000000000E+00  0.13153086653E+04  0.13153086653E+04  0.50400001928E-02 0. -1.
       -1   -1    0    0    0  501  0.00000000000E+00  0.00000000000E+00 -0.37256727901E+03  0.37256727905E+03  0.50400001928E-02 0.  1.
    10030    2    1    2    0    0  0.00000000000E+00  0.00000000000E+00  0.94274138629E+03  0.16878759444E+04  0.14000585281E+04 0.  0.
        4    1    3    3  502    0 -0.38911219322E+03 -0.40257650614E+03  0.97794650248E+03  0.11268793710E+04  0.12699999809E+01 0. -1.
       -4    1    3    3    0  502  0.38911219322E+03  0.40257650614E+03 -0.35205116190E+02  0.56099657335E+03  0.12699999809E+01 0.  1.
</event>
<event>
 5   0  0.6097538E-04  0.1391809E+04  0.7818609E-02  0.8959769E-01
        1   -1    0    0  501    0  0.00000000000E+00  0.00000000000E+00  0.86124374674E+03  0.86124374675E+03  0.50400001928E-02 0. -1.
       -1   -1    0    0    0  501  0.00000000000E+00  0.00000000000E+00 -0.56230627106E+03  0.56230627108E+03  0.50400001928E-02 0.  1.
    10030    2    1    2    0    0  0.00000000000E+00  0.00000000000E+00  0.29893747568E+03  0.14235500178E+04  0.13918085497E+04 0.  0.
        2    1    3    3  502    0 -0.21771447202E+03  0.54971222190E+03 -0.22591586144E+03  0.63294636004E+03  0.25500000920E-02 0.  1.
       -2    1    3    3    0  502  0.21771447202E+03 -0.54971222190E+03  0.52485333712E+03  0.79060365780E+03  0.25500000920E-02 0. -1.
</event>
<event>
 5   0  0.1098949E-03  0.1403934E+04  0.7818609E-02  0.8950976E-01
       -2   -1    0    0    0  501  0.00000000000E+00  0.00000000000E+00  0.23252260003E+03  0.23252260005E+03  0.25500000920E-02 0. -1.
        2   -1    0    0  501    0  0.00000000000E+00  0.00000000000E+00 -0.21191812852E+04  0.21191812852E+04  0.25500000920E-02 0.  1.
    10030    2    1    2    0    0  0.00000000000E+00  0.00000000000E+00 -0.18866586852E+04  0.23517038853E+04  0.14039338195E+04 0.  0.
        4    1    3    3  502    0 -0.20125094520E+03  0.64757561600E+03 -0.63949792268E+03  0.93210263780E+03  0.12699999809E+01 0. -1.
       -4    1    3    3    0  502  0.20125094520E+03 -0.64757561600E+03 -0.12471607625E+04  0.14196012475E+04  0.12699999809E+01 0.  1.
</event>
<event>
 5   0  0.1098949E-03  0.1395957E+04  0.7818609E-02  0.8956750E-01
        2   -1    0    0  501    0  0.00000000000E+00  0.00000000000E+00  0.10226303223E+04  0.10226303223E+04  0.25500000920E-02 0.  1.
       -2   -1    0    0    0  501  0.00000000000E+00  0.00000000000E+00 -0.47639303976E+03  0.47639303977E+03  0.25500000920E-02 0. -1.
    10030    2    1    2    0    0  0.00000000000E+00  0.00000000000E+00  0.54623728253E+03  0.14990233621E+04  0.13959569733E+04 0.  0.
        4    1    3    3  502    0  0.88827179466E+01  0.44974247923E+02 -0.47477341616E+03  0.47698322323E+03  0.12699999809E+01 0. -1.
       -4    1    3    3    0  502 -0.88827179466E+01 -0.44974247923E+02  0.10210106987E+04  0.10220401388E+04  0.12699999809E+01 0.  1.
</event>
<event>
 5   0  0.6194742E-04  0.1389916E+04  0.7818609E-02  0.8961151E-01
       -1   -1    0    0    0  501  0.00000000000E+00  0.00000000000E+00  0.13994255800E+04  0.13994255800E+04  0.50400001928E-02 0. -1.
        1   -1    0    0  501    0  0.00000000000E+00  0.00000000000E+00 -0.34511760159E+03  0.34511760163E+03  0.50400001928E-02 0.  1.
    10030    2    1    2    0    0  0.00000000000E+00  0.00000000000E+00  0.10543079784E+04  0.17445431817E+04  0.13899156806E+04 0.  0.
        4    1    3    3  502    0  0.36625010493E+01  0.50261088118E+03  0.11295359916E+04  0.12363188428E+04  0.12699999809E+01 0. -1.
       -4    1    3    3    0  502 -0.36625010493E+01 -0.50261088118E+03 -0.75228013133E+02  0.50822433891E+03  0.12699999809E+01 0.  1.
</event>
<event>
 5   0  0.6097538E-04  0.1400333E+04  0.7818609E-02  0.8953577E-01
        1   -1    0    0  501    0  0.00000000000E+00  0.00000000000E+00  0.33936403204E+03  0.33936403207E+03  0.50400001928E-02 0.  1.
       -1   -1    0    0    0  501  0.00000000000E+00  0.00000000000E+00 -0.14445644339E+04  0.14445644339E+04  0.50400001928E-02 0. -1.
    10030    2    1    2    0    0  0.00000000000E+00  0.00000000000E+00 -0.11052004019E+04  0.17839284660E+04  0.14003331188E+04 0.  0.
        2    1    3    3  502    0 -0.29101412033E+03  0.61590387193E+03 -0.34637113854E+03  0.76419877212E+03  0.25500000920E-02 0.  1.
       -2    1    3    3    0  502  0.29101412033E+03 -0.61590387193E+03 -0.75882926337E+03  0.10197296939E+04  0.25500000920E-02 0. -1.
</event>
<event>
 5   0  0.1095119E-03  0.1536203E+04  0.7818609E-02  0.8860729E-01
        2   -1    0    0  501    0  0.00000000000E+00  0.00000000000E+00  0.93945450407E+03  0.93945450408E+03  0.25500000920E-02 0.  1.
       -2   -1    0    0    0  501  0.00000000000E+00  0.00000000000E+00 -0.62800302483E+03  0.62800302483E+03  0.25500000920E-02 0. -1.
    10030    2    1    2    0    0  0.00000000000E+00  0.00000000000E+00  0.31145147925E+03  0.15674575289E+04  0.15362034634E+04 0.  0.
        5    1    3    3  502    0  0.68389259803E+03 -0.29873910140E+02  0.51117598756E+03  0.85435619995E+03  0.46999998093E+01 0.  1.
       -5    1    3    3    0  502 -0.68389259803E+03  0.29873910140E+02 -0.19972450831E+03  0.71310132896E+03  0.46999998093E+01 0. -1.
</event>
<event>
 5   0  0.4176125E-04  0.1448547E+04  0.7818609E-02  0.8919409E-01
       -4   -1    0    0    0  501  0.00000000000E+00  0.00000000000E+00  0.78581403102E+03  0.78581505728E+03  0.12699999809E+01 0.  1.
        4   -1    0    0  501    0  0.00000000000E+00  0.00000000000E+00 -0.66755027095E+03  0.66755147902E+03  0.12699999809E+01 0. -1.
    10030    2    1    2    0    0  0.00000000000E+00  0.00000000000E+00  0.11826376007E+03  0.14533665363E+04  0.14485468484E+04 0.  0.
        2    1    3    3  502    0 -0.40378351777E+03 -0.51117548730E+03 -0.25851348787E+03  0.70083573786E+03  0.25500000920E-02 0. -1.
       -2    1    3    3    0  502  0.40378351777E+03  0.51117548730E+03  0.37677724794E+03  0.75253079845E+03  0.25500000920E-02 0.  1.
</event>
<event>
 5   0  0.6153318E-04  0.1400296E+04  0.7818609E-02  0.8953604E-01
        1   -1    0    0  501    0  0.00000000000E+00  0.00000000000E+00  0.47323368318E+03  0.47323368320E+03  0.50400001928E-02 0.  1.
       -1   -1    0    0    0  501  0.00000000000E+00  0.00000000000E+00 -0.10358676954E+04  0.10358676954E+04  0.50400001928E-02 0. -1.
    10030    2    1    2    0    0  0.00000000000E+00  0.00000000000E+00 -0.56263401225E+03  0.15091013786E+04  0.14002963755E+04 0.  0.
        5    1    3    3  502    0 -0.57250540828E+03 -0.10735703565E+03 -0.69995569080E+03  0.91063056982E+03  0.46999998093E+01 0. -1.
       -5    1    3    3    0  502  0.57250540828E+03  0.10735703565E+03  0.13732167854E+03  0.59847080882E+03  0.46999998093E+01 0.  1.
</event>
<event>
 5   0  0.1120053E-03  0.1393295E+04  0.7818609E-02  0.8958686E-01
        2   -1    0    0  501    0  0.00000000000E+00  0.00000000000E+00  0.44630546149E+03  0.44630546150E+03  0.25500000920E-02 0.  1.
       -2   -1    0    0    0  501  0.00000000000E+00  0.00000000000E+00 -0.10874116255E+04  0.10874116255E+04  0.25500000920E-02 0. -1.
    10030    2    1    2    0    0  0.00000000000E+00  0.00000000000E+00 -0.64110616396E+03  0.15337170870E+04  0.13932950116E+04 0.  0.
        2    1    3    3  502    0 -0.68012445522E+03 -0.13159777939E+03 -0.40167196666E+03  0.80076689426E+03  0.25500000920E-02 0. -1.
       -2    1    3    3    0  502  0.68012445522E+03  0.13159777939E+03 -0.23943419730E+03  0.73295019270E+03  0.25500000920E-02 0.  1.
</event>
<event>
 5   0  0.6194742E-04  0.1407585E+04  0.7818609E-02  0.8948346E-01
        1   -1    0    0  501    0  0.00000000000E+00  0.00000000000E+00  0.99903274456E+03  0.99903274457E+03  0.50400001928E-02 0. -1.
       -1   -1    0    0    0  501  0.00000000000E+00  0.00000000000E+00 -0.49580377130E+03  0.49580377132E+03  0.50400001928E-02 0.  1.
    10030    2    1    2    0    0  0.00000000000E+00  0.00000000000E+00  0.50322897326E+03  0.14948365159E+04  0.14075854538E+04 0.  0.
        4    1    3    3  502    0 -0.22359330350E+03 -0.43317268134E+03 -0.28748355598E+03  0.56593369319E+03  0.12699999809E+01 0.  1.
       -4    1    3    3    0  502  0.22359330350E+03  0.43317268134E+03  0.79071252924E+03  0.92890282270E+03  0.12699999809E+01 0. -1.
</event>
<event>
 5   0  0.1108819E-03  0.1394958E+04  0.7818609E-02  0.8957476E-01
        2   -1    0    0  501    0  0.00000000000E+00  0.00000000000E+00  0.23649237842E+04  0.23649237842E+04  0.25500000920E-02 0.  1.
       -2   -1    0    0    0  501  0.00000000000E+00  0.00000000000E+00 -0.20570505633E+03  0.20570505635E+03  0.25500000920E-02 0. -1.
    10030    2    1    2    0    0  0.00000000000E+00  0.00000000000E+00  0.21592187278E+04  0.25706288405E+04  0.13949577489E+04 0.  0.
        3    1    3    3  502    0 -0.48456201991E+02 -0.31002823473E+03 -0.68281201957E+02  0.32113524033E+03  0.10100000352E+00 0. -1.
       -3    1    3    3    0  502  0.48456201991E+02  0.31002823473E+03  0.22274999298E+04  0.22494936002E+04  0.10100000352E+00 0.  1.
</event>
<event>
 5   0  0.4176125E-04  0.1377060E+04  0.7818609E-02  0.8970593E-01
       -4   -1    0    0    0  501  0.00000000000E+00  0.00000000000E+00  0.10448372676E+04  0.10448380394E+04  0.12699999809E+01 0.  1.
        4   -1    0    0  501    0  0.00000000000E+00  0.00000000000E+00 -0.45372772423E+03  0.45372950161E+03  0.12699999809E+01 0. -1.
    10030    2    1    2    0    0  0.00000000000E+00  0.00000000000E+00  0.59110954335E+03  0.14985675410E+04  0.13770599779E+04 0.  0.
        1    1    3    3  502    0  0.31196897397E+02 -0.38851919949E+03 -0.32211257594E+03  0.50564505969E+03  0.50400001928E-02 0. -1.
       -1    1    3    3    0  502 -0.31196897397E+02  0.38851919949E+03  0.91322211929E+03  0.99292248135E+03  0.50400001928E-02 0.  1.
</event>
<event>
 5   0  0.1120053E-03  0.1398046E+04  0.7818609E-02  0.8955234E-01
        2   -1    0    0  501    0  0.00000000000E+00  0.00000000000E+00  0.16992056494E+04  0.16992056494E+04  0.25500000920E-02 0.  1.
       -2   -1    0    0    0  501  0.00000000000E+00  0.00000000000E+00 -0.28756566469E+03  0.28756566470E+03  0.25500000920E-02 0. -1.
    10030    2    1    2    0    0  0.00000000000E+00  0.00000000000E+00  0.14116399847E+04  0.19867713141E+04  0.13980460679E+04 0.  0.
        2    1    3    3  502    0 -0.13685510038E+03  0.44603107803E+03 -0.33920035404E+02  0.46778585899E+03  0.25500000920E-02 0. -1.
       -2    1    3    3    0  502  0.13685510038E+03 -0.44603107803E+03  0.14455600201E+04  0.15189854551E+04  0.25500000920E-02 0.  1.
</event>
<event>
 5   0  0.6114266E-04  0.1399584E+04  0.7818609E-02  0.8954119E-01
        1   -1    0    0  501    0  0.00000000000E+00  0.00000000000E+00  0.11439876445E+04  0.11439876445E+04  0.50400001928E-02 0.  1.
       -1   -1    0    0    0  501  0.00000000000E+00  0.00000000000E+00 -0.42807203644E+03  0.42807203647E+03  0.50400001928E-02 0. -1.
    10030    2    1    2    0    0  0.00000000000E+00  0.00000000000E+00  0.71591560804E+03  0.15720596810E+04  0.13995843964E+04 0.  0.
        3    1    3    3  502    0  0.68846949886E+03 -0.31610058424E+02  0.49423364881E+03  0.84808982806E+03  0.10100000352E+00 0.  1.
       -3    1    3    3    0  502 -0.68846949886E+03  0.31610058424E+02  0.22168195923E+03  0.72396985289E+03  0.10100000352E+00 0. -1.
</event>
<event>
 5   0  0.1120053E-03  0.1405620E+04  0.7818609E-02  0.8949760E-01
       -2   -1    0    0    0  501  0.00000000000E+00  0.00000000000E+00  0.54722431791E+03  0.54722431791E+03  0.25500000920E-02 0.  1.
        2   -1    0    0  501    0  0.00000000000E+00  0.00000000000E+00 -0.90263156751E+03  0.90263156752E+03  0.25500000920E-02 0. -1.
    10030    2    1    2    0    0  0.00000000000E+00  0.00000000000E+00 -0.35540724960E+03  0.14498558854E+04  0.14056200680E+04 0.  0.
        2    1    3    3  502    0 -0.17668106905E+03 -0.56518932624E+03  0.21274143494E+03  0.62921704745E+03  0.25500000920E-02 0.  1.
       -2    1    3    3    0  502  0.17668106905E+03  0.56518932624E+03 -0.56814868454E+03  0.82063883798E+03  0.25500000920E-02 0. -1.
</event>
<event>
 5   0  0.6153318E-04  0.1384510E+04  0.7818609E-02  0.8965108E-01
       -1   -1    0    0    0  501  0.00000000000E+00  0.00000000000E+00  0.73058985506E+03  0.73058985508E+03  0.50400001928E-02 0.  1.
        1   -1    0    0  501    0  0.00000000000E+00  0.00000000000E+00 -0.65593202267E+03  0.65593202269E+03  0.50400001928E-02 0. -1.
    10030    2    1    2    0    0  0.00000000000E+00  0.00000000000E+00  0.74657832387E+02  0.13865218778E+04  0.13845104281E+04 0.  0.
        5    1    3    3  502    0  0.30934465533E+03  0.51223979947E+03 -0.31118740526E+03  0.67449493632E+03  0.46999998093E+01 0. -1.
       -5    1    3    3    0  502 -0.30934465533E+03 -0.51223979947E+03  0.38584523765E+03  0.71202694145E+03  0.46999998093E+01 0.  1.
</event>
<event>
 5   0  0.6194742E-04  0.1377327E+04  0.7818609E-02  0.8970396E-01
       -1   -1    0    0    0  501  0.00000000000E+00  0.00000000000E+00  0.45391307213E+03  0.45391307215E+03  0.50400001928E-02 0.  1.
        1   -1    0    0  501    0  0.00000000000E+00  0.00000000000E+00 -0.10448206317E+04  0.10448206317E+04  0.50400001928E-02 0. -1.
    10030    2    1    2    0    0  0.00000000000E+00  0.00000000000E+00 -0.59090755957E+03  0.14987337039E+04  0.13773274742E+04 0.  0.
        4    1    3    3  502    0  0.49714031584E+03  0.32667017294E+03  0.82109811116E+02  0.60050439591E+03  0.12699999809E+01 0.  1.
       -4    1    3    3    0  502 -0.49714031584E+03 -0.32667017294E+03 -0.67301737069E+03  0.89822930795E+03  0.12699999809E+01 0. -1.
</event>
<event>
 5   0  0.1108819E-03  0.1409449E+04  0.7818609E-02  0.8947007E-01
       -2   -1    0    0    0  501  0.00000000000E+00  0.00000000000E+00  0.54895979099E+03  0.54895979100E+03  0.25500000920E-02 0.  1.
        2   -1    0    0  501    0  0.00000000000E+00  0.00000000000E+00 -0.90468610384E+03  0.90468610385E+03  0.25500000920E-02 0. -1.
    10030    2    1    2    0    0  0.00000000000E+00  0.00000000000E+00 -0.35572631286E+03  0.14536458948E+04  0.14094485368E+04 0.  0.
        3    1    3    3  502    0  0.30542565438E+03 -0.63463090203E+03 -0.15270410847E+03  0.72066619673E+03  0.10100000352E+00 0.  1.
       -3    1    3    3    0  502 -0.30542565438E+03  0.63463090203E+03 -0.20302220438E+03  0.73297969811E+03  0.10100000352E+00 0. -1.
</event>
<event>
 5   0  0.6114266E-04  0.1398359E+04  0.7818609E-02  0.8955007E-01
       -1   -1    0    0    0  501  0.00000000000E+00  0.00000000000E+00  0.40922915794E+03  0.40922915797E+03  0.50400001928E-02 0.  1.
        1   -1    0    0  501    0  0.00000000000E+00  0.00000000000E+00 -0.11945680971E+04  0.11945680971E+04  0.50400001928E-02 0. -1.
    10030    2    1    2    0    0  0.00000000000E+00  0.00000000000E+00 -0.78533893914E+03  0.16037972551E+04  0.13983591763E+04 0.  0.
        3    1    3    3  502    0 -0.33972723327E+03 -0.60040393626E+03 -0.26213977655E+03  0.73798153931E+03  0.10100000352E+00 0. -1.
       -3    1    3    3    0  502  0.33972723327E+03  0.60040393626E+03 -0.52319916259E+03  0.86581571575E+03  0.10100000352E+00 0.  1.
</event>
<event>
 5   0  0.6097538E-04  0.1398675E+04  0.7818609E-02  0.8954778E-01
        1   -1    0    0  501    0  0.00000000000E+00  0.00000000000E+00  0.22823115555E+03  0.22823115561E+03  0.50400001928E-02 0. -1.
       -1   -1    0    0    0  501  0.00000000000E+00  0.00000000000E+00 -0.21428831702E+04  0.21428831702E+04  0.50400001928E-02 0.  1.
    10030    2    1    2    0    0  0.00000000000E+00  0.00000000000E+00 -0.19146520147E+04  0.23711143258E+04  0.13986746616E+04 0.  0.
        2    1    3    3  502    0  0.32173407712E+03 -0.17185218949E+03  0.54200057814E+02  0.36875959335E+03  0.25500000920E-02 0. -1.
       -2    1    3    3    0  502 -0.32173407712E+03  0.17185218949E+03 -0.19688520725E+04  0.20023547325E+04  0.25500000920E-02 0.  1.
</event>
<event>
 5   0  0.6097538E-04  0.1373058E+04  0.7818609E-02  0.8973555E-01
       -1   -1    0    0    0  501  0.00000000000E+00  0.00000000000E+00  0.72773246240E+03  0.72773246241E+03  0.50400001928E-02 0. -1.
        1   -1    0    0  501    0  0.00000000000E+00  0.00000000000E+00 -0.64765873063E+03  0.64765873065E+03  0.50400001928E-02 0.  1.
    10030    2    1    2    0    0  0.00000000000E+00  0.00000000000E+00  0.80073731767E+02  0.13753911931E+04  0.13730583132E+04 0.  0.
        2    1    3    3  502    0  0.53649828859E+03  0.42678997777E+03  0.76734942012E+02  0.68983211734E+03  0.25500000920E-02 0. -1.
       -2    1    3    3    0  502 -0.53649828859E+03 -0.42678997777E+03  0.33387897549E+01  0.68555907572E+03  0.25500000920E-02 0.  1.
</event>
<event>
 5   0  0.1098949E-03  0.1400322E+04  0.7818609E-02  0.8953586E-01
        2   -1    0    0  501    0  0.00000000000E+00  0.00000000000E+00  0.20565676146E+04  0.20565676146E+04  0.25500000920E-02 0.  1.
       -2   -1    0    0    0  501  0.00000000000E+00  0.00000000000E+00 -0.23837052147E+03  0.23837052148E+03  0.25500000920E-02 0. -1.
    10030    2    1    2    0    0  0.00000000000E+00  0.00000000000E+00  0.18181970931E+04  0.22949381361E+04  0.14003215270E+04 0.  0.
        4    1    3    3  502    0 -0.10923885046E+03  0.31752306317E+03  0.19159934148E+04  0.19451957230E+04  0.12699999809E+01 0.  1.
       -4    1    3    3    0  502  0.10923885046E+03 -0.31752306317E+03 -0.97796321695E+02  0.34974241312E+03  0.12699999809E+01 0. -1.
</event>
<event>
 5   0  0.5875298E-04  0.1393822E+04  0.7818609E-02  0.8958303E-01
       -1   -1    0    0    0  501  0.00000000000E+00  0.00000000000E+00  0.75240496454E+03  0.75240496456E+03  0.50400001928E-02 0.  1.
        1   -1    0    0  501    0  0.00000000000E+00  0.00000000000E+00 -0.64551000681E+03  0.64551000683E+03  0.50400001928E-02 0. -1.
    10030    2    1    2    0    0  0.00000000000E+00  0.00000000000E+00  0.10689495773E+03  0.13979149714E+04  0.13938219884E+04 0.  0.
        1    1    3    3  502    0  0.64837583959E+02 -0.37317838464E+03 -0.53326516764E+03  0.65409308061E+03  0.50400001928E-02 0. -1.
       -1    1    3    3    0  502 -0.64837583959E+02  0.37317838464E+03  0.64016012537E+03  0.74382189078E+03  0.50400001928E-02 0.  1.
</event>
<event>
 5   0  0.5875298E-04  0.1412643E+04  0.7818609E-02  0.8944717E-01
       -1   -1    0    0    0  501  0.00000000000E+00  0.00000000000E+00  0.60571805657E+03  0.60571805659E+03  0.50400001928E-02 0.  1.
        1   -1    0    0  501    0  0.00000000000E+00  0.00000000000E+00 -0.82363430855E+03  0.82363430856E+03  0.50400001928E-02 0. -1.
    10030    2    1    2    0    0  0.00000000000E+00  0.00000000000E+00 -0.21791625198E+03  0.14293523652E+04  0.14126431577E+04 0.  0.
        1    1    3    3  502    0 -0.36147157675E+03  0.59485535160E+02  0.50208058925E+03  0.62151842114E+03  0.50400001928E-02 0.  1.
       -1    1    3    3    0  502  0.36147157675E+03 -0.59485535160E+02 -0.71999684123E+03  0.80783394401E+03  0.50400001928E-02 0. -1.
</event>
<event>
 5   0  0.1095119E-03  0.1373542E+04  0.7818609E-02  0.8973196E-01
       -2   -1    0    0    0  501  0.00000000000E+00  0.00000000000E+00  0.94600990672E+03  0.94600990673E+03  0.25500000920E-02 0.  1.
        2   -1    0    0  501    0  0.00000000000E+00  0.00000000000E+00 -0.49857266116E+03  0.49857266116E+03  0.25500000920E-02 0. -1.
    10030    2    1    2    0    0  0.00000000000E+00  0.00000000000E+00  0.44743724557E+03  0.14445825679E+04  0.13735423935E+04 0.  0.
        5    1    3    3  502    0  0.17039628467E+03  0.50563872086E+03 -0.23099349190E+03  0.58145119585E+03  0.46999998093E+01 0. -1.
       -5    1    3    3    0  502 -0.17039628467E+03 -0.50563872086E+03  0.67843073746E+03  0.86313137204E+03  0.46999998093E+01 0.  1.
</event>
<event>
 5   0  0.1175146E-03  0.1417144E+04  0.7818609E-02  0.8941502E-01
        2   -1    0    0  501    0  0.00000000000E+00  0.00000000000E+00  0.82445945926E+03  0.82445945927E+03  0.25500000920E-02 0. -1.
       -2   -1    0    0    0  501  0.00000000000E+00  0.00000000000E+00 -0.60897357641E+03  0.60897357641E+03  0.25500000920E-02 0.  1.
    10030    2    1    2    0    0  0.00000000000E+00  0.00000000000E+00  0.21548588286E+03  0.14334330357E+04  0.14171436420E+04 0.  0.
        1    1    3    3  502    0 -0.55586533427E+03 -0.49455497018E+02 -0.33390145672E+03  0.65032476414E+03  0.50400001928E-02 0.  1.
       -1    1    3    3    0  502  0.55586533427E+03  0.49455497018E+02  0.54938733958E+03  0.78310827154E+03  0.50400001928E-02 0. -1.
</event>
<event>
 5   0  0.1175146E-03  0.1412937E+04  0.7818609E-02  0.8944507E-01
       -2   -1    0    0    0  501  0.00000000000E+00  0.00000000000E+00  0.35918896526E+03  0.35918896527E+03  0.25500000920E-02 0.  1.
        2   -1    0    0  501    0  0.00000000000E+00  0.00000000000E+00 -0.13895123796E+04  0.13895123796E+04  0.25500000920E-02 0. -1.
    10030    2    1    2    0    0  0.00000000000E+00  0.00000000000E+00 -0.10303234143E+04  0.17487013449E+04  0.14129366778E+04 0.  0.
        1    1    3    3  502    0 -0.49123681184E+03 -0.35928332960E+03 -0.71163514629E+02  0.61274983646E+03  0.50400001928E-02 0.  1.
       -1    1    3    3    0  502  0.49123681184E+03  0.35928332960E+03 -0.95915989970E+03  0.11359515084E+04  0.50400001928E-02 0. -1.
</event>
<event>
 5   0  0.6114266E-04  0.1417379E+04  0.7818609E-02  0.8941334E-01
       -1   -1    0    0    0  501  0.00000000000E+00  0.00000000000E+00  0.37267375819E+03  0.37267375822E+03  0.50400001928E-02 0.  1.
        1   -1    0    0  501    0  0.00000000000E+00  0.00000000000E+00 -0.13476687165E+04  0.13476687165E+04  0.50400001928E-02 0. -1.
    10030    2    1    2    0    0  0.00000000000E+00  0.00000000000E+00 -0.97499495827E+03  0.17203424747E+04  0.14173789407E+04 0.  0.
        3    1    3    3  502    0  0.65784618073E+03  0.13153409235E+03 -0.21024693843E+03  0.70304096629E+03  0.10100000352E+00 0.  1.
       -3    1    3    3    0  502 -0.65784618073E+03 -0.13153409235E+03 -0.76474801984E+03  0.10173015084E+04  0.10100000352E+00 0. -1.
</event>
<event>
 5   0  0.1095119E-03  0.1406535E+04  0.7818609E-02  0.8949102E-01
       -2   -1    0    0    0  501  0.00000000000E+00  0.00000000000E+00  0.76023440125E+03  0.76023440126E+03  0.25500000920E-02 0. -1.
        2   -1    0    0  501    0  0.00000000000E+00  0.00000000000E+00 -0.65056947496E+03  0.65056947496E+03  0.25500000920E-02 0.  1.
    10030    2    1    2    0    0  0.00000000000E+00  0.00000000000E+00  0.10966492630E+03  0.14108038762E+04  0.14065351688E+04 0.  0.
        5    1    3    3  502    0 -0.10995970818E+03  0.10979994027E+01  0.75154174058E+03  0.75955870139E+03  0.46999998093E+01 0. -1.
       -5    1    3    3    0  502  0.10995970818E+03 -0.10979994027E+01 -0.64187681428E+03  0.65124517483E+03  0.46999998093E+01 0.  1.
</event>
<event>
 5   0  0.1120053E-03  0.1400474E+04  0.7818609E-02  0.8953476E-01
       -2   -1    0    0    0  501  0.00000000000E+00  0.00000000000E+00  0.47764070772E+03  0.47764070773E+03  0.25500000920E-02 0. -1.
        2   -1    0    0  501    0  0.00000000000E+00  0.00000000000E+00 -0.10265703934E+04  0.10265703934E+04  0.25500000920E-02 0.  1.
    10030    2    1    2    0    0  0.00000000000E+00  0.00000000000E+00 -0.54892968563E+03  0.15042111011E+04  0.14004739329E+04 0.  0.
        2    1    3    3  502    0 -0.48951114490E+03  0.28114812039E+03 -0.71948162346E+03  0.91450491146E+03  0.25500000920E-02 0.  1.
       -2    1    3    3    0  502  0.48951114490E+03 -0.28114812039E+03  0.17055193783E+03  0.58970618963E+03  0.25500000920E-02 0. -1.
</event>
<event>
 5   0  0.6153318E-04  0.1386956E+04  0.7818609E-02  0.8963315E-01
       -1   -1    0    0    0  501  0.00000000000E+00  0.00000000000E+00  0.46240248316E+03  0.46240248318E+03  0.50400001928E-02 0.  1.
        1   -1    0    0  501    0  0.00000000000E+00  0.00000000000E+00 -0.10400284289E+04  0.10400284289E+04  0.50400001928E-02 0. -1.
    10030    2    1    2    0    0  0.00000000000E+00  0.00000000000E+00 -0.57762594577E+03  0.15024309121E+04  0.13869559879E+04 0.  0.
        5    1    3    3  502    0  0.38634790687E+03  0.20962426082E+02  0.33458802635E+03  0.51154214472E+03  0.46999998093E+01 0.  1.
       -5    1    3    3    0  502 -0.38634790687E+03 -0.20962426082E+02 -0.91221397211E+03  0.99088876740E+03  0.46999998093E+01 0. -1.
</event>
<event>
 5   0  0.1175146E-03  0.1398199E+04  0.7818609E-02  0.8955123E-01
       -2   -1    0    0    0  501  0.00000000000E+00  0.00000000000E+00  0.22487947272E+04  0.22487947272E+04  0.25500000920E-02 0.  1.
        2   -1    0    0  501    0  0.00000000000E+00  0.00000000000E+00 -0.21733423969E+03  0.21733423971E+03  0.25500000920E-02 0. -1.
    10030    2    1    2    0    0  0.00000000000E+00  0.00000000000E+00  0.20314604875E+04  0.24661289669E+04  0.13981989734E+04 0.  0.
        1    1    3    3  502    0  0.44484069168E+03 -0.47336411837E+03  0.55992363061E+03  0.85759623464E+03  0.50400001928E-02 0. -1.
       -1    1    3    3    0  502 -0.44484069168E+03  0.47336411837E+03  0.14715368569E+04  0.16085327323E+04  0.50400001928E-02 0.  1.
</event>
<event>
 5   0  0.1098949E-03  0.1398001E+04  0.7818609E-02  0.8955267E-01
       -2   -1    0    0    0  501  0.00000000000E+00  0.00000000000E+00  0.14449398130E+04  0.14449398130E+04  0.25500000920E-02 0. -1.
        2   -1    0    0  501    0  0.00000000000E+00  0.00000000000E+00 -0.33814663055E+03  0.33814663056E+03  0.25500000920E-02 0.  1.
    10030    2    1    2    0    0  0.00000000000E+00  0.00000000000E+00  0.11067931825E+04  0.17830864436E+04  0.13980007570E+04 0.  0.
        4    1    3    3  502    0 -0.68083737755E+03  0.64155526551E+01  0.75514117969E+03  0.10167696436E+04  0.12699999809E+01 0.  1.
       -4    1    3    3    0  502  0.68083737755E+03 -0.64155526551E+01  0.35165200278E+03  0.76631679999E+03  0.12699999809E+01 0. -1.
</event>
<event>
 5   0  0.1175146E-03  0.1365675E+04  0.7818609E-02  0.8979046E-01
        2   -1    0    0  501    0  0.00000000000E+00  0.00000000000E+00  0.76919847324E+03  0.76919847324E+03  0.25500000920E-02 0.  1.
       -2   -1    0    0    0  501  0.00000000000E+00  0.00000000000E+00 -0.60617267206E+03  0.60617267207E+03  0.25500000920E-02 0. -1.
    10030    2    1    2    0    0  0.00000000000E+00  0.00000000000E+00  0.16302580117E+03  0.13753711453E+04  0.13656750622E+04 0.  0.
        1    1    3    3  502    0 -0.20811075269E+03  0.57080811897E+03  0.39539071873E+03  0.72489020862E+03  0.50400001928E-02 0.  1.
       -1    1    3    3    0  502  0.20811075269E+03 -0.57080811897E+03 -0.23236491755E+03  0.65048093670E+03  0.50400001928E-02 0. -1.
</event>
<event>
 5   0  0.1120053E-03  0.1387403E+04  0.7818609E-02  0.8962988E-01
       -2   -1    0    0    0  501  0.00000000000E+00  0.00000000000E+00  0.80840443499E+03  0.80840443500E+03  0.25500000920E-02 0. -1.
        2   -1    0    0  501    0  0.00000000000E+00  0.00000000000E+00 -0.59527324647E+03  0.59527324648E+03  0.25500000920E-02 0.  1.
    10030    2    1    2    0    0  0.00000000000E+00  0.00000000000E+00  0.21313118852E+03  0.14036776815E+04  0.13874026560E+04 0.  0.
        2    1    3    3  502    0  0.21548756140E+03  0.32624876013E+03 -0.47317314079E+03  0.61381264550E+03  0.25500000920E-02 0.  1.
       -2    1    3    3    0  502 -0.21548756140E+03 -0.32624876013E+03  0.68630432932E+03  0.78986503597E+03  0.25500000920E-02 0. -1.
</event>
<event>
 5   0  0.6097538E-04  0.1405744E+04  0.7818609E-02  0.8949671E-01
        1   -1    0    0  501    0  0.00000000000E+00  0.00000000000E+00  0.53597081110E+03  0.53597081113E+03  0.50400001928E-02 0. -1.
       -1   -1    0    0    0  501  0.00000000000E+00  0.00000000000E+00 -0.92174620395E+03  0.92174620396E+03  0.50400001928E-02 0.  1.
    10030    2    1    2    0    0  0.00000000000E+00  0.00000000000E+00 -0.38577539284E+03  0.14577170151E+04  0.14057440174E+04 0.  0.
        2    1    3    3  502    0 -0.56244614844E+03 -0.35681401744E+03 -0.42561142033E+03  0.79044733795E+03  0.25500000920E-02 0.  1.
       -2    1    3    3    0  502  0.56244614844E+03  0.35681401744E+03  0.39836027491E+02  0.66726967714E+03  0.25500000920E-02 0. -1.
</event>
<event>
 5   0  0.6097538E-04  0.1397001E+04  0.7818609E-02  0.8955992E-01
       -1   -1    0    0    0  501  0.00000000000E+00  0.00000000000E+00  0.72034467573E+03  0.72034467575E+03  0.50400001928E-02 0. -1.
        1   -1    0    0  501    0  0.00000000000E+00  0.00000000000E+00 -0.67731859341E+03  0.67731859342E+03  0.50400001928E-02 0.  1.
    10030    2    1    2    0    0  0.00000000000E+00  0.00000000000E+00  0.43026082326E+02  0.13976632692E+04  0.13970008483E+04 0.  0.
        2    1    3    3  502    0  0.25370900240E+03 -0.64060729045E+03 -0.93244809646E+02  0.69529889473E+03  0.25500000920E-02 0.  1.
       -2    1    3    3    0  502 -0.25370900240E+03  0.64060729045E+03  0.13627089197E+03  0.70236437444E+03  0.25500000920E-02 0. -1.
</event>
<event>
 5   0  0.1175146E-03  0.1383962E+04  0.7818609E-02  0.8965510E-01
        2   -1    0    0  501    0  0.00000000000E+00  0.00000000000E+00  0.12256500424E+04  0.12256500424E+04  0.25500000920E-02 0. -1.
       -2   -1    0    0    0  501  0.00000000000E+00  0.00000000000E+00 -0.39068066933E+03  0.39068066934E+03  0.25500000920E-02 0.  1.
    10030    2    1    2    0    0  0.00000000000E+00  0.00000000000E+00  0.83496937306E+03  0.16163307117E+04  0.13839621078E+04 0.  0.
        1    1    3    3  502    0 -0.42988671252E+02  0.28162429380E+03  0.11539826343E+04  0.11886278598E+04  0.50400001928E-02 0. -1.
       -1    1    3    3    0  502  0.42988671252E+02 -0.28162429380E+03 -0.31901326124E+03  0.42770285198E+03  0.50400001928E-02 0.  1.
</event>
<event>
 5   0  0.5875298E-04  0.1381506E+04  0.7818609E-02  0.8967315E-01
       -1   -1    0    0    0  501  0.00000000000E+00  0.00000000000E+00  0.35304482444E+03  0.35304482448E+03  0.50400001928E-02 0. -1.
        1   -1    0    0  501    0  0.00000000000E+00  0.00000000000E+00 -0.13514988165E+04  0.13514988165E+04  0.50400001928E-02 0.  1.
    10030    2    1    2    0    0  0.00000000000E+00  0.00000000000E+00 -0.99845399207E+03  0.17045436410E+04  0.13815059355E+04 0.  0.
        1    1    3    3  502    0 -0.54744127285E+03  0.41876583941E+03 -0.55553734495E+03  0.88525618729E+03  0.50400001928E-02 0. -1.
       -1    1    3    3    0  502  0.54744127285E+03 -0.41876583941E+03 -0.44291664712E+03  0.81928745371E+03  0.50400001928E-02 0.  1.
</event>
<event>
 5   0  0.6153318E-04  0.1397400E+04  0.7818609E-02  0.8955703E-01
        1   -1    0    0  501    0  0.00000000000E+00  0.00000000000E+00  0.72662332246E+03  0.72662332248E+03  0.50400001928E-02 0.  1.
       -1   -1    0    0    0  501  0.00000000000E+00  0.00000000000E+00 -0.67184952727E+03  0.67184952729E+03  0.50400001928E-02 0. -1.
    10030    2    1    2    0    0  0.00000000000E+00  0.00000000000E+00  0.54773795187E+02  0.13984728498E+04  0.13973997792E+04 0.  0.
        5    1    3    3  502    0  0.41632725430E+03  0.52684058820E+02 -0.53166130697E+03  0.67734026018E+03  0.46999998093E+01 0. -1.
       -5    1    3    3    0  502 -0.41632725430E+03 -0.52684058820E+02  0.58643510216E+03  0.72113258959E+03  0.46999998093E+01 0.  1.
</event>
<event>
 5   0  0.1108819E-03  0.1377094E+04  0.7818609E-02  0.8970568E-01
        2   -1    0    0  501    0  0.00000000000E+00  0.00000000000E+00  0.65344412196E+03  0.65344412196E+03  0.25500000920E-02 0. -1.
       -2   -1    0    0    0  501  0.00000000000E+00  0.00000000000E+00 -0.72553540161E+03  0.72553540162E+03  0.25500000920E-02 0.  1.
    10030    2    1    2    0    0  0.00000000000E+00  0.00000000000E+00 -0.72091279653E+02  0.13789795236E+04  0.13770938145E+04 0.  0.
        3    1    3    3  502    0  0.48796302642E+02 -0.59496294370E+03  0.30754933756E+03  0.67152705736E+03  0.10100000352E+00 0. -1.
       -3    1    3    3    0  502 -0.48796302642E+02  0.59496294370E+03 -0.37964061722E+03  0.70745246622E+03  0.10100000352E+00 0.  1.
</event>
<event>
 5   0  0.6194742E-04  0.1403106E+04  0.7818609E-02  0.8951573E-01
        1   -1    0    0  501    0  0.00000000000E+00  0.00000000000E+00  0.77473868964E+03  0.77473868965E+03  0.50400001928E-02 0.  1.
       -1   -1    0    0    0  501  0.00000000000E+00  0.00000000000E+00 -0.63528098558E+03  0.63528098560E+03  0.50400001928E-02 0. -1.
    10030    2    1    2    0    0  0.00000000000E+00  0.00000000000E+00  0.13945770405E+03  0.14100196753E+04  0.14031062089E+04 0.  0.
        4    1    3    3  502    0  0.50643305565E+03  0.14224024498E+03  0.53620177345E+03  0.75114624534E+03  0.12699999809E+01 0.  1.
       -4    1    3    3    0  502 -0.50643305565E+03 -0.14224024498E+03 -0.39674406939E+03  0.65887342991E+03  0.12699999809E+01 0. -1.
</event>
<event>
 5   0  0.1120053E-03  0.1391296E+04  0.7818609E-02  0.8960143E-01
        2   -1    0    0  501    0  0.00000000000E+00  0.00000000000E+00  0.18829077858E+04  0.18829077858E+04  0.25500000920E-02 0.  1.
       -2   -1    0    0    0  501  0.00000000000E+00  0.00000000000E+00 -0.25700993773E+03  0.25700993774E+03  0.25500000920E-02 0. -1.
    10030    2    1    2    0    0  0.00000000000E+00  0.00000000000E+00  0.16258978481E+04  0.21399177236E+04  0.13912958173E+04 0.  0.
        2    1    3    3  502    0 -0.50404821832E+03 -0.16888161098E+03  0.12279959791E+03  0.54558715726E+03  0.25500000920E-02 0. -1.
       -2    1    3    3    0  502  0.50404821832E+03  0.16888161098E+03  0.15030982502E+04  0.15943305663E+04  0.25500000920E-02 0.  1.
</event>
<event>
 5   0  0.6194742E-04  0.1416435E+04  0.7818609E-02  0.8942008E-01
        1   -1    0    0  501    0  0.00000000000E+00  0.00000000000E+00  0.92328357341E+03  0.92328357343E+03  0.50400001928E-02 0.  1.
       -1   -1    0    0    0  501  0.00000000000E+00  0.00000000000E+00 -0.54324770878E+03  0.54324770880E+03  0.50400001928E-02 0. -1.
    10030    2    1    2    0    0  0.00000000000E+00  0.00000000000E+00  0.38003586463E+03  0.14665312822E+04  0.14164345179E+04 0.  0.
        4    1    3    3  502    0 -0.69907787177E+03 -0.39086284500E+02  0.30023707111E+03  0.76182774969E+03  0.12699999809E+01 0. -1.
       -4    1    3    3    0  502  0.69907787177E+03  0.39086284500E+02  0.79798793525E+02  0.70470353254E+03  0.12699999809E+01 0.  1.
</event>
<event>
 5   0  0.5875298E-04  0.1398583E+04  0.7818609E-02  0.8954845E-01
        1   -1    0    0  501    0  0.00000000000E+00  0.00000000000E+00  0.70658795814E+03  0.70658795816E+03  0.50400001928E-02 0.  1.
       -1   -1    0    0    0  501  0.00000000000E+00  0.00000000000E+00 -0.69207085276E+03  0.69207085278E+03  0.50400001928E-02 0. -1.
    10030    2    1    2    0    0  0.00000000000E+00  0.00000000000E+00  0.14517105381E+02  0.13986588109E+04  0.13985834702E+04 0.  0.
        1    1    3    3  502    0 -0.60655300734E+03  0.29743803376E+03  0.18791433596E+03  0.70120448681E+03  0.50400001928E-02 0.  1.
       -1    1    3    3    0  502  0.60655300734E+03 -0.29743803376E+03 -0.17339723058E+03  0.69745432412E+03  0.50400001928E-02 0. -1.
</event>
<event>
 5   0  0.1095119E-03  0.1405781E+04  0.7818609E-02  0.8949644E-01
        2   -1    0    0  501    0  0.00000000000E+00  0.00000000000E+00  0.19390906748E+04  0.19390906748E+04  0.25500000920E-02 0. -1.
       -2   -1    0    0    0  501  0.00000000000E+00  0.00000000000E+00 -0.25478704021E+03  0.25478704022E+03  0.25500000920E-02 0.  1.
    10030    2    1    2    0    0  0.00000000000E+00  0.00000000000E+00  0.16843036346E+04  0.21938777150E+04  0.14057811689E+04 0.  0.
        5    1    3    3  502    0 -0.25720234544E+03  0.37510668293E+03  0.58404103331E+01  0.45487830292E+03  0.46999998093E+01 0.  1.
       -5    1    3    3    0  502  0.25720234544E+03 -0.37510668293E+03  0.16784632243E+04  0.17389994121E+04  0.46999998093E+01 0. -1.
</event>
<event>
 5   0  0.6114266E-04  0.1450647E+04  0.7818609E-02  0.8917952E-01
       -1   -1    0    0    0  501  0.00000000000E+00  0.00000000000E+00  0.32020708203E+03  0.32020708207E+03  0.50400001928E-02 0.  1.
        1   -1    0    0  501    0  0.00000000000E+00  0.00000000000E+00 -0.16429807154E+04  0.16429807154E+04  0.50400001928E-02 0. -1.
    10030    2    1    2    0    0  0.00000000000E+00  0.00000000000E+00 -0.13227736334E+04  0.19631877975E+04  0.14506468361E+04 0.  0.
        3    1    3    3  502    0  0.84208325915E+02  0.68664370772E+03 -0.95640856101E+03  0.11803761982E+04  0.10100000352E+00 0. -1.
       -3    1    3    3    0  502 -0.84208325915E+02 -0.68664370772E+03 -0.36636507236E+03  0.78281159927E+03  0.10100000352E+00 0.  1.
</event>
<event>
 5   0  0.6114266E-04  0.1363250E+04  0.7818609E-02  0.8980858E-01
        1   -1    0    0  501    0  0.00000000000E+00  0.00000000000E+00  0.89899608994E+03  0.89899608995E+03  0.50400001928E-02 0. -1.
       -1   -1    0    0    0  501  0.00000000000E+00  0.00000000000E+00 -0.51681306111E+03  0.51681306114E+03  0.50400001928E-02 0.  1.
    10030    2    1    2    0    0  0.00000000000E+00  0.00000000000E+00  0.38218302882E+03  0.14158091511E+04  0.13632504116E+04 0.  0.
        3    1    3    3  502    0 -0.22734030498E+03  0.52180157831E+03 -0.19840418423E+03  0.60276424240E+03  0.10100000352E+00 0.  1.
       -3    1    3    3    0  502  0.22734030498E+03 -0.52180157831E+03  0.58058721305E+03  0.81304490869E+03  0.10100000352E+00 0. -1.
</event>
<event>
 5   0  0.1120053E-03  0.1408892E+04  0.7818609E-02  0.8947407E-01
        2   -1    0    0  501    0  0.00000000000E+00  0.00000000000E+00  0.17832122737E+04  0.17832122737E+04  0.25500000920E-02 0. -1.
       -2   -1    0    0    0  501  0.00000000000E+00  0.00000000000E+00 -0.27828681240E+03  0.27828681241E+03  0.25500000920E-02 0.  1.
    10030    2    1    2    0    0  0.00000000000E+00  0.00000000000E+00  0.15049254613E+04  0.20614990861E+04  0.14088924153E+04 0.  0.
        2    1    3    3  502    0 -0.51551867300E+03  0.47986616755E+03  0.77383848055E+03  0.10463541632E+04  0.25500000920E-02 0.  1.
       -2    1    3    3    0  502  0.51551867300E+03 -0.47986616755E+03  0.73108698073E+03  0.10151449228E+04  0.25500000920E-02 0. -1.
</event>
<event>
 5   0  0.1098949E-03  0.1390953E+04  0.7818609E-02  0.8960394E-01
       -2   -1    0    0    0  501  0.00000000000E+00  0.00000000000E+00  0.46760094220E+03  0.46760094220E+03  0.25500000920E-02 0. -1.
        2   -1    0    0  501    0  0.00000000000E+00  0.00000000000E+00 -0.10344020903E+04  0.10344020903E+04  0.25500000920E-02 0.  1.
    10030    2    1    2    0    0  0.00000000000E+00  0.00000000000E+00 -0.56680114815E+03  0.15020030326E+04  0.13909527556E+04 0.  0.
        4    1    3    3  502    0  0.64006996880E+03  0.27146804807E+03 -0.26465635204E+03  0.74392813071E+03  0.12699999809E+01 0.  1.
       -4    1    3    3    0  502 -0.64006996880E+03 -0.27146804807E+03 -0.30214479611E+03  0.75807490184E+03  0.12699999809E+01 0. -1.
</event>
<event>
 5   0  0.6114266E-04  0.1383825E+04  0.7818609E-02  0.8965611E-01
        1   -1    0    0  501    0  0.00000000000E+00  0.00000000000E+00  0.92178273058E+03  0.92178273059E+03  0.50400001928E-02 0. -1.
       -1   -1    0    0    0  501  0.00000000000E+00  0.00000000000E+00 -0.51936622674E+03  0.51936622676E+03  0.50400001928E-02 0.  1.
    10030    2    1    2    0    0  0.00000000000E+00  0.00000000000E+00  0.40241650384E+03  0.14411489574E+04  0.13838248714E+04 0.  0.
        3    1    3    3  502    0 -0.65442529517E+03 -0.21903976732E+03  0.14922122887E+03  0.70605798061E+03  0.10100000352E+00 0. -1.
       -3    1    3    3    0  502  0.65442529517E+03  0.21903976732E+03  0.25319527497E+03  0.73509097675E+03  0.10100000352E+00 0.  1.
</event>
<event>
 5   0  0.1120053E-03  0.1394301E+04  0.7818609E-02  0.8957954E-01
       -2   -1    0    0    0  501  0.00000000000E+00  0.00000000000E+00  0.10271098765E+04  0.10271098765E+04  0.25500000920E-02 0.  1.
        2   -1    0    0  501    0  0.00000000000E+00  0.00000000000E+00 -0.47319089528E+03  0.47319089529E+03  0.25500000920E-02 0. -1.
    10030    2    1    2    0    0  0.00000000000E+00  0.00000000000E+00  0.55391898117E+03  0.15003007717E+04  0.13943013189E+04 0.  0.
        2    1    3    3  502    0  0.19077532760E+03  0.35947583651E+03 -0.33211243936E+03  0.52527780749E+03  0.25500000920E-02 0. -1.
       -2    1    3    3    0  502 -0.19077532760E+03 -0.35947583651E+03  0.88603142053E+03  0.97502296426E+03  0.25500000920E-02 0.  1.
</event>
<event>
 5   0  0.1098949E-03  0.1406944E+04  0.7818609E-02  0.8948807E-01
        2   -1    0    0  501    0  0.00000000000E+00  0.00000000000E+00  0.52823272349E+03  0.52823272349E+03  0.25500000920E-02 0. -1.
       -2   -1    0    0    0  501  0.00000000000E+00  0.00000000000E+00 -0.93684678157E+03  0.93684678158E+03  0.25500000920E-02 0.  1.
    10030    2    1    2    0    0  0.00000000000E+00  0.00000000000E+00 -0.40861405809E+03  0.14650795051E+04  0.14069443869E+04 0.  0.
        4    1    3    3  502    0  0.57699407249E+03  0.30468236244E+03  0.69459205240E+02  0.65618571743E+03  0.12699999809E+01 0. -1.
       -4    1    3    3    0  502 -0.57699407249E+03 -0.30468236244E+03 -0.47807326333E+03  0.80889378764E+03  0.12699999809E+01 0.  1.
</event>
<event>
 5   0  0.1108819E-03  0.1392233E+04  0.7818609E-02  0.8959460E-01
       -2   -1    0    0    0  501  0.00000000000E+00  0.00000000000E+00  0.60031009248E+03  0.60031009249E+03  0.25500000920E-02 0. -1.
        2   -1    0    0  501    0  0.00000000000E+00  0.00000000000E+00 -0.80721263868E+03  0.80721263868E+03  0.25500000920E-02 0.  1.
    10030    2    1    2    0    0  0.00000000000E+00  0.00000000000E+00 -0.20690254620E+03  0.14075227312E+04  0.13922325866E+04 0.  0.
        3    1    3    3  502    0  0.13740214272E+03  0.57696453121E+03 -0.47188533193E+03  0.75792030966E+03  0.10100000352E+00 0.  1.
       -3    1    3    3    0  502 -0.13740214272E+03 -0.57696453121E+03  0.26498278573E+03  0.64960242151E+03  0.10100000352E+00 0. -1.
</event>
<event>
 5   0  0.6114266E-04  0.1364641E+04  0.7818609E-02  0.8979818E-01
        1   -1    0    0  501    0  0.00000000000E+00  0.00000000000E+00  0.13033837779E+04  0.13033837779E+04  0.50400001928E-02 0.  1.
       -1   -1    0    0    0  501  0.00000000000E+00  0.00000000000E+00 -0.35719440168E+03  0.35719440172E+03  0.50400001928E-02 0. -1.
    10030    2    1    2    0    0  0.00000000000E+00  0.00000000000E+00  0.94618937626E+03  0.16605781797E+04  0.13646411818E+04 0.  0.
        3    1    3    3  502    0  0.38050575163E+03 -0.19866605527E+03  0.11184996796E+04  0.11980377173E+04  0.10100000352E+00 0.  1.
       -3    1    3    3    0  502 -0.38050575163E+03  0.19866605527E+03 -0.17231030332E+03  0.46254046241E+03  0.10100000352E+00 0. -1.
</event>
<event>
 5   0  0.1120053E-03  0.1403479E+04  0.7818609E-02  0.8951304E-01
        2   -1    0    0  501    0  0.00000000000E+00  0.00000000000E+00  0.19104400779E+04  0.19104400779E+04  0.25500000920E-02 0.  1.
       -2   -1    0    0    0  501  0.00000000000E+00  0.00000000000E+00 -0.25776155762E+03  0.25776155763E+03  0.25500000920E-02 0. -1.
    10030    2    1    2    0    0  0.00000000000E+00  0.00000000000E+00  0.16526785203E+04  0.21682016355E+04  0.14034785502E+04 0.  0.
        2    1    3    3  502    0  0.36839481394E+03 -0.25527318240E+02 -0.95515649062E+02  0.38143101884E+03  0.25500000920E-02 0. -1.
       -2    1    3    3    0  502 -0.36839481394E+03  0.25527318240E+02  0.17481941693E+04  0.17867706167E+04  0.25500000920E-02 0.  1.
</event>
<event>
 5   0  0.4176125E-04  0.1407340E+04  0.7818609E-02  0.8948523E-01
       -3   -1    0    0    0  501  0.00000000000E+00  0.00000000000E+00  0.47759153873E+03  0.47759154941E+03  0.10100000352E+00 0.  1.
        3   -1    0    0  501    0  0.00000000000E+00  0.00000000000E+00 -0.10367669256E+04  0.10367669306E+04  0.10100000352E+00 0. -1.
    10030    2    1    2    0    0  0.00000000000E+00  0.00000000000E+00 -0.55917538692E+03  0.15143584800E+04  0.14073395086E+04 0.  0.
        2    1    3    3  502    0  0.20577915460E+03  0.42540422882E+03  0.28144005458E+03  0.55002029299E+03  0.25500000920E-02 0.  1.
       -2    1    3    3    0  502 -0.20577915460E+03 -0.42540422882E+03 -0.84061544150E+03  0.96433818698E+03  0.25500000920E-02 0. -1.
</event>
<event>
 5   0  0.6194742E-04  0.1402719E+04  0.7818609E-02  0.8951853E-01
       -1   -1    0    0    0  501  0.00000000000E+00  0.00000000000E+00  0.29829181757E+03  0.29829181761E+03  0.50400001928E-02 0.  1.
        1   -1    0    0  501    0  0.00000000000E+00  0.00000000000E+00 -0.16490732794E+04  0.16490732794E+04  0.50400001928E-02 0. -1.
    10030    2    1    2    0    0  0.00000000000E+00  0.00000000000E+00 -0.13507814618E+04  0.19473650970E+04  0.14027188825E+04 0.  0.
        4    1    3    3  502    0 -0.21255040899E+03 -0.37615384063E+03 -0.14423869774E+04  0.15057062110E+04  0.12699999809E+01 0. -1.
       -4    1    3    3    0  502  0.21255040899E+03  0.37615384063E+03  0.91605515658E+02  0.44165888600E+03  0.12699999809E+01 0.  1.
</event>
<event>
 5   0  0.1120053E-03  0.1348815E+04  0.7818609E-02  0.8991726E-01
       -2   -1    0    0    0  501  0.00000000000E+00  0.00000000000E+00  0.67902621724E+03  0.67902621724E+03  0.25500000920E-02 0.  1.
        2   -1    0    0  501    0  0.00000000000E+00  0.00000000000E+00 -0.66981980762E+03  0.66981980763E+03  0.25500000920E-02 0. -1.
    10030    2    1    2    0    0  0.00000000000E+00  0.00000000000E+00  0.92064096155E+01  0.13488460249E+04  0.13488146058E+04 0.  0.
        2    1    3    3  502    0 -0.33291781426E+03 -0.13108405975E+03  0.57628767532E+03  0.67832498591E+03  0.25500000920E-02 0.  1.
       -2    1    3    3    0  502  0.33291781426E+03  0.13108405975E+03 -0.56708126570E+03  0.67052103896E+03  0.25500000920E-02 0. -1.
</event>
<event>
 5   0  0.6153318E-04  0.1330322E+04  0.7818609E-02  0.9005859E-01
        1   -1    0    0  501    0  0.00000000000E+00  0.00000000000E+00  0.51309215853E+03  0.51309215856E+03  0.50400001928E-02 0. -1.
       -1   -1    0    0    0  501  0.00000000000E+00  0.00000000000E+00 -0.86230001487E+03  0.86230001488E+03  0.50400001928E-02 0.  1.
    10030    2    1    2    0    0  0.00000000000E+00  0.00000000000E+00 -0.34920785634E+03  0.13753921734E+04  0.13303223308E+04 0.  0.
        5    1    3    3  502    0  0.47378788474E+02  0.14155808799E+03  0.49553292406E+03  0.51755039436E+03  0.46999998093E+01 0. -1.
       -5    1    3    3    0  502 -0.47378788474E+02 -0.14155808799E+03 -0.84474078040E+03  0.85784177908E+03  0.46999998093E+01 0.  1.
</event>
<event>
 5   0  0.6153318E-04  0.1410971E+04  0.7818609E-02  0.8945915E-01
       -1   -1    0    0    0  501  0.00000000000E+00  0.00000000000E+00  0.70369084688E+03  0.70369084690E+03  0.50400001928E-02 0. -1.
        1   -1    0    0  501    0  0.00000000000E+00  0.00000000000E+00 -0.70728456624E+03  0.70728456626E+03  0.50400001928E-02 0.  1.
    10030    2    1    2    0    0  0.00000000000E+00  0.00000000000E+00 -0.35937193633E+01  0.14109754132E+04  0.14109708366E+04 0.  0.
        5    1    3    3  502    0 -0.41182631910E+02  0.26847145345E+03 -0.65288625825E+03  0.70714601512E+03  0.46999998093E+01 0.  1.
       -5    1    3    3    0  502  0.41182631910E+02 -0.26847145345E+03  0.64929253889E+03  0.70382939804E+03  0.46999998093E+01 0. -1.
</event>
<event>
 5   0  0.6114266E-04  0.1345185E+04  0.7818609E-02  0.8994481E-01
       -1   -1    0    0    0  501  0.00000000000E+00  0.00000000000E+00  0.40183809543E+03  0.40183809546E+03  0.50400001928E-02 0. -1.
        1   -1    0    0  501    0  0.00000000000E+00  0.00000000000E+00 -0.11257776331E+04  0.11257776331E+04  0.50400001928E-02 0.  1.
    10030    2    1    2    0    0  0.00000000000E+00  0.00000000000E+00 -0.72393953766E+03  0.15276157286E+04  0.13451845078E+04 0.  0.
        3    1    3    3  502    0 -0.23735099605E+03 -0.62425307717E+03 -0.27145502994E+03  0.72091278472E+03  0.10100000352E+00 0. -1.
       -3    1    3    3    0  502  0.23735099605E+03  0.62425307717E+03 -0.45248450772E+03  0.80670294385E+03  0.10100000352E+00 0.  1.
</event>
<event>
 5   0  0.6097538E-04  0.1398379E+04  0.7818609E-02  0.8954992E-01
        1   -1    0    0  501    0  0.00000000000E+00  0.00000000000E+00  0.21448530827E+04  0.21448530827E+04  0.50400001928E-02 0. -1.
       -1   -1    0    0    0  501  0.00000000000E+00  0.00000000000E+00 -0.22792529152E+03  0.22792529157E+03  0.50400001928E-02 0.  1.
    10030    2    1    2    0    0  0.00000000000E+00  0.00000000000E+00  0.19169277911E+04  0.23727783742E+04  0.13983794395E+04 0.  0.
        2    1    3    3  502    0 -0.42196037545E+03 -0.35734593491E+03  0.23235869460E+03  0.59978099221E+03  0.25500000920E-02 0.  1.
       -2    1    3    3    0  502  0.42196037545E+03  0.35734593491E+03  0.16845690965E+04  0.17729973820E+04  0.25500000920E-02 0. -1.
</event>
<event>
 5   0  0.1095119E-03  0.1409376E+04  0.7818609E-02  0.8947059E-01
       -2   -1    0    0    0  501  0.00000000000E+00  0.00000000000E+00  0.27067067724E+03  0.27067067726E+03  0.25500000920E-02 0.  1.
        2   -1    0    0  501    0  0.00000000000E+00  0.00000000000E+00 -0.18346477210E+04  0.18346477210E+04  0.25500000920E-02 0. -1.
    10030    2    1    2    0    0  0.00000000000E+00  0.00000000000E+00 -0.15639770438E+04  0.21053183983E+04  0.14093762325E+04 0.  0.
        5    1    3    3  502    0  0.39962055981E+03 -0.52183789312E+03 -0.40245926051E+03  0.77071844722E+03  0.46999998093E+01 0.  1.
       -5    1    3    3    0  502 -0.39962055981E+03  0.52183789312E+03 -0.11615177833E+04  0.13345999510E+04  0.46999998093E+01 0. -1.
</event>
<event>
 5   0  0.6194742E-04  0.1406513E+04  0.7818609E-02  0.8949118E-01
       -1   -1    0    0    0  501  0.00000000000E+00  0.00000000000E+00  0.61892811243E+03  0.61892811245E+03  0.50400001928E-02 0. -1.
        1   -1    0    0  501    0  0.00000000000E+00  0.00000000000E+00 -0.79907405016E+03  0.79907405017E+03  0.50400001928E-02 0.  1.
    10030    2    1    2    0    0  0.00000000000E+00  0.00000000000E+00 -0.18014593773E+03  0.14180021626E+04  0.14065125575E+04 0.  0.
        4    1    3    3  502    0 -0.18662192050E+03  0.60784717638E+03  0.21281735086E+03  0.67052126646E+03  0.12699999809E+01 0. -1.
       -4    1    3    3    0  502  0.18662192050E+03 -0.60784717638E+03 -0.39296328859E+03  0.74748089616E+03  0.12699999809E+01 0.  1.
</event>
<event>
 5   0  0.6153318E-04  0.1413998E+04  0.7818609E-02  0.8943748E-01
       -1   -1    0    0    0  501  0.00000000000E+00  0.00000000000E+00  0.67708253359E+03  0.67708253360E+03  0.50400001928E-02 0.  1.
        1   -1    0    0  501    0  0.00000000000E+00  0.00000000000E+00 -0.73823724963E+03  0.73823724965E+03  0.50400001928E-02 0. -1.
    10030    2    1    2    0    0  0.00000000000E+00  0.00000000000E+00 -0.61154716046E+02  0.14153197833E+04  0.14139979454E+04 0.  0.
        5    1    3    3  502    0  0.32298600189E+03  0.17449770731E+03  0.57418614514E+03  0.68152859554E+03  0.46999998093E+01 0.  1.
       -5    1    3    3    0  502 -0.32298600189E+03 -0.17449770731E+03 -0.63534086118E+03  0.73379118771E+03  0.46999998093E+01 0. -1.
</event>
<event>
 5   0  0.1120053E-03  0.1407280E+04  0.7818609E-02  0.8948565E-01
       -2   -1    0    0    0  501  0.00000000000E+00  0.00000000000E+00  0.78654542110E+03  0.78654542111E+03  0.25500000920E-02 0.  1.
        2   -1    0    0  501    0  0.00000000000E+00  0.00000000000E+00 -0.62947345684E+03  0.62947345685E+03  0.25500000920E-02 0. -1.
    10030    2    1    2    0    0  0.00000000000E+00  0.00000000000E+00  0.15707196426E+03  0.14160188780E+04  0.14072803064E+04 0.  0.
        2    1    3    3  502    0 -0.34296097006E+02 -0.32035740642E+03  0.70796358564E+03  0.77782872711E+03  0.25500000920E-02 0.  1.
       -2    1    3    3    0  502  0.34296097006E+02  0.32035740642E+03 -0.55089162138E+03  0.63819015085E+03  0.25500000920E-02 0. -1.
</event>
<event>
 5   0  0.6097538E-04  0.1380196E+04  0.7818609E-02  0.8968280E-01
       -1   -1    0    0    0  501  0.00000000000E+00  0.00000000000E+00  0.57406952805E+03  0.57406952807E+03  0.50400001928E-02 0.  1.
        1   -1    0    0  501    0  0.00000000000E+00  0.00000000000E+00 -0.82957730855E+03  0.82957730857E+03  0.50400001928E-02 0. -1.
    10030    2    1    2    0    0  0.00000000000E+00  0.00000000000E+00 -0.25550778050E+03  0.14036468366E+04  0.13801957166E+04 0.  0.
        2    1    3    3  502    0 -0.58543753324E+03 -0.29382513199E+02 -0.49813226290E+03  0.76924390720E+03  0.25500000920E-02 0. -1.
       -2    1    3    3    0  502  0.58543753324E+03  0.29382513199E+02  0.24262448241E+03  0.63440292944E+03  0.25500000920E-02 0.  1.
</event>
<event>
 5   0  0.1095119E-03  0.1389064E+04  0.7818609E-02  0.8961773E-01
       -2   -1    0    0    0  501  0.00000000000E+00  0.00000000000E+00  0.18052777917E+04  0.18052777917E+04  0.25500000920E-02 0.  1.
        2   -1    0    0  501    0  0.00000000000E+00  0.00000000000E+00 -0.26720263870E+03  0.26720263872E+03  0.25500000920E-02 0. -1.
    10030    2    1    2    0    0  0.00000000000E+00  0.00000000000E+00  0.15380751530E+04  0.20724804304E+04  0.13890644183E+04 0.  0.
        5    1    3    3  502    0 -0.40413511434E+03  0.15070891259E+03  0.15812030584E+04  0.16389824798E+04  0.46999998093E+01 0.  1.
       -5    1    3    3    0  502  0.40413511434E+03 -0.15070891259E+03 -0.43127905455E+02  0.43349795064E+03  0.46999998093E+01 0. -1.
</event>
<event>
 5   0  0.5875298E-04  0.1402227E+04  0.7818609E-02  0.8952208E-01
        1   -1    0    0  501    0  0.00000000000E+00  0.00000000000E+00  0.10208946543E+04  0.10208946543E+04  0.50400001928E-02 0. -1.
       -1   -1    0    0    0  501  0.00000000000E+00  0.00000000000E+00 -0.48149949428E+03  0.48149949430E+03  0.50400001928E-02 0.  1.
    10030    2    1    2    0    0  0.00000000000E+00  0.00000000000E+00  0.53939516000E+03  0.15023941486E+04  0.14022271710E+04 0.  0.
        1    1    3    3  502    0  0.59976354532E+03  0.10157378999E+03 -0.10381168918E+03  0.61709838109E+03  0.50400001928E-02 0. -1.
       -1    1    3    3    0  502 -0.59976354532E+03 -0.10157378999E+03  0.64320684918E+03  0.88529576751E+03  0.50400001928E-02 0.  1.
</event>
<event>
 5   0  0.1108819E-03  0.1395251E+04  0.7818609E-02  0.8957263E-01
       -2   -1    0    0    0  501  0.00000000000E+00  0.00000000000E+00  0.55258656090E+03  0.55258656091E+03  0.25500000920E-02 0. -1.
        2   -1    0    0  501    0  0.00000000000E+00  0.00000000000E+00 -0.88073345666E+03  0.88073345666E+03  0.25500000920E-02 0.  1.
    10030    2    1    2    0    0  0.00000000000E+00  0.00000000000E+00 -0.32814689576E+03  0.14333200176E+04  0.13952511916E+04 0.  0.
        3    1    3    3  502    0 -0.43832744969E+01  0.92370180920E+02  0.54626244585E+03  0.55403441533E+03  0.10100000352E+00 0. -1.
       -3    1    3    3    0  502  0.43832744969E+01 -0.92370180920E+02 -0.87440934161E+03  0.87928560224E+03  0.10100000352E+00 0.  1.
</event>
<event>
 5   0  0.1095119E-03  0.1393522E+04  0.7818609E-02  0.8958521E-01
       -2   -1    0    0    0  501  0.00000000000E+00  0.00000000000E+00  0.27412543118E+03  0.27412543119E+03  0.25500000920E-02 0.  1.
        2   -1    0    0  501    0  0.00000000000E+00  0.00000000000E+00 -0.17710001731E+04  0.17710001731E+04  0.25500000920E-02 0. -1.
    10030    2    1    2    0    0  0.00000000000E+00  0.00000000000E+00 -0.14968747419E+04  0.20451256043E+04  0.13935224233E+04 0.  0.
        5    1    3    3  502    0 -0.13326465856E+03  0.35251550525E+02 -0.17507644960E+04  0.17561892129E+04  0.46999998093E+01 0. -1.
       -5    1    3    3    0  502  0.13326465856E+03 -0.35251550525E+02  0.25388975409E+03  0.28893639139E+03  0.46999998093E+01 0.  1.
</event>
<event>
 5   0  0.5875298E-04  0.1396414E+04  0.7818609E-02  0.8956418E-01
        1   -1    0    0  501    0  0.00000000000E+00  0.00000000000E+00  0.11854854426E+04  0.11854854426E+04  0.50400001928E-02 0. -1.
       -1   -1    0    0    0  501  0.00000000000E+00  0.00000000000E+00 -0.41121815023E+03  0.41121815026E+03  0.50400001928E-02 0.  1.
    10030    2    1    2    0    0  0.00000000000E+00  0.00000000000E+00  0.77426729235E+03  0.15967035929E+04  0.13964141662E+04 0.  0.
        1    1    3    3  502    0 -0.68117394253E+03  0.79364074035E+02  0.23718915126E+03  0.72564129549E+03  0.50400001928E-02 0.  1.
       -1    1    3    3    0  502  0.68117394253E+03 -0.79364074035E+02  0.53707814110E+03  0.87106229737E+03  0.50400001928E-02 0. -1.
</event>
<event>
 5   0  0.1120053E-03  0.1375012E+04  0.7818609E-02  0.8972107E-01
        2   -1    0    0  501    0  0.00000000000E+00  0.00000000000E+00  0.16215080741E+04  0.16215080741E+04  0.25500000920E-02 0.  1.
       -2   -1    0    0    0  501  0.00000000000E+00  0.00000000000E+00 -0.29149688303E+03  0.29149688304E+03  0.25500000920E-02 0. -1.
    10030    2    1    2    0    0  0.00000000000E+00  0.00000000000E+00  0.13300111911E+04  0.19130049572E+04  0.13750120718E+04 0.  0.
        2    1    3    3  502    0 -0.28325678844E+03 -0.59893482658E+03  0.40957611616E+03  0.77891586813E+03  0.25500000920E-02 0. -1.
       -2    1    3    3    0  502  0.28325678844E+03  0.59893482658E+03  0.92043507494E+03  0.11340890890E+04  0.25500000920E-02 0.  1.
</event>
<event>
 5   0  0.1095119E-03  0.1348870E+04  0.7818609E-02  0.8991684E-01
       -2   -1    0    0    0  501  0.00000000000E+00  0.00000000000E+00  0.45834031135E+03  0.45834031135E+03  0.25500000920E-02 0.  1.
        2   -1    0    0  501    0  0.00000000000E+00  0.00000000000E+00 -0.99241169293E+03  0.99241169294E+03  0.25500000920E-02 0. -1.
    10030    2    1    2    0    0  0.00000000000E+00  0.00000000000E+00 -0.53407138159E+03  0.14507520043E+04  0.13488695776E+04 0.  0.
        5    1    3    3  502    0  0.42763692780E+03 -0.97629120272E+02 -0.81801391361E+03  0.92820991160E+03  0.46999998093E+01 0.  1.
       -5    1    3    3    0  502 -0.42763692780E+03  0.97629120272E+02  0.28394253202E+03  0.52254209269E+03  0.46999998093E+01 0. -1.
</event>
<event>
 5   0  0.6097538E-04  0.1402815E+04  0.7818609E-02  0.8951783E-01
        1   -1    0    0  501    0  0.00000000000E+00  0.00000000000E+00  0.54073719499E+03  0.54073719502E+03  0.50400001928E-02 0. -1.
       -1   -1    0    0    0  501  0.00000000000E+00  0.00000000000E+00 -0.90981796574E+03  0.90981796575E+03  0.50400001928E-02 0.  1.
    10030    2    1    2    0    0  0.00000000000E+00  0.00000000000E+00 -0.36908077074E+03  0.14505551608E+04  0.14028149055E+04 0.  0.
        2    1    3    3  502    0 -0.49874856999E+03  0.18116803658E+03  0.28976404268E+03  0.60459506613E+03  0.25500000920E-02 0. -1.
       -2    1    3    3    0  502  0.49874856999E+03 -0.18116803658E+03 -0.65884481342E+03  0.84596009464E+03  0.25500000920E-02 0.  1.
</event>
<event>
 5   0  0.1095119E-03  0.1350836E+04  0.7818609E-02  0.8990195E-01
        2   -1    0    0  501    0  0.00000000000E+00  0.00000000000E+00  0.21878928971E+04  0.21878928971E+04  0.25500000920E-02 0. -1.
       -2   -1    0    0    0  501  0.00000000000E+00  0.00000000000E+00 -0.20850645635E+03  0.20850645636E+03  0.25500000920E-02 0.  1.
    10030    2    1    2    0    0  0.00000000000E+00  0.00000000000E+00  0.19793864408E+04  0.23963993535E+04  0.13508364740E+04 0.  0.
        5    1    3    3  502    0  0.11944834934E+03  0.93022437110E+02  0.21573736684E+04  0.21626845163E+04  0.46999998093E+01 0. -1.
       -5    1    3    3    0  502 -0.11944834934E+03 -0.93022437110E+02 -0.17798722757E+03  0.23371483723E+03  0.46999998093E+01 0.  1.
</event>
<event>
 5   0  0.6194742E-04  0.1386051E+04  0.7818609E-02  0.8963978E-01
       -1   -1    0    0    0  501  0.00000000000E+00  0.00000000000E+00  0.65246551402E+03  0.65246551404E+03  0.50400001928E-02 0.  1.
        1   -1    0    0  501    0  0.00000000000E+00  0.00000000000E+00 -0.73610670680E+03  0.73610670682E+03  0.50400001928E-02 0. -1.
    10030    2    1    2    0    0  0.00000000000E+00  0.00000000000E+00 -0.83641192782E+02  0.13885722209E+04  0.13860508517E+04 0.  0.
        4    1    3    3  502    0 -0.48664066672E+03 -0.48250589802E+03 -0.14521467550E+03  0.70051409337E+03  0.12699999809E+01 0. -1.
       -4    1    3    3    0  502  0.48664066672E+03  0.48250589802E+03  0.61573482719E+02  0.68805812749E+03  0.12699999809E+01 0.  1.
</event>
<event>
 5   0  0.6153318E-04  0.1399946E+04  0.7818609E-02  0.8953857E-01
        1   -1    0    0  501    0  0.00000000000E+00  0.00000000000E+00  0.13446086188E+04  0.13446086188E+04  0.50400001928E-02 0. -1.
       -1   -1    0    0    0  501  0.00000000000E+00  0.00000000000E+00 -0.36439030542E+03  0.36439030546E+03  0.50400001928E-02 0.  1.
    10030    2    1    2    0    0  0.00000000000E+00  0.00000000000E+00  0.98021831333E+03  0.17089989242E+04  0.13999462065E+04 0.  0.
        5    1    3    3  502    0 -0.57056251147E+03  0.40369093785E+03  0.53630977800E+03  0.88099842269E+03  0.46999998093E+01 0.  1.
       -5    1    3    3    0  502  0.57056251147E+03 -0.40369093785E+03  0.44390853533E+03  0.82800050154E+03  0.46999998093E+01 0. -1.
</event>
<event>
 5   0  0.6153318E-04  0.1380489E+04  0.7818609E-02  0.8968064E-01
       -1   -1    0    0    0  501  0.00000000000E+00  0.00000000000E+00  0.50233300697E+03  0.50233300700E+03  0.50400001928E-02 0.  1.
        1   -1    0    0  501    0  0.00000000000E+00  0.00000000000E+00 -0.94844950458E+03  0.94844950460E+03  0.50400001928E-02 0. -1.
    10030    2    1    2    0    0  0.00000000000E+00  0.00000000000E+00 -0.44611649761E+03  0.14507825116E+04  0.13804890316E+04 0.  0.
        5    1    3    3  502    0  0.59312222663E+03  0.30521699583E+03 -0.36645162664E+02  0.66806911934E+03  0.46999998093E+01 0. -1.
       -5    1    3    3    0  502 -0.59312222663E+03 -0.30521699583E+03 -0.40947133495E+03  0.78271339225E+03  0.46999998093E+01 0.  1.
</event>
<event>
 5   0  0.4176125E-04  0.1386396E+04  0.7818609E-02  0.8963725E-01
       -3   -1    0    0    0  501  0.00000000000E+00  0.00000000000E+00  0.12318822649E+04  0.12318822690E+04  0.10100000352E+00 0. -1.
        3   -1    0    0  501    0  0.00000000000E+00  0.00000000000E+00 -0.39007233287E+03  0.39007234594E+03  0.10100000352E+00 0.  1.
    10030    2    1    2    0    0  0.00000000000E+00  0.00000000000E+00  0.84180993200E+03  0.16219546149E+04  0.13863956186E+04 0.  0.
        4    1    3    3  502    0 -0.55729769862E+03  0.58701169649E+02  0.89827171796E+03  0.10587352098E+04  0.12699999809E+01 0. -1.
       -4    1    3    3    0  502  0.55729769862E+03 -0.58701169649E+02 -0.56461785961E+02  0.56321940519E+03  0.12699999809E+01 0.  1.
</event>
<event>
 5   0  0.1108819E-03  0.1397842E+04  0.7818609E-02  0.8955382E-01
       -2   -1    0    0    0  501  0.00000000000E+00  0.00000000000E+00  0.40540352922E+03  0.40540352922E+03  0.25500000920E-02 0.  1.
        2   -1    0    0  501    0  0.00000000000E+00  0.00000000000E+00 -0.12049485800E+04  0.12049485800E+04  0.25500000920E-02 0. -1.
    10030    2    1    2    0    0  0.00000000000E+00  0.00000000000E+00 -0.79954505082E+03  0.16103521093E+04  0.13978417748E+04 0.  0.
        3    1    3    3  502    0  0.46937599110E+03 -0.69555017993E+02  0.19140804780E+03  0.51165298056E+03  0.10100000352E+00 0.  1.
       -3    1    3    3    0  502 -0.46937599110E+03  0.69555017993E+02 -0.99095309862E+03  0.10986991287E+04  0.10100000352E+00 0. -1.
</event>
<event>
 5   0  0.6153318E-04  0.1382356E+04  0.7818609E-02  0.8966690E-01
        1   -1    0    0  501    0  0.00000000000E+00  0.00000000000E+00  0.17423676941E+04  0.17423676941E+04  0.50400001928E-02 0. -1.
       -1   -1    0    0    0  501  0.00000000000E+00  0.00000000000E+00 -0.27418251006E+03  0.27418251011E+03  0.50400001928E-02 0.  1.
    10030    2    1    2    0    0  0.00000000000E+00  0.00000000000E+00  0.14681851840E+04  0.20165502042E+04  0.13823555952E+04 0.  0.
        5    1    3    3  502    0  0.10337053031E+03  0.46123586694E+03 -0.15145454464E+01  0.47270326351E+03  0.46999998093E+01 0.  1.
       -5    1    3    3    0  502 -0.10337053031E+03 -0.46123586694E+03  0.14696997294E+04  0.15438469407E+04  0.46999998093E+01 0. -1.
</event>
<event>
 5   0  0.6153318E-04  0.1427159E+04  0.7818609E-02  0.8934391E-01
        1   -1    0    0  501    0  0.00000000000E+00  0.00000000000E+00  0.43935295045E+03  0.43935295048E+03  0.50400001928E-02 0.  1.
       -1   -1    0    0    0  501  0.00000000000E+00  0.00000000000E+00 -0.11589675821E+04  0.11589675821E+04  0.50400001928E-02 0. -1.
    10030    2    1    2    0    0  0.00000000000E+00  0.00000000000E+00 -0.71961463163E+03  0.15983205326E+04  0.14271591736E+04 0.  0.
        5    1    3    3  502    0 -0.64901623635E+03 -0.25121007927E+03 -0.53633480502E+03  0.87863854460E+03  0.46999998093E+01 0. -1.
       -5    1    3    3    0  502  0.64901623635E+03  0.25121007927E+03 -0.18327982661E+03  0.71968198797E+03  0.46999998093E+01 0.  1.
</event>
<event>
 5   0  0.1108819E-03  0.1404696E+04  0.7818609E-02  0.8950426E-01
        2   -1    0    0  501    0  0.00000000000E+00  0.00000000000E+00  0.22890344730E+04  0.22890344730E+04  0.25500000920E-02 0.  1.
       -2   -1    0    0    0  501  0.00000000000E+00  0.00000000000E+00 -0.21550246517E+03  0.21550246519E+03  0.25500000920E-02 0. -1.
    10030    2    1    2    0    0  0.00000000000E+00  0.00000000000E+00  0.20735320078E+04  0.25045369381E+04  0.14046957988E+04 0.  0.
        3    1    3    3  502    0  0.15012394581E+03  0.35671187832E+03  0.20817655774E+04  0.21174344128E+04  0.10100000352E+00 0.  1.
       -3    1    3    3    0  502 -0.15012394581E+03 -0.35671187832E+03 -0.82335696009E+01  0.38710252532E+03  0.10100000352E+00 0. -1.
</event>
<event>
 5   0  0.1175146E-03  0.1411257E+04  0.7818609E-02  0.8945710E-01
       -2   -1    0    0    0  501  0.00000000000E+00  0.00000000000E+00  0.30302562538E+03  0.30302562539E+03  0.25500000920E-02 0. -1.
        2   -1    0    0  501    0  0.00000000000E+00  0.00000000000E+00 -0.16431338798E+04  0.16431338798E+04  0.25500000920E-02 0.  1.
    10030    2    1    2    0    0  0.00000000000E+00  0.00000000000E+00 -0.13401082544E+04  0.19461595052E+04  0.14112571297E+04 0.  0.
        1    1    3    3  502    0  0.45794056290E+03 -0.51325694969E+03 -0.45301893230E+03  0.82363123338E+03  0.50400001928E-02 0. -1.
       -1    1    3    3    0  502 -0.45794056290E+03  0.51325694969E+03 -0.88708932209E+03  0.11225282718E+04  0.50400001928E-02 0.  1.
</event>
<event>
 5   0  0.1098949E-03  0.1423802E+04  0.7818609E-02  0.8936768E-01
       -2   -1    0    0    0  501  0.00000000000E+00  0.00000000000E+00  0.50534674506E+03  0.50534674506E+03  0.25500000920E-02 0. -1.
        2   -1    0    0  501    0  0.00000000000E+00  0.00000000000E+00 -0.10028815037E+04  0.10028815037E+04  0.25500000920E-02 0.  1.
    10030    2    1    2    0    0  0.00000000000E+00  0.00000000000E+00 -0.49753475865E+03  0.15082282488E+04  0.14238018171E+04 0.  0.
        4    1    3    3  502    0  0.69378140084E+03  0.11289318310E+03 -0.12927898208E+03  0.71469725832E+03  0.12699999809E+01 0. -1.
       -4    1    3    3    0  502 -0.69378140084E+03 -0.11289318310E+03 -0.36825577658E+03  0.79353099046E+03  0.12699999809E+01 0.  1.
</event>
<event>
 5   0  0.6097538E-04  0.1394898E+04  0.7818609E-02  0.8957520E-01
        1   -1    0    0  501    0  0.00000000000E+00  0.00000000000E+00  0.72838965378E+03  0.72838965379E+03  0.50400001928E-02 0.  1.
       -1   -1    0    0    0  501  0.00000000000E+00  0.00000000000E+00 -0.66782249686E+03  0.66782249687E+03  0.50400001928E-02 0. -1.
    10030    2    1    2    0    0  0.00000000000E+00  0.00000000000E+00  0.60567156921E+02  0.13962121507E+04  0.13948978418E+04 0.  0.
        2    1    3    3  502    0 -0.56712299391E+03 -0.28466446815E+03 -0.25942418381E+03  0.68553866179E+03  0.25500000920E-02 0. -1.
       -2    1    3    3    0  502  0.56712299391E+03  0.28466446815E+03  0.31999134073E+03  0.71067348888E+03  0.25500000920E-02 0.  1.
</event>
<event>
 5   0  0.1095119E-03  0.1398703E+04  0.7818609E-02  0.8954758E-01
       -2   -1    0    0    0  501  0.00000000000E+00  0.00000000000E+00  0.76094169725E+03  0.76094169725E+03  0.25500000920E-02 0. -1.
        2   -1    0    0  501    0  0.00000000000E+00  0.00000000000E+00 -0.64274642623E+03  0.64274642623E+03  0.25500000920E-02 0.  1.
    10030    2    1    2    0    0  0.00000000000E+00  0.00000000000E+00  0.11819527102E+03  0.14036881235E+04  0.13987030514E+04 0.  0.
        5    1    3    3  502    0  0.41025539769E+03 -0.25247132480E+02  0.62690879055E+03  0.74965567476E+03  0.46999998093E+01 0. -1.
       -5    1    3    3    0  502 -0.41025539769E+03  0.25247132480E+02 -0.50871351953E+03  0.65403244872E+03  0.46999998093E+01 0.  1.
</event>
<event>
 5   0  0.6194742E-04  0.1374541E+04  0.7818609E-02  0.8972456E-01
       -1   -1    0    0    0  501  0.00000000000E+00  0.00000000000E+00  0.87886715637E+03  0.87886715639E+03  0.50400001928E-02 0.  1.
        1   -1    0    0  501    0  0.00000000000E+00  0.00000000000E+00 -0.53744267742E+03  0.53744267744E+03  0.50400001928E-02 0. -1.
    10030    2    1    2    0    0  0.00000000000E+00  0.00000000000E+00  0.34142447896E+03  0.14163098338E+04  0.13745409672E+04 0.  0.
        4    1    3    3  502    0  0.39593476669E+03  0.55844253166E+03  0.10789489462E+03  0.69301177611E+03  0.12699999809E+01 0. -1.
       -4    1    3    3    0  502 -0.39593476669E+03 -0.55844253166E+03  0.23352958434E+03  0.72329805772E+03  0.12699999809E+01 0.  1.
</event>
<event>
 5   0  0.1175146E-03  0.1279999E+04  0.7818609E-02  0.9045578E-01
        2   -1    0    0  501    0  0.00000000000E+00  0.00000000000E+00  0.44996782150E+03  0.44996782151E+03  0.25500000920E-02 0. -1.
       -2   -1    0    0    0  501  0.00000000000E+00  0.00000000000E+00 -0.91028601913E+03  0.91028601913E+03  0.25500000920E-02 0.  1.
    10030    2    1    2    0    0  0.00000000000E+00  0.00000000000E+00 -0.46031819762E+03  0.13602538406E+04  0.12799990890E+04 0.  0.
        1    1    3    3  502    0  0.15510562549E+03  0.66692035493E+00 -0.89000983757E+03  0.90342443560E+03  0.50400001928E-02 0.  1.
       -1    1    3    3    0  502 -0.15510562549E+03 -0.66692035493E+00  0.42969163995E+03  0.45682940504E+03  0.50400001928E-02 0. -1.
</event>
<event>
 5   0  0.4176125E-04  0.1313277E+04  0.7818609E-02  0.9019102E-01
        4   -1    0    0  501    0  0.00000000000E+00  0.00000000000E+00  0.11313421226E+04  0.11313428354E+04  0.12699999809E+01 0.  1.
       -4   -1    0    0    0  501  0.00000000000E+00  0.00000000000E+00 -0.38111573249E+03  0.38111784851E+03  0.12699999809E+01 0. -1.
    10030    2    1    2    0    0  0.00000000000E+00  0.00000000000E+00  0.75022639008E+03  0.15124606839E+04  0.13132774589E+04 0.  0.
        2    1    3    3  502    0  0.23063350040E+03  0.34633263616E+03  0.96012956571E+03  0.10464162123E+04  0.25500000920E-02 0.  1.
       -2    1    3    3    0  502 -0.23063350040E+03 -0.34633263616E+03 -0.20990317563E+03  0.46604447162E+03  0.25500000920E-02 0. -1.
</event>
<event>
 5   0  0.1120053E-03  0.1243229E+04  0.7818609E-02  0.9075838E-01
        2   -1    0    0  501    0  0.00000000000E+00  0.00000000000E+00  0.13618983316E+04  0.13618983316E+04  0.25500000920E-02 0. -1.
       -2   -1    0    0    0  501  0.00000000000E+00  0.00000000000E+00 -0.28372501211E+03  0.28372501212E+03  0.25500000920E-02 0.  1.
    10030    2    1    2    0    0  0.00000000000E+00  0.00000000000E+00  0.10781733195E+04  0.16456233438E+04  0.12432290548E+04 0.  0.
        2    1    3    3  502    0 -0.14281311491E+03  0.14850618716E+03  0.13153875217E+04  0.13314255539E+04  0.25500000920E-02 0. -1.
       -2    1    3    3    0  502  0.14281311491E+03 -0.14850618716E+03 -0.23721420217E+03  0.31419778983E+03  0.25500000920E-02 0.  1.
</event>
<event>
 5   0  0.5875298E-04  0.1373741E+04  0.7818609E-02  0.8973049E-01
        1   -1    0    0  501    0  0.00000000000E+00  0.00000000000E+00  0.15054819314E+04  0.15054819314E+04  0.50400001928E-02 0.  1.
       -1   -1    0    0    0  501  0.00000000000E+00  0.00000000000E+00 -0.31338193667E+03  0.31338193671E+03  0.50400001928E-02 0. -1.
    10030    2    1    2    0    0  0.00000000000E+00  0.00000000000E+00  0.11920999948E+04  0.18188638681E+04  0.13737406500E+04 0.  0.
        1    1    3    3  502    0  0.67366339323E+03  0.11727065031E+03  0.68202048277E+03  0.96577777555E+03  0.50400001928E-02 0. -1.
       -1    1    3    3    0  502 -0.67366339323E+03 -0.11727065031E+03  0.51007951198E+03  0.85308609259E+03  0.50400001928E-02 0.  1.
</event>
<event>
 5   0  0.6194742E-04  0.1405383E+04  0.7818609E-02  0.8949931E-01
        1   -1    0    0  501    0  0.00000000000E+00  0.00000000000E+00  0.13231587126E+04  0.13231587126E+04  0.50400001928E-02 0.  1.
       -1   -1    0    0    0  501  0.00000000000E+00  0.00000000000E+00 -0.37317944179E+03  0.37317944183E+03  0.50400001928E-02 0. -1.
    10030    2    1    2    0    0  0.00000000000E+00  0.00000000000E+00  0.94997927083E+03  0.16963381545E+04  0.14053834065E+04 0.  0.
        4    1    3    3  502    0 -0.35798713186E+03 -0.42052843050E+03 -0.49443263723E+02  0.55447740861E+03  0.12699999809E+01 0. -1.
       -4    1    3    3    0  502  0.35798713186E+03  0.42052843050E+03  0.99942253455E+03  0.11418607458E+04  0.12699999809E+01 0.  1.
</event>
<event>
 5   0  0.1120053E-03  0.1350120E+04  0.7818609E-02  0.8990737E-01
       -2   -1    0    0    0  501  0.00000000000E+00  0.00000000000E+00  0.61771789215E+03  0.61771789215E+03  0.25500000920E-02 0.  1.
        2   -1    0    0  501    0  0.00000000000E+00  0.00000000000E+00 -0.73772532348E+03  0.73772532348E+03  0.25500000920E-02 0. -1.
    10030    2    1    2    0    0  0.00000000000E+00  0.00000000000E+00 -0.12000743133E+03  0.13554432156E+04  0.13501201899E+04 0.  0.
        2    1    3    3  502    0 -0.16373761726E+03  0.24280500816E+03 -0.67063019023E+03  0.73178489418E+03  0.25500000920E-02 0. -1.
       -2    1    3    3    0  502  0.16373761726E+03 -0.24280500816E+03  0.55062275890E+03  0.62365832145E+03  0.25500000920E-02 0.  1.
</event>
<event>
 5   0  0.1095119E-03  0.1160598E+04  0.7818609E-02  0.9148062E-01
       -2   -1    0    0    0  501  0.00000000000E+00  0.00000000000E+00  0.68261382259E+03  0.68261382260E+03  0.25500000920E-02 0.  1.
        2   -1    0    0  501    0  0.00000000000E+00  0.00000000000E+00 -0.49331966014E+03  0.49331966014E+03  0.25500000920E-02 0. -1.
    10030    2    1    2    0    0  0.00000000000E+00  0.00000000000E+00  0.18929416245E+03  0.11759334827E+04  0.11605978097E+04 0.  0.
        5    1    3    3  502    0 -0.27817615581E+03 -0.20835968940E+03  0.56546880343E+03  0.66375657547E+03  0.46999998093E+01 0.  1.
       -5    1    3    3    0  502  0.27817615581E+03  0.20835968940E+03 -0.37617464098E+03  0.51217690727E+03  0.46999998093E+01 0. -1.
</event>
<event>
 5   0  0.6194742E-04  0.1393915E+04  0.7818609E-02  0.8958235E-01
       -1   -1    0    0    0  501  0.00000000000E+00  0.00000000000E+00  0.57728088627E+03  0.57728088629E+03  0.50400001928E-02 0.  1.
        1   -1    0    0  501    0  0.00000000000E+00  0.00000000000E+00 -0.84144435104E+03  0.84144435106E+03  0.50400001928E-02 0. -1.
    10030    2    1    2    0    0  0.00000000000E+00  0.00000000000E+00 -0.26416346478E+03  0.14187252373E+04  0.13939149769E+04 0.  0.
        4    1    3    3  502    0 -0.31702663478E+03 -0.56361106080E+03 -0.39667973875E+03  0.75863017542E+03  0.12699999809E+01 0. -1.
       -4    1    3    3    0  502  0.31702663478E+03  0.56361106080E+03  0.13251627397E+03  0.66009506193E+03  0.12699999809E+01 0.  1.
</event>
<event>
 5   0  0.6097538E-04  0.1420621E+04  0.7818609E-02  0.8939026E-01
       -1   -1    0    0    0  501  0.00000000000E+00  0.00000000000E+00  0.16073930340E+03  0.16073930347E+03  0.50400001928E-02 0.  1.
        1   -1    0    0  501    0  0.00000000000E+00  0.00000000000E+00 -0.31388756245E+04  0.31388756245E+04  0.50400001928E-02 0. -1.
    10030    2    1    2    0    0  0.00000000000E+00  0.00000000000E+00 -0.29781363211E+04  0.32996149280E+04  0.14206205425E+04 0.  0.
        2    1    3    3  502    0 -0.52811315552E+03 -0.22444416566E+03 -0.51670377825E+03  0.77217969606E+03  0.25500000920E-02 0.  1.
       -2    1    3    3    0  502  0.52811315552E+03  0.22444416566E+03 -0.24614325428E+04  0.25274352319E+04  0.25500000920E-02 0. -1.
</event>
<event>
 5   0  0.1098949E-03  0.1416208E+04  0.7818609E-02  0.8942169E-01
       -2   -1    0    0    0  501  0.00000000000E+00  0.00000000000E+00  0.20742501474E+03  0.20742501475E+03  0.25500000920E-02 0. -1.
        2   -1    0    0  501    0  0.00000000000E+00  0.00000000000E+00 -0.24173151284E+04  0.24173151284E+04  0.25500000920E-02 0.  1.
    10030    2    1    2    0    0  0.00000000000E+00  0.00000000000E+00 -0.22098901136E+04  0.26247401431E+04  0.14162084962E+04 0.  0.
        4    1    3    3  502    0  0.18739165960E+03  0.73042417984E+02 -0.23632628976E+04  0.23718060555E+04  0.12699999809E+01 0.  1.
       -4    1    3    3    0  502 -0.18739165960E+03 -0.73042417984E+02  0.15337278397E+03  0.25293408761E+03  0.12699999809E+01 0. -1.
</event>
<event>
 5   0  0.6153318E-04  0.1404096E+04  0.7818609E-02  0.8950859E-01
       -1   -1    0    0    0  501  0.00000000000E+00  0.00000000000E+00  0.65916590684E+03  0.65916590686E+03  0.50400001928E-02 0. -1.
        1   -1    0    0  501    0  0.00000000000E+00  0.00000000000E+00 -0.74771929373E+03  0.74771929375E+03  0.50400001928E-02 0.  1.
    10030    2    1    2    0    0  0.00000000000E+00  0.00000000000E+00 -0.88553386891E+02  0.14068852006E+04  0.14040955329E+04 0.  0.
        5    1    3    3  502    0 -0.68067086409E+03  0.11949716058E+03  0.79486240188E+02  0.69565260654E+03  0.46999998093E+01 0.  1.
       -5    1    3    3    0  502  0.68067086409E+03 -0.11949716058E+03 -0.16803962708E+03  0.71123259407E+03  0.46999998093E+01 0. -1.
</event>
<event>
 5   0  0.1098949E-03  0.1375181E+04  0.7818609E-02  0.8971982E-01
       -2   -1    0    0    0  501  0.00000000000E+00  0.00000000000E+00  0.44719277378E+03  0.44719277379E+03  0.25500000920E-02 0.  1.
        2   -1    0    0  501    0  0.00000000000E+00  0.00000000000E+00 -0.10572189708E+04  0.10572189708E+04  0.25500000920E-02 0. -1.
    10030    2    1    2    0    0  0.00000000000E+00  0.00000000000E+00 -0.61002619699E+03  0.15044117446E+04  0.13751809830E+04 0.  0.
        4    1    3    3  502    0  0.72837450583E+02 -0.65939836866E+03 -0.10728642436E+03  0.67202938369E+03  0.12699999809E+01 0.  1.
       -4    1    3    3    0  502 -0.72837450583E+02  0.65939836866E+03 -0.50273977263E+03  0.83238236086E+03  0.12699999809E+01 0. -1.
</event>
<event>
 5   0  0.1098949E-03  0.1454444E+04  0.7818609E-02  0.8915326E-01
        2   -1    0    0  501    0  0.00000000000E+00  0.00000000000E+00  0.82213763783E+03  0.82213763784E+03  0.25500000920E-02 0.  1.
       -2   -1    0    0    0  501  0.00000000000E+00  0.00000000000E+00 -0.64326397335E+03  0.64326397335E+03  0.25500000920E-02 0. -1.
    10030    2    1    2    0    0  0.00000000000E+00  0.00000000000E+00  0.17887366449E+03  0.14654016112E+04  0.14544435686E+04 0.  0.
        4    1    3    3  502    0 -0.32380913742E+03 -0.27040110748E+03 -0.50737797250E+03  0.65985084397E+03  0.12699999809E+01 0. -1.
       -4    1    3    3    0  502  0.32380913742E+03  0.27040110748E+03  0.68625163699E+03  0.80555076722E+03  0.12699999809E+01 0.  1.
</event>
<event>
 5   0  0.1095119E-03  0.1399887E+04  0.7818609E-02  0.8953901E-01
       -2   -1    0    0    0  501  0.00000000000E+00  0.00000000000E+00  0.68995673247E+03  0.68995673247E+03  0.25500000920E-02 0.  1.
        2   -1    0    0  501    0  0.00000000000E+00  0.00000000000E+00 -0.71007435830E+03  0.71007435831E+03  0.25500000920E-02 0. -1.
    10030    2    1    2    0    0  0.00000000000E+00  0.00000000000E+00 -0.20117625833E+02  0.14000310908E+04  0.13998865441E+04 0.  0.
        5    1    3    3  502    0 -0.49946184227E+03 -0.37676614955E+03  0.30379460804E+03  0.69550565577E+03  0.46999998093E+01 0.  1.
       -5    1    3    3    0  502  0.49946184227E+03  0.37676614955E+03 -0.32391223387E+03  0.70452543501E+03  0.46999998093E+01 0. -1.
</event>
<event>
 5   0  0.6097538E-04  0.1395185E+04  0.7818609E-02  0.8957311E-01
       -1   -1    0    0    0  501  0.00000000000E+00  0.00000000000E+00  0.64742861909E+03  0.64742861911E+03  0.50400001928E-02 0. -1.
        1   -1    0    0  501    0  0.00000000000E+00  0.00000000000E+00 -0.75164289604E+03  0.75164289605E+03  0.50400001928E-02 0.  1.
    10030    2    1    2    0    0  0.00000000000E+00  0.00000000000E+00 -0.10421427695E+03  0.13990715152E+04  0.13951847509E+04 0.  0.
        2    1    3    3  502    0  0.53391285688E+03  0.20867796124E+02  0.39762494826E+03  0.66603603742E+03  0.25500000920E-02 0. -1.
       -2    1    3    3    0  502 -0.53391285688E+03 -0.20867796124E+02 -0.50183922521E+03  0.73303547774E+03  0.25500000920E-02 0.  1.
</event>
<event>
 5   0  0.5875298E-04  0.1322898E+04  0.7818609E-02  0.9011601E-01
        1   -1    0    0  501    0  0.00000000000E+00  0.00000000000E+00  0.50190527070E+03  0.50190527072E+03  0.50400001928E-02 0.  1.
       -1   -1    0    0    0  501  0.00000000000E+00  0.00000000000E+00 -0.87170780041E+03  0.87170780043E+03  0.50400001928E-02 0. -1.
    10030    2    1    2    0    0  0.00000000000E+00  0.00000000000E+00 -0.36980252972E+03  0.13736130712E+04  0.13228979395E+04 0.  0.
        1    1    3    3  502    0 -0.46914815389E+03  0.23118944461E+03 -0.60535210772E+03  0.79999982747E+03  0.50400001928E-02 0. -1.
       -1    1    3    3    0  502  0.46914815389E+03 -0.23118944461E+03  0.23554957800E+03  0.57361324368E+03  0.50400001928E-02 0.  1.
</event>
<event>
 5   0  0.6153318E-04  0.1390232E+04  0.7818609E-02  0.8960920E-01
       -1   -1    0    0    0  501  0.00000000000E+00  0.00000000000E+00  0.44232961679E+03  0.44232961682E+03  0.50400001928E-02 0. -1.
        1   -1    0    0  501    0  0.00000000000E+00  0.00000000000E+00 -0.10923668185E+04  0.10923668185E+04  0.50400001928E-02 0.  1.
    10030    2    1    2    0    0  0.00000000000E+00  0.00000000000E+00 -0.65003720170E+03  0.15346964353E+04  0.13902319177E+04 0.  0.
        5    1    3    3  502    0 -0.15545643972E+03  0.53193595934E+02 -0.10706042887E+04  0.10831490647E+04  0.46999998093E+01 0.  1.
       -5    1    3    3    0  502  0.15545643972E+03 -0.53193595934E+02  0.42056708699E+03  0.45154737066E+03  0.46999998093E+01 0. -1.
</event>
<event>
 5   0  0.1175146E-03  0.1374605E+04  0.7818609E-02  0.8972409E-01
       -2   -1    0    0    0  501  0.00000000000E+00  0.00000000000E+00  0.35918190263E+03  0.35918190264E+03  0.25500000920E-02 0. -1.
        2   -1    0    0  501    0  0.00000000000E+00  0.00000000000E+00 -0.13151678732E+04  0.13151678732E+04  0.25500000920E-02 0.  1.
    10030    2    1    2    0    0  0.00000000000E+00  0.00000000000E+00 -0.95598597056E+03  0.16743497758E+04  0.13746046690E+04 0.  0.
        1    1    3    3  502    0  0.47663531885E+03 -0.49502111998E+03 -0.49327283474E+03  0.84589906367E+03  0.50400001928E-02 0.  1.
       -1    1    3    3    0  502 -0.47663531885E+03  0.49502111998E+03 -0.46271313582E+03  0.82845071216E+03  0.50400001928E-02 0. -1.
</event>
<event>
 5   0  0.1095119E-03  0.1402930E+04  0.7818609E-02  0.8951701E-01
       -2   -1    0    0    0  501  0.00000000000E+00  0.00000000000E+00  0.29112237895E+03  0.29112237896E+03  0.25500000920E-02 0.  1.
        2   -1    0    0  501    0  0.00000000000E+00  0.00000000000E+00 -0.16901923639E+04  0.16901923639E+04  0.25500000920E-02 0. -1.
    10030    2    1    2    0    0  0.00000000000E+00  0.00000000000E+00 -0.13990699850E+04  0.19813147429E+04  0.14029295376E+04 0.  0.
        5    1    3    3  502    0 -0.30473859631E+03 -0.31436802977E+03 -0.14735023674E+04  0.15371805967E+04  0.46999998093E+01 0. -1.
       -5    1    3    3    0  502  0.30473859631E+03  0.31436802977E+03  0.74432382441E+02  0.44413414615E+03  0.46999998093E+01 0.  1.
</event>
<event>
 5   0  0.1098949E-03  0.1396496E+04  0.7818609E-02  0.8956359E-01
       -2   -1    0    0    0  501  0.00000000000E+00  0.00000000000E+00  0.26130802873E+03  0.26130802874E+03  0.25500000920E-02 0.  1.
        2   -1    0    0  501    0  0.00000000000E+00  0.00000000000E+00 -0.18658076897E+04  0.18658076897E+04  0.25500000920E-02 0. -1.
    10030    2    1    2    0    0  0.00000000000E+00  0.00000000000E+00 -0.16044996610E+04  0.21271157185E+04  0.13964963722E+04 0.  0.
        4    1    3    3  502    0  0.32312718529E+03  0.47597337047E+03 -0.19951084805E+03  0.60890723322E+03  0.12699999809E+01 0.  1.
       -4    1    3    3    0  502 -0.32312718529E+03 -0.47597337047E+03 -0.14049888129E+04  0.15182084852E+04  0.12699999809E+01 0. -1.
</event>
<event>
 5   0  0.6153318E-04  0.1401588E+04  0.7818609E-02  0.8952670E-01
       -1   -1    0    0    0  501  0.00000000000E+00  0.00000000000E+00  0.25805991418E+03  0.25805991422E+03  0.50400001928E-02 0.  1.
        1   -1    0    0  501    0  0.00000000000E+00  0.00000000000E+00 -0.19030944315E+04  0.19030944315E+04  0.50400001928E-02 0. -1.
    10030    2    1    2    0    0  0.00000000000E+00  0.00000000000E+00 -0.16450345174E+04  0.21611543458E+04  0.14015882216E+04 0.  0.
        5    1    3    3  502    0  0.16895275858E+03 -0.23186933178E+03 -0.18083679845E+04  0.18309902455E+04  0.46999998093E+01 0. -1.
       -5    1    3    3    0  502 -0.16895275858E+03  0.23186933178E+03  0.16333346712E+03  0.33016410031E+03  0.46999998093E+01 0.  1.
</event>
<event>
 5   0  0.5875298E-04  0.1402749E+04  0.7818609E-02  0.8951831E-01
        1   -1    0    0  501    0  0.00000000000E+00  0.00000000000E+00  0.51381112688E+03  0.51381112690E+03  0.50400001928E-02 0. -1.
       -1   -1    0    0    0  501  0.00000000000E+00  0.00000000000E+00 -0.95740639228E+03  0.95740639229E+03  0.50400001928E-02 0.  1.
    10030    2    1    2    0    0  0.00000000000E+00  0.00000000000E+00 -0.44359526540E+03  0.14712175192E+04  0.14027488119E+04 0.  0.
        1    1    3    3  502    0 -0.66286364416E+02  0.67582172778E+03 -0.37740621481E+02  0.68011267035E+03  0.50400001928E-02 0. -1.
       -1    1    3    3    0  502  0.66286364416E+02 -0.67582172778E+03 -0.40585464392E+03  0.79110484884E+03  0.50400001928E-02 0.  1.
</event>
<event>
 5   0  0.6097538E-04  0.1504348E+04  0.7818609E-02  0.8881567E-01
       -1   -1    0    0    0  501  0.00000000000E+00  0.00000000000E+00  0.44561751472E+03  0.44561751475E+03  0.50400001928E-02 0. -1.
        1   -1    0    0  501    0  0.00000000000E+00  0.00000000000E+00 -0.12696214570E+04  0.12696214570E+04  0.50400001928E-02 0.  1.
    10030    2    1    2    0    0  0.00000000000E+00  0.00000000000E+00 -0.82400394228E+03  0.17152389718E+04  0.15043477767E+04 0.  0.
        2    1    3    3  502    0 -0.17434656489E+03 -0.65197688368E+03 -0.79066617670E+03  0.10395304635E+04  0.25500000920E-02 0.  1.
       -2    1    3    3    0  502  0.17434656489E+03  0.65197688368E+03 -0.33337765579E+02  0.67570850828E+03  0.25500000920E-02 0. -1.
</event>
<event>
 5   0  0.6097538E-04  0.1381973E+04  0.7818609E-02  0.8966972E-01
       -1   -1    0    0    0  501  0.00000000000E+00  0.00000000000E+00  0.11841037890E+04  0.11841037890E+04  0.50400001928E-02 0. -1.
        1   -1    0    0  501    0  0.00000000000E+00  0.00000000000E+00 -0.40322695593E+03  0.40322695596E+03  0.50400001928E-02 0.  1.
    10030    2    1    2    0    0  0.00000000000E+00  0.00000000000E+00  0.78087683309E+03  0.15873307450E+04  0.13819733230E+04 0.  0.
        2    1    3    3  502    0 -0.28504780362E+03 -0.16246008564E+03  0.10889300775E+04  0.11372837128E+04  0.25500000920E-02 0. -1.
       -2    1    3    3    0  502  0.28504780362E+03  0.16246008564E+03 -0.30805324440E+03  0.45004703217E+03  0.25500000920E-02 0.  1.
</event>
<event>
 5   0  0.6153318E-04  0.1402326E+04  0.7818609E-02  0.8952137E-01
       -1   -1    0    0    0  501  0.00000000000E+00  0.00000000000E+00  0.52446263437E+03  0.52446263439E+03  0.50400001928E-02 0. -1.
        1   -1    0    0  501    0  0.00000000000E+00  0.00000000000E+00 -0.93739625362E+03  0.93739625363E+03  0.50400001928E-02 0.  1.
    10030    2    1    2    0    0  0.00000000000E+00  0.00000000000E+00 -0.41293361925E+03  0.14618588880E+04  0.14023256521E+04 0.  0.
        5    1    3    3  502    0 -0.33688334908E+03  0.61484749743E+03 -0.19717886913E+03  0.72830586460E+03  0.46999998093E+01 0.  1.
       -5    1    3    3    0  502  0.33688334908E+03 -0.61484749743E+03 -0.21575475011E+03  0.73355302342E+03  0.46999998093E+01 0. -1.
</event>
<event>
 5   0  0.1175146E-03  0.1468394E+04  0.7818609E-02  0.8905747E-01
        2   -1    0    0  501    0  0.00000000000E+00  0.00000000000E+00  0.49068630336E+03  0.49068630337E+03  0.25500000920E-02 0. -1.
       -2   -1    0    0    0  501  0.00000000000E+00  0.00000000000E+00 -0.10985542413E+04  0.10985542413E+04  0.25500000920E-02 0.  1.
    10030    2    1    2    0    0  0.00000000000E+00  0.00000000000E+00 -0.60786793793E+03  0.15892405447E+04  0.14683943880E+04 0.  0.
        1    1    3    3  502    0  0.14074466871E+03 -0.69414469644E+03 -0.94628590172E+02  0.71456314729E+03  0.50400001928E-02 0.  1.
       -1    1    3    3    0  502 -0.14074466871E+03  0.69414469644E+03 -0.51323934776E+03  0.87467739738E+03  0.50400001928E-02 0. -1.
</event>
<event>
 5   0  0.6097538E-04  0.1387986E+04  0.7818609E-02  0.8962561E-01
       -1   -1    0    0    0  501  0.00000000000E+00  0.00000000000E+00  0.57435765660E+03  0.57435765662E+03  0.50400001928E-02 0. -1.
        1   -1    0    0  501    0  0.00000000000E+00  0.00000000000E+00 -0.83854796869E+03  0.83854796871E+03  0.50400001928E-02 0.  1.
    10030    2    1    2    0    0  0.00000000000E+00  0.00000000000E+00 -0.26419031209E+03  0.14129056253E+04  0.13879862338E+04 0.  0.
        2    1    3    3  502    0 -0.44948700837E+01 -0.23934342947E+03  0.53099906136E+03  0.58246500690E+03  0.25500000920E-02 0. -1.
       -2    1    3    3    0  502  0.44948700837E+01  0.23934342947E+03 -0.79518937345E+03  0.83044061843E+03  0.25500000920E-02 0.  1.
</event>
<event>
 5   0  0.5875298E-04  0.1400500E+04  0.7818609E-02  0.8953456E-01
       -1   -1    0    0    0  501  0.00000000000E+00  0.00000000000E+00  0.73709668983E+03  0.73709668984E+03  0.50400001928E-02 0. -1.
        1   -1    0    0  501    0  0.00000000000E+00  0.00000000000E+00 -0.66524551658E+03  0.66524551660E+03  0.50400001928E-02 0.  1.
    10030    2    1    2    0    0  0.00000000000E+00  0.00000000000E+00  0.71851173251E+02  0.14023422064E+04  0.14005002938E+04 0.  0.
        1    1    3    3  502    0 -0.57173877007E+03  0.37680324160E+03 -0.11084264210E+03  0.69365120588E+03  0.50400001928E-02 0.  1.
       -1    1    3    3    0  502  0.57173877007E+03 -0.37680324160E+03  0.18269381535E+03  0.70869100056E+03  0.50400001928E-02 0. -1.
</event>
<event>
 5   0  0.1098949E-03  0.1407555E+04  0.7818609E-02  0.8948368E-01
        2   -1    0    0  501    0  0.00000000000E+00  0.00000000000E+00  0.80048724169E+03  0.80048724170E+03  0.25500000920E-02 0. -1.
       -2   -1    0    0    0  501  0.00000000000E+00  0.00000000000E+00 -0.61875120759E+03  0.61875120760E+03  0.25500000920E-02 0.  1.
    10030    2    1    2    0    0  0.00000000000E+00  0.00000000000E+00  0.18173603410E+03  0.14192384493E+04  0.14075545424E+04 0.  0.
        4    1    3    3  502    0 -0.12781673381E+03 -0.83168902021E+02  0.78362768602E+03  0.79832834529E+03  0.12699999809E+01 0. -1.
       -4    1    3    3    0  502  0.12781673381E+03  0.83168902021E+02 -0.60189165192E+03  0.62091010400E+03  0.12699999809E+01 0.  1.
</event>
<event>
 5   0  0.6153318E-04  0.1381826E+04  0.7818609E-02  0.8967080E-01
        1   -1    0    0  501    0  0.00000000000E+00  0.00000000000E+00  0.73364653410E+03  0.73364653412E+03  0.50400001928E-02 0.  1.
       -1   -1    0    0    0  501  0.00000000000E+00  0.00000000000E+00 -0.65066822875E+03  0.65066822877E+03  0.50400001928E-02 0. -1.
    10030    2    1    2    0    0  0.00000000000E+00  0.00000000000E+00  0.82978305350E+02  0.13843147629E+04  0.13818255909E+04 0.  0.
        5    1    3    3  502    0  0.25210252974E+03  0.64325345710E+03  0.44269999924E+02  0.69232407041E+03  0.46999998093E+01 0. -1.
       -5    1    3    3    0  502 -0.25210252974E+03 -0.64325345710E+03  0.38708305426E+02  0.69199069248E+03  0.46999998093E+01 0.  1.
</event>
<event>
 5   0  0.6153318E-04  0.1400269E+04  0.7818609E-02  0.8953624E-01
        1   -1    0    0  501    0  0.00000000000E+00  0.00000000000E+00  0.15388636881E+04  0.15388636881E+04  0.50400001928E-02 0.  1.
       -1   -1    0    0    0  501  0.00000000000E+00  0.00000000000E+00 -0.31853919485E+03  0.31853919489E+03  0.50400001928E-02 0. -1.
    10030    2    1    2    0    0  0.00000000000E+00  0.00000000000E+00  0.12203244933E+04  0.18574028830E+04  0.14002691173E+04 0.  0.
        5    1    3    3  502    0  0.22907282673E+03 -0.41830111223E+03  0.12900511821E+04  0.13753924251E+04  0.46999998093E+01 0.  1.
       -5    1    3    3    0  502 -0.22907282673E+03  0.41830111223E+03 -0.69726688838E+02  0.48201045796E+03  0.46999998093E+01 0. -1.
</event>
<event>
 5   0  0.6097538E-04  0.1405834E+04  0.7818609E-02  0.8949606E-01
       -1   -1    0    0    0  501  0.00000000000E+00  0.00000000000E+00  0.10832595167E+04  0.10832595167E+04  0.50400001928E-02 0. -1.
        1   -1    0    0  501    0  0.00000000000E+00  0.00000000000E+00 -0.45611622293E+03  0.45611622295E+03  0.50400001928E-02 0.  1.
    10030    2    1    2    0    0  0.00000000000E+00  0.00000000000E+00  0.62714329377E+03  0.15393757397E+04  0.14058339009E+04 0.  0.
        2    1    3    3  502    0 -0.63728992149E+03  0.20278507233E+03  0.76607837304E+02  0.67314856483E+03  0.25500000920E-02 0.  1.
       -2    1    3    3    0  502  0.63728992149E+03 -0.20278507233E+03  0.55053545646E+03  0.86622717483E+03  0.25500000920E-02 0. -1.
</event>
<event>
 5   0  0.1175146E-03  0.1449135E+04  0.7818609E-02  0.8919000E-01
        2   -1    0    0  501    0  0.00000000000E+00  0.00000000000E+00  0.10440206703E+04  0.10440206703E+04  0.25500000920E-02 0.  1.
       -2   -1    0    0    0  501  0.00000000000E+00  0.00000000000E+00 -0.50286176142E+03  0.50286176143E+03  0.25500000920E-02 0. -1.
    10030    2    1    2    0    0  0.00000000000E+00  0.00000000000E+00  0.54115890890E+03  0.15468824317E+04  0.14491350154E+04 0.  0.
        1    1    3    3  502    0  0.92459241465E+02  0.70776208276E+03  0.40357130815E+03  0.81996687611E+03  0.50400001928E-02 0.  1.
       -1    1    3    3    0  502 -0.92459241465E+02 -0.70776208276E+03  0.13758760075E+03  0.72691555564E+03  0.50400001928E-02 0. -1.
</event>
<event>
 5   0  0.6194742E-04  0.1402036E+04  0.7818609E-02  0.8952346E-01
        1   -1    0    0  501    0  0.00000000000E+00  0.00000000000E+00  0.20695273096E+04  0.20695273097E+04  0.50400001928E-02 0. -1.
       -1   -1    0    0    0  501  0.00000000000E+00  0.00000000000E+00 -0.23745836393E+03  0.23745836398E+03  0.50400001928E-02 0.  1.
    10030    2    1    2    0    0  0.00000000000E+00  0.00000000000E+00  0.18320689457E+04  0.23069856736E+04  0.14020364747E+04 0.  0.
        4    1    3    3  502    0  0.28568493958E+03  0.53321021665E+03  0.14989430115E+04  0.16164036577E+04  0.12699999809E+01 0. -1.
       -4    1    3    3    0  502 -0.28568493958E+03 -0.53321021665E+03  0.33312593421E+03  0.69058201597E+03  0.12699999809E+01 0.  1.
</event>
<event>
 5   0  0.1175146E-03  0.1370033E+04  0.7818609E-02  0.8975800E-01
       -2   -1    0    0    0  501  0.00000000000E+00  0.00000000000E+00  0.89959758564E+03  0.89959758564E+03  0.25500000920E-02 0.  1.
        2   -1    0    0  501    0  0.00000000000E+00  0.00000000000E+00 -0.52161943246E+03  0.52161943247E+03  0.25500000920E-02 0. -1.
    10030    2    1    2    0    0  0.00000000000E+00  0.00000000000E+00  0.37797815318E+03  0.14212170181E+04  0.13700329661E+04 0.  0.
        1    1    3    3  502    0  0.13867196900E+03 -0.51308170207E+02  0.88284637147E+03  0.89514253556E+03  0.50400001928E-02 0.  1.
       -1    1    3    3    0  502 -0.13867196900E+03  0.51308170207E+02 -0.50486821830E+03  0.52607448255E+03  0.50400001928E-02 0. -1.
</event>
<event>
 5   0  0.1108819E-03  0.1406395E+04  0.7818609E-02  0.8949203E-01
       -2   -1    0    0    0  501  0.00000000000E+00  0.00000000000E+00  0.11510892706E+04  0.11510892707E+04  0.25500000920E-02 0. -1.
        2   -1    0    0  501    0  0.00000000000E+00  0.00000000000E+00 -0.42958127901E+03  0.42958127902E+03  0.25500000920E-02 0.  1.
    10030    2    1    2    0    0  0.00000000000E+00  0.00000000000E+00  0.72150799164E+03  0.15806705497E+04  0.14063945409E+04 0.  0.
        3    1    3    3  502    0  0.46671797543E+03 -0.46121185668E+03  0.64496131851E+03  0.92006367058E+03  0.10100000352E+00 0. -1.
       -3    1    3    3    0  502 -0.46671797543E+03  0.46121185668E+03  0.76546673125E+02  0.66060687909E+03  0.10100000352E+00 0.  1.
</event>
<event>
 5   0  0.1108819E-03  0.1403326E+04  0.7818609E-02  0.8951415E-01
        2   -1    0    0  501    0  0.00000000000E+00  0.00000000000E+00  0.11731372415E+04  0.11731372415E+04  0.25500000920E-02 0. -1.
       -2   -1    0    0    0  501  0.00000000000E+00  0.00000000000E+00 -0.41967021940E+03  0.41967021940E+03  0.25500000920E-02 0.  1.
    10030    2    1    2    0    0  0.00000000000E+00  0.00000000000E+00  0.75346702213E+03  0.15928074609E+04  0.14033257121E+04 0.  0.
        3    1    3    3  502    0 -0.70006038340E+03  0.44532889285E+02  0.35832531091E+03  0.78769585328E+03  0.10100000352E+00 0.  1.
       -3    1    3    3    0  502  0.70006038340E+03 -0.44532889285E+02  0.39514171122E+03  0.80511160765E+03  0.10100000352E+00 0. -1.
</event>
<event>
 5   0  0.5875298E-04  0.1408156E+04  0.7818609E-02  0.8947936E-01
        1   -1    0    0  501    0  0.00000000000E+00  0.00000000000E+00  0.98140130039E+03  0.98140130040E+03  0.50400001928E-02 0. -1.
       -1   -1    0    0    0  501  0.00000000000E+00  0.00000000000E+00 -0.50512044402E+03  0.50512044404E+03  0.50400001928E-02 0.  1.
    10030    2    1    2    0    0  0.00000000000E+00  0.00000000000E+00  0.47628085637E+03  0.14865217444E+04  0.14081560434E+04 0.  0.
        1    1    3    3  502    0  0.37166990832E+03 -0.36800904643E+03  0.73570582850E+03  0.90268058865E+03  0.50400001928E-02 0. -1.
       -1    1    3    3    0  502 -0.37166990832E+03  0.36800904643E+03 -0.25942497213E+03  0.58384115579E+03  0.50400001928E-02 0.  1.
</event>
<event>
 5   0  0.6153318E-04  0.1429235E+04  0.7818609E-02  0.8932924E-01
       -1   -1    0    0    0  501  0.00000000000E+00  0.00000000000E+00  0.78689292689E+03  0.78689292691E+03  0.50400001928E-02 0.  1.
        1   -1    0    0  501    0  0.00000000000E+00  0.00000000000E+00 -0.64898056299E+03  0.64898056301E+03  0.50400001928E-02 0. -1.
    10030    2    1    2    0    0  0.00000000000E+00  0.00000000000E+00  0.13791236390E+03  0.14358734899E+04  0.14292350608E+04 0.  0.
        5    1    3    3  502    0  0.36662635435E+03 -0.17539654260E+03  0.65945940240E+03  0.77465322841E+03  0.46999998093E+01 0.  1.
       -5    1    3    3    0  502 -0.36662635435E+03  0.17539654260E+03 -0.52154703850E+03  0.66122026151E+03  0.46999998093E+01 0. -1.
</event>
<event>
 5   0  0.1108819E-03  0.1372433E+04  0.7818609E-02  0.8974018E-01
       -2   -1    0    0    0  501  0.00000000000E+00  0.00000000000E+00  0.59287555236E+03  0.59287555237E+03  0.25500000920E-02 0. -1.
        2   -1    0    0  501    0  0.00000000000E+00  0.00000000000E+00 -0.79425301393E+03  0.79425301393E+03  0.25500000920E-02 0.  1.
    10030    2    1    2    0    0  0.00000000000E+00  0.00000000000E+00 -0.20137746157E+03  0.13871285663E+04  0.13724331595E+04 0.  0.
        3    1    3    3  502    0 -0.55527557493E+03 -0.22410180415E+02  0.30618854542E+03  0.63449556015E+03  0.10100000352E+00 0. -1.
       -3    1    3    3    0  502  0.55527557493E+03  0.22410180415E+02 -0.50756600699E+03  0.75263300615E+03  0.10100000352E+00 0.  1.
</event>
<event>
 5   0  0.6153318E-04  0.1408310E+04  0.7818609E-02  0.8947826E-01
       -1   -1    0    0    0  501  0.00000000000E+00  0.00000000000E+00  0.98488491216E+03  0.98488491217E+03  0.50400001928E-02 0.  1.
        1   -1    0    0  501    0  0.00000000000E+00  0.00000000000E+00 -0.50344356220E+03  0.50344356223E+03  0.50400001928E-02 0. -1.
    10030    2    1    2    0    0  0.00000000000E+00  0.00000000000E+00  0.48144134995E+03  0.14883284744E+04  0.14083095804E+04 0.  0.
        5    1    3    3  502    0 -0.59362827255E+03 -0.70435387385E+02  0.63395993914E+03  0.87136844343E+03  0.46999998093E+01 0.  1.
       -5    1    3    3    0  502  0.59362827255E+03  0.70435387385E+02 -0.15251858919E+03  0.61696003097E+03  0.46999998093E+01 0. -1.
</event>
<event>
 5   0  0.1120053E-03  0.1328115E+04  0.7818609E-02  0.9007562E-01
        2   -1    0    0  501    0  0.00000000000E+00  0.00000000000E+00  0.35660361584E+03  0.35660361585E+03  0.25500000920E-02 0.  1.
       -2   -1    0    0    0  501  0.00000000000E+00  0.00000000000E+00 -0.12365894561E+04  0.12365894561E+04  0.25500000920E-02 0. -1.
    10030    2    1    2    0    0  0.00000000000E+00  0.00000000000E+00 -0.87998584025E+03  0.15931930720E+04  0.13281148616E+04 0.  0.
        2    1    3    3  502    0 -0.65681662600E+03 -0.38287686036E+02 -0.54794430274E+03  0.85622250963E+03  0.25500000920E-02 0. -1.
       -2    1    3    3    0  502  0.65681662600E+03  0.38287686036E+02 -0.33204153751E+03  0.73697056232E+03  0.25500000920E-02 0.  1.
</event>
<event>
 5   0  0.6114266E-04  0.1461189E+04  0.7818609E-02  0.8910680E-01
       -1   -1    0    0    0  501  0.00000000000E+00  0.00000000000E+00  0.38708777368E+03  0.38708777371E+03  0.50400001928E-02 0. -1.
        1   -1    0    0  501    0  0.00000000000E+00  0.00000000000E+00 -0.13789344657E+04  0.13789344657E+04  0.50400001928E-02 0.  1.
    10030    2    1    2    0    0  0.00000000000E+00  0.00000000000E+00 -0.99184669203E+03  0.17660222394E+04  0.14611894777E+04 0.  0.
        3    1    3    3  502    0  0.51976386614E+03  0.41401094107E+03 -0.12891445465E+03  0.67688882594E+03  0.10100000352E+00 0. -1.
       -3    1    3    3    0  502 -0.51976386614E+03 -0.41401094107E+03 -0.86293223738E+03  0.10891334135E+04  0.10100000352E+00 0.  1.
</event>
<event>
 5   0  0.5875298E-04  0.1386534E+04  0.7818609E-02  0.8963624E-01
        1   -1    0    0  501    0  0.00000000000E+00  0.00000000000E+00  0.30337304410E+03  0.30337304414E+03  0.50400001928E-02 0.  1.
       -1   -1    0    0    0  501  0.00000000000E+00  0.00000000000E+00 -0.15842520973E+04  0.15842520973E+04  0.50400001928E-02 0. -1.
    10030    2    1    2    0    0  0.00000000000E+00  0.00000000000E+00 -0.12808790532E+04  0.18876251415E+04  0.13865343579E+04 0.  0.
        1    1    3    3  502    0  0.37460879211E+03  0.50275171764E+03 -0.10432117153E+04  0.12171202569E+04  0.50400001928E-02 0. -1.
       -1    1    3    3    0  502 -0.37460879211E+03 -0.50275171764E+03 -0.23766733789E+03  0.67050488457E+03  0.50400001928E-02 0.  1.
</event>
<event>
 5   0  0.6194742E-04  0.1405091E+04  0.7818609E-02  0.8950142E-01
        1   -1    0    0  501    0  0.00000000000E+00  0.00000000000E+00  0.98400975751E+03  0.98400975752E+03  0.50400001928E-02 0.  1.
       -1   -1    0    0    0  501  0.00000000000E+00  0.00000000000E+00 -0.50159054648E+03  0.50159054650E+03  0.50400001928E-02 0. -1.
    10030    2    1    2    0    0  0.00000000000E+00  0.00000000000E+00  0.48241921103E+03  0.14856003040E+04  0.14050907331E+04 0.  0.
        4    1    3    3  502    0 -0.59349696588E+03 -0.25841803768E+03  0.52989246105E+03  0.83654417928E+03  0.12699999809E+01 0.  1.
       -4    1    3    3    0  502  0.59349696588E+03  0.25841803768E+03 -0.47473250021E+02  0.64905612475E+03  0.12699999809E+01 0. -1.
</event>
<event>
 5   0  0.1098949E-03  0.1422297E+04  0.7818609E-02  0.8937835E-01
        2   -1    0    0  501    0  0.00000000000E+00  0.00000000000E+00  0.41789512146E+03  0.41789512147E+03  0.25500000920E-02 0.  1.
       -2   -1    0    0    0  501  0.00000000000E+00  0.00000000000E+00 -0.12101896489E+04  0.12101896489E+04  0.25500000920E-02 0. -1.
    10030    2    1    2    0    0  0.00000000000E+00  0.00000000000E+00 -0.79229452744E+03  0.16280847704E+04  0.14222972268E+04 0.  0.
        4    1    3    3  502    0  0.11754817722E+03 -0.63890528639E+03 -0.64952380658E+02  0.65286902484E+03  0.12699999809E+01 0. -1.
       -4    1    3    3    0  502 -0.11754817722E+03  0.63890528639E+03 -0.72734214678E+03  0.97521574553E+03  0.12699999809E+01 0.  1.
</event>
<event>
 5   0  0.6114266E-04  0.1400452E+04  0.7818609E-02  0.8953491E-01
        1   -1    0    0  501    0  0.00000000000E+00  0.00000000000E+00  0.13140811476E+04  0.13140811476E+04  0.50400001928E-02 0.  1.
       -1   -1    0    0    0  501  0.00000000000E+00  0.00000000000E+00 -0.37312514127E+03  0.37312514130E+03  0.50400001928E-02 0. -1.
    10030    2    1    2    0    0  0.00000000000E+00  0.00000000000E+00  0.94095600637E+03  0.16872062889E+04  0.14004523753E+04 0.  0.
        3    1    3    3  502    0  0.29963102853E+02 -0.43411743930E+03  0.11314071832E+04  0.12122037630E+04  0.10100000352E+00 0.  1.
       -3    1    3    3    0  502 -0.29963102853E+02  0.43411743930E+03 -0.19045117688E+03  0.47500252590E+03  0.10100000352E+00 0. -1.
</event>
<event>
 5   0  0.6153318E-04  0.1404142E+04  0.7818609E-02  0.8950825E-01
        1   -1    0    0  501    0  0.00000000000E+00  0.00000000000E+00  0.80872829289E+03  0.80872829291E+03  0.50400001928E-02 0.  1.
       -1   -1    0    0    0  501  0.00000000000E+00  0.00000000000E+00 -0.60948037340E+03  0.60948037342E+03  0.50400001928E-02 0. -1.
    10030    2    1    2    0    0  0.00000000000E+00  0.00000000000E+00  0.19924791950E+03  0.14182086663E+04  0.14041424742E+04 0.  0.
        5    1    3    3  502    0  0.69429668777E+03 -0.69475116735E+02  0.17790683922E+03  0.72010250377E+03  0.46999998093E+01 0.  1.
       -5    1    3    3    0  502 -0.69429668777E+03  0.69475116735E+02  0.21341080275E+02  0.69810616256E+03  0.46999998093E+01 0. -1.
</event>
<event>
 5   0  0.6194742E-04  0.1389971E+04  0.7818609E-02  0.8961110E-01
       -1   -1    0    0    0  501  0.00000000000E+00  0.00000000000E+00  0.77664380755E+03  0.77664380757E+03  0.50400001928E-02 0. -1.
        1   -1    0    0  501    0  0.00000000000E+00  0.00000000000E+00 -0.62191296022E+03  0.62191296024E+03  0.50400001928E-02 0.  1.
    10030    2    1    2    0    0  0.00000000000E+00  0.00000000000E+00  0.15473084733E+03  0.13985567678E+04  0.13899710061E+04 0.  0.
        4    1    3    3  502    0 -0.47451732212E+02  0.50241335767E+03  0.55815840262E+03  0.75247143744E+03  0.12699999809E+01 0. -1.
       -4    1    3    3    0  502  0.47451732212E+02 -0.50241335767E+03 -0.40342755528E+03  0.64608533037E+03  0.12699999809E+01 0.  1.
</event>
<event>
 5   0  0.1120053E-03  0.1385482E+04  0.7818609E-02  0.8964395E-01
        2   -1    0    0  501    0  0.00000000000E+00  0.00000000000E+00  0.59489296808E+03  0.59489296809E+03  0.25500000920E-02 0. -1.
       -2   -1    0    0    0  501  0.00000000000E+00  0.00000000000E+00 -0.80668348845E+03  0.80668348845E+03  0.25500000920E-02 0.  1.
    10030    2    1    2    0    0  0.00000000000E+00  0.00000000000E+00 -0.21179052037E+03  0.14015764565E+04  0.13854823489E+04 0.  0.
        2    1    3    3  502    0  0.10899337830E+02 -0.27200309215E+03  0.53851767545E+03  0.60341177026E+03  0.25500000920E-02 0. -1.
       -2    1    3    3    0  502 -0.10899337830E+02  0.27200309215E+03 -0.75030819582E+03  0.79816468628E+03  0.25500000920E-02 0.  1.
</event>
<event>
 5   0  0.1098949E-03  0.1392112E+04  0.7818609E-02  0.8959548E-01
        2   -1    0    0  501    0  0.00000000000E+00  0.00000000000E+00  0.96564546329E+03  0.96564546329E+03  0.25500000920E-02 0. -1.
       -2   -1    0    0    0  501  0.00000000000E+00  0.00000000000E+00 -0.50173051678E+03  0.50173051679E+03  0.25500000920E-02 0.  1.
    10030    2    1    2    0    0  0.00000000000E+00  0.00000000000E+00  0.46391494651E+03  0.14673759801E+04  0.13921117733E+04 0.  0.
        4    1    3    3  502    0 -0.38137244300E+03  0.51785536450E+03  0.51257055195E+03  0.82240458562E+03  0.12699999809E+01 0.  1.
       -4    1    3    3    0  502  0.38137244300E+03 -0.51785536450E+03 -0.48655605440E+02  0.64497139446E+03  0.12699999809E+01 0. -1.
</event>
<event>
 5   0  0.1098949E-03  0.1392212E+04  0.7818609E-02  0.8959475E-01
       -2   -1    0    0    0  501  0.00000000000E+00  0.00000000000E+00  0.63748821291E+03  0.63748821292E+03  0.25500000920E-02 0.  1.
        2   -1    0    0  501    0  0.00000000000E+00  0.00000000000E+00 -0.76011382071E+03  0.76011382071E+03  0.25500000920E-02 0. -1.
    10030    2    1    2    0    0  0.00000000000E+00  0.00000000000E+00 -0.12262560780E+03  0.13976020336E+04  0.13922120545E+04 0.  0.
        4    1    3    3  502    0 -0.50904019403E+03 -0.39599245176E+03 -0.32430041082E+03  0.72187555046E+03  0.12699999809E+01 0. -1.
       -4    1    3    3    0  502  0.50904019403E+03  0.39599245176E+03  0.20167480302E+03  0.67572648317E+03  0.12699999809E+01 0.  1.
</event>
<event>
 5   0  0.6194742E-04  0.1403343E+04  0.7818609E-02  0.8951402E-01
       -1   -1    0    0    0  501  0.00000000000E+00  0.00000000000E+00  0.21736476845E+04  0.21736476845E+04  0.50400001928E-02 0.  1.
        1   -1    0    0  501    0  0.00000000000E+00  0.00000000000E+00 -0.22650532108E+03  0.22650532114E+03  0.50400001928E-02 0. -1.
    10030    2    1    2    0    0  0.00000000000E+00  0.00000000000E+00  0.19471423635E+04  0.24001530057E+04  0.14033428188E+04 0.  0.
        4    1    3    3  502    0  0.63712411299E+03 -0.11281683566E+03  0.14378391945E+04  0.15767174559E+04  0.12699999809E+01 0. -1.
       -4    1    3    3    0  502 -0.63712411299E+03  0.11281683566E+03  0.50930316898E+03  0.82343554975E+03  0.12699999809E+01 0.  1.
</event>
<event>
 5   0  0.1120053E-03  0.1402200E+04  0.7818609E-02  0.8952227E-01
        2   -1    0    0  501    0  0.00000000000E+00  0.00000000000E+00  0.31947026876E+03  0.31947026877E+03  0.25500000920E-02 0.  1.
       -2   -1    0    0    0  501  0.00000000000E+00  0.00000000000E+00 -0.15386143062E+04  0.15386143062E+04  0.25500000920E-02 0. -1.
    10030    2    1    2    0    0  0.00000000000E+00  0.00000000000E+00 -0.12191440374E+04  0.18580845750E+04  0.14022004506E+04 0.  0.
        2    1    3    3  502    0 -0.34686758060E+03  0.19842373237E+03 -0.13729293425E+04  0.14299035197E+04  0.25500000920E-02 0. -1.
       -2    1    3    3    0  502  0.34686758060E+03 -0.19842373237E+03  0.15378530508E+03  0.42818105528E+03  0.25500000920E-02 0.  1.
</event>
<event>
 5   0  0.1098949E-03  0.1383989E+04  0.7818609E-02  0.8965490E-01
        2   -1    0    0  501    0  0.00000000000E+00  0.00000000000E+00  0.18086422964E+04  0.18086422964E+04  0.25500000920E-02 0. -1.
       -2   -1    0    0    0  501  0.00000000000E+00  0.00000000000E+00 -0.26476013416E+03  0.26476013417E+03  0.25500000920E-02 0.  1.
    10030    2    1    2    0    0  0.00000000000E+00  0.00000000000E+00  0.15438821622E+04  0.20734024306E+04  0.13839889841E+04 0.  0.
        4    1    3    3  502    0  0.68968691362E+03  0.47683661610E+02  0.72667375180E+03  0.10029945787E+04  0.12699999809E+01 0. -1.
       -4    1    3    3    0  502 -0.68968691362E+03 -0.47683661610E+02  0.81720841043E+03  0.10704078519E+04  0.12699999809E+01 0.  1.
</event>
<event>
 5   0  0.1095119E-03  0.1378383E+04  0.7818609E-02  0.8969617E-01
        2   -1    0    0  501    0  0.00000000000E+00  0.00000000000E+00  0.12792808984E+04  0.12792808984E+04  0.25500000920E-02 0. -1.
       -2   -1    0    0    0  501  0.00000000000E+00  0.00000000000E+00 -0.37129032833E+03  0.37129032834E+03  0.25500000920E-02 0.  1.
    10030    2    1    2    0    0  0.00000000000E+00  0.00000000000E+00  0.90799057006E+03  0.16505712267E+04  0.13783825663E+04 0.  0.
        5    1    3    3  502    0  0.19722477477E+03  0.59949712796E+03  0.78556274005E+03  0.10076831480E+04  0.46999998093E+01 0. -1.
       -5    1    3    3    0  502 -0.19722477477E+03 -0.59949712796E+03  0.12242783000E+03  0.64288807873E+03  0.46999998093E+01 0.  1.
</event>
<event>
 5   0  0.4176125E-04  0.1397793E+04  0.7818609E-02  0.8955418E-01
        4   -1    0    0  501    0  0.00000000000E+00  0.00000000000E+00  0.46021892914E+03  0.46022068146E+03  0.12699999809E+01 0.  1.
       -4   -1    0    0    0  501  0.00000000000E+00  0.00000000000E+00 -0.10613516908E+04  0.10613524507E+04  0.12699999809E+01 0. -1.
    10030    2    1    2    0    0  0.00000000000E+00  0.00000000000E+00 -0.60113276169E+03  0.15215731321E+04  0.13977926167E+04 0.  0.
        5    1    3    3  502    0 -0.60103312769E+03 -0.34678672558E+03 -0.20993414541E+03  0.72498019906E+03  0.46999998093E+01 0.  1.
       -5    1    3    3    0  502  0.60103312769E+03  0.34678672558E+03 -0.39119861628E+03  0.79659293306E+03  0.46999998093E+01 0. -1.
</event>
<event>
 5   0  0.1095119E-03  0.1499373E+04  0.7818609E-02  0.8884870E-01
       -2   -1    0    0    0  501  0.00000000000E+00  0.00000000000E+00  0.46050729102E+03  0.46050729102E+03  0.25500000920E-02 0.  1.
        2   -1    0    0  501    0  0.00000000000E+00  0.00000000000E+00 -0.12204576481E+04  0.12204576481E+04  0.25500000920E-02 0. -1.
    10030    2    1    2    0    0  0.00000000000E+00  0.00000000000E+00 -0.75995035708E+03  0.16809649391E+04  0.14993727293E+04 0.  0.
        5    1    3    3  502    0  0.88140286858E+02  0.52330828945E+03 -0.97362207394E+03  0.11088653249E+04  0.46999998093E+01 0. -1.
       -5    1    3    3    0  502 -0.88140286858E+02 -0.52330828945E+03  0.21367171686E+03  0.57209961419E+03  0.46999998093E+01 0.  1.
</event>
<event>
 5   0  0.6153318E-04  0.1397427E+04  0.7818609E-02  0.8955683E-01
       -1   -1    0    0    0  501  0.00000000000E+00  0.00000000000E+00  0.40951804538E+03  0.40951804541E+03  0.50400001928E-02 0.  1.
        1   -1    0    0  501    0  0.00000000000E+00  0.00000000000E+00 -0.11921348012E+04  0.11921348012E+04  0.50400001928E-02 0. -1.
    10030    2    1    2    0    0  0.00000000000E+00  0.00000000000E+00 -0.78261675578E+03  0.16016528466E+04  0.13974272269E+04 0.  0.
        5    1    3    3  502    0 -0.34735387002E+03  0.20816642904E+03  0.26128014595E+03  0.48195163436E+03  0.46999998093E+01 0.  1.
       -5    1    3    3    0  502  0.34735387002E+03 -0.20816642904E+03 -0.10438969017E+04  0.11197012122E+04  0.46999998093E+01 0. -1.
</event>
<event>
 5   0  0.6097538E-04  0.1401823E+04  0.7818609E-02  0.8952500E-01
       -1   -1    0    0    0  501  0.00000000000E+00  0.00000000000E+00  0.59790945077E+03  0.59790945079E+03  0.50400001928E-02 0.  1.
        1   -1    0    0  501    0  0.00000000000E+00  0.00000000000E+00 -0.82165765283E+03  0.82165765284E+03  0.50400001928E-02 0. -1.
    10030    2    1    2    0    0  0.00000000000E+00  0.00000000000E+00 -0.22374820206E+03  0.14195671036E+04  0.14018229217E+04 0.  0.
        2    1    3    3  502    0 -0.76592328646E+02 -0.30789903191E+03 -0.74477208614E+03  0.80953916456E+03  0.25500000920E-02 0. -1.
       -2    1    3    3    0  502  0.76592328646E+02  0.30789903191E+03  0.52102388408E+03  0.61002793907E+03  0.25500000920E-02 0.  1.
</event>
<event>
 5   0  0.1175146E-03  0.1424812E+04  0.7818609E-02  0.8936052E-01
       -2   -1    0    0    0  501  0.00000000000E+00  0.00000000000E+00  0.66412952182E+03  0.66412952182E+03  0.25500000920E-02 0.  1.
        2   -1    0    0  501    0  0.00000000000E+00  0.00000000000E+00 -0.76419143628E+03  0.76419143628E+03  0.25500000920E-02 0. -1.
    10030    2    1    2    0    0  0.00000000000E+00  0.00000000000E+00 -0.10006191446E+03  0.14283209581E+04  0.14248116973E+04 0.  0.
        1    1    3    3  502    0 -0.46616820540E+02  0.59028836096E+03 -0.44712350146E+03  0.74197904460E+03  0.50400001928E-02 0. -1.
       -1    1    3    3    0  502  0.46616820540E+02 -0.59028836096E+03  0.34706158700E+03  0.68634191351E+03  0.50400001928E-02 0.  1.
</event>
<event>
 5   0  0.6194742E-04  0.1399563E+04  0.7818609E-02  0.8954135E-01
       -1   -1    0    0    0  501  0.00000000000E+00  0.00000000000E+00  0.39065064819E+03  0.39065064822E+03  0.50400001928E-02 0.  1.
        1   -1    0    0  501    0  0.00000000000E+00  0.00000000000E+00 -0.12535346673E+04  0.12535346673E+04  0.50400001928E-02 0. -1.
    10030    2    1    2    0    0  0.00000000000E+00  0.00000000000E+00 -0.86288401911E+03  0.16441853155E+04  0.13995629751E+04 0.  0.
        4    1    3    3  502    0 -0.38943271504E+02 -0.14830047531E+03 -0.12335567429E+04  0.12430500635E+04  0.12699999809E+01 0. -1.
       -4    1    3    3    0  502  0.38943271504E+02  0.14830047531E+03  0.37067272381E+03  0.40113525206E+03  0.12699999809E+01 0.  1.
</event>
<event>
 5   0  0.1108819E-03  0.1392588E+04  0.7818609E-02  0.8959201E-01
        2   -1    0    0  501    0  0.00000000000E+00  0.00000000000E+00  0.20878136199E+04  0.20878136199E+04  0.25500000920E-02 0.  1.
       -2   -1    0    0    0  501  0.00000000000E+00  0.00000000000E+00 -0.23221692466E+03  0.23221692467E+03  0.25500000920E-02 0. -1.
    10030    2    1    2    0    0  0.00000000000E+00  0.00000000000E+00  0.18555966953E+04  0.23200305446E+04  0.13925884648E+04 0.  0.
        3    1    3    3  502    0 -0.48855311716E+02 -0.68823183505E+03  0.10838660267E+04  0.12848406416E+04  0.10100000352E+00 0. -1.
       -3    1    3    3    0  502  0.48855311716E+02  0.68823183505E+03  0.77173066855E+03  0.10351899030E+04  0.10100000352E+00 0.  1.
</event>
<event>
 5   0  0.6153318E-04  0.1420709E+04  0.7818609E-02  0.8938963E-01
       -1   -1    0    0    0  501  0.00000000000E+00  0.00000000000E+00  0.27447591533E+03  0.27447591538E+03  0.50400001928E-02 0. -1.
        1   -1    0    0  501    0  0.00000000000E+00  0.00000000000E+00 -0.18384257089E+04  0.18384257089E+04  0.50400001928E-02 0.  1.
    10030    2    1    2    0    0  0.00000000000E+00  0.00000000000E+00 -0.15639497936E+04  0.21129016243E+04  0.14207090895E+04 0.  0.
        5    1    3    3  502    0  0.44682263759E+03 -0.34180260132E+03 -0.13695839384E+03  0.57901569873E+03  0.46999998093E+01 0. -1.
       -5    1    3    3    0  502 -0.44682263759E+03  0.34180260132E+03 -0.14269913997E+04  0.15338859256E+04  0.46999998093E+01 0.  1.
</event>
<event>
 5   0  0.6114266E-04  0.1424265E+04  0.7818609E-02  0.8936439E-01
        1   -1    0    0  501    0  0.00000000000E+00  0.00000000000E+00  0.14236626018E+04  0.14236626018E+04  0.50400001928E-02 0. -1.
       -1   -1    0    0    0  501  0.00000000000E+00  0.00000000000E+00 -0.35621716115E+03  0.35621716118E+03  0.50400001928E-02 0.  1.
    10030    2    1    2    0    0  0.00000000000E+00  0.00000000000E+00  0.10674454406E+04  0.17798797630E+04  0.14242654956E+04 0.  0.
        3    1    3    3  502    0 -0.65490919578E+03  0.10501287594E+03  0.85767573562E+03  0.10842238867E+04  0.10100000352E+00 0. -1.
       -3    1    3    3    0  502  0.65490919578E+03 -0.10501287594E+03  0.20976970501E+03  0.69565587626E+03  0.10100000352E+00 0.  1.
</event>
<event>
 5   0  0.4176125E-04  0.1396787E+04  0.7818609E-02  0.8956147E-01
        3   -1    0    0  501    0  0.00000000000E+00  0.00000000000E+00  0.39392056196E+03  0.39392057491E+03  0.10100000352E+00 0. -1.
       -3   -1    0    0    0  501  0.00000000000E+00  0.00000000000E+00 -0.12382030945E+04  0.12382030986E+04  0.10100000352E+00 0.  1.
    10030    2    1    2    0    0  0.00000000000E+00  0.00000000000E+00 -0.84428253256E+03  0.16321236735E+04  0.13967872748E+04 0.  0.
        4    1    3    3  502    0  0.11044853704E+03 -0.16612802400E+03  0.35991828397E+03  0.41150963990E+03  0.12699999809E+01 0. -1.
       -4    1    3    3    0  502 -0.11044853704E+03  0.16612802400E+03 -0.12042008165E+04  0.12206140336E+04  0.12699999809E+01 0.  1.
</event>
<event>
 5   0  0.1120053E-03  0.1408226E+04  0.7818609E-02  0.8947885E-01
       -2   -1    0    0    0  501  0.00000000000E+00  0.00000000000E+00  0.98042860928E+03  0.98042860928E+03  0.25500000920E-02 0. -1.
        2   -1    0    0  501    0  0.00000000000E+00  0.00000000000E+00 -0.50567206083E+03  0.50567206084E+03  0.25500000920E-02 0.  1.
    10030    2    1    2    0    0  0.00000000000E+00  0.00000000000E+00  0.47475654844E+03  0.14861006701E+04  0.14082263389E+04 0.  0.
        2    1    3    3  502    0 -0.32451994017E+03 -0.18910514291E+03 -0.39112453580E+03  0.54226593951E+03  0.25500000920E-02 0.  1.
       -2    1    3    3    0  502  0.32451994017E+03  0.18910514291E+03  0.86588108425E+03  0.94383473061E+03  0.25500000920E-02 0. -1.
</event>
<event>
 5   0  0.1095119E-03  0.1402707E+04  0.7818609E-02  0.8951861E-01
        2   -1    0    0  501    0  0.00000000000E+00  0.00000000000E+00  0.11060468663E+04  0.11060468663E+04  0.25500000920E-02 0. -1.
       -2   -1    0    0    0  501  0.00000000000E+00  0.00000000000E+00 -0.44473404459E+03  0.44473404460E+03  0.25500000920E-02 0.  1.
    10030    2    1    2    0    0  0.00000000000E+00  0.00000000000E+00  0.66131282174E+03  0.15507809109E+04  0.14027069493E+04 0.  0.
        5    1    3    3  502    0  0.74511182234E+02  0.45215927498E+03  0.91762049935E+03  0.10256945925E+04  0.46999998093E+01 0. -1.
       -5    1    3    3    0  502 -0.74511182234E+02 -0.45215927498E+03 -0.25630767761E+03  0.52508631845E+03  0.46999998093E+01 0.  1.
</event>
<event>
 5   0  0.6194742E-04  0.1397693E+04  0.7818609E-02  0.8955490E-01
        1   -1    0    0  501    0  0.00000000000E+00  0.00000000000E+00  0.17777721439E+04  0.17777721439E+04  0.50400001928E-02 0.  1.
       -1   -1    0    0    0  501  0.00000000000E+00  0.00000000000E+00 -0.27471828803E+03  0.27471828808E+03  0.50400001928E-02 0. -1.
    10030    2    1    2    0    0  0.00000000000E+00  0.00000000000E+00  0.15030538559E+04  0.20524904320E+04  0.13976931279E+04 0.  0.
        4    1    3    3  502    0  0.50421114104E+03 -0.44789837380E+03  0.48257740752E+03  0.82929150191E+03  0.12699999809E+01 0. -1.
       -4    1    3    3    0  502 -0.50421114104E+03  0.44789837380E+03  0.10204764484E+04  0.12231989301E+04  0.12699999809E+01 0.  1.
</event>
<event>
 5   0  0.1098949E-03  0.1401796E+04  0.7818609E-02  0.8952520E-01
       -2   -1    0    0    0  501  0.00000000000E+00  0.00000000000E+00  0.91054479054E+03  0.91054479054E+03  0.25500000920E-02 0.  1.
        2   -1    0    0  501    0  0.00000000000E+00  0.00000000000E+00 -0.53952073665E+03  0.53952073666E+03  0.25500000920E-02 0. -1.
    10030    2    1    2    0    0  0.00000000000E+00  0.00000000000E+00  0.37102405389E+03  0.14500655272E+04  0.14017957000E+04 0.  0.
        4    1    3    3  502    0 -0.18155038931E+03 -0.53181089075E+03  0.61883112182E+03  0.83590486158E+03  0.12699999809E+01 0.  1.
       -4    1    3    3    0  502  0.18155038931E+03  0.53181089075E+03 -0.24780706793E+03  0.61416066562E+03  0.12699999809E+01 0. -1.
</event>
<event>
 5   0  0.6153318E-04  0.1401638E+04  0.7818609E-02  0.8952634E-01
        1   -1    0    0  501    0  0.00000000000E+00  0.00000000000E+00  0.68720164932E+03  0.68720164933E+03  0.50400001928E-02 0. -1.
       -1   -1    0    0    0  501  0.00000000000E+00  0.00000000000E+00 -0.71470650821E+03  0.71470650823E+03  0.50400001928E-02 0.  1.
    10030    2    1    2    0    0  0.00000000000E+00  0.00000000000E+00 -0.27504858897E+02  0.14019081576E+04  0.14016383146E+04 0.  0.
        5    1    3    3  502    0  0.11015377929E+03 -0.46352579810E+03  0.50028754269E+03  0.69086882689E+03  0.46999998093E+01 0. -1.
       -5    1    3    3    0  502 -0.11015377929E+03  0.46352579810E+03 -0.52779240159E+03  0.71103933068E+03  0.46999998093E+01 0.  1.
</event>
<event>
 5   0  0.1120053E-03  0.1404024E+04  0.7818609E-02  0.8950911E-01
       -2   -1    0    0    0  501  0.00000000000E+00  0.00000000000E+00  0.10349752871E+04  0.10349752871E+04  0.25500000920E-02 0. -1.
        2   -1    0    0  501    0  0.00000000000E+00  0.00000000000E+00 -0.47616680254E+03  0.47616680254E+03  0.25500000920E-02 0.  1.
    10030    2    1    2    0    0  0.00000000000E+00  0.00000000000E+00  0.55880848454E+03  0.15111420896E+04  0.14040240356E+04 0.  0.
        2    1    3    3  502    0 -0.24660467439E+03 -0.40598060212E+03  0.83574160188E+03  0.96130023398E+03  0.25500000920E-02 0. -1.
       -2    1    3    3    0  502  0.24660467439E+03  0.40598060212E+03 -0.27693311734E+03  0.54984185564E+03  0.25500000920E-02 0.  1.
</event>
<event>
 5   0  0.1108819E-03  0.1379863E+04  0.7818609E-02  0.8968525E-01
        2   -1    0    0  501    0  0.00000000000E+00  0.00000000000E+00  0.95657738659E+03  0.95657738659E+03  0.25500000920E-02 0. -1.
       -2   -1    0    0    0  501  0.00000000000E+00  0.00000000000E+00 -0.49761342086E+03  0.49761342087E+03  0.25500000920E-02 0.  1.
    10030    2    1    2    0    0  0.00000000000E+00  0.00000000000E+00  0.45896396572E+03  0.14541908075E+04  0.13798633928E+04 0.  0.
        3    1    3    3  502    0 -0.18649631282E+03 -0.65444513979E+03  0.10966333082E+03  0.68927887826E+03  0.10100000352E+00 0.  1.
       -3    1    3    3    0  502  0.18649631282E+03  0.65444513979E+03  0.34930063490E+03  0.76491192920E+03  0.10100000352E+00 0. -1.
</event>
<event>
 5   0  0.6097538E-04  0.1432530E+04  0.7818609E-02  0.8930603E-01
        1   -1    0    0  501    0  0.00000000000E+00  0.00000000000E+00  0.69219087387E+03  0.69219087388E+03  0.50400001928E-02 0.  1.
       -1   -1    0    0    0  501  0.00000000000E+00  0.00000000000E+00 -0.74117635842E+03  0.74117635843E+03  0.50400001928E-02 0. -1.
    10030    2    1    2    0    0  0.00000000000E+00  0.00000000000E+00 -0.48985484550E+02  0.14333672323E+04  0.14325299456E+04 0.  0.
        2    1    3    3  502    0  0.51716568893E+03 -0.25670299702E+03  0.39964029322E+03  0.70218882251E+03  0.25500000920E-02 0.  1.
       -2    1    3    3    0  502 -0.51716568893E+03  0.25670299702E+03 -0.44862577777E+03  0.73117840981E+03  0.25500000920E-02 0. -1.
</event>
<event>
 5   0  0.6153318E-04  0.1396643E+04  0.7818609E-02  0.8956252E-01
        1   -1    0    0  501    0  0.00000000000E+00  0.00000000000E+00  0.10742667039E+04  0.10742667039E+04  0.50400001928E-02 0.  1.
       -1   -1    0    0    0  501  0.00000000000E+00  0.00000000000E+00 -0.45394032670E+03  0.45394032673E+03  0.50400001928E-02 0. -1.
    10030    2    1    2    0    0  0.00000000000E+00  0.00000000000E+00  0.62032637722E+03  0.15282070307E+04  0.13966430876E+04 0.  0.
        5    1    3    3  502    0 -0.37810625002E+03 -0.38981576314E+03  0.79050360937E+03  0.95908222375E+03  0.46999998093E+01 0.  1.
       -5    1    3    3    0  502  0.37810625002E+03  0.38981576314E+03 -0.17017723215E+03  0.56912480691E+03  0.46999998093E+01 0. -1.
</event>
<event>
 5   0  0.1108819E-03  0.1354869E+04  0.7818609E-02  0.8987151E-01
        2   -1    0    0  501    0  0.00000000000E+00  0.00000000000E+00  0.55906998030E+03  0.55906998031E+03  0.25500000920E-02 0. -1.
       -2   -1    0    0    0  501  0.00000000000E+00  0.00000000000E+00 -0.82085849127E+03  0.82085849127E+03  0.25500000920E-02 0.  1.
    10030    2    1    2    0    0  0.00000000000E+00  0.00000000000E+00 -0.26178851097E+03  0.13799284716E+04  0.13548687620E+04 0.  0.
        3    1    3    3  502    0  0.44237408040E+03 -0.47948288624E+03 -0.31680442316E+03  0.72523356096E+03  0.10100000352E+00 0.  1.
       -3    1    3    3    0  502 -0.44237408040E+03  0.47948288624E+03  0.55015912192E+02  0.65469491063E+03  0.10100000352E+00 0. -1.
</event>
<event>
 5   0  0.1108819E-03  0.1404999E+04  0.7818609E-02  0.8950208E-01
        2   -1    0    0  501    0  0.00000000000E+00  0.00000000000E+00  0.79578914035E+03  0.79578914035E+03  0.25500000920E-02 0.  1.
       -2   -1    0    0    0  501  0.00000000000E+00  0.00000000000E+00 -0.62014620360E+03  0.62014620361E+03  0.25500000920E-02 0. -1.
    10030    2    1    2    0    0  0.00000000000E+00  0.00000000000E+00  0.17564293675E+03  0.14159353440E+04  0.14049990950E+04 0.  0.
        3    1    3    3  502    0  0.26703003899E+02  0.41657084392E+03 -0.48160874566E+03  0.63733139929E+03  0.10100000352E+00 0. -1.
       -3    1    3    3    0  502 -0.26703003899E+02 -0.41657084392E+03  0.65725168241E+03  0.77860394467E+03  0.10100000352E+00 0.  1.
</event>
<event>
 5   0  0.1120053E-03  0.1405988E+04  0.7818609E-02  0.8949495E-01
       -2   -1    0    0    0  501  0.00000000000E+00  0.00000000000E+00  0.41736349082E+03  0.41736349083E+03  0.25500000920E-02 0. -1.
        2   -1    0    0  501    0  0.00000000000E+00  0.00000000000E+00 -0.11841015617E+04  0.11841015617E+04  0.25500000920E-02 0.  1.
    10030    2    1    2    0    0  0.00000000000E+00  0.00000000000E+00 -0.76673807092E+03  0.16014650526E+04  0.14059882806E+04 0.  0.
        2    1    3    3  502    0 -0.49102284510E+01  0.32551158452E+03  0.32632977898E+03  0.46094796524E+03  0.25500000920E-02 0. -1.
       -2    1    3    3    0  502  0.49102284510E+01 -0.32551158452E+03 -0.10930678499E+04  0.11405170873E+04  0.25500000920E-02 0.  1.
</event>
<event>
 5   0  0.5875298E-04  0.1407064E+04  0.7818609E-02  0.8948721E-01
       -1   -1    0    0    0  501  0.00000000000E+00  0.00000000000E+00  0.44005665216E+03  0.44005665219E+03  0.50400001928E-02 0.  1.
        1   -1    0    0  501    0  0.00000000000E+00  0.00000000000E+00 -0.11247579560E+04  0.11247579560E+04  0.50400001928E-02 0. -1.
    10030    2    1    2    0    0  0.00000000000E+00  0.00000000000E+00 -0.68470130384E+03  0.15648146082E+04  0.14070639227E+04 0.  0.
        1    1    3    3  502    0 -0.64924844854E+02  0.25474809311E+03 -0.10680805934E+04  0.10999581722E+04  0.50400001928E-02 0. -1.
       -1    1    3    3    0  502  0.64924844854E+02 -0.25474809311E+03  0.38337928958E+03  0.46485643604E+03  0.50400001928E-02 0.  1.
</event>
<event>
 5   0  0.1098949E-03  0.1415457E+04  0.7818609E-02  0.8942705E-01
       -2   -1    0    0    0  501  0.00000000000E+00  0.00000000000E+00  0.46140348047E+03  0.46140348048E+03  0.25500000920E-02 0.  1.
        2   -1    0    0  501    0  0.00000000000E+00  0.00000000000E+00 -0.10855569655E+04  0.10855569655E+04  0.25500000920E-02 0. -1.
    10030    2    1    2    0    0  0.00000000000E+00  0.00000000000E+00 -0.62415348499E+03  0.15469604459E+04  0.14154571871E+04 0.  0.
        4    1    3    3  502    0  0.71252692882E+02  0.19759506112E+03  0.42655040403E+03  0.47546568173E+03  0.12699999809E+01 0.  1.
       -4    1    3    3    0  502 -0.71252692882E+02 -0.19759506112E+03 -0.10507038890E+04  0.10714947642E+04  0.12699999809E+01 0. -1.
</event>
<event>
 5   0  0.1108819E-03  0.1376949E+04  0.7818609E-02  0.8970675E-01
        2   -1    0    0  501    0  0.00000000000E+00  0.00000000000E+00  0.93085993164E+03  0.93085993164E+03  0.25500000920E-02 0.  1.
       -2   -1    0    0    0  501  0.00000000000E+00  0.00000000000E+00 -0.50920363345E+03  0.50920363346E+03  0.25500000920E-02 0. -1.
    10030    2    1    2    0    0  0.00000000000E+00  0.00000000000E+00  0.42165629819E+03  0.14400635651E+04  0.13769491776E+04 0.  0.
        3    1    3    3  502    0 -0.44690893355E+03 -0.50308707404E+03  0.36300740839E+03  0.76459047058E+03  0.10100000352E+00 0. -1.
       -3    1    3    3    0  502  0.44690893355E+03  0.50308707404E+03  0.58648889794E+02  0.67547309452E+03  0.10100000352E+00 0.  1.
</event>
<event>
 5   0  0.6097538E-04  0.1288520E+04  0.7818609E-02  0.9038719E-01
        1   -1    0    0  501    0  0.00000000000E+00  0.00000000000E+00  0.70328324764E+03  0.70328324766E+03  0.50400001928E-02 0. -1.
       -1   -1    0    0    0  501  0.00000000000E+00  0.00000000000E+00 -0.59019026756E+03  0.59019026759E+03  0.50400001928E-02 0.  1.
    10030    2    1    2    0    0  0.00000000000E+00  0.00000000000E+00  0.11309298007E+03  0.12934735152E+04  0.12885199698E+04 0.  0.
        2    1    3    3  502    0 -0.45569246353E+03  0.44832006364E+03 -0.23914171258E+02  0.63970179644E+03  0.25500000920E-02 0. -1.
       -2    1    3    3    0  502  0.45569246353E+03 -0.44832006364E+03  0.13700715133E+03  0.65377171880E+03  0.25500000920E-02 0.  1.
</event>
<event>
 5   0  0.5875298E-04  0.1350492E+04  0.7818609E-02  0.8990456E-01
        1   -1    0    0  501    0  0.00000000000E+00  0.00000000000E+00  0.12139761671E+04  0.12139761671E+04  0.50400001928E-02 0. -1.
       -1   -1    0    0    0  501  0.00000000000E+00  0.00000000000E+00 -0.37558995016E+03  0.37558995020E+03  0.50400001928E-02 0.  1.
    10030    2    1    2    0    0  0.00000000000E+00  0.00000000000E+00  0.83838621697E+03  0.15895661173E+04  0.13504921298E+04 0.  0.
        1    1    3    3  502    0  0.51970883849E+03  0.32409675036E+03  0.75381116191E+03  0.97127094482E+03  0.50400001928E-02 0. -1.
       -1    1    3    3    0  502 -0.51970883849E+03 -0.32409675036E+03  0.84575055066E+02  0.61829517253E+03  0.50400001928E-02 0.  1.
</event>
<event>
 5   0  0.1175146E-03  0.1408939E+04  0.7818609E-02  0.8947373E-01
       -2   -1    0    0    0  501  0.00000000000E+00  0.00000000000E+00  0.70591470370E+03  0.70591470370E+03  0.25500000920E-02 0.  1.
        2   -1    0    0  501    0  0.00000000000E+00  0.00000000000E+00 -0.70302771579E+03  0.70302771579E+03  0.25500000920E-02 0. -1.
    10030    2    1    2    0    0  0.00000000000E+00  0.00000000000E+00  0.28869879086E+01  0.14089424195E+04  0.14089394617E+04 0.  0.
        1    1    3    3  502    0  0.31056352474E+03  0.30817672383E+03  0.55358141659E+03  0.70560256578E+03  0.50400001928E-02 0.  1.
       -1    1    3    3    0  502 -0.31056352474E+03 -0.30817672383E+03 -0.55069442869E+03  0.70333985371E+03  0.50400001928E-02 0. -1.
</event>
<event>
 5   0  0.6153318E-04  0.1365563E+04  0.7818609E-02  0.8979130E-01
       -1   -1    0    0    0  501  0.00000000000E+00  0.00000000000E+00  0.30796225036E+03  0.30796225040E+03  0.50400001928E-02 0.  1.
        1   -1    0    0  501    0  0.00000000000E+00  0.00000000000E+00 -0.15137903311E+04  0.15137903311E+04  0.50400001928E-02 0. -1.
    10030    2    1    2    0    0  0.00000000000E+00  0.00000000000E+00 -0.12058280808E+04  0.18217525815E+04  0.13655625610E+04 0.  0.
        5    1    3    3  502    0 -0.43651515150E+02  0.24918238080E+03 -0.14489388508E+04  0.14708647787E+04  0.46999998093E+01 0. -1.
       -5    1    3    3    0  502  0.43651515150E+02 -0.24918238080E+03  0.24311077007E+03  0.35088780286E+03  0.46999998093E+01 0.  1.
</event>
<event>
 5   0  0.5875298E-04  0.1406897E+04  0.7818609E-02  0.8948842E-01
        1   -1    0    0  501    0  0.00000000000E+00  0.00000000000E+00  0.18375294194E+04  0.18375294194E+04  0.50400001928E-02 0. -1.
       -1   -1    0    0    0  501  0.00000000000E+00  0.00000000000E+00 -0.26929611211E+03  0.26929611216E+03  0.50400001928E-02 0.  1.
    10030    2    1    2    0    0  0.00000000000E+00  0.00000000000E+00  0.15682333073E+04  0.21068255316E+04  0.14068966253E+04 0.  0.
        1    1    3    3  502    0 -0.22145047764E+03  0.37522099899E+02  0.17823892789E+04  0.17964853920E+04  0.50400001928E-02 0. -1.
       -1    1    3    3    0  502  0.22145047764E+03 -0.37522099899E+02 -0.21415597162E+03  0.31034013958E+03  0.50400001928E-02 0.  1.
</event>
<event>
 5   0  0.1108819E-03  0.1398071E+04  0.7818609E-02  0.8955216E-01
       -2   -1    0    0    0  501  0.00000000000E+00  0.00000000000E+00  0.88940640408E+03  0.88940640409E+03  0.25500000920E-02 0. -1.
        2   -1    0    0  501    0  0.00000000000E+00  0.00000000000E+00 -0.54941178725E+03  0.54941178725E+03  0.25500000920E-02 0.  1.
    10030    2    1    2    0    0  0.00000000000E+00  0.00000000000E+00  0.33999461684E+03  0.14388181913E+04  0.13980706163E+04 0.  0.
        3    1    3    3  502    0 -0.67085794191E+03  0.12221095803E+03  0.11681213489E+02  0.68199879577E+03  0.10100000352E+00 0.  1.
       -3    1    3    3    0  502  0.67085794191E+03 -0.12221095803E+03  0.32831340335E+03  0.75681939557E+03  0.10100000352E+00 0. -1.
</event>
<event>
 5   0  0.5875298E-04  0.1130334E+04  0.7818609E-02  0.9176120E-01
       -1   -1    0    0    0  501  0.00000000000E+00  0.00000000000E+00  0.42976849320E+03  0.42976849323E+03  0.50400001928E-02 0. -1.
        1   -1    0    0  501    0  0.00000000000E+00  0.00000000000E+00 -0.74322274832E+03  0.74322274834E+03  0.50400001928E-02 0.  1.
    10030    2    1    2    0    0  0.00000000000E+00  0.00000000000E+00 -0.31345425512E+03  0.11729912416E+04  0.11303339696E+04 0.  0.
        1    1    3    3  502    0 -0.14385207714E+03 -0.17096984769E+03 -0.69544204814E+03  0.73045448268E+03  0.50400001928E-02 0.  1.
       -1    1    3    3    0  502  0.14385207714E+03  0.17096984769E+03  0.38198779302E+03  0.44253675888E+03  0.50400001928E-02 0. -1.
</event>
<event>
 5   0  0.5875298E-04  0.1396921E+04  0.7818609E-02  0.8956050E-01
        1   -1    0    0  501    0  0.00000000000E+00  0.00000000000E+00  0.63924793482E+03  0.63924793484E+03  0.50400001928E-02 0.  1.
       -1   -1    0    0    0  501  0.00000000000E+00  0.00000000000E+00 -0.76315796397E+03  0.76315796399E+03  0.50400001928E-02 0. -1.
    10030    2    1    2    0    0  0.00000000000E+00  0.00000000000E+00 -0.12391002915E+03  0.14024058988E+04  0.13969211179E+04 0.  0.
        1    1    3    3  502    0 -0.17708719618E+03  0.78627073178E+02 -0.73563750664E+03  0.76072638503E+03  0.50400001928E-02 0. -1.
       -1    1    3    3    0  502  0.17708719618E+03 -0.78627073178E+02  0.61172747749E+03  0.64167951379E+03  0.50400001928E-02 0.  1.
</event>
<event>
 5   0  0.6097538E-04  0.1401723E+04  0.7818609E-02  0.8952572E-01
        1   -1    0    0  501    0  0.00000000000E+00  0.00000000000E+00  0.50649343972E+03  0.50649343974E+03  0.50400001928E-02 0.  1.
       -1   -1    0    0    0  501  0.00000000000E+00  0.00000000000E+00 -0.96981909225E+03  0.96981909226E+03  0.50400001928E-02 0. -1.
    10030    2    1    2    0    0  0.00000000000E+00  0.00000000000E+00 -0.46332565253E+03  0.14763125320E+04  0.14017232365E+04 0.  0.
        2    1    3    3  502    0  0.11042656792E+03 -0.66462977556E+03 -0.43501808042E+03  0.80197724143E+03  0.25500000920E-02 0. -1.
       -2    1    3    3    0  502 -0.11042656792E+03  0.66462977556E+03 -0.28307572104E+02  0.67433529057E+03  0.25500000920E-02 0.  1.
</event>
<event>
 5   0  0.1175146E-03  0.1392993E+04  0.7818609E-02  0.8958907E-01
        2   -1    0    0  501    0  0.00000000000E+00  0.00000000000E+00  0.12351245086E+04  0.12351245086E+04  0.25500000920E-02 0.  1.
       -2   -1    0    0    0  501  0.00000000000E+00  0.00000000000E+00 -0.39275964412E+03  0.39275964413E+03  0.25500000920E-02 0. -1.
    10030    2    1    2    0    0  0.00000000000E+00  0.00000000000E+00  0.84236486444E+03  0.16278841527E+04  0.13929925519E+04 0.  0.
        1    1    3    3  502    0 -0.11878890622E+02 -0.63591360043E+03  0.75291485509E+03  0.98560032178E+03  0.50400001928E-02 0. -1.
       -1    1    3    3    0  502  0.11878890622E+02  0.63591360043E+03  0.89450009349E+02  0.64228383091E+03  0.50400001928E-02 0.  1.
</event>
<event>
 5   0  0.4176125E-04  0.1410541E+04  0.7818609E-02  0.8946223E-01
       -3   -1    0    0    0  501  0.00000000000E+00  0.00000000000E+00  0.51751508347E+03  0.51751509332E+03  0.10100000352E+00 0. -1.
        3   -1    0    0  501    0  0.00000000000E+00  0.00000000000E+00 -0.96114433691E+03  0.96114434221E+03  0.10100000352E+00 0.  1.
    10030    2    1    2    0    0  0.00000000000E+00  0.00000000000E+00 -0.44362925344E+03  0.14786594355E+04  0.14105413187E+04 0.  0.
        4    1    3    3  502    0 -0.62788924775E+03  0.31729168556E+03 -0.16954520924E+03  0.72364778175E+03  0.12699999809E+01 0. -1.
       -4    1    3    3    0  502  0.62788924775E+03 -0.31729168556E+03 -0.27408404420E+03  0.75501165378E+03  0.12699999809E+01 0.  1.
</event>
<event>
 5   0  0.1108819E-03  0.1400591E+04  0.7818609E-02  0.8953391E-01
       -2   -1    0    0    0  501  0.00000000000E+00  0.00000000000E+00  0.52471115865E+03  0.52471115866E+03  0.25500000920E-02 0. -1.
        2   -1    0    0  501    0  0.00000000000E+00  0.00000000000E+00 -0.93463629022E+03  0.93463629023E+03  0.25500000920E-02 0.  1.
    10030    2    1    2    0    0  0.00000000000E+00  0.00000000000E+00 -0.40992513157E+03  0.14593474489E+04  0.14005914333E+04 0.  0.
        3    1    3    3  502    0 -0.53055935868E+01 -0.44792000262E+03  0.35590672232E+03  0.57212768091E+03  0.10100000352E+00 0. -1.
       -3    1    3    3    0  502  0.53055935868E+01  0.44792000262E+03 -0.76583185389E+03  0.88721976798E+03  0.10100000352E+00 0.  1.
</event>
<event>
 5   0  0.1120053E-03  0.1393071E+04  0.7818609E-02  0.8958849E-01
        2   -1    0    0  501    0  0.00000000000E+00  0.00000000000E+00  0.22603463342E+04  0.22603463342E+04  0.25500000920E-02 0.  1.
       -2   -1    0    0    0  501  0.00000000000E+00  0.00000000000E+00 -0.21464050674E+03  0.21464050675E+03  0.25500000920E-02 0. -1.
    10030    2    1    2    0    0  0.00000000000E+00  0.00000000000E+00  0.20457058274E+04  0.24749868409E+04  0.13930712582E+04 0.  0.
        2    1    3    3  502    0 -0.10166596676E+03 -0.12441042746E+03  0.22269748212E+04  0.22327630366E+04  0.25500000920E-02 0.  1.
       -2    1    3    3    0  502  0.10166596676E+03  0.12441042746E+03 -0.18126899380E+03  0.24222380431E+03  0.25500000920E-02 0. -1.
</event>
<event>
 5   0  0.1098949E-03  0.1397093E+04  0.7818609E-02  0.8955925E-01
        2   -1    0    0  501    0  0.00000000000E+00  0.00000000000E+00  0.19052254892E+04  0.19052254892E+04  0.25500000920E-02 0. -1.
       -2   -1    0    0    0  501  0.00000000000E+00  0.00000000000E+00 -0.25612043976E+03  0.25612043977E+03  0.25500000920E-02 0.  1.
    10030    2    1    2    0    0  0.00000000000E+00  0.00000000000E+00  0.16491050495E+04  0.21613459290E+04  0.13970929678E+04 0.  0.
        4    1    3    3  502    0  0.21860370627E+03  0.23668703654E+03 -0.13430369354E+03  0.34906651037E+03  0.12699999809E+01 0.  1.
       -4    1    3    3    0  502 -0.21860370627E+03 -0.23668703654E+03  0.17834087430E+04  0.18122794186E+04  0.12699999809E+01 0. -1.
</event>
<event>
 5   0  0.1108819E-03  0.1268903E+04  0.7818609E-02  0.9054595E-01
       -2   -1    0    0    0  501  0.00000000000E+00  0.00000000000E+00  0.14775045869E+04  0.14775045869E+04  0.25500000920E-02 0. -1.
        2   -1    0    0  501    0  0.00000000000E+00  0.00000000000E+00 -0.27243820629E+03  0.27243820630E+03  0.25500000920E-02 0.  1.
    10030    2    1    2    0    0  0.00000000000E+00  0.00000000000E+00  0.12050663806E+04  0.17499427932E+04  0.12689029899E+04 0.  0.
        3    1    3    3  502    0  0.30030167755E+03  0.52457779884E+03  0.86840159726E+03  0.10580568552E+04  0.10100000352E+00 0.  1.
       -3    1    3    3    0  502 -0.30030167755E+03 -0.52457779884E+03  0.33666478331E+03  0.69188593793E+03  0.10100000352E+00 0. -1.
</event>
<event>
 5   0  0.5875298E-04  0.1411159E+04  0.7818609E-02  0.8945781E-01
       -1   -1    0    0    0  501  0.00000000000E+00  0.00000000000E+00  0.30042280888E+03  0.30042280892E+03  0.50400001928E-02 0.  1.
        1   -1    0    0  501    0  0.00000000000E+00  0.00000000000E+00 -0.16571381583E+04  0.16571381583E+04  0.50400001928E-02 0. -1.
    10030    2    1    2    0    0  0.00000000000E+00  0.00000000000E+00 -0.13567153494E+04  0.19575609672E+04  0.14111585315E+04 0.  0.
        1    1    3    3  502    0  0.64267661617E+03  0.17139991147E+03 -0.35175810861E+03  0.75242602934E+03  0.50400001928E-02 0.  1.
       -1    1    3    3    0  502 -0.64267661617E+03 -0.17139991147E+03 -0.10049572408E+04  0.12051349379E+04  0.50400001928E-02 0. -1.
</event>
<event>
 5   0  0.4176125E-04  0.1400615E+04  0.7818609E-02  0.8953374E-01
        3   -1    0    0  501    0  0.00000000000E+00  0.00000000000E+00  0.11028635092E+04  0.11028635138E+04  0.10100000352E+00 0. -1.
       -3   -1    0    0    0  501  0.00000000000E+00  0.00000000000E+00 -0.44468809689E+03  0.44468810836E+03  0.10100000352E+00 0.  1.
    10030    2    1    2    0    0  0.00000000000E+00  0.00000000000E+00  0.65817541232E+03  0.15475516222E+04  0.14006145615E+04 0.  0.
        2    1    3    3  502    0 -0.12885539703E+03 -0.61316913743E+03 -0.16539028932E+02  0.62678037934E+03  0.25500000920E-02 0.  1.
       -2    1    3    3    0  502  0.12885539703E+03  0.61316913743E+03  0.67471444125E+03  0.92077124286E+03  0.25500000920E-02 0. -1.
</event>
<event>
 5   0  0.4176125E-04  0.1414477E+04  0.7818609E-02  0.8943406E-01
       -3   -1    0    0    0  501  0.00000000000E+00  0.00000000000E+00  0.35018401615E+03  0.35018403071E+03  0.10100000352E+00 0.  1.
        3   -1    0    0  501    0  0.00000000000E+00  0.00000000000E+00 -0.14283525791E+04  0.14283525827E+04  0.10100000352E+00 0. -1.
    10030    2    1    2    0    0  0.00000000000E+00  0.00000000000E+00 -0.10781685630E+04  0.17785366134E+04  0.14144769475E+04 0.  0.
        3    1    3    3  502    0  0.42121412385E+03  0.32785809198E+03  0.44310725986E+02  0.53560780170E+03  0.10100000352E+00 0.  1.
       -3    1    3    3    0  502 -0.42121412385E+03 -0.32785809198E+03 -0.11224792889E+04  0.12429288117E+04  0.10100000352E+00 0. -1.
</event>
<event>
 5   0  0.1098949E-03  0.1405612E+04  0.7818609E-02  0.8949767E-01
       -2   -1    0    0    0  501  0.00000000000E+00  0.00000000000E+00  0.47302745833E+03  0.47302745833E+03  0.25500000920E-02 0. -1.
        2   -1    0    0  501    0  0.00000000000E+00  0.00000000000E+00 -0.10442015057E+04  0.10442015057E+04  0.25500000920E-02 0.  1.
    10030    2    1    2    0    0  0.00000000000E+00  0.00000000000E+00 -0.57117404733E+03  0.15172289640E+04  0.14056115882E+04 0.  0.
        4    1    3    3  502    0  0.85099617168E+02  0.28285324261E+02 -0.10379992330E+04  0.10418666061E+04  0.12699999809E+01 0.  1.
       -4    1    3    3    0  502 -0.85099617168E+02 -0.28285324261E+02  0.46682518565E+03  0.47536235786E+03  0.12699999809E+01 0. -1.
</event>
<event>
 5   0  0.1120053E-03  0.1398230E+04  0.7818609E-02  0.8955101E-01
       -2   -1    0    0    0  501  0.00000000000E+00  0.00000000000E+00  0.20492270713E+03  0.20492270714E+03  0.25500000920E-02 0. -1.
        2   -1    0    0  501    0  0.00000000000E+00  0.00000000000E+00 -0.23851020372E+04  0.23851020372E+04  0.25500000920E-02 0.  1.
    10030    2    1    2    0    0  0.00000000000E+00  0.00000000000E+00 -0.21801793301E+04  0.25900247443E+04  0.13982296896E+04 0.  0.
        2    1    3    3  502    0 -0.46448194452E+03 -0.49339973197E+03 -0.77153332179E+03  0.10268643722E+04  0.25500000920E-02 0. -1.
       -2    1    3    3    0  502  0.46448194452E+03  0.49339973197E+03 -0.14086460083E+04  0.15631603721E+04  0.25500000920E-02 0.  1.
</event>
<event>
 5   0  0.6097538E-04  0.1392263E+04  0.7818609E-02  0.8959438E-01
       -1   -1    0    0    0  501  0.00000000000E+00  0.00000000000E+00  0.65546934160E+03  0.65546934162E+03  0.50400001928E-02 0.  1.
        1   -1    0    0  501    0  0.00000000000E+00  0.00000000000E+00 -0.73931660401E+03  0.73931660403E+03  0.50400001928E-02 0. -1.
    10030    2    1    2    0    0  0.00000000000E+00  0.00000000000E+00 -0.83847262410E+02  0.13947859456E+04  0.13922634344E+04 0.  0.
        2    1    3    3  502    0 -0.53505599085E+03 -0.25743596668E+03 -0.40595670228E+03  0.71927674397E+03  0.25500000920E-02 0. -1.
       -2    1    3    3    0  502  0.53505599085E+03  0.25743596668E+03  0.32210943987E+03  0.67550920167E+03  0.25500000920E-02 0.  1.
</event>
<event>
 5   0  0.4176125E-04  0.1400160E+04  0.7818609E-02  0.8953703E-01
       -4   -1    0    0    0  501  0.00000000000E+00  0.00000000000E+00  0.73414824388E+03  0.73414934236E+03  0.12699999809E+01 0.  1.
        4   -1    0    0  501    0  0.00000000000E+00  0.00000000000E+00 -0.66759038666E+03  0.66759159466E+03  0.12699999809E+01 0. -1.
    10030    2    1    2    0    0  0.00000000000E+00  0.00000000000E+00  0.66557857213E+02  0.14017409370E+04  0.14001598859E+04 0.  0.
        5    1    3    3  502    0  0.65507894777E+03 -0.24627933420E+03  0.15712084004E+02  0.70003635466E+03  0.46999998093E+01 0. -1.
       -5    1    3    3    0  502 -0.65507894777E+03  0.24627933420E+03  0.50845773209E+02  0.70170458236E+03  0.46999998093E+01 0.  1.
</event>
<event>
 5   0  0.1175146E-03  0.1400522E+04  0.7818609E-02  0.8953441E-01
       -2   -1    0    0    0  501  0.00000000000E+00  0.00000000000E+00  0.30993729302E+03  0.30993729303E+03  0.25500000920E-02 0.  1.
        2   -1    0    0  501    0  0.00000000000E+00  0.00000000000E+00 -0.15821445732E+04  0.15821445732E+04  0.25500000920E-02 0. -1.
    10030    2    1    2    0    0  0.00000000000E+00  0.00000000000E+00 -0.12722072802E+04  0.18920818662E+04  0.14005221972E+04 0.  0.
        1    1    3    3  502    0  0.37187950667E+03  0.16463449320E+03 -0.14062430928E+04  0.14638710736E+04  0.50400001928E-02 0. -1.
       -1    1    3    3    0  502 -0.37187950667E+03 -0.16463449320E+03  0.13403581269E+03  0.42821079265E+03  0.50400001928E-02 0.  1.
</event>
<event>
 5   0  0.5875298E-04  0.1409184E+04  0.7818609E-02  0.8947198E-01
       -1   -1    0    0    0  501  0.00000000000E+00  0.00000000000E+00  0.53635349700E+03  0.53635349702E+03  0.50400001928E-02 0.  1.
        1   -1    0    0  501    0  0.00000000000E+00  0.00000000000E+00 -0.92560151882E+03  0.92560151883E+03  0.50400001928E-02 0. -1.
    10030    2    1    2    0    0  0.00000000000E+00  0.00000000000E+00 -0.38924802182E+03  0.14619550159E+04  0.14091836097E+04 0.  0.
        1    1    3    3  502    0  0.32884746653E+03 -0.21867275556E+03 -0.79999187178E+03  0.89215773561E+03  0.50400001928E-02 0. -1.
       -1    1    3    3    0  502 -0.32884746653E+03  0.21867275556E+03  0.41074384996E+03  0.56979728025E+03  0.50400001928E-02 0.  1.
</event>
<event>
 5   0  0.6153318E-04  0.1408983E+04  0.7818609E-02  0.8947342E-01
       -1   -1    0    0    0  501  0.00000000000E+00  0.00000000000E+00  0.13595816526E+04  0.13595816526E+04  0.50400001928E-02 0. -1.
        1   -1    0    0  501    0  0.00000000000E+00  0.00000000000E+00 -0.36504469635E+03  0.36504469638E+03  0.50400001928E-02 0.  1.
    10030    2    1    2    0    0  0.00000000000E+00  0.00000000000E+00  0.99453695620E+03  0.17246263489E+04  0.14089827132E+04 0.  0.
        5    1    3    3  502    0  0.18497276027E+03  0.51786754096E+03 -0.41696616521E+02  0.55150921103E+03  0.46999998093E+01 0.  1.
       -5    1    3    3    0  502 -0.18497276027E+03 -0.51786754096E+03  0.10362335727E+04  0.11731171379E+04  0.46999998093E+01 0. -1.
</event>
<event>
 5   0  0.5875298E-04  0.1412169E+04  0.7818609E-02  0.8945057E-01
        1   -1    0    0  501    0  0.00000000000E+00  0.00000000000E+00  0.47726079184E+03  0.47726079187E+03  0.50400001928E-02 0.  1.
       -1   -1    0    0    0  501  0.00000000000E+00  0.00000000000E+00 -0.10446181757E+04  0.10446181757E+04  0.50400001928E-02 0. -1.
    10030    2    1    2    0    0  0.00000000000E+00  0.00000000000E+00 -0.56735738387E+03  0.15218789676E+04  0.14121689669E+04 0.  0.
        1    1    3    3  502    0  0.55033521358E+03 -0.44161897865E+03 -0.25601065384E+03  0.75062482275E+03  0.50400001928E-02 0. -1.
       -1    1    3    3    0  502 -0.55033521358E+03  0.44161897865E+03 -0.31134673003E+03  0.77125414485E+03  0.50400001928E-02 0.  1.
</event>
<event>
 5   0  0.6114266E-04  0.1398352E+04  0.7818609E-02  0.8955012E-01
        1   -1    0    0  501    0  0.00000000000E+00  0.00000000000E+00  0.58698506600E+03  0.58698506602E+03  0.50400001928E-02 0. -1.
       -1   -1    0    0    0  501  0.00000000000E+00  0.00000000000E+00 -0.83281004444E+03  0.83281004446E+03  0.50400001928E-02 0.  1.
    10030    2    1    2    0    0  0.00000000000E+00  0.00000000000E+00 -0.24582497844E+03  0.14197951105E+04  0.13983519713E+04 0.  0.
        3    1    3    3  502    0  0.60075543949E+02 -0.15195804017E+03  0.56732591644E+03  0.59038887406E+03  0.10100000352E+00 0. -1.
       -3    1    3    3    0  502 -0.60075543949E+02  0.15195804017E+03 -0.81315089488E+03  0.82940623641E+03  0.10100000352E+00 0.  1.
</event>
<event>
 5   0  0.1108819E-03  0.1398278E+04  0.7818609E-02  0.8955066E-01
        2   -1    0    0  501    0  0.00000000000E+00  0.00000000000E+00  0.98910644353E+03  0.98910644354E+03  0.25500000920E-02 0.  1.
       -2   -1    0    0    0  501  0.00000000000E+00  0.00000000000E+00 -0.49417889059E+03  0.49417889059E+03  0.25500000920E-02 0. -1.
    10030    2    1    2    0    0  0.00000000000E+00  0.00000000000E+00  0.49492755295E+03  0.14832853341E+04  0.13982782626E+04 0.  0.
        3    1    3    3  502    0  0.44520327322E+03 -0.51207813669E+03  0.42612349316E+03  0.80125602288E+03  0.10100000352E+00 0.  1.
       -3    1    3    3    0  502 -0.44520327322E+03  0.51207813669E+03  0.68804059784E+02  0.68202931126E+03  0.10100000352E+00 0. -1.
</event>
<event>
 5   0  0.1175146E-03  0.1398204E+04  0.7818609E-02  0.8955120E-01
        2   -1    0    0  501    0  0.00000000000E+00  0.00000000000E+00  0.60330310800E+03  0.60330310800E+03  0.25500000920E-02 0.  1.
       -2   -1    0    0    0  501  0.00000000000E+00  0.00000000000E+00 -0.81011263770E+03  0.81011263770E+03  0.25500000920E-02 0. -1.
    10030    2    1    2    0    0  0.00000000000E+00  0.00000000000E+00 -0.20680952970E+03  0.14134157457E+04  0.13982038080E+04 0.  0.
        1    1    3    3  502    0  0.44170056158E+03 -0.35243774662E+03 -0.51950389257E+03  0.76759106676E+03  0.50400001928E-02 0. -1.
       -1    1    3    3    0  502 -0.44170056158E+03  0.35243774662E+03  0.31269436287E+03  0.64582467895E+03  0.50400001928E-02 0.  1.
</event>
<event>
 5   0  0.4176125E-04  0.1398811E+04  0.7818609E-02  0.8954680E-01
       -3   -1    0    0    0  501  0.00000000000E+00  0.00000000000E+00  0.92549712181E+03  0.92549712732E+03  0.10100000352E+00 0.  1.
        3   -1    0    0  501    0  0.00000000000E+00  0.00000000000E+00 -0.52854640316E+03  0.52854641281E+03  0.10100000352E+00 0. -1.
    10030    2    1    2    0    0  0.00000000000E+00  0.00000000000E+00  0.39695071865E+03  0.14540435401E+04  0.13988111894E+04 0.  0.
        4    1    3    3  502    0 -0.42167678806E+03 -0.23209392307E+03 -0.32899314496E+03  0.58302401755E+03  0.12699999809E+01 0. -1.
       -4    1    3    3    0  502  0.42167678806E+03  0.23209392307E+03  0.72594386360E+03  0.87101952258E+03  0.12699999809E+01 0.  1.
</event>
<event>
 5   0  0.1098949E-03  0.1414110E+04  0.7818609E-02  0.8943668E-01
       -2   -1    0    0    0  501  0.00000000000E+00  0.00000000000E+00  0.31966983062E+03  0.31966983063E+03  0.25500000920E-02 0.  1.
        2   -1    0    0  501    0  0.00000000000E+00  0.00000000000E+00 -0.15638840695E+04  0.15638840695E+04  0.25500000920E-02 0. -1.
    10030    2    1    2    0    0  0.00000000000E+00  0.00000000000E+00 -0.12442142389E+04  0.18835539001E+04  0.14141096925E+04 0.  0.
        4    1    3    3  502    0 -0.74680365550E+02 -0.25728717672E+03  0.24944523974E+03  0.36605790366E+03  0.12699999809E+01 0.  1.
       -4    1    3    3    0  502  0.74680365550E+02  0.25728717672E+03 -0.14936594786E+04  0.15174959965E+04  0.12699999809E+01 0. -1.
</event>
<event>
 5   0  0.6097538E-04  0.1402711E+04  0.7818609E-02  0.8951858E-01
       -1   -1    0    0    0  501  0.00000000000E+00  0.00000000000E+00  0.40642766101E+03  0.40642766104E+03  0.50400001928E-02 0. -1.
        1   -1    0    0  501    0  0.00000000000E+00  0.00000000000E+00 -0.12103006532E+04  0.12103006532E+04  0.50400001928E-02 0.  1.
    10030    2    1    2    0    0  0.00000000000E+00  0.00000000000E+00 -0.80387299216E+03  0.16167283142E+04  0.14027111800E+04 0.  0.
        2    1    3    3  502    0 -0.10921038900E+03 -0.25365601409E+03 -0.11449949011E+04  0.11778291922E+04  0.25500000920E-02 0.  1.
       -2    1    3    3    0  502  0.10921038900E+03  0.25365601409E+03  0.34112190891E+03  0.43889912200E+03  0.25500000920E-02 0. -1.
</event>
<event>
 5   0  0.1095119E-03  0.1387003E+04  0.7818609E-02  0.8963280E-01
       -2   -1    0    0    0  501  0.00000000000E+00  0.00000000000E+00  0.44936439945E+03  0.44936439945E+03  0.25500000920E-02 0.  1.
        2   -1    0    0  501    0  0.00000000000E+00  0.00000000000E+00 -0.10702772047E+04  0.10702772047E+04  0.25500000920E-02 0. -1.
    10030    2    1    2    0    0  0.00000000000E+00  0.00000000000E+00 -0.62091280529E+03  0.15196416042E+04  0.13870032060E+04 0.  0.
        5    1    3    3  502    0 -0.11811715066E+03  0.49085599642E+03  0.21043575836E+03  0.54698863690E+03  0.46999998093E+01 0.  1.
       -5    1    3    3    0  502  0.11811715066E+03 -0.49085599642E+03 -0.83134856365E+03  0.97265296729E+03  0.46999998093E+01 0. -1.
</event>
<event>
 5   0  0.1095119E-03  0.1433003E+04  0.7818609E-02  0.8930270E-01
        2   -1    0    0  501    0  0.00000000000E+00  0.00000000000E+00  0.18675044503E+04  0.18675044503E+04  0.25500000920E-02 0. -1.
       -2   -1    0    0    0  501  0.00000000000E+00  0.00000000000E+00 -0.27489852975E+03  0.27489852976E+03  0.25500000920E-02 0.  1.
    10030    2    1    2    0    0  0.00000000000E+00  0.00000000000E+00  0.15926059206E+04  0.21424029801E+04  0.14330027602E+04 0.  0.
        5    1    3    3  502    0  0.68769099055E+03  0.16750477272E+03  0.62998712935E+03  0.94756668394E+03  0.46999998093E+01 0.  1.
       -5    1    3    3    0  502 -0.68769099055E+03 -0.16750477272E+03  0.96261879122E+03  0.11948362961E+04  0.46999998093E+01 0. -1.
</event>
<event>
 5   0  0.1108819E-03  0.1399945E+04  0.7818609E-02  0.8953858E-01
        2   -1    0    0  501    0  0.00000000000E+00  0.00000000000E+00  0.99642000898E+03  0.99642000899E+03  0.25500000920E-02 0.  1.
       -2   -1    0    0    0  501  0.00000000000E+00  0.00000000000E+00 -0.49172206665E+03  0.49172206666E+03  0.25500000920E-02 0. -1.
    10030    2    1    2    0    0  0.00000000000E+00  0.00000000000E+00  0.50469794233E+03  0.14881420756E+04  0.13999452933E+04 0.  0.
        3    1    3    3  502    0 -0.64560146730E+03  0.25033430018E+03  0.36123869125E+03  0.78100058814E+03  0.10100000352E+00 0.  1.
       -3    1    3    3    0  502  0.64560146730E+03 -0.25033430018E+03  0.14345925108E+03  0.70714148750E+03  0.10100000352E+00 0. -1.
</event>
<event>
 5   0  0.1095119E-03  0.1416888E+04  0.7818609E-02  0.8941684E-01
       -2   -1    0    0    0  501  0.00000000000E+00  0.00000000000E+00  0.51992137960E+03  0.51992137960E+03  0.25500000920E-02 0.  1.
        2   -1    0    0  501    0  0.00000000000E+00  0.00000000000E+00 -0.96532403450E+03  0.96532403450E+03  0.25500000920E-02 0. -1.
    10030    2    1    2    0    0  0.00000000000E+00  0.00000000000E+00 -0.44540265490E+03  0.14852454141E+04  0.14168875803E+04 0.  0.
        5    1    3    3  502    0  0.23827143133E+02 -0.20736925613E+03 -0.93234138316E+03  0.95543303579E+03  0.46999998093E+01 0. -1.
       -5    1    3    3    0  502 -0.23827143133E+02  0.20736925613E+03  0.48693872826E+03  0.52981237831E+03  0.46999998093E+01 0.  1.
</event>
<event>
 5   0  0.1120053E-03  0.1418011E+04  0.7818609E-02  0.8940883E-01
       -2   -1    0    0    0  501  0.00000000000E+00  0.00000000000E+00  0.38273383879E+03  0.38273383880E+03  0.25500000920E-02 0.  1.
        2   -1    0    0  501    0  0.00000000000E+00  0.00000000000E+00 -0.13134166242E+04  0.13134166242E+04  0.25500000920E-02 0. -1.
    10030    2    1    2    0    0  0.00000000000E+00  0.00000000000E+00 -0.93068278538E+03  0.16961504630E+04  0.14180112644E+04 0.  0.
        2    1    3    3  502    0  0.15986499846E+03  0.53949974941E+03 -0.98131255319E+03  0.11311901363E+04  0.25500000920E-02 0. -1.
       -2    1    3    3    0  502 -0.15986499846E+03 -0.53949974941E+03  0.50629767811E+02  0.56496032669E+03  0.25500000920E-02 0.  1.
</event>
<event>
 5   0  0.1095119E-03  0.1402061E+04  0.7818609E-02  0.8952328E-01
       -2   -1    0    0    0  501  0.00000000000E+00  0.00000000000E+00  0.91815934695E+03  0.91815934695E+03  0.25500000920E-02 0.  1.
        2   -1    0    0  501    0  0.00000000000E+00  0.00000000000E+00 -0.53524886425E+03  0.53524886426E+03  0.25500000920E-02 0. -1.
    10030    2    1    2    0    0  0.00000000000E+00  0.00000000000E+00  0.38291048270E+03  0.14534082112E+04  0.14020609797E+04 0.  0.
        5    1    3    3  502    0 -0.18976402903E+03  0.32369385937E+03 -0.42237381865E+03  0.56498657859E+03  0.46999998093E+01 0. -1.
       -5    1    3    3    0  502  0.18976402903E+03 -0.32369385937E+03  0.80528430135E+03  0.88842163262E+03  0.46999998093E+01 0.  1.
</event>
<event>
 5   0  0.1120053E-03  0.1411751E+04  0.7818609E-02  0.8945357E-01
       -2   -1    0    0    0  501  0.00000000000E+00  0.00000000000E+00  0.97023945475E+03  0.97023945475E+03  0.25500000920E-02 0.  1.
        2   -1    0    0  501    0  0.00000000000E+00  0.00000000000E+00 -0.51354326710E+03  0.51354326711E+03  0.25500000920E-02 0. -1.
    10030    2    1    2    0    0  0.00000000000E+00  0.00000000000E+00  0.45669618765E+03  0.14837827219E+04  0.14117506005E+04 0.  0.
        2    1    3    3  502    0 -0.28087828457E+03  0.19316133447E+02  0.90867295574E+03  0.95128978984E+03  0.25500000920E-02 0.  1.
       -2    1    3    3    0  502  0.28087828457E+03 -0.19316133447E+02 -0.45197676809E+03  0.53249293203E+03  0.25500000920E-02 0. -1.
</event>
<event>
 5   0  0.1098949E-03  0.1401900E+04  0.7818609E-02  0.8952444E-01
        2   -1    0    0  501    0  0.00000000000E+00  0.00000000000E+00  0.14087685297E+04  0.14087685297E+04  0.25500000920E-02 0.  1.
       -2   -1    0    0    0  501  0.00000000000E+00  0.00000000000E+00 -0.34876623307E+03  0.34876623308E+03  0.25500000920E-02 0. -1.
    10030    2    1    2    0    0  0.00000000000E+00  0.00000000000E+00  0.10600022966E+04  0.17575347628E+04  0.14018999870E+04 0.  0.
        4    1    3    3  502    0  0.35232655243E+02 -0.47489028667E+03  0.11748454354E+04  0.12676851085E+04  0.12699999809E+01 0.  1.
       -4    1    3    3    0  502 -0.35232655243E+02  0.47489028667E+03 -0.11484313877E+03  0.48984965427E+03  0.12699999809E+01 0. -1.
</event>
<event>
 5   0  0.1175146E-03  0.1401899E+04  0.7818609E-02  0.8952445E-01
       -2   -1    0    0    0  501  0.00000000000E+00  0.00000000000E+00  0.11174800789E+04  0.11174800789E+04  0.25500000920E-02 0. -1.
        2   -1    0    0  501    0  0.00000000000E+00  0.00000000000E+00 -0.43967721548E+03  0.43967721549E+03  0.25500000920E-02 0.  1.
    10030    2    1    2    0    0  0.00000000000E+00  0.00000000000E+00  0.67780286345E+03  0.15571572944E+04  0.14018994678E+04 0.  0.
        1    1    3    3  502    0 -0.37108400774E+03  0.59458703564E+03  0.34963873575E+03  0.78325240460E+03  0.50400001928E-02 0.  1.
       -1    1    3    3    0  502  0.37108400774E+03 -0.59458703564E+03  0.32816412770E+03  0.77390488982E+03  0.50400001928E-02 0. -1.
</event>
<event>
 5   0  0.5875298E-04  0.1397159E+04  0.7818609E-02  0.8955877E-01
        1   -1    0    0  501    0  0.00000000000E+00  0.00000000000E+00  0.34946859242E+03  0.34946859245E+03  0.50400001928E-02 0. -1.
       -1   -1    0    0    0  501  0.00000000000E+00  0.00000000000E+00 -0.13964443829E+04  0.13964443829E+04  0.50400001928E-02 0.  1.
    10030    2    1    2    0    0  0.00000000000E+00  0.00000000000E+00 -0.10469757905E+04  0.17459129753E+04  0.13971591934E+04 0.  0.
        1    1    3    3  502    0 -0.35509496338E+03  0.13773725506E+03  0.20831102920E+03  0.43411688445E+03  0.50400001928E-02 0. -1.
       -1    1    3    3    0  502  0.35509496338E+03 -0.13773725506E+03 -0.12552868196E+04  0.13117960909E+04  0.50400001928E-02 0.  1.
</event>
<event>
 5   0  0.6153318E-04  0.1410171E+04  0.7818609E-02  0.8946489E-01
        1   -1    0    0  501    0  0.00000000000E+00  0.00000000000E+00  0.22282355467E+03  0.22282355473E+03  0.50400001928E-02 0. -1.
       -1   -1    0    0    0  501  0.00000000000E+00  0.00000000000E+00 -0.22311179073E+04  0.22311179073E+04  0.50400001928E-02 0.  1.
    10030    2    1    2    0    0  0.00000000000E+00  0.00000000000E+00 -0.20082943527E+04  0.24539414621E+04  0.14101710862E+04 0.  0.
        5    1    3    3  502    0 -0.44095993539E+03  0.14324134876E+03 -0.79789716897E+02  0.47048085778E+03  0.46999998093E+01 0. -1.
       -5    1    3    3    0  502  0.44095993539E+03 -0.14324134876E+03 -0.19285046358E+04  0.19834606043E+04  0.46999998093E+01 0.  1.
</event>
<event>
 5   0  0.6097538E-04  0.1426576E+04  0.7818609E-02  0.8934803E-01
       -1   -1    0    0    0  501  0.00000000000E+00  0.00000000000E+00  0.50870602622E+03  0.50870602624E+03  0.50400001928E-02 0.  1.
        1   -1    0    0  501    0  0.00000000000E+00  0.00000000000E+00 -0.10001452798E+04  0.10001452798E+04  0.50400001928E-02 0. -1.
    10030    2    1    2    0    0  0.00000000000E+00  0.00000000000E+00 -0.49143925359E+03  0.15088513061E+04  0.14265762243E+04 0.  0.
        2    1    3    3  502    0 -0.58138650867E+03 -0.37952543730E+03 -0.72797025217E+02  0.69810403014E+03  0.25500000920E-02 0.  1.
       -2    1    3    3    0  502  0.58138650867E+03  0.37952543730E+03 -0.41864222837E+03  0.81074727591E+03  0.25500000920E-02 0. -1.
</event>
<event>
 5   0  0.6153318E-04  0.1402662E+04  0.7818609E-02  0.8951894E-01
       -1   -1    0    0    0  501  0.00000000000E+00  0.00000000000E+00  0.18212960532E+04  0.18212960532E+04  0.50400001928E-02 0.  1.
        1   -1    0    0  501    0  0.00000000000E+00  0.00000000000E+00 -0.27006322642E+03  0.27006322647E+03  0.50400001928E-02 0. -1.
    10030    2    1    2    0    0  0.00000000000E+00  0.00000000000E+00  0.15512328267E+04  0.20913592796E+04  0.14026618815E+04 0.  0.
        5    1    3    3  502    0  0.50534341657E+03  0.22719620342E+01  0.15006529361E+04  0.15834640682E+04  0.46999998093E+01 0.  1.
       -5    1    3    3    0  502 -0.50534341657E+03 -0.22719620342E+01  0.50579890600E+02  0.50789521145E+03  0.46999998093E+01 0. -1.
</event>
<event>
 5   0  0.1108819E-03  0.1344814E+04  0.7818609E-02  0.8994763E-01
        2   -1    0    0  501    0  0.00000000000E+00  0.00000000000E+00  0.66324183496E+03  0.66324183496E+03  0.25500000920E-02 0. -1.
       -2   -1    0    0    0  501  0.00000000000E+00  0.00000000000E+00 -0.68169838765E+03  0.68169838766E+03  0.25500000920E-02 0.  1.
    10030    2    1    2    0    0  0.00000000000E+00  0.00000000000E+00 -0.18456552695E+02  0.13449402226E+04  0.13448135774E+04 0.  0.
        3    1    3    3  502    0  0.43287353802E+03  0.68135734880E+02 -0.51928503184E+03  0.67946959666E+03  0.10100000352E+00 0.  1.
       -3    1    3    3    0  502 -0.43287353802E+03 -0.68135734880E+02  0.50082847915E+03  0.66547062596E+03  0.10100000352E+00 0. -1.
</event>
<event>
 5   0  0.1098949E-03  0.1385524E+04  0.7818609E-02  0.8964364E-01
       -2   -1    0    0    0  501  0.00000000000E+00  0.00000000000E+00  0.38869273054E+03  0.38869273055E+03  0.25500000920E-02 0. -1.
        2   -1    0    0  501    0  0.00000000000E+00  0.00000000000E+00 -0.12347004189E+04  0.12347004189E+04  0.25500000920E-02 0.  1.
    10030    2    1    2    0    0  0.00000000000E+00  0.00000000000E+00 -0.84600768837E+03  0.16233931495E+04  0.13855238392E+04 0.  0.
        4    1    3    3  502    0 -0.29604491229E+03  0.43772208129E+03 -0.94787841766E+03  0.10852273117E+04  0.12699999809E+01 0.  1.
       -4    1    3    3    0  502  0.29604491229E+03 -0.43772208129E+03  0.10187072928E+03  0.53816583775E+03  0.12699999809E+01 0. -1.
</event>
<event>
 5   0  0.6194742E-04  0.1389766E+04  0.7818609E-02  0.8961260E-01
        1   -1    0    0  501    0  0.00000000000E+00  0.00000000000E+00  0.33657631285E+03  0.33657631289E+03  0.50400001928E-02 0. -1.
       -1   -1    0    0    0  501  0.00000000000E+00  0.00000000000E+00 -0.14346305853E+04  0.14346305853E+04  0.50400001928E-02 0.  1.
    10030    2    1    2    0    0  0.00000000000E+00  0.00000000000E+00 -0.10980542725E+04  0.17712068982E+04  0.13897664160E+04 0.  0.
        4    1    3    3  502    0 -0.28086381067E+03  0.63366263094E+03 -0.61208733749E+03  0.92469742705E+03  0.12699999809E+01 0.  1.
       -4    1    3    3    0  502  0.28086381067E+03 -0.63366263094E+03 -0.48596693500E+03  0.84650947119E+03  0.12699999809E+01 0. -1.
</event>
<event>
 5   0  0.6097538E-04  0.1313938E+04  0.7818609E-02  0.9018584E-01
       -1   -1    0    0    0  501  0.00000000000E+00  0.00000000000E+00  0.37280631000E+03  0.37280631003E+03  0.50400001928E-02 0. -1.
        1   -1    0    0  501    0  0.00000000000E+00  0.00000000000E+00 -0.11577287521E+04  0.11577287521E+04  0.50400001928E-02 0.  1.
    10030    2    1    2    0    0  0.00000000000E+00  0.00000000000E+00 -0.78492244212E+03  0.15305350622E+04  0.13139384827E+04 0.  0.
        2    1    3    3  502    0  0.21020955863E+03  0.47787129879E+03 -0.85702796939E+03  0.10035168046E+04  0.25500000920E-02 0.  1.
       -2    1    3    3    0  502 -0.21020955863E+03 -0.47787129879E+03  0.72105527278E+02  0.52701825758E+03  0.25500000920E-02 0. -1.
</event>
<event>
 5   0  0.6097538E-04  0.1398552E+04  0.7818609E-02  0.8954867E-01
        1   -1    0    0  501    0  0.00000000000E+00  0.00000000000E+00  0.19102131171E+04  0.19102131171E+04  0.50400001928E-02 0.  1.
       -1   -1    0    0    0  501  0.00000000000E+00  0.00000000000E+00 -0.25598556994E+03  0.25598556998E+03  0.50400001928E-02 0. -1.
    10030    2    1    2    0    0  0.00000000000E+00  0.00000000000E+00  0.16542275472E+04  0.21661986871E+04  0.13985520992E+04 0.  0.
        2    1    3    3  502    0 -0.43224813395E+03  0.21732795811E+03  0.16091360526E+04  0.16802942381E+04  0.25500000920E-02 0.  1.
       -2    1    3    3    0  502  0.43224813395E+03 -0.21732795811E+03  0.45091494543E+02  0.48590444901E+03  0.25500000920E-02 0. -1.
</event>
<event>
 5   0  0.1120053E-03  0.1396951E+04  0.7818609E-02  0.8956028E-01
        2   -1    0    0  501    0  0.00000000000E+00  0.00000000000E+00  0.60242742470E+03  0.60242742471E+03  0.25500000920E-02 0. -1.
       -2   -1    0    0    0  501  0.00000000000E+00  0.00000000000E+00 -0.80983713761E+03  0.80983713762E+03  0.25500000920E-02 0.  1.
    10030    2    1    2    0    0  0.00000000000E+00  0.00000000000E+00 -0.20740971291E+03  0.14122645623E+04  0.13969511105E+04 0.  0.
        2    1    3    3  502    0 -0.49068279140E+03  0.41495591203E+03  0.17299250343E+03  0.66549561753E+03  0.25500000920E-02 0. -1.
       -2    1    3    3    0  502  0.49068279140E+03 -0.41495591203E+03 -0.38040221633E+03  0.74676894479E+03  0.25500000920E-02 0.  1.
</event>
<event>
 5   0  0.5875298E-04  0.1386659E+04  0.7818609E-02  0.8963533E-01
       -1   -1    0    0    0  501  0.00000000000E+00  0.00000000000E+00  0.38310671271E+03  0.38310671274E+03  0.50400001928E-02 0. -1.
        1   -1    0    0  501    0  0.00000000000E+00  0.00000000000E+00 -0.12547567291E+04  0.12547567291E+04  0.50400001928E-02 0.  1.
    10030    2    1    2    0    0  0.00000000000E+00  0.00000000000E+00 -0.87165001634E+03  0.16378634418E+04  0.13866588993E+04 0.  0.
        1    1    3    3  502    0  0.35925842840E+03  0.49173880600E+03 -0.82727167453E+03  0.10272546399E+04  0.50400001928E-02 0.  1.
       -1    1    3    3    0  502 -0.35925842840E+03 -0.49173880600E+03 -0.44378341809E+02  0.61060880190E+03  0.50400001928E-02 0. -1.
</event>
<event>
 5   0  0.6097538E-04  0.1401705E+04  0.7818609E-02  0.8952586E-01
        1   -1    0    0  501    0  0.00000000000E+00  0.00000000000E+00  0.29959023187E+03  0.29959023191E+03  0.50400001928E-02 0.  1.
       -1   -1    0    0    0  501  0.00000000000E+00  0.00000000000E+00 -0.16395528203E+04  0.16395528203E+04  0.50400001928E-02 0. -1.
    10030    2    1    2    0    0  0.00000000000E+00  0.00000000000E+00 -0.13399625884E+04  0.19391430522E+04  0.14017046902E+04 0.  0.
        2    1    3    3  502    0 -0.68410594444E+03 -0.12259504771E+03 -0.54498645819E+03  0.88319914434E+03  0.25500000920E-02 0.  1.
       -2    1    3    3    0  502  0.68410594444E+03  0.12259504771E+03 -0.79497613022E+03  0.10559439079E+04  0.25500000920E-02 0. -1.
</event>
<event>
 5   0  0.6114266E-04  0.1400189E+04  0.7818609E-02  0.8953681E-01
        1   -1    0    0  501    0  0.00000000000E+00  0.00000000000E+00  0.63199818218E+03  0.63199818220E+03  0.50400001928E-02 0. -1.
       -1   -1    0    0    0  501  0.00000000000E+00  0.00000000000E+00 -0.77552852029E+03  0.77552852031E+03  0.50400001928E-02 0.  1.
    10030    2    1    2    0    0  0.00000000000E+00  0.00000000000E+00 -0.14353033811E+03  0.14075267025E+04  0.14001894373E+04 0.  0.
        3    1    3    3  502    0 -0.56839959951E+03 -0.24124834850E+03  0.25989362112E+03  0.66994296390E+03  0.10100000352E+00 0. -1.
       -3    1    3    3    0  502  0.56839959951E+03  0.24124834850E+03 -0.40342395923E+03  0.73758373861E+03  0.10100000352E+00 0.  1.
</event>
<event>
 5   0  0.6194742E-04  0.1398855E+04  0.7818609E-02  0.8954648E-01
       -1   -1    0    0    0  501  0.00000000000E+00  0.00000000000E+00  0.37990368989E+03  0.37990368993E+03  0.50400001928E-02 0. -1.
        1   -1    0    0  501    0  0.00000000000E+00  0.00000000000E+00 -0.12876915811E+04  0.12876915811E+04  0.50400001928E-02 0.  1.
    10030    2    1    2    0    0  0.00000000000E+00  0.00000000000E+00 -0.90778789122E+03  0.16675952711E+04  0.13988549362E+04 0.  0.
        4    1    3    3  502    0 -0.35684550818E+01 -0.64249642008E+03 -0.78336383052E+03  0.10131509698E+04  0.12699999809E+01 0.  1.
       -4    1    3    3    0  502  0.35684550818E+01  0.64249642008E+03 -0.12442406070E+03  0.65444430128E+03  0.12699999809E+01 0. -1.
</event>
<event>
 5   0  0.1098949E-03  0.1386626E+04  0.7818609E-02  0.8963557E-01
       -2   -1    0    0    0  501  0.00000000000E+00  0.00000000000E+00  0.75075389071E+03  0.75075389072E+03  0.25500000920E-02 0. -1.
        2   -1    0    0  501    0  0.00000000000E+00  0.00000000000E+00 -0.64026692012E+03  0.64026692013E+03  0.25500000920E-02 0.  1.
    10030    2    1    2    0    0  0.00000000000E+00  0.00000000000E+00  0.11048697059E+03  0.13910208108E+04  0.13866259501E+04 0.  0.
        4    1    3    3  502    0 -0.57297616012E+03  0.38162901431E+03  0.13759437386E+03  0.70205142920E+03  0.12699999809E+01 0. -1.
       -4    1    3    3    0  502  0.57297616012E+03 -0.38162901431E+03 -0.27107403271E+02  0.68896938164E+03  0.12699999809E+01 0.  1.
</event>
<event>
 5   0  0.1120053E-03  0.1358793E+04  0.7818609E-02  0.8984199E-01
       -2   -1    0    0    0  501  0.00000000000E+00  0.00000000000E+00  0.11589023614E+04  0.11589023614E+04  0.25500000920E-02 0. -1.
        2   -1    0    0  501    0  0.00000000000E+00  0.00000000000E+00 -0.39829015074E+03  0.39829015075E+03  0.25500000920E-02 0.  1.
    10030    2    1    2    0    0  0.00000000000E+00  0.00000000000E+00  0.76061221068E+03  0.15571925122E+04  0.13587926939E+04 0.  0.
        2    1    3    3  502    0  0.54542648549E+03  0.40404358884E+03  0.41348356305E+03  0.79480181786E+03  0.25500000920E-02 0.  1.
       -2    1    3    3    0  502 -0.54542648549E+03 -0.40404358884E+03  0.34712864763E+03  0.76239069431E+03  0.25500000920E-02 0. -1.
</event>
<event>
 5   0  0.1095119E-03  0.1393934E+04  0.7818609E-02  0.8958221E-01
       -2   -1    0    0    0  501  0.00000000000E+00  0.00000000000E+00  0.81365830195E+03  0.81365830196E+03  0.25500000920E-02 0.  1.
        2   -1    0    0  501    0  0.00000000000E+00  0.00000000000E+00 -0.59701077330E+03  0.59701077330E+03  0.25500000920E-02 0. -1.
    10030    2    1    2    0    0  0.00000000000E+00  0.00000000000E+00  0.21664752866E+03  0.14106690753E+04  0.13939336743E+04 0.  0.
        5    1    3    3  502    0  0.55582738748E+03  0.14061346629E+02  0.53360576613E+03  0.77064843462E+03  0.46999998093E+01 0.  1.
       -5    1    3    3    0  502 -0.55582738748E+03 -0.14061346629E+02 -0.31695823748E+03  0.64002064064E+03  0.46999998093E+01 0. -1.
</event>
<event>
 5   0  0.1108819E-03  0.1409495E+04  0.7818609E-02  0.8946974E-01
        2   -1    0    0  501    0  0.00000000000E+00  0.00000000000E+00  0.15335927812E+04  0.15335927812E+04  0.25500000920E-02 0.  1.
       -2   -1    0    0    0  501  0.00000000000E+00  0.00000000000E+00 -0.32385994197E+03  0.32385994198E+03  0.25500000920E-02 0. -1.
    10030    2    1    2    0    0  0.00000000000E+00  0.00000000000E+00  0.12097328392E+04  0.18574527232E+04  0.14094953269E+04 0.  0.
        3    1    3    3  502    0  0.33316204347E+03  0.38657573313E+03  0.12453721879E+04  0.13458787617E+04  0.10100000352E+00 0.  1.
       -3    1    3    3    0  502 -0.33316204347E+03 -0.38657573313E+03 -0.35639348676E+02  0.51157396145E+03  0.10100000352E+00 0. -1.
</event>
<event>
 5   0  0.1175146E-03  0.1386837E+04  0.7818609E-02  0.8963402E-01
       -2   -1    0    0    0  501  0.00000000000E+00  0.00000000000E+00  0.32450587801E+03  0.32450587802E+03  0.25500000920E-02 0. -1.
        2   -1    0    0  501    0  0.00000000000E+00  0.00000000000E+00 -0.14817282144E+04  0.14817282144E+04  0.25500000920E-02 0.  1.
    10030    2    1    2    0    0  0.00000000000E+00  0.00000000000E+00 -0.11572223364E+04  0.18062340924E+04  0.13868374313E+04 0.  0.
        1    1    3    3  502    0  0.24391290250E+02  0.25700382646E+03  0.25958358239E+03  0.36610044814E+03  0.50400001928E-02 0. -1.
       -1    1    3    3    0  502 -0.24391290250E+02 -0.25700382646E+03 -0.14168059188E+04  0.14401336443E+04  0.50400001928E-02 0.  1.
</event>
<event>
 5   0  0.6114266E-04  0.1386033E+04  0.7818609E-02  0.8963991E-01
        1   -1    0    0  501    0  0.00000000000E+00  0.00000000000E+00  0.49286144345E+03  0.49286144348E+03  0.50400001928E-02 0. -1.
       -1   -1    0    0    0  501  0.00000000000E+00  0.00000000000E+00 -0.97445559737E+03  0.97445559738E+03  0.50400001928E-02 0.  1.
    10030    2    1    2    0    0  0.00000000000E+00  0.00000000000E+00 -0.48159415391E+03  0.14673170409E+04  0.13860326004E+04 0.  0.
        3    1    3    3  502    0  0.40957408271E+03  0.54679029279E+03 -0.11760682490E+03  0.69322574172E+03  0.10100000352E+00 0. -1.
       -3    1    3    3    0  502 -0.40957408271E+03 -0.54679029279E+03 -0.36398732901E+03  0.77409129914E+03  0.10100000352E+00 0.  1.
</event>
<event>
 5   0  0.6114266E-04  0.1400587E+04  0.7818609E-02  0.8953394E-01
        1   -1    0    0  501    0  0.00000000000E+00  0.00000000000E+00  0.82676364710E+03  0.82676364712E+03  0.50400001928E-02 0. -1.
       -1   -1    0    0    0  501  0.00000000000E+00  0.00000000000E+00 -0.59316948739E+03  0.59316948741E+03  0.50400001928E-02 0.  1.
    10030    2    1    2    0    0  0.00000000000E+00  0.00000000000E+00  0.23359415972E+03  0.14199331345E+04  0.14005869752E+04 0.  0.
        3    1    3    3  502    0  0.50087745896E+02 -0.69679896122E+03  0.16618739632E+03  0.71809180161E+03  0.10100000352E+00 0. -1.
       -3    1    3    3    0  502 -0.50087745896E+02  0.69679896122E+03  0.67406763393E+02  0.70184133292E+03  0.10100000352E+00 0.  1.
</event>
<event>
 5   0  0.1095119E-03  0.1425875E+04  0.7818609E-02  0.8935299E-01
        2   -1    0    0  501    0  0.00000000000E+00  0.00000000000E+00  0.16742941028E+04  0.16742941028E+04  0.25500000920E-02 0. -1.
       -2   -1    0    0    0  501  0.00000000000E+00  0.00000000000E+00 -0.30357866410E+03  0.30357866411E+03  0.25500000920E-02 0.  1.
    10030    2    1    2    0    0  0.00000000000E+00  0.00000000000E+00  0.13707154387E+04  0.19778727669E+04  0.14258751236E+04 0.  0.
        5    1    3    3  502    0  0.70010154523E+03 -0.70468137159E+02  0.52629118184E+03  0.87869928307E+03  0.46999998093E+01 0.  1.
       -5    1    3    3    0  502 -0.70010154523E+03  0.70468137159E+02  0.84442425682E+03  0.10991734838E+04  0.46999998093E+01 0. -1.
</event>
<event>
 5   0  0.6194742E-04  0.1378735E+04  0.7818609E-02  0.8969357E-01
        1   -1    0    0  501    0  0.00000000000E+00  0.00000000000E+00  0.10504942609E+04  0.10504942609E+04  0.50400001928E-02 0. -1.
       -1   -1    0    0    0  501  0.00000000000E+00  0.00000000000E+00 -0.45238482723E+03  0.45238482726E+03  0.50400001928E-02 0.  1.
    10030    2    1    2    0    0  0.00000000000E+00  0.00000000000E+00  0.59810943367E+03  0.15028790882E+04  0.13787351664E+04 0.  0.
        4    1    3    3  502    0  0.15840762683E+03 -0.66698251917E+03  0.21994294313E+03  0.71995497654E+03  0.12699999809E+01 0.  1.
       -4    1    3    3    0  502 -0.15840762683E+03  0.66698251917E+03  0.37816649054E+03  0.78292411164E+03  0.12699999809E+01 0. -1.
</event>
<event>
 5   0  0.1175146E-03  0.1460513E+04  0.7818609E-02  0.8911145E-01
       -2   -1    0    0    0  501  0.00000000000E+00  0.00000000000E+00  0.41397263166E+03  0.41397263167E+03  0.25500000920E-02 0. -1.
        2   -1    0    0  501    0  0.00000000000E+00  0.00000000000E+00 -0.12881871671E+04  0.12881871671E+04  0.25500000920E-02 0.  1.
    10030    2    1    2    0    0  0.00000000000E+00  0.00000000000E+00 -0.87421453548E+03  0.17021597988E+04  0.14605125561E+04 0.  0.
        1    1    3    3  502    0 -0.65520790853E+02  0.91390531723E+02 -0.12780360627E+04  0.12829736478E+04  0.50400001928E-02 0.  1.
       -1    1    3    3    0  502  0.65520790853E+02 -0.91390531723E+02  0.40382152723E+03  0.41918615102E+03  0.50400001928E-02 0. -1.
</event>
<event>
 5   0  0.1108819E-03  0.1365072E+04  0.7818609E-02  0.8979497E-01
        2   -1    0    0  501    0  0.00000000000E+00  0.00000000000E+00  0.90343798020E+03  0.90343798020E+03  0.25500000920E-02 0.  1.
       -2   -1    0    0    0  501  0.00000000000E+00  0.00000000000E+00 -0.51564731467E+03  0.51564731468E+03  0.25500000920E-02 0. -1.
    10030    2    1    2    0    0  0.00000000000E+00  0.00000000000E+00  0.38779066553E+03  0.14190852949E+04  0.13650719666E+04 0.  0.
        3    1    3    3  502    0 -0.24029038003E+03  0.63368119008E+03  0.10967080395E+03  0.68652677503E+03  0.10100000352E+00 0.  1.
       -3    1    3    3    0  502  0.24029038003E+03 -0.63368119008E+03  0.27811986158E+03  0.73255851985E+03  0.10100000352E+00 0. -1.
</event>
<event>
 5   0  0.5875298E-04  0.1400902E+04  0.7818609E-02  0.8953166E-01
       -1   -1    0    0    0  501  0.00000000000E+00  0.00000000000E+00  0.41026407457E+03  0.41026407460E+03  0.50400001928E-02 0. -1.
        1   -1    0    0  501    0  0.00000000000E+00  0.00000000000E+00 -0.11958927926E+04  0.11958927926E+04  0.50400001928E-02 0.  1.
    10030    2    1    2    0    0  0.00000000000E+00  0.00000000000E+00 -0.78562871801E+03  0.16061568672E+04  0.14009023519E+04 0.  0.
        1    1    3    3  502    0 -0.21982280509E+03 -0.12517210260E+03  0.35606482637E+03  0.43677486364E+03  0.50400001928E-02 0. -1.
       -1    1    3    3    0  502  0.21982280509E+03  0.12517210260E+03 -0.11416935444E+04  0.11693820035E+04  0.50400001928E-02 0.  1.
</event>
<event>
 5   0  0.1108819E-03  0.1402288E+04  0.7818609E-02  0.8952164E-01
       -2   -1    0    0    0  501  0.00000000000E+00  0.00000000000E+00  0.56514194271E+03  0.56514194272E+03  0.25500000920E-02 0. -1.
        2   -1    0    0  501    0  0.00000000000E+00  0.00000000000E+00 -0.86987528528E+03  0.86987528528E+03  0.25500000920E-02 0.  1.
    10030    2    1    2    0    0  0.00000000000E+00  0.00000000000E+00 -0.30473334257E+03  0.14350172280E+04  0.14022881425E+04 0.  0.
        3    1    3    3  502    0 -0.28179335467E+03  0.14314024049E+03 -0.79283870838E+03  0.85351616908E+03  0.10100000352E+00 0.  1.
       -3    1    3    3    0  502  0.28179335467E+03 -0.14314024049E+03  0.48810536582E+03  0.58150105892E+03  0.10100000352E+00 0. -1.
</event>
<event>
 5   0  0.1175146E-03  0.1517669E+04  0.7818609E-02  0.8872788E-01
        2   -1    0    0  501    0  0.00000000000E+00  0.00000000000E+00  0.57435080173E+03  0.57435080174E+03  0.25500000920E-02 0.  1.
       -2   -1    0    0    0  501  0.00000000000E+00  0.00000000000E+00 -0.10025747765E+04  0.10025747765E+04  0.25500000920E-02 0. -1.
    10030    2    1    2    0    0  0.00000000000E+00  0.00000000000E+00 -0.42822397481E+03  0.15769255783E+04  0.15176687738E+04 0.  0.
        1    1    3    3  502    0 -0.43834046866E+03 -0.20415260562E+03  0.39353723969E+03  0.62345185210E+03  0.50400001928E-02 0.  1.
       -1    1    3    3    0  502  0.43834046866E+03  0.20415260562E+03 -0.82176121449E+03  0.95347372618E+03  0.50400001928E-02 0. -1.
</event>
<event>
 5   0  0.6097538E-04  0.1395688E+04  0.7818609E-02  0.8956946E-01
       -1   -1    0    0    0  501  0.00000000000E+00  0.00000000000E+00  0.99892311432E+03  0.99892311433E+03  0.50400001928E-02 0.  1.
        1   -1    0    0  501    0  0.00000000000E+00  0.00000000000E+00 -0.48751125684E+03  0.48751125687E+03  0.50400001928E-02 0. -1.
    10030    2    1    2    0    0  0.00000000000E+00  0.00000000000E+00  0.51141185748E+03  0.14864343712E+04  0.13956880210E+04 0.  0.
        2    1    3    3  502    0 -0.52783691071E+03 -0.15867179200E+03  0.71155116591E+03  0.90005200050E+03  0.25500000920E-02 0.  1.
       -2    1    3    3    0  502  0.52783691071E+03  0.15867179200E+03 -0.20013930843E+03  0.58638237070E+03  0.25500000920E-02 0. -1.
</event>
<event>
 5   0  0.1098949E-03  0.1384140E+04  0.7818609E-02  0.8965379E-01
       -2   -1    0    0    0  501  0.00000000000E+00  0.00000000000E+00  0.39090544979E+03  0.39090544980E+03  0.25500000920E-02 0. -1.
        2   -1    0    0  501    0  0.00000000000E+00  0.00000000000E+00 -0.12252610268E+04  0.12252610268E+04  0.25500000920E-02 0.  1.
    10030    2    1    2    0    0  0.00000000000E+00  0.00000000000E+00 -0.83435557700E+03  0.16161664766E+04  0.13841404738E+04 0.  0.
        4    1    3    3  502    0  0.17843419823E+03 -0.35214815365E+02  0.36250022818E+03  0.40556981477E+03  0.12699999809E+01 0. -1.
       -4    1    3    3    0  502 -0.17843419823E+03  0.35214815365E+02 -0.11968558052E+04  0.12105966618E+04  0.12699999809E+01 0.  1.
</event>
<event>
 5   0  0.1120053E-03  0.1275567E+04  0.7818609E-02  0.9049168E-01
       -2   -1    0    0    0  501  0.00000000000E+00  0.00000000000E+00  0.22722668200E+03  0.22722668202E+03  0.25500000920E-02 0. -1.
        2   -1    0    0  501    0  0.00000000000E+00  0.00000000000E+00 -0.17901415901E+04  0.17901415901E+04  0.25500000920E-02 0.  1.
    10030    2    1    2    0    0  0.00000000000E+00  0.00000000000E+00 -0.15629149081E+04  0.20173682722E+04  0.12755672211E+04 0.  0.
        2    1    3    3  502    0  0.54319534829E+03 -0.26485226205E+03 -0.11038757995E+04  0.12584711709E+04  0.25500000920E-02 0.  1.
       -2    1    3    3    0  502 -0.54319534829E+03  0.26485226205E+03 -0.45903910861E+03  0.75889710129E+03  0.25500000920E-02 0. -1.
</event>
<event>
 5   0  0.6114266E-04  0.1271616E+04  0.7818609E-02  0.9052382E-01
        1   -1    0    0  501    0  0.00000000000E+00  0.00000000000E+00  0.17706870695E+04  0.17706870695E+04  0.50400001928E-02 0.  1.
       -1   -1    0    0    0  501  0.00000000000E+00  0.00000000000E+00 -0.22830217050E+03  0.22830217055E+03  0.50400001928E-02 0. -1.
    10030    2    1    2    0    0  0.00000000000E+00  0.00000000000E+00  0.15423848990E+04  0.19989892401E+04  0.12716158245E+04 0.  0.
        3    1    3    3  502    0  0.54436323839E+03 -0.32824499093E+03  0.79202268523E+03  0.10155668631E+04  0.10100000352E+00 0. -1.
       -3    1    3    3    0  502 -0.54436323839E+03  0.32824499093E+03  0.75036221379E+03  0.98342237694E+03  0.10100000352E+00 0.  1.
</event>
<event>
 5   0  0.6194742E-04  0.1402348E+04  0.7818609E-02  0.8952120E-01
       -1   -1    0    0    0  501  0.00000000000E+00  0.00000000000E+00  0.38206757599E+03  0.38206757603E+03  0.50400001928E-02 0.  1.
        1   -1    0    0  501    0  0.00000000000E+00  0.00000000000E+00 -0.12868018881E+04  0.12868018881E+04  0.50400001928E-02 0. -1.
    10030    2    1    2    0    0  0.00000000000E+00  0.00000000000E+00 -0.90473431207E+03  0.16688694641E+04  0.14023484277E+04 0.  0.
        4    1    3    3  502    0 -0.64940098429E+03  0.23751513541E+03 -0.59068283213E+03  0.90941898981E+03  0.12699999809E+01 0. -1.
       -4    1    3    3    0  502  0.64940098429E+03 -0.23751513541E+03 -0.31405147994E+03  0.75945047429E+03  0.12699999809E+01 0.  1.
</event>
<event>
 5   0  0.6153318E-04  0.1406175E+04  0.7818609E-02  0.8949361E-01
       -1   -1    0    0    0  501  0.00000000000E+00  0.00000000000E+00  0.33630347481E+03  0.33630347484E+03  0.50400001928E-02 0.  1.
        1   -1    0    0  501    0  0.00000000000E+00  0.00000000000E+00 -0.14698987704E+04  0.14698987705E+04  0.50400001928E-02 0. -1.
    10030    2    1    2    0    0  0.00000000000E+00  0.00000000000E+00 -0.11335952956E+04  0.18062022453E+04  0.14061750448E+04 0.  0.
        5    1    3    3  502    0 -0.22482497046E+03  0.19510048475E+03 -0.13849406721E+04  0.14165779971E+04  0.46999998093E+01 0. -1.
       -5    1    3    3    0  502  0.22482497046E+03 -0.19510048475E+03  0.25134537651E+03  0.38962424820E+03  0.46999998093E+01 0.  1.
</event>
<event>
 5   0  0.6194742E-04  0.1401202E+04  0.7818609E-02  0.8952949E-01
       -1   -1    0    0    0  501  0.00000000000E+00  0.00000000000E+00  0.81590046789E+03  0.81590046790E+03  0.50400001928E-02 0.  1.
        1   -1    0    0  501    0  0.00000000000E+00  0.00000000000E+00 -0.60159486014E+03  0.60159486016E+03  0.50400001928E-02 0. -1.
    10030    2    1    2    0    0  0.00000000000E+00  0.00000000000E+00  0.21430560774E+03  0.14174953281E+04  0.14012016670E+04 0.  0.
        4    1    3    3  502    0  0.17093004458E+03  0.50618554062E+03 -0.35132697766E+03  0.63943188833E+03  0.12699999809E+01 0. -1.
       -4    1    3    3    0  502 -0.17093004458E+03 -0.50618554062E+03  0.56563258541E+03  0.77806343974E+03  0.12699999809E+01 0.  1.
</event>
<event>
 5   0  0.5875298E-04  0.1409914E+04  0.7818609E-02  0.8946673E-01
        1   -1    0    0  501    0  0.00000000000E+00  0.00000000000E+00  0.10891165238E+04  0.10891165238E+04  0.50400001928E-02 0. -1.
       -1   -1    0    0    0  501  0.00000000000E+00  0.00000000000E+00 -0.45630071817E+03  0.45630071820E+03  0.50400001928E-02 0.  1.
    10030    2    1    2    0    0  0.00000000000E+00  0.00000000000E+00  0.63281580562E+03  0.15454172420E+04  0.14099143974E+04 0.  0.
        1    1    3    3  502    0 -0.13308742305E+03  0.67499744872E+02 -0.43879017122E+03  0.46347091831E+03  0.50400001928E-02 0.  1.
       -1    1    3    3    0  502  0.13308742305E+03 -0.67499744872E+02  0.10716059768E+04  0.10819463237E+04  0.50400001928E-02 0. -1.
</event>
<event>
 5   0  0.1095119E-03  0.1398779E+04  0.7818609E-02  0.8954703E-01
       -2   -1    0    0    0  501  0.00000000000E+00  0.00000000000E+00  0.66838824555E+03  0.66838824556E+03  0.25500000920E-02 0. -1.
        2   -1    0    0  501    0  0.00000000000E+00  0.00000000000E+00 -0.73182872612E+03  0.73182872612E+03  0.25500000920E-02 0.  1.
    10030    2    1    2    0    0  0.00000000000E+00  0.00000000000E+00 -0.63440480567E+02  0.14002169717E+04  0.13987790652E+04 0.  0.
        5    1    3    3  502    0  0.58010670576E+03  0.10678293509E+03  0.34442824902E+03  0.68306609783E+03  0.46999998093E+01 0. -1.
       -5    1    3    3    0  502 -0.58010670576E+03 -0.10678293509E+03 -0.40786872959E+03  0.71715087385E+03  0.46999998093E+01 0.  1.
</event>
<event>
 5   0  0.6194742E-04  0.1398822E+04  0.7818609E-02  0.8954672E-01
        1   -1    0    0  501    0  0.00000000000E+00  0.00000000000E+00  0.17085388189E+04  0.17085388190E+04  0.50400001928E-02 0. -1.
       -1   -1    0    0    0  501  0.00000000000E+00  0.00000000000E+00 -0.28631216138E+03  0.28631216142E+03  0.50400001928E-02 0.  1.
    10030    2    1    2    0    0  0.00000000000E+00  0.00000000000E+00  0.14222266576E+04  0.19948509804E+04  0.13988215642E+04 0.  0.
        4    1    3    3  502    0  0.36992971058E+02  0.26094006981E+03  0.16350149104E+04  0.16561200349E+04  0.12699999809E+01 0. -1.
       -4    1    3    3    0  502 -0.36992971058E+02 -0.26094006981E+03 -0.21278825286E+03  0.33873094544E+03  0.12699999809E+01 0.  1.
</event>
<event>
 5   0  0.4176125E-04  0.1382262E+04  0.7818609E-02  0.8966760E-01
       -4   -1    0    0    0  501  0.00000000000E+00  0.00000000000E+00  0.95941852016E+03  0.95941936072E+03  0.12699999809E+01 0. -1.
        4   -1    0    0  501    0  0.00000000000E+00  0.00000000000E+00 -0.49786402562E+03  0.49786564544E+03  0.12699999809E+01 0.  1.
    10030    2    1    2    0    0  0.00000000000E+00  0.00000000000E+00  0.46155449454E+03  0.14572850062E+04  0.13822615663E+04 0.  0.
        1    1    3    3  502    0  0.44066942656E+03  0.44288033815E+02  0.79015061260E+03  0.90580845882E+03  0.50400001928E-02 0. -1.
       -1    1    3    3    0  502 -0.44066942656E+03 -0.44288033815E+02 -0.32859611807E+03  0.55147654735E+03  0.50400001928E-02 0.  1.
</event>
<event>
 5   0  0.1108819E-03  0.1385404E+04  0.7818609E-02  0.8964452E-01
        2   -1    0    0  501    0  0.00000000000E+00  0.00000000000E+00  0.45064703279E+03  0.45064703280E+03  0.25500000920E-02 0.  1.
       -2   -1    0    0    0  501  0.00000000000E+00  0.00000000000E+00 -0.10647711430E+04  0.10647711430E+04  0.25500000920E-02 0. -1.
    10030    2    1    2    0    0  0.00000000000E+00  0.00000000000E+00 -0.61412411023E+03  0.15154181758E+04  0.13854038490E+04 0.  0.
        3    1    3    3  502    0 -0.43761999289E+03  0.37464504187E+03 -0.72782428354E+03  0.92822322934E+03  0.10100000352E+00 0.  1.
       -3    1    3    3    0  502  0.43761999289E+03 -0.37464504187E+03  0.11370017331E+03  0.58719494649E+03  0.10100000352E+00 0. -1.
</event>
<event>
 5   0  0.1108819E-03  0.1366785E+04  0.7818609E-02  0.8978218E-01
       -2   -1    0    0    0  501  0.00000000000E+00  0.00000000000E+00  0.48762043471E+03  0.48762043471E+03  0.25500000920E-02 0.  1.
        2   -1    0    0  501    0  0.00000000000E+00  0.00000000000E+00 -0.95776408914E+03  0.95776408915E+03  0.25500000920E-02 0. -1.
    10030    2    1    2    0    0  0.00000000000E+00  0.00000000000E+00 -0.47014365444E+03  0.14453845239E+04  0.13667850475E+04 0.  0.
        3    1    3    3  502    0 -0.77377967224E+02  0.23950016261E+03  0.43682182133E+03  0.50414382025E+03  0.10100000352E+00 0.  1.
       -3    1    3    3    0  502  0.77377967224E+02 -0.23950016261E+03 -0.90696547577E+03  0.94124070361E+03  0.10100000352E+00 0. -1.
</event>
<event>
 5   0  0.6153318E-04  0.1214701E+04  0.7818609E-02  0.9100085E-01
       -1   -1    0    0    0  501  0.00000000000E+00  0.00000000000E+00  0.21223217143E+03  0.21223217149E+03  0.50400001928E-02 0. -1.
        1   -1    0    0  501    0  0.00000000000E+00  0.00000000000E+00 -0.17380720343E+04  0.17380720343E+04  0.50400001928E-02 0.  1.
    10030    2    1    2    0    0  0.00000000000E+00  0.00000000000E+00 -0.15258398629E+04  0.19503042058E+04  0.12147012835E+04 0.  0.
        5    1    3    3  502    0  0.20585540895E+03 -0.12039764068E+03  0.13388236290E+03  0.27352992226E+03  0.46999998093E+01 0. -1.
       -5    1    3    3    0  502 -0.20585540895E+03  0.12039764068E+03 -0.16597222258E+04  0.16767742835E+04  0.46999998093E+01 0.  1.
</event>
<event>
 5   0  0.1095119E-03  0.1414496E+04  0.7818609E-02  0.8943392E-01
       -2   -1    0    0    0  501  0.00000000000E+00  0.00000000000E+00  0.62195790523E+03  0.62195790524E+03  0.25500000920E-02 0. -1.
        2   -1    0    0  501    0  0.00000000000E+00  0.00000000000E+00 -0.80423414482E+03  0.80423414483E+03  0.25500000920E-02 0.  1.
    10030    2    1    2    0    0  0.00000000000E+00  0.00000000000E+00 -0.18227623959E+03  0.14261920501E+04  0.14144960714E+04 0.  0.
        5    1    3    3  502    0 -0.30590456476E+03 -0.36314275919E+02  0.55074297260E+03  0.63105961782E+03  0.46999998093E+01 0. -1.
       -5    1    3    3    0  502  0.30590456476E+03  0.36314275919E+02 -0.73301921219E+03  0.79513243225E+03  0.46999998093E+01 0.  1.
</event>
<event>
 5   0  0.1108819E-03  0.1399177E+04  0.7818609E-02  0.8954414E-01
       -2   -1    0    0    0  501  0.00000000000E+00  0.00000000000E+00  0.39493042343E+03  0.39493042344E+03  0.25500000920E-02 0.  1.
        2   -1    0    0  501    0  0.00000000000E+00  0.00000000000E+00 -0.12392672989E+04  0.12392672989E+04  0.25500000920E-02 0. -1.
    10030    2    1    2    0    0  0.00000000000E+00  0.00000000000E+00 -0.84433687542E+03  0.16341977223E+04  0.13991774142E+04 0.  0.
        3    1    3    3  502    0 -0.22026024363E+03  0.25962750941E+02  0.35278292882E+03  0.41670666473E+03  0.10100000352E+00 0.  1.
       -3    1    3    3    0  502  0.22026024363E+03 -0.25962750941E+02 -0.11971198042E+04  0.12174910576E+04  0.10100000352E+00 0. -1.
</event>
<event>
 5   0  0.6114266E-04  0.1395833E+04  0.7818609E-02  0.8956840E-01
       -1   -1    0    0    0  501  0.00000000000E+00  0.00000000000E+00  0.51134469987E+03  0.51134469990E+03  0.50400001928E-02 0.  1.
        1   -1    0    0  501    0  0.00000000000E+00  0.00000000000E+00 -0.95256202965E+03  0.95256202966E+03  0.50400001928E-02 0. -1.
    10030    2    1    2    0    0  0.00000000000E+00  0.00000000000E+00 -0.44121732978E+03  0.14639067296E+04  0.13958331493E+04 0.  0.
        3    1    3    3  502    0  0.75938749897E+02  0.56938037625E+03 -0.63633264002E+03  0.85725138994E+03  0.10100000352E+00 0. -1.
       -3    1    3    3    0  502 -0.75938749897E+02 -0.56938037625E+03  0.19511531025E+03  0.60665533962E+03  0.10100000352E+00 0.  1.
</event>
<event>
 5   0  0.6114266E-04  0.1407378E+04  0.7818609E-02  0.8948495E-01
        1   -1    0    0  501    0  0.00000000000E+00  0.00000000000E+00  0.14170825591E+04  0.14170825591E+04  0.50400001928E-02 0. -1.
       -1   -1    0    0    0  501  0.00000000000E+00  0.00000000000E+00 -0.34943493169E+03  0.34943493173E+03  0.50400001928E-02 0.  1.
    10030    2    1    2    0    0  0.00000000000E+00  0.00000000000E+00  0.10676476274E+04  0.17665174908E+04  0.14073779127E+04 0.  0.
        3    1    3    3  502    0  0.11400605142E+03  0.16140694388E+02  0.14051781405E+04  0.14098877680E+04  0.10100000352E+00 0. -1.
       -3    1    3    3    0  502 -0.11400605142E+03 -0.16140694388E+02 -0.33753051304E+03  0.35662972283E+03  0.10100000352E+00 0.  1.
</event>
<event>
 5   0  0.6194742E-04  0.1416964E+04  0.7818609E-02  0.8941630E-01
        1   -1    0    0  501    0  0.00000000000E+00  0.00000000000E+00  0.97423783899E+03  0.97423783901E+03  0.50400001928E-02 0. -1.
       -1   -1    0    0    0  501  0.00000000000E+00  0.00000000000E+00 -0.51521966346E+03  0.51521966349E+03  0.50400001928E-02 0.  1.
    10030    2    1    2    0    0  0.00000000000E+00  0.00000000000E+00  0.45901817553E+03  0.14894575025E+04  0.14169636432E+04 0.  0.
        4    1    3    3  502    0  0.65950700531E+03 -0.20749843552E+03  0.39214990882E+03  0.79485108963E+03  0.12699999809E+01 0. -1.
       -4    1    3    3    0  502 -0.65950700531E+03  0.20749843552E+03  0.66868266715E+02  0.69460641286E+03  0.12699999809E+01 0.  1.
</event>
<event>
 5   0  0.1175146E-03  0.1423062E+04  0.7818609E-02  0.8937292E-01
        2   -1    0    0  501    0  0.00000000000E+00  0.00000000000E+00  0.20422597151E+04  0.20422597151E+04  0.25500000920E-02 0. -1.
       -2   -1    0    0    0  501  0.00000000000E+00  0.00000000000E+00 -0.24790003296E+03  0.24790003298E+03  0.25500000920E-02 0.  1.
    10030    2    1    2    0    0  0.00000000000E+00  0.00000000000E+00  0.17943596821E+04  0.22901597481E+04  0.14230618408E+04 0.  0.
        1    1    3    3  502    0 -0.23492864627E+03 -0.67118869905E+03  0.85807266928E+03  0.11144390716E+04  0.50400001928E-02 0.  1.
       -1    1    3    3    0  502  0.23492864627E+03  0.67118869905E+03  0.93628701286E+03  0.11757206765E+04  0.50400001928E-02 0. -1.
</event>
<event>
 5   0  0.4176125E-04  0.1441418E+04  0.7818609E-02  0.8924372E-01
        4   -1    0    0  501    0  0.00000000000E+00  0.00000000000E+00  0.96303385142E+03  0.96303468882E+03  0.12699999809E+01 0. -1.
       -4   -1    0    0    0  501  0.00000000000E+00  0.00000000000E+00 -0.53935732113E+03  0.53935881634E+03  0.12699999809E+01 0.  1.
    10030    2    1    2    0    0  0.00000000000E+00  0.00000000000E+00  0.42367653028E+03  0.15023935052E+04  0.14414175114E+04 0.  0.
        4    1    3    3  502    0 -0.36295840554E+03  0.53688753672E+03  0.54050670978E+03  0.84388159564E+03  0.12699999809E+01 0.  1.
       -4    1    3    3    0  502  0.36295840554E+03 -0.53688753672E+03 -0.11683017949E+03  0.65851190952E+03  0.12699999809E+01 0. -1.
</event>
<event>
 5   0  0.1120053E-03  0.1401005E+04  0.7818609E-02  0.8953091E-01
        2   -1    0    0  501    0  0.00000000000E+00  0.00000000000E+00  0.27003958329E+04  0.27003958329E+04  0.25500000920E-02 0. -1.
       -2   -1    0    0    0  501  0.00000000000E+00  0.00000000000E+00 -0.18171556044E+03  0.18171556046E+03  0.25500000920E-02 0.  1.
    10030    2    1    2    0    0  0.00000000000E+00  0.00000000000E+00  0.25186802725E+04  0.28821113934E+04  0.14010052708E+04 0.  0.
        2    1    3    3  502    0 -0.30314237586E+03 -0.55509715063E+03  0.63987526930E+03  0.89970467762E+03  0.25500000920E-02 0.  1.
       -2    1    3    3    0  502  0.30314237586E+03  0.55509715063E+03  0.18788050032E+04  0.19824067157E+04  0.25500000920E-02 0. -1.
</event>
<event>
 5   0  0.1108819E-03  0.1401518E+04  0.7818609E-02  0.8952720E-01
        2   -1    0    0  501    0  0.00000000000E+00  0.00000000000E+00  0.10334613250E+04  0.10334613250E+04  0.25500000920E-02 0. -1.
       -2   -1    0    0    0  501  0.00000000000E+00  0.00000000000E+00 -0.47516357893E+03  0.47516357894E+03  0.25500000920E-02 0.  1.
    10030    2    1    2    0    0  0.00000000000E+00  0.00000000000E+00  0.55829774609E+03  0.15086249040E+04  0.14015180083E+04 0.  0.
        3    1    3    3  502    0 -0.24720401194E+03 -0.30812050690E+03  0.90218722670E+03  0.98488063871E+03  0.10100000352E+00 0. -1.
       -3    1    3    3    0  502  0.24720401194E+03  0.30812050690E+03 -0.34388948061E+03  0.52374426524E+03  0.10100000352E+00 0.  1.
</event>
<event>
 5   0  0.6097538E-04  0.1408296E+04  0.7818609E-02  0.8947836E-01
       -1   -1    0    0    0  501  0.00000000000E+00  0.00000000000E+00  0.43136329984E+03  0.43136329987E+03  0.50400001928E-02 0.  1.
        1   -1    0    0  501    0  0.00000000000E+00  0.00000000000E+00 -0.11494350616E+04  0.11494350616E+04  0.50400001928E-02 0. -1.
    10030    2    1    2    0    0  0.00000000000E+00  0.00000000000E+00 -0.71807176172E+03  0.15807983614E+04  0.14082955672E+04 0.  0.
        2    1    3    3  502    0  0.44316070044E+03  0.22892181699E+03  0.19886277267E+03  0.53697579747E+03  0.25500000920E-02 0.  1.
       -2    1    3    3    0  502 -0.44316070044E+03 -0.22892181699E+03 -0.91693453438E+03  0.10438225640E+04  0.25500000920E-02 0. -1.
</event>
<event>
 5   0  0.5875298E-04  0.1391045E+04  0.7818609E-02  0.8960326E-01
        1   -1    0    0  501    0  0.00000000000E+00  0.00000000000E+00  0.25427653311E+03  0.25427653316E+03  0.50400001928E-02 0. -1.
       -1   -1    0    0    0  501  0.00000000000E+00  0.00000000000E+00 -0.19024632312E+04  0.19024632312E+04  0.50400001928E-02 0.  1.
    10030    2    1    2    0    0  0.00000000000E+00  0.00000000000E+00 -0.16481866981E+04  0.21567397644E+04  0.13910452974E+04 0.  0.
        1    1    3    3  502    0 -0.12901558446E+03  0.63808196228E+03 -0.12037408634E+04  0.13684975988E+04  0.50400001928E-02 0.  1.
       -1    1    3    3    0  502  0.12901558446E+03 -0.63808196228E+03 -0.44444583470E+03  0.78824216560E+03  0.50400001928E-02 0. -1.
</event>
<event>
 5   0  0.1108819E-03  0.1393930E+04  0.7818609E-02  0.8958224E-01
       -2   -1    0    0    0  501  0.00000000000E+00  0.00000000000E+00  0.15701285576E+04  0.15701285576E+04  0.25500000920E-02 0.  1.
        2   -1    0    0  501    0  0.00000000000E+00  0.00000000000E+00 -0.30937588357E+03  0.30937588358E+03  0.25500000920E-02 0. -1.
    10030    2    1    2    0    0  0.00000000000E+00  0.00000000000E+00  0.12607526741E+04  0.18795044412E+04  0.13939295676E+04 0.  0.
        3    1    3    3  502    0  0.46657098655E+03 -0.47486303608E+03  0.35215683986E+03  0.75312538038E+03  0.10100000352E+00 0. -1.
       -3    1    3    3    0  502 -0.46657098655E+03  0.47486303608E+03  0.90859583421E+03  0.11263790608E+04  0.10100000352E+00 0.  1.
</event>
<event>
 5   0  0.1095119E-03  0.1416870E+04  0.7818609E-02  0.8941697E-01
       -2   -1    0    0    0  501  0.00000000000E+00  0.00000000000E+00  0.80476532959E+03  0.80476532960E+03  0.25500000920E-02 0. -1.
        2   -1    0    0  501    0  0.00000000000E+00  0.00000000000E+00 -0.62363518316E+03  0.62363518317E+03  0.25500000920E-02 0.  1.
    10030    2    1    2    0    0  0.00000000000E+00  0.00000000000E+00  0.18113014643E+03  0.14284005128E+04  0.14168697523E+04 0.  0.
        5    1    3    3  502    0  0.16875047219E+03 -0.32356129408E+03  0.70270443502E+03  0.79182336786E+03  0.46999998093E+01 0. -1.
       -5    1    3    3    0  502 -0.16875047219E+03  0.32356129408E+03 -0.52157428859E+03  0.63657714490E+03  0.46999998093E+01 0.  1.
</event>
<event>
 5   0  0.6114266E-04  0.1402147E+04  0.7818609E-02  0.8952266E-01
        1   -1    0    0  501    0  0.00000000000E+00  0.00000000000E+00  0.17626827448E+04  0.17626827448E+04  0.50400001928E-02 0.  1.
       -1   -1    0    0    0  501  0.00000000000E+00  0.00000000000E+00 -0.27883849389E+03  0.27883849394E+03  0.50400001928E-02 0. -1.
    10030    2    1    2    0    0  0.00000000000E+00  0.00000000000E+00  0.14838442509E+04  0.20415212387E+04  0.14021466426E+04 0.  0.
        3    1    3    3  502    0  0.12311901203E+03  0.36684379247E+03 -0.10927109265E+03  0.40208561412E+03  0.10100000352E+00 0. -1.
       -3    1    3    3    0  502 -0.12311901203E+03 -0.36684379247E+03  0.15931153435E+04  0.16394356246E+04  0.10100000352E+00 0.  1.
</event>
<event>
 5   0  0.6097538E-04  0.1389285E+04  0.7818609E-02  0.8961611E-01
       -1   -1    0    0    0  501  0.00000000000E+00  0.00000000000E+00  0.15926132898E+04  0.15926132899E+04  0.50400001928E-02 0.  1.
        1   -1    0    0  501    0  0.00000000000E+00  0.00000000000E+00 -0.30297909792E+03  0.30297909796E+03  0.50400001928E-02 0. -1.
    10030    2    1    2    0    0  0.00000000000E+00  0.00000000000E+00  0.12896341919E+04  0.18955923878E+04  0.13892854825E+04 0.  0.
        2    1    3    3  502    0  0.47648082793E+03 -0.14447900161E+03  0.13057179641E+04  0.13974289116E+04  0.25500000920E-02 0.  1.
       -2    1    3    3    0  502 -0.47648082793E+03  0.14447900161E+03 -0.16083772150E+02  0.49816347620E+03  0.25500000920E-02 0. -1.
</event>
<event>
 5   0  0.6097538E-04  0.1371726E+04  0.7818609E-02  0.8974543E-01
       -1   -1    0    0    0  501  0.00000000000E+00  0.00000000000E+00  0.32964488206E+03  0.32964488210E+03  0.50400001928E-02 0.  1.
        1   -1    0    0  501    0  0.00000000000E+00  0.00000000000E+00 -0.14270144667E+04  0.14270144667E+04  0.50400001928E-02 0. -1.
    10030    2    1    2    0    0  0.00000000000E+00  0.00000000000E+00 -0.10973695846E+04  0.17566593488E+04  0.13717259429E+04 0.  0.
        2    1    3    3  502    0  0.12035675180E+03 -0.64035024974E+03 -0.27439940035E+03  0.70698601186E+03  0.25500000920E-02 0.  1.
       -2    1    3    3    0  502 -0.12035675180E+03  0.64035024974E+03 -0.82297018426E+03  0.10496733369E+04  0.25500000920E-02 0. -1.
</event>
<event>
 5   0  0.1098949E-03  0.1399900E+04  0.7818609E-02  0.8953891E-01
        2   -1    0    0  501    0  0.00000000000E+00  0.00000000000E+00  0.17258983135E+04  0.17258983135E+04  0.25500000920E-02 0. -1.
       -2   -1    0    0    0  501  0.00000000000E+00  0.00000000000E+00 -0.28386967844E+03  0.28386967845E+03  0.25500000920E-02 0.  1.
    10030    2    1    2    0    0  0.00000000000E+00  0.00000000000E+00  0.14420286351E+04  0.20097679920E+04  0.13999002811E+04 0.  0.
        4    1    3    3  502    0 -0.53674266190E+03 -0.16380035548E+02  0.13655681311E+04  0.14673578038E+04  0.12699999809E+01 0. -1.
       -4    1    3    3    0  502  0.53674266190E+03  0.16380035548E+02  0.76460503924E+02  0.54241018817E+03  0.12699999809E+01 0.  1.
</event>
<event>
 5   0  0.6153318E-04  0.1395770E+04  0.7818609E-02  0.8956886E-01
        1   -1    0    0  501    0  0.00000000000E+00  0.00000000000E+00  0.86827884552E+03  0.86827884553E+03  0.50400001928E-02 0.  1.
       -1   -1    0    0    0  501  0.00000000000E+00  0.00000000000E+00 -0.56092974738E+03  0.56092974740E+03  0.50400001928E-02 0. -1.
    10030    2    1    2    0    0  0.00000000000E+00  0.00000000000E+00  0.30734909813E+03  0.14292085929E+04  0.13957699431E+04 0.  0.
        5    1    3    3  502    0  0.32054540067E+03 -0.29515508948E+03 -0.40450463446E+03  0.59456872608E+03  0.46999998093E+01 0. -1.
       -5    1    3    3    0  502 -0.32054540067E+03  0.29515508948E+03  0.71185373260E+03  0.83463986685E+03  0.46999998093E+01 0.  1.
</event>
<event>
 5   0  0.1095119E-03  0.1411582E+04  0.7818609E-02  0.8945477E-01
        2   -1    0    0  501    0  0.00000000000E+00  0.00000000000E+00  0.21812478404E+04  0.21812478404E+04  0.25500000920E-02 0.  1.
       -2   -1    0    0    0  501  0.00000000000E+00  0.00000000000E+00 -0.22837442126E+03  0.22837442128E+03  0.25500000920E-02 0. -1.
    10030    2    1    2    0    0  0.00000000000E+00  0.00000000000E+00  0.19528734192E+04  0.24096222617E+04  0.14115823932E+04 0.  0.
        5    1    3    3  502    0  0.43683091205E+03  0.12666202411E+03  0.18976901814E+04  0.19514391173E+04  0.46999998093E+01 0.  1.
       -5    1    3    3    0  502 -0.43683091205E+03 -0.12666202411E+03  0.55183237790E+02  0.45818314439E+03  0.46999998093E+01 0. -1.
</event>
<event>
 5   0  0.6097538E-04  0.1268407E+04  0.7818609E-02  0.9055001E-01
       -1   -1    0    0    0  501  0.00000000000E+00  0.00000000000E+00  0.12558881552E+04  0.12558881552E+04  0.50400001928E-02 0. -1.
        1   -1    0    0  501    0  0.00000000000E+00  0.00000000000E+00 -0.32026250398E+03  0.32026250402E+03  0.50400001928E-02 0.  1.
    10030    2    1    2    0    0  0.00000000000E+00  0.00000000000E+00  0.93562565126E+03  0.15761506593E+04  0.12684066940E+04 0.  0.
        2    1    3    3  502    0  0.27250788323E+03 -0.23790645940E+03 -0.17948955002E+03  0.40382734977E+03  0.25500000920E-02 0.  1.
       -2    1    3    3    0  502 -0.27250788323E+03  0.23790645940E+03  0.11151152013E+04  0.11723233095E+04  0.25500000920E-02 0. -1.
</event>
<event>
 5   0  0.1175146E-03  0.1399905E+04  0.7818609E-02  0.8953888E-01
        2   -1    0    0  501    0  0.00000000000E+00  0.00000000000E+00  0.16741443610E+04  0.16741443610E+04  0.25500000920E-02 0.  1.
       -2   -1    0    0    0  501  0.00000000000E+00  0.00000000000E+00 -0.29264693549E+03  0.29264693550E+03  0.25500000920E-02 0. -1.
    10030    2    1    2    0    0  0.00000000000E+00  0.00000000000E+00  0.13814974255E+04  0.19667912965E+04  0.13999045922E+04 0.  0.
        1    1    3    3  502    0 -0.34130821540E+03  0.10044887243E+03 -0.15613461463E+03  0.38853480126E+03  0.50400001928E-02 0. -1.
       -1    1    3    3    0  502  0.34130821540E+03 -0.10044887243E+03  0.15376320401E+04  0.15782564952E+04  0.50400001928E-02 0.  1.
</event>
<event>
 5   0  0.6153318E-04  0.1405171E+04  0.7818609E-02  0.8950084E-01
        1   -1    0    0  501    0  0.00000000000E+00  0.00000000000E+00  0.10038994057E+04  0.10038994057E+04  0.50400001928E-02 0. -1.
       -1   -1    0    0    0  501  0.00000000000E+00  0.00000000000E+00 -0.49170911930E+03  0.49170911932E+03  0.50400001928E-02 0.  1.
    10030    2    1    2    0    0  0.00000000000E+00  0.00000000000E+00  0.51219028637E+03  0.14956085250E+04  0.14051711535E+04 0.  0.
        5    1    3    3  502    0  0.23702619872E+03 -0.82053771629E+02  0.95460281800E+03  0.98701715813E+03  0.46999998093E+01 0. -1.
       -5    1    3    3    0  502 -0.23702619872E+03  0.82053771629E+02 -0.44241253163E+03  0.50859136687E+03  0.46999998093E+01 0.  1.
</event>
<event>
 5   0  0.6097538E-04  0.1405073E+04  0.7818609E-02  0.8950155E-01
        1   -1    0    0  501    0  0.00000000000E+00  0.00000000000E+00  0.20068470040E+04  0.20068470040E+04  0.50400001928E-02 0.  1.
       -1   -1    0    0    0  501  0.00000000000E+00  0.00000000000E+00 -0.24593673420E+03  0.24593673425E+03  0.50400001928E-02 0. -1.
    10030    2    1    2    0    0  0.00000000000E+00  0.00000000000E+00  0.17609102698E+04  0.22527837383E+04  0.14050728070E+04 0.  0.
        2    1    3    3  502    0 -0.30019693976E+03  0.20300403313E+03 -0.84510878013E+02  0.37211682120E+03  0.25500000920E-02 0. -1.
       -2    1    3    3    0  502  0.30019693976E+03 -0.20300403313E+03  0.18454211479E+04  0.18806669171E+04  0.25500000920E-02 0.  1.
</event>
<event>
 5   0  0.1120053E-03  0.1389391E+04  0.7818609E-02  0.8961534E-01
       -2   -1    0    0    0  501  0.00000000000E+00  0.00000000000E+00  0.23582003557E+03  0.23582003558E+03  0.25500000920E-02 0.  1.
        2   -1    0    0  501    0  0.00000000000E+00  0.00000000000E+00 -0.20464848261E+04  0.20464848261E+04  0.25500000920E-02 0. -1.
    10030    2    1    2    0    0  0.00000000000E+00  0.00000000000E+00 -0.18106647906E+04  0.22823048617E+04  0.13893914128E+04 0.  0.
        2    1    3    3  502    0 -0.18949169165E+03 -0.20528261826E+03 -0.19501424234E+04  0.19700516557E+04  0.25500000920E-02 0. -1.
       -2    1    3    3    0  502  0.18949169165E+03  0.20528261826E+03  0.13947763288E+03  0.31225320598E+03  0.25500000920E-02 0.  1.
</event>
<event>
 5   0  0.1120053E-03  0.1397777E+04  0.7818609E-02  0.8955429E-01
       -2   -1    0    0    0  501  0.00000000000E+00  0.00000000000E+00  0.47588109650E+03  0.47588109651E+03  0.25500000920E-02 0. -1.
        2   -1    0    0  501    0  0.00000000000E+00  0.00000000000E+00 -0.10264015776E+04  0.10264015776E+04  0.25500000920E-02 0.  1.
    10030    2    1    2    0    0  0.00000000000E+00  0.00000000000E+00 -0.55052048107E+03  0.15022826741E+04  0.13977769610E+04 0.  0.
        2    1    3    3  502    0  0.57311377829E+02  0.32680031980E+03  0.38584039435E+03  0.50887705094E+03  0.25500000920E-02 0. -1.
       -2    1    3    3    0  502 -0.57311377829E+02 -0.32680031980E+03 -0.93636087542E+03  0.99340562314E+03  0.25500000920E-02 0.  1.
</event>
<event>
 5   0  0.1098949E-03  0.1391473E+04  0.7818609E-02  0.8960014E-01
        2   -1    0    0  501    0  0.00000000000E+00  0.00000000000E+00  0.39351893523E+03  0.39351893524E+03  0.25500000920E-02 0.  1.
       -2   -1    0    0    0  501  0.00000000000E+00  0.00000000000E+00 -0.12300527016E+04  0.12300527016E+04  0.25500000920E-02 0. -1.
    10030    2    1    2    0    0  0.00000000000E+00  0.00000000000E+00 -0.83653376637E+03  0.16235716368E+04  0.13914726435E+04 0.  0.
        4    1    3    3  502    0  0.16000834217E+03  0.64785640331E+03 -0.18865056727E+03  0.69347764081E+03  0.12699999809E+01 0.  1.
       -4    1    3    3    0  502 -0.16000834217E+03 -0.64785640331E+03 -0.64788319910E+03  0.93009399603E+03  0.12699999809E+01 0. -1.
</event>
<event>
 5   0  0.1120053E-03  0.1404431E+04  0.7818609E-02  0.8950617E-01
        2   -1    0    0  501    0  0.00000000000E+00  0.00000000000E+00  0.48781293613E+03  0.48781293613E+03  0.25500000920E-02 0.  1.
       -2   -1    0    0    0  501  0.00000000000E+00  0.00000000000E+00 -0.10108517961E+04  0.10108517961E+04  0.25500000920E-02 0. -1.
    10030    2    1    2    0    0  0.00000000000E+00  0.00000000000E+00 -0.52303885996E+03  0.14986647322E+04  0.14044309633E+04 0.  0.
        2    1    3    3  502    0  0.32612296987E+03  0.16555016281E+03 -0.90119388722E+03  0.97258082967E+03  0.25500000920E-02 0. -1.
       -2    1    3    3    0  502 -0.32612296987E+03 -0.16555016281E+03  0.37815502725E+03  0.52608390255E+03  0.25500000920E-02 0.  1.
</event>
<event>
 5   0  0.1120053E-03  0.1358725E+04  0.7818609E-02  0.8984249E-01
       -2   -1    0    0    0  501  0.00000000000E+00  0.00000000000E+00  0.37113150369E+03  0.37113150370E+03  0.25500000920E-02 0. -1.
        2   -1    0    0  501    0  0.00000000000E+00  0.00000000000E+00 -0.12435848281E+04  0.12435848281E+04  0.25500000920E-02 0.  1.
    10030    2    1    2    0    0  0.00000000000E+00  0.00000000000E+00 -0.87245332441E+03  0.16147163318E+04  0.13587251484E+04 0.  0.
        2    1    3    3  502    0  0.37488735147E+03 -0.25670817648E+03 -0.10364524565E+04  0.11316683740E+04  0.25500000920E-02 0.  1.
       -2    1    3    3    0  502 -0.37488735147E+03  0.25670817648E+03  0.16399913211E+03  0.48304795777E+03  0.25500000920E-02 0. -1.
</event>
<event>
 5   0  0.1108819E-03  0.1393602E+04  0.7818609E-02  0.8958463E-01
        2   -1    0    0  501    0  0.00000000000E+00  0.00000000000E+00  0.11912798201E+04  0.11912798201E+04  0.25500000920E-02 0. -1.
       -2   -1    0    0    0  501  0.00000000000E+00  0.00000000000E+00 -0.40757151723E+03  0.40757151724E+03  0.25500000920E-02 0.  1.
    10030    2    1    2    0    0  0.00000000000E+00  0.00000000000E+00  0.78370830291E+03  0.15988513374E+04  0.13936021294E+04 0.  0.
        3    1    3    3  502    0  0.56746629046E+03  0.11545234803E+03 -0.52758491511E+02  0.58149007223E+03  0.10100000352E+00 0.  1.
       -3    1    3    3    0  502 -0.56746629046E+03 -0.11545234803E+03  0.83646679442E+03  0.10173612652E+04  0.10100000352E+00 0. -1.
</event>
<event>
 5   0  0.6194742E-04  0.1425808E+04  0.7818609E-02  0.8935347E-01
        1   -1    0    0  501    0  0.00000000000E+00  0.00000000000E+00  0.18878127108E+04  0.18878127108E+04  0.50400001928E-02 0. -1.
       -1   -1    0    0    0  501  0.00000000000E+00  0.00000000000E+00 -0.26921736779E+03  0.26921736784E+03  0.50400001928E-02 0.  1.
    10030    2    1    2    0    0  0.00000000000E+00  0.00000000000E+00  0.16185953430E+04  0.21570300787E+04  0.14258077976E+04 0.  0.
        4    1    3    3  502    0 -0.35533140638E+03 -0.27711393518E+03  0.16450386457E+04  0.17056395575E+04  0.12699999809E+01 0. -1.
       -4    1    3    3    0  502  0.35533140638E+03  0.27711393518E+03 -0.26443302653E+02  0.45139052116E+03  0.12699999809E+01 0.  1.
</event>
<event>
 5   0  0.5875298E-04  0.1384199E+04  0.7818609E-02  0.8965336E-01
        1   -1    0    0  501    0  0.00000000000E+00  0.00000000000E+00  0.50907223789E+03  0.50907223791E+03  0.50400001928E-02 0. -1.
       -1   -1    0    0    0  501  0.00000000000E+00  0.00000000000E+00 -0.94093099097E+03  0.94093099099E+03  0.50400001928E-02 0.  1.
    10030    2    1    2    0    0  0.00000000000E+00  0.00000000000E+00 -0.43185875309E+03  0.14500032289E+04  0.13841991841E+04 0.  0.
        1    1    3    3  502    0 -0.31735583594E+03  0.54596227094E+03  0.80752428202E+02  0.63663999448E+03  0.50400001928E-02 0. -1.
       -1    1    3    3    0  502  0.31735583594E+03 -0.54596227094E+03 -0.51261118129E+03  0.81336323442E+03  0.50400001928E-02 0.  1.
</event>
<event>
 5   0  0.6114266E-04  0.1408429E+04  0.7818609E-02  0.8947740E-01
       -1   -1    0    0    0  501  0.00000000000E+00  0.00000000000E+00  0.40745539633E+03  0.40745539636E+03  0.50400001928E-02 0. -1.
        1   -1    0    0  501    0  0.00000000000E+00  0.00000000000E+00 -0.12171101972E+04  0.12171101972E+04  0.50400001928E-02 0.  1.
    10030    2    1    2    0    0  0.00000000000E+00  0.00000000000E+00 -0.80965480084E+03  0.16245655935E+04  0.14084290792E+04 0.  0.
        3    1    3    3  502    0 -0.53791383483E+03  0.32130776060E+03 -0.34051441076E+02  0.62749460680E+03  0.10100000352E+00 0. -1.
       -3    1    3    3    0  502  0.53791383483E+03 -0.32130776060E+03 -0.77560335976E+03  0.99707098674E+03  0.10100000352E+00 0.  1.
</event>
<event>
 5   0  0.6097538E-04  0.1408379E+04  0.7818609E-02  0.8947776E-01
       -1   -1    0    0    0  501  0.00000000000E+00  0.00000000000E+00  0.46817342680E+03  0.46817342682E+03  0.50400001928E-02 0.  1.
        1   -1    0    0  501    0  0.00000000000E+00  0.00000000000E+00 -0.10591858250E+04  0.10591858250E+04  0.50400001928E-02 0. -1.
    10030    2    1    2    0    0  0.00000000000E+00  0.00000000000E+00 -0.59101239818E+03  0.15273592518E+04  0.14083787237E+04 0.  0.
        2    1    3    3  502    0 -0.11745666010E+03 -0.59106116138E+02 -0.10457543635E+04  0.10539885145E+04  0.25500000920E-02 0. -1.
       -2    1    3    3    0  502  0.11745666010E+03  0.59106116138E+02  0.45474196528E+03  0.47337073733E+03  0.25500000920E-02 0.  1.
</event>
<event>
 5   0  0.5875298E-04  0.1435747E+04  0.7818609E-02  0.8928342E-01
       -1   -1    0    0    0  501  0.00000000000E+00  0.00000000000E+00  0.48130083348E+03  0.48130083351E+03  0.50400001928E-02 0.  1.
        1   -1    0    0  501    0  0.00000000000E+00  0.00000000000E+00 -0.10707283671E+04  0.10707283671E+04  0.50400001928E-02 0. -1.
    10030    2    1    2    0    0  0.00000000000E+00  0.00000000000E+00 -0.58942753360E+03  0.15520292006E+04  0.14357471303E+04 0.  0.
        1    1    3    3  502    0 -0.11739414572E+03 -0.62814084150E+01 -0.10602517759E+04  0.10667495816E+04  0.50400001928E-02 0. -1.
       -1    1    3    3    0  502  0.11739414572E+03  0.62814084150E+01  0.47082424225E+03  0.48527961904E+03  0.50400001928E-02 0.  1.
</event>
<event>
 5   0  0.1098949E-03  0.1395604E+04  0.7818609E-02  0.8957007E-01
        2   -1    0    0  501    0  0.00000000000E+00  0.00000000000E+00  0.33418840032E+04  0.33418840032E+04  0.25500000920E-02 0.  1.
       -2   -1    0    0    0  501  0.00000000000E+00  0.00000000000E+00 -0.14570445768E+03  0.14570445771E+03  0.25500000920E-02 0. -1.
    10030    2    1    2    0    0  0.00000000000E+00  0.00000000000E+00  0.31961795455E+04  0.34875884609E+04  0.13956036635E+04 0.  0.
        4    1    3    3  502    0 -0.13468243825E+02 -0.47839905070E+02 -0.14127304228E+03  0.14976560180E+03  0.12699999809E+01 0. -1.
       -4    1    3    3    0  502  0.13468243825E+02  0.47839905070E+02  0.33374525877E+04  0.33378228591E+04  0.12699999809E+01 0.  1.
</event>
<event>
 5   0  0.1098949E-03  0.1398368E+04  0.7818609E-02  0.8955001E-01
       -2   -1    0    0    0  501  0.00000000000E+00  0.00000000000E+00  0.72344095046E+03  0.72344095047E+03  0.25500000920E-02 0.  1.
        2   -1    0    0  501    0  0.00000000000E+00  0.00000000000E+00 -0.67574062292E+03  0.67574062293E+03  0.25500000920E-02 0. -1.
    10030    2    1    2    0    0  0.00000000000E+00  0.00000000000E+00  0.47700327539E+02  0.13991815734E+04  0.13983682470E+04 0.  0.
        4    1    3    3  502    0 -0.45247589139E+03 -0.18225027218E+03 -0.47734758615E+03  0.68250415742E+03  0.12699999809E+01 0. -1.
       -4    1    3    3    0  502  0.45247589139E+03  0.18225027218E+03  0.52504791369E+03  0.71667741597E+03  0.12699999809E+01 0.  1.
</event>
<event>
 5   0  0.1120053E-03  0.1417594E+04  0.7818609E-02  0.8941180E-01
        2   -1    0    0  501    0  0.00000000000E+00  0.00000000000E+00  0.21333035152E+04  0.21333035152E+04  0.25500000920E-02 0. -1.
       -2   -1    0    0    0  501  0.00000000000E+00  0.00000000000E+00 -0.23550021943E+03  0.23550021944E+03  0.25500000920E-02 0.  1.
    10030    2    1    2    0    0  0.00000000000E+00  0.00000000000E+00  0.18978032957E+04  0.23688037346E+04  0.14175943650E+04 0.  0.
        2    1    3    3  502    0 -0.21351595011E+03  0.58846677437E+03  0.15043968698E+04  0.16294453496E+04  0.25500000920E-02 0. -1.
       -2    1    3    3    0  502  0.21351595011E+03 -0.58846677437E+03  0.39340642591E+03  0.73935838498E+03  0.25500000920E-02 0.  1.
</event>
<event>
 5   0  0.4176125E-04  0.1383591E+04  0.7818609E-02  0.8965782E-01
       -3   -1    0    0    0  501  0.00000000000E+00  0.00000000000E+00  0.99148466313E+03  0.99148466828E+03  0.10100000352E+00 0.  1.
        3   -1    0    0  501    0  0.00000000000E+00  0.00000000000E+00 -0.48269140684E+03  0.48269141740E+03  0.10100000352E+00 0. -1.
    10030    2    1    2    0    0  0.00000000000E+00  0.00000000000E+00  0.50879325630E+03  0.14741760857E+04  0.13835911802E+04 0.  0.
        2    1    3    3  502    0  0.14258609964E+03  0.67605946065E+03  0.21758081961E+03  0.72438153153E+03  0.25500000920E-02 0.  1.
       -2    1    3    3    0  502 -0.14258609964E+03 -0.67605946065E+03  0.29121243669E+03  0.74979455415E+03  0.25500000920E-02 0. -1.
</event>
<event>
 5   0  0.6194742E-04  0.1399750E+04  0.7818609E-02  0.8954000E-01
        1   -1    0    0  501    0  0.00000000000E+00  0.00000000000E+00  0.37896749205E+03  0.37896749208E+03  0.50400001928E-02 0.  1.
       -1   -1    0    0    0  501  0.00000000000E+00  0.00000000000E+00 -0.12925250919E+04  0.12925250919E+04  0.50400001928E-02 0. -1.
    10030    2    1    2    0    0  0.00000000000E+00  0.00000000000E+00 -0.91355759985E+03  0.16714925840E+04  0.13997499670E+04 0.  0.
        4    1    3    3  502    0 -0.47531117568E+03 -0.22901693088E+03  0.92334356789E+02  0.53562740286E+03  0.12699999809E+01 0.  1.
       -4    1    3    3    0  502  0.47531117568E+03  0.22901693088E+03 -0.10058919566E+04  0.11358651811E+04  0.12699999809E+01 0. -1.
</event>
<event>
 5   0  0.6114266E-04  0.1387953E+04  0.7818609E-02  0.8962585E-01
       -1   -1    0    0    0  501  0.00000000000E+00  0.00000000000E+00  0.38128706203E+03  0.38128706206E+03  0.50400001928E-02 0. -1.
        1   -1    0    0  501    0  0.00000000000E+00  0.00000000000E+00 -0.12630999953E+04  0.12630999953E+04  0.50400001928E-02 0.  1.
    10030    2    1    2    0    0  0.00000000000E+00  0.00000000000E+00 -0.88181293328E+03  0.16443870574E+04  0.13879534377E+04 0.  0.
        3    1    3    3  502    0  0.47418834044E+03 -0.47252399683E+03 -0.65765595856E+03  0.93842681111E+03  0.10100000352E+00 0.  1.
       -3    1    3    3    0  502 -0.47418834044E+03  0.47252399683E+03 -0.22415697472E+03  0.70596024626E+03  0.10100000352E+00 0. -1.
</event>
<event>
 5   0  0.6194742E-04  0.1467655E+04  0.7818609E-02  0.8906252E-01
        1   -1    0    0  501    0  0.00000000000E+00  0.00000000000E+00  0.10908556824E+04  0.10908556824E+04  0.50400001928E-02 0.  1.
       -1   -1    0    0    0  501  0.00000000000E+00  0.00000000000E+00 -0.49365171608E+03  0.49365171610E+03  0.50400001928E-02 0. -1.
    10030    2    1    2    0    0  0.00000000000E+00  0.00000000000E+00  0.59720396631E+03  0.15845073985E+04  0.14676549726E+04 0.  0.
        4    1    3    3  502    0  0.47834705098E+03 -0.55567433088E+03  0.33119329444E+03  0.80453742881E+03  0.12699999809E+01 0. -1.
       -4    1    3    3    0  502 -0.47834705098E+03  0.55567433088E+03  0.26601067187E+03  0.77996996969E+03  0.12699999809E+01 0.  1.
</event>
<event>
 5   0  0.6194742E-04  0.1431899E+04  0.7818609E-02  0.8931047E-01
       -1   -1    0    0    0  501  0.00000000000E+00  0.00000000000E+00  0.36721514272E+03  0.36721514276E+03  0.50400001928E-02 0. -1.
        1   -1    0    0  501    0  0.00000000000E+00  0.00000000000E+00 -0.13958670487E+04  0.13958670487E+04  0.50400001928E-02 0.  1.
    10030    2    1    2    0    0  0.00000000000E+00  0.00000000000E+00 -0.10286519060E+04  0.17630821915E+04  0.14318987640E+04 0.  0.
        4    1    3    3  502    0  0.25764668605E+03 -0.20893225445E+03  0.26688578314E+03  0.42575126062E+03  0.12699999809E+01 0. -1.
       -4    1    3    3    0  502 -0.25764668605E+03  0.20893225445E+03 -0.12955376891E+04  0.13373309309E+04  0.12699999809E+01 0.  1.
</event>
<event>
 5   0  0.1108819E-03  0.1410769E+04  0.7818609E-02  0.8946060E-01
        2   -1    0    0  501    0  0.00000000000E+00  0.00000000000E+00  0.13438915757E+04  0.13438915757E+04  0.25500000920E-02 0. -1.
       -2   -1    0    0    0  501  0.00000000000E+00  0.00000000000E+00 -0.37024384858E+03  0.37024384859E+03  0.25500000920E-02 0.  1.
    10030    2    1    2    0    0  0.00000000000E+00  0.00000000000E+00  0.97364772713E+03  0.17141354243E+04  0.14107694200E+04 0.  0.
        3    1    3    3  502    0 -0.37691609735E+03  0.42073256489E+03  0.10001473110E+04  0.11486410621E+04  0.10100000352E+00 0. -1.
       -3    1    3    3    0  502  0.37691609735E+03 -0.42073256489E+03 -0.26499583840E+02  0.56549436226E+03  0.10100000352E+00 0.  1.
</event>
<event>
 5   0  0.1120053E-03  0.1547570E+04  0.7818609E-02  0.8853422E-01
        2   -1    0    0  501    0  0.00000000000E+00  0.00000000000E+00  0.14149941850E+04  0.14149941850E+04  0.25500000920E-02 0. -1.
       -2   -1    0    0    0  501  0.00000000000E+00  0.00000000000E+00 -0.42314166007E+03  0.42314166008E+03  0.25500000920E-02 0.  1.
    10030    2    1    2    0    0  0.00000000000E+00  0.00000000000E+00  0.99185252489E+03  0.18381358450E+04  0.15475696927E+04 0.  0.
        2    1    3    3  502    0 -0.19637376288E+03 -0.19641645531E+03 -0.36189450938E+03  0.45619043676E+03  0.25500000920E-02 0.  1.
       -2    1    3    3    0  502  0.19637376288E+03  0.19641645531E+03  0.13537470343E+04  0.13819454083E+04  0.25500000920E-02 0. -1.
</event>
<event>
 5   0  0.1108819E-03  0.1403940E+04  0.7818609E-02  0.8950972E-01
        2   -1    0    0  501    0  0.00000000000E+00  0.00000000000E+00  0.12557014150E+04  0.12557014150E+04  0.25500000920E-02 0. -1.
       -2   -1    0    0    0  501  0.00000000000E+00  0.00000000000E+00 -0.39241950864E+03  0.39241950865E+03  0.25500000920E-02 0.  1.
    10030    2    1    2    0    0  0.00000000000E+00  0.00000000000E+00  0.86328190632E+03  0.16481209236E+04  0.14039397883E+04 0.  0.
        3    1    3    3  502    0 -0.29502836699E+03 -0.47648711233E+03  0.92786588717E+03  0.10839819280E+04  0.10100000352E+00 0. -1.
       -3    1    3    3    0  502  0.29502836699E+03  0.47648711233E+03 -0.64583980847E+02  0.56413899557E+03  0.10100000352E+00 0.  1.
</event>
<event>
 5   0  0.1095119E-03  0.1340520E+04  0.7818609E-02  0.8998035E-01
       -2   -1    0    0    0  501  0.00000000000E+00  0.00000000000E+00  0.81635128077E+03  0.81635128077E+03  0.25500000920E-02 0.  1.
        2   -1    0    0  501    0  0.00000000000E+00  0.00000000000E+00 -0.55031272167E+03  0.55031272167E+03  0.25500000920E-02 0. -1.
    10030    2    1    2    0    0  0.00000000000E+00  0.00000000000E+00  0.26603855910E+03  0.13666640024E+04  0.13405200411E+04 0.  0.
        5    1    3    3  502    0  0.33792620549E+03  0.50921069414E+03 -0.14755107920E+03  0.62871540648E+03  0.46999998093E+01 0. -1.
       -5    1    3    3    0  502 -0.33792620549E+03 -0.50921069414E+03  0.41358963830E+03  0.73794859596E+03  0.46999998093E+01 0.  1.
</event>
<event>
 5   0  0.6153318E-04  0.1419046E+04  0.7818609E-02  0.8940146E-01
        1   -1    0    0  501    0  0.00000000000E+00  0.00000000000E+00  0.97692186923E+03  0.97692186925E+03  0.50400001928E-02 0.  1.
       -1   -1    0    0    0  501  0.00000000000E+00  0.00000000000E+00 -0.51531526017E+03  0.51531526019E+03  0.50400001928E-02 0. -1.
    10030    2    1    2    0    0  0.00000000000E+00  0.00000000000E+00  0.46160660907E+03  0.14922371294E+04  0.14190458023E+04 0.  0.
        5    1    3    3  502    0 -0.56330299370E+03 -0.38653734626E+03  0.29406861130E+02  0.68381886216E+03  0.46999998093E+01 0.  1.
       -5    1    3    3    0  502  0.56330299370E+03  0.38653734626E+03  0.43219974794E+03  0.80841826728E+03  0.46999998093E+01 0. -1.
</event>
<event>
 5   0  0.6097538E-04  0.1418769E+04  0.7818609E-02  0.8940343E-01
       -1   -1    0    0    0  501  0.00000000000E+00  0.00000000000E+00  0.31484126371E+03  0.31484126375E+03  0.50400001928E-02 0.  1.
        1   -1    0    0  501    0  0.00000000000E+00  0.00000000000E+00 -0.15983504944E+04  0.15983504944E+04  0.50400001928E-02 0. -1.
    10030    2    1    2    0    0  0.00000000000E+00  0.00000000000E+00 -0.12835092307E+04  0.19131917581E+04  0.14187694521E+04 0.  0.
        2    1    3    3  502    0  0.29926249467E+03  0.64223188587E+03 -0.68860077165E+03  0.98802371362E+03  0.25500000920E-02 0.  1.
       -2    1    3    3    0  502 -0.29926249467E+03 -0.64223188587E+03 -0.59490845900E+03  0.92516804449E+03  0.25500000920E-02 0. -1.
</event>
<event>
 5   0  0.6153318E-04  0.1410832E+04  0.7818609E-02  0.8946015E-01
       -1   -1    0    0    0  501  0.00000000000E+00  0.00000000000E+00  0.52749274384E+03  0.52749274386E+03  0.50400001928E-02 0. -1.
        1   -1    0    0  501    0  0.00000000000E+00  0.00000000000E+00 -0.94335236577E+03  0.94335236578E+03  0.50400001928E-02 0.  1.
    10030    2    1    2    0    0  0.00000000000E+00  0.00000000000E+00 -0.41585962193E+03  0.14708451096E+04  0.14108317091E+04 0.  0.
        5    1    3    3  502    0  0.11898009842E+03  0.10349412174E+03 -0.92472437098E+03  0.93808557676E+03  0.46999998093E+01 0.  1.
       -5    1    3    3    0  502 -0.11898009842E+03 -0.10349412174E+03  0.50886474905E+03  0.53275953288E+03  0.46999998093E+01 0. -1.
</event>
<event>
 5   0  0.1120053E-03  0.1399231E+04  0.7818609E-02  0.8954375E-01
       -2   -1    0    0    0  501  0.00000000000E+00  0.00000000000E+00  0.46418787058E+03  0.46418787058E+03  0.25500000920E-02 0. -1.
        2   -1    0    0  501    0  0.00000000000E+00  0.00000000000E+00 -0.10544478934E+04  0.10544478934E+04  0.25500000920E-02 0.  1.
    10030    2    1    2    0    0  0.00000000000E+00  0.00000000000E+00 -0.59026002284E+03  0.15186357640E+04  0.13992311064E+04 0.  0.
        2    1    3    3  502    0  0.87535499740E+02  0.13271319566E+03 -0.10345828876E+04  0.10467268065E+04  0.25500000920E-02 0.  1.
       -2    1    3    3    0  502 -0.87535499740E+02 -0.13271319566E+03  0.44432286479E+03  0.47190895753E+03  0.25500000920E-02 0. -1.
</event>
<event>
 5   0  0.1175146E-03  0.1221801E+04  0.7818609E-02  0.9093985E-01
       -2   -1    0    0    0  501  0.00000000000E+00  0.00000000000E+00  0.22483072610E+03  0.22483072611E+03  0.25500000920E-02 0. -1.
        2   -1    0    0  501    0  0.00000000000E+00  0.00000000000E+00 -0.16599124399E+04  0.16599124399E+04  0.25500000920E-02 0.  1.
    10030    2    1    2    0    0  0.00000000000E+00  0.00000000000E+00 -0.14350817138E+04  0.18847431660E+04  0.12218008334E+04 0.  0.
        1    1    3    3  502    0 -0.31820824982E+02 -0.31096820571E+03  0.92116293701E+02  0.32588218953E+03  0.50400001928E-02 0. -1.
       -1    1    3    3    0  502  0.31820824982E+02  0.31096820571E+03 -0.15271980075E+04  0.15588609765E+04  0.50400001928E-02 0.  1.
</event>
<event>
 5   0  0.1175146E-03  0.1398188E+04  0.7818609E-02  0.8955131E-01
       -2   -1    0    0    0  501  0.00000000000E+00  0.00000000000E+00  0.24044171722E+03  0.24044171723E+03  0.25500000920E-02 0.  1.
        2   -1    0    0  501    0  0.00000000000E+00  0.00000000000E+00 -0.20326430887E+04  0.20326430887E+04  0.25500000920E-02 0. -1.
    10030    2    1    2    0    0  0.00000000000E+00  0.00000000000E+00 -0.17922013715E+04  0.22730848059E+04  0.13981876766E+04 0.  0.
        1    1    3    3  502    0  0.66160447620E+02 -0.30905724665E+03 -0.19098600035E+04  0.19358354320E+04  0.50400001928E-02 0. -1.
       -1    1    3    3    0  502 -0.66160447620E+02  0.30905724665E+03  0.11765863202E+03  0.33724937399E+03  0.50400001928E-02 0.  1.
</event>
<event>
 5   0  0.1108819E-03  0.1399252E+04  0.7818609E-02  0.8954361E-01
        2   -1    0    0  501    0  0.00000000000E+00  0.00000000000E+00  0.11064539668E+04  0.11064539668E+04  0.25500000920E-02 0. -1.
       -2   -1    0    0    0  501  0.00000000000E+00  0.00000000000E+00 -0.44238279895E+03  0.44238279896E+03  0.25500000920E-02 0.  1.
    10030    2    1    2    0    0  0.00000000000E+00  0.00000000000E+00  0.66407116784E+03  0.15488367658E+04  0.13992515181E+04 0.  0.
        3    1    3    3  502    0  0.53802507165E+03  0.42381988389E+03  0.49006299228E+03  0.84217338969E+03  0.10100000352E+00 0. -1.
       -3    1    3    3    0  502 -0.53802507165E+03 -0.42381988389E+03  0.17400817556E+03  0.70666337606E+03  0.10100000352E+00 0.  1.
</event>
<event>
 5   0  0.6194742E-04  0.1230585E+04  0.7818609E-02  0.9086499E-01
        1   -1    0    0  501    0  0.00000000000E+00  0.00000000000E+00  0.51051604407E+03  0.51051604410E+03  0.50400001928E-02 0. -1.
       -1   -1    0    0    0  501  0.00000000000E+00  0.00000000000E+00 -0.74157255182E+03  0.74157255184E+03  0.50400001928E-02 0.  1.
    10030    2    1    2    0    0  0.00000000000E+00  0.00000000000E+00 -0.23105650775E+03  0.12520885959E+04  0.12305847156E+04 0.  0.
        4    1    3    3  502    0  0.23624544864E+03 -0.54175087906E+03  0.58567392351E+02  0.59391723271E+03  0.12699999809E+01 0. -1.
       -4    1    3    3    0  502 -0.23624544864E+03  0.54175087906E+03 -0.28962390010E+03  0.65817136323E+03  0.12699999809E+01 0.  1.
</event>
<event>
 5   0  0.1108819E-03  0.1370065E+04  0.7818609E-02  0.8975777E-01
        2   -1    0    0  501    0  0.00000000000E+00  0.00000000000E+00  0.14102996668E+04  0.14102996668E+04  0.25500000920E-02 0. -1.
       -2   -1    0    0    0  501  0.00000000000E+00  0.00000000000E+00 -0.33274447287E+03  0.33274447288E+03  0.25500000920E-02 0.  1.
    10030    2    1    2    0    0  0.00000000000E+00  0.00000000000E+00  0.10775551939E+04  0.17430441397E+04  0.13700648441E+04 0.  0.
        3    1    3    3  502    0  0.13630035850E+03 -0.38338177557E+03 -0.16234963224E+03  0.43808308214E+03  0.10100000352E+00 0.  1.
       -3    1    3    3    0  502 -0.13630035850E+03  0.38338177557E+03  0.12399048262E+04  0.13049610576E+04  0.10100000352E+00 0. -1.
</event>
<event>
 5   0  0.6097538E-04  0.1240887E+04  0.7818609E-02  0.9077802E-01
        1   -1    0    0  501    0  0.00000000000E+00  0.00000000000E+00  0.52314579537E+03  0.52314579539E+03  0.50400001928E-02 0. -1.
       -1   -1    0    0    0  501  0.00000000000E+00  0.00000000000E+00 -0.73583713385E+03  0.73583713387E+03  0.50400001928E-02 0.  1.
    10030    2    1    2    0    0  0.00000000000E+00  0.00000000000E+00 -0.21269133848E+03  0.12589829293E+04  0.12408869452E+04 0.  0.
        2    1    3    3  502    0  0.13188352830E+03 -0.24181062049E+03  0.45771551143E+03  0.53419952324E+03  0.25500000920E-02 0. -1.
       -2    1    3    3    0  502 -0.13188352830E+03  0.24181062049E+03 -0.67040684991E+03  0.72478340602E+03  0.25500000920E-02 0.  1.
</event>
<event>
 5   0  0.4176125E-04  0.1398919E+04  0.7818609E-02  0.8954602E-01
       -4   -1    0    0    0  501  0.00000000000E+00  0.00000000000E+00  0.43753036852E+03  0.43753221170E+03  0.12699999809E+01 0. -1.
        4   -1    0    0  501    0  0.00000000000E+00  0.00000000000E+00 -0.11181882606E+04  0.11181889818E+04  0.12699999809E+01 0.  1.
    10030    2    1    2    0    0  0.00000000000E+00  0.00000000000E+00 -0.68065789211E+03  0.15557211935E+04  0.13989186059E+04 0.  0.
        2    1    3    3  502    0 -0.11621280762E+03 -0.26865826823E+03  0.36614104666E+03  0.46876641070E+03  0.25500000920E-02 0. -1.
       -2    1    3    3    0  502  0.11621280762E+03  0.26865826823E+03 -0.10467989388E+04  0.10869547828E+04  0.25500000920E-02 0.  1.
</event>
<event>
 5   0  0.1108819E-03  0.1375370E+04  0.7818609E-02  0.8971843E-01
        2   -1    0    0  501    0  0.00000000000E+00  0.00000000000E+00  0.11536331088E+04  0.11536331088E+04  0.25500000920E-02 0.  1.
       -2   -1    0    0    0  501  0.00000000000E+00  0.00000000000E+00 -0.40993153703E+03  0.40993153704E+03  0.25500000920E-02 0. -1.
    10030    2    1    2    0    0  0.00000000000E+00  0.00000000000E+00  0.74370157181E+03  0.15635646459E+04  0.13753699044E+04 0.  0.
        3    1    3    3  502    0 -0.27001953512E+03  0.62810477201E+03  0.28766048785E+03  0.74173763585E+03  0.10100000352E+00 0. -1.
       -3    1    3    3    0  502  0.27001953512E+03 -0.62810477201E+03  0.45604108395E+03  0.82182701003E+03  0.10100000352E+00 0.  1.
</event>
<event>
 5   0  0.6097538E-04  0.1401838E+04  0.7818609E-02  0.8952489E-01
       -1   -1    0    0    0  501  0.00000000000E+00  0.00000000000E+00  0.77352161167E+03  0.77352161169E+03  0.50400001928E-02 0. -1.
        1   -1    0    0  501    0  0.00000000000E+00  0.00000000000E+00 -0.63513123967E+03  0.63513123969E+03  0.50400001928E-02 0.  1.
    10030    2    1    2    0    0  0.00000000000E+00  0.00000000000E+00  0.13839037200E+03  0.14086528514E+04  0.14018384217E+04 0.  0.
        2    1    3    3  502    0  0.19348634658E+03  0.31418571962E+03  0.66802671420E+03  0.76315746974E+03  0.25500000920E-02 0. -1.
       -2    1    3    3    0  502 -0.19348634658E+03 -0.31418571962E+03 -0.52963634220E+03  0.64549538163E+03  0.25500000920E-02 0.  1.
</event>
<event>
 5   0  0.6097538E-04  0.1344923E+04  0.7818609E-02  0.8994681E-01
       -1   -1    0    0    0  501  0.00000000000E+00  0.00000000000E+00  0.61350852959E+03  0.61350852961E+03  0.50400001928E-02 0. -1.
        1   -1    0    0  501    0  0.00000000000E+00  0.00000000000E+00 -0.73707883939E+03  0.73707883941E+03  0.50400001928E-02 0.  1.
    10030    2    1    2    0    0  0.00000000000E+00  0.00000000000E+00 -0.12357030980E+03  0.13505873690E+04  0.13449225330E+04 0.  0.
        2    1    3    3  502    0 -0.30728103261E+02 -0.72434909249E+02  0.60886994619E+03  0.61393293102E+03  0.25500000920E-02 0. -1.
       -2    1    3    3    0  502  0.30728103261E+02  0.72434909249E+02 -0.73244025600E+03  0.73665443800E+03  0.25500000920E-02 0.  1.
</event>
<event>
 5   0  0.6153318E-04  0.1391788E+04  0.7818609E-02  0.8959785E-01
        1   -1    0    0  501    0  0.00000000000E+00  0.00000000000E+00  0.70927572635E+03  0.70927572637E+03  0.50400001928E-02 0.  1.
       -1   -1    0    0    0  501  0.00000000000E+00  0.00000000000E+00 -0.68276446142E+03  0.68276446143E+03  0.50400001928E-02 0. -1.
    10030    2    1    2    0    0  0.00000000000E+00  0.00000000000E+00  0.26511264939E+02  0.13920401878E+04  0.13917877127E+04 0.  0.
        5    1    3    3  502    0  0.65591497914E+03 -0.17448198742E+03  0.16683395280E+03  0.69894497752E+03  0.46999998093E+01 0.  1.
       -5    1    3    3    0  502 -0.65591497914E+03  0.17448198742E+03 -0.14032268786E+03  0.69309521029E+03  0.46999998093E+01 0. -1.
</event>
<event>
 5   0  0.1120053E-03  0.1394320E+04  0.7818609E-02  0.8957940E-01
        2   -1    0    0  501    0  0.00000000000E+00  0.00000000000E+00  0.83789209611E+03  0.83789209612E+03  0.25500000920E-02 0.  1.
       -2   -1    0    0    0  501  0.00000000000E+00  0.00000000000E+00 -0.58006518165E+03  0.58006518165E+03  0.25500000920E-02 0. -1.
    10030    2    1    2    0    0  0.00000000000E+00  0.00000000000E+00  0.25782691447E+03  0.14179572778E+04  0.13943199503E+04 0.  0.
        2    1    3    3  502    0  0.71350233099E+02 -0.61283135674E+03  0.45903779420E+03  0.76900508716E+03  0.25500000920E-02 0.  1.
       -2    1    3    3    0  502 -0.71350233099E+02  0.61283135674E+03 -0.20121087973E+03  0.64895219061E+03  0.25500000920E-02 0. -1.
</event>
<event>
 5   0  0.1120053E-03  0.1386515E+04  0.7818609E-02  0.8963638E-01
        2   -1    0    0  501    0  0.00000000000E+00  0.00000000000E+00  0.18681634887E+04  0.18681634887E+04  0.25500000920E-02 0.  1.
       -2   -1    0    0    0  501  0.00000000000E+00  0.00000000000E+00 -0.25726126413E+03  0.25726126415E+03  0.25500000920E-02 0. -1.
    10030    2    1    2    0    0  0.00000000000E+00  0.00000000000E+00  0.16109022245E+04  0.21254247528E+04  0.13865152011E+04 0.  0.
        2    1    3    3  502    0  0.42426857328E+03 -0.16662277019E+03  0.47426331885E+01  0.45583929448E+03  0.25500000920E-02 0. -1.
       -2    1    3    3    0  502 -0.42426857328E+03  0.16662277019E+03  0.16061595913E+04  0.16695854583E+04  0.25500000920E-02 0.  1.
</event>
<event>
 5   0  0.6114266E-04  0.1406883E+04  0.7818609E-02  0.8948852E-01
       -1   -1    0    0    0  501  0.00000000000E+00  0.00000000000E+00  0.37750936928E+03  0.37750936931E+03  0.50400001928E-02 0. -1.
        1   -1    0    0  501    0  0.00000000000E+00  0.00000000000E+00 -0.13107747181E+04  0.13107747181E+04  0.50400001928E-02 0.  1.
    10030    2    1    2    0    0  0.00000000000E+00  0.00000000000E+00 -0.93326534879E+03  0.16882840874E+04  0.14068827060E+04 0.  0.
        3    1    3    3  502    0 -0.13612848576E+03 -0.12586852498E+02 -0.12946799295E+04  0.13018776914E+04  0.10100000352E+00 0.  1.
       -3    1    3    3    0  502  0.13612848576E+03  0.12586852498E+02  0.36141458069E+03  0.38640639595E+03  0.10100000352E+00 0. -1.
</event>
<event>
 5   0  0.1098949E-03  0.1415950E+04  0.7818609E-02  0.8942353E-01
        2   -1    0    0  501    0  0.00000000000E+00  0.00000000000E+00  0.25941101887E+04  0.25941101887E+04  0.25500000920E-02 0. -1.
       -2   -1    0    0    0  501  0.00000000000E+00  0.00000000000E+00 -0.19321795925E+03  0.19321795927E+03  0.25500000920E-02 0.  1.
    10030    2    1    2    0    0  0.00000000000E+00  0.00000000000E+00  0.24008922294E+04  0.27873281479E+04  0.14159501075E+04 0.  0.
        4    1    3    3  502    0  0.55769859153E+03 -0.43276878140E+03  0.13066464636E+04  0.14851407782E+04  0.12699999809E+01 0.  1.
       -4    1    3    3    0  502 -0.55769859153E+03  0.43276878140E+03  0.10942457658E+04  0.13021873698E+04  0.12699999809E+01 0. -1.
</event>
<event>
 5   0  0.5875298E-04  0.1399076E+04  0.7818609E-02  0.8954488E-01
       -1   -1    0    0    0  501  0.00000000000E+00  0.00000000000E+00  0.31883012843E+03  0.31883012847E+03  0.50400001928E-02 0.  1.
        1   -1    0    0  501    0  0.00000000000E+00  0.00000000000E+00 -0.15348404223E+04  0.15348404223E+04  0.50400001928E-02 0. -1.
    10030    2    1    2    0    0  0.00000000000E+00  0.00000000000E+00 -0.12160102938E+04  0.18536705507E+04  0.13990759365E+04 0.  0.
        1    1    3    3  502    0 -0.17658893079E+02 -0.39590197745E+03  0.15575764451E+03  0.42580589017E+03  0.50400001928E-02 0.  1.
       -1    1    3    3    0  502  0.17658893079E+02  0.39590197745E+03 -0.13717679383E+04  0.14278646606E+04  0.50400001928E-02 0. -1.
</event>
<event>
 5   0  0.1120053E-03  0.1388965E+04  0.7818609E-02  0.8961845E-01
       -2   -1    0    0    0  501  0.00000000000E+00  0.00000000000E+00  0.17688779103E+03  0.17688779104E+03  0.25500000920E-02 0.  1.
        2   -1    0    0  501    0  0.00000000000E+00  0.00000000000E+00 -0.27266218205E+04  0.27266218205E+04  0.25500000920E-02 0. -1.
    10030    2    1    2    0    0  0.00000000000E+00  0.00000000000E+00 -0.25497340295E+04  0.29035096116E+04  0.13889652419E+04 0.  0.
        2    1    3    3  502    0  0.51181239855E+03  0.22985649875E+03 -0.41927752297E+03  0.70041386522E+03  0.25500000920E-02 0.  1.
       -2    1    3    3    0  502 -0.51181239855E+03 -0.22985649875E+03 -0.21304565065E+04  0.22030957464E+04  0.25500000920E-02 0. -1.
</event>
<event>
 5   0  0.6114266E-04  0.1405303E+04  0.7818609E-02  0.8949989E-01
        1   -1    0    0  501    0  0.00000000000E+00  0.00000000000E+00  0.59468176923E+03  0.59468176925E+03  0.50400001928E-02 0.  1.
       -1   -1    0    0    0  501  0.00000000000E+00  0.00000000000E+00 -0.83022448645E+03  0.83022448646E+03  0.50400001928E-02 0. -1.
    10030    2    1    2    0    0  0.00000000000E+00  0.00000000000E+00 -0.23554271722E+03  0.14249062557E+04  0.14053033359E+04 0.  0.
        3    1    3    3  502    0  0.65750943467E+03 -0.16202244902E+03 -0.30786838883E+03  0.74387692914E+03  0.10100000352E+00 0.  1.
       -3    1    3    3    0  502 -0.65750943467E+03  0.16202244902E+03  0.72325671617E+02  0.68102932657E+03  0.10100000352E+00 0. -1.
</event>
<event>
 5   0  0.1175146E-03  0.1408042E+04  0.7818609E-02  0.8948018E-01
        2   -1    0    0  501    0  0.00000000000E+00  0.00000000000E+00  0.48432885080E+03  0.48432885081E+03  0.25500000920E-02 0.  1.
       -2   -1    0    0    0  501  0.00000000000E+00  0.00000000000E+00 -0.10233656644E+04  0.10233656644E+04  0.25500000920E-02 0. -1.
    10030    2    1    2    0    0  0.00000000000E+00  0.00000000000E+00 -0.53903681358E+03  0.15076945152E+04  0.14080419258E+04 0.  0.
        1    1    3    3  502    0  0.58119178262E+03  0.19739832708E+03  0.99697606975E+02  0.62184371074E+03  0.50400001928E-02 0.  1.
       -1    1    3    3    0  502 -0.58119178262E+03 -0.19739832708E+03 -0.63873442055E+03  0.88585080445E+03  0.50400001928E-02 0. -1.
</event>
<event>
 5   0  0.4176125E-04  0.1406753E+04  0.7818609E-02  0.8948945E-01
       -4   -1    0    0    0  501  0.00000000000E+00  0.00000000000E+00  0.49960016199E+03  0.49960177618E+03  0.12699999809E+01 0. -1.
        4   -1    0    0  501    0  0.00000000000E+00  0.00000000000E+00 -0.99026486588E+03  0.99026568026E+03  0.12699999809E+01 0.  1.
    10030    2    1    2    0    0  0.00000000000E+00  0.00000000000E+00 -0.49066470390E+03  0.14898674564E+04  0.14067527096E+04 0.  0.
        4    1    3    3  502    0  0.57284799231E+03 -0.30721136395E+03 -0.52991447350E+03  0.83865642939E+03  0.12699999809E+01 0.  1.
       -4    1    3    3    0  502 -0.57284799231E+03  0.30721136395E+03  0.39249769598E+02  0.65121102705E+03  0.12699999809E+01 0. -1.
</event>
<event>
 5   0  0.5875298E-04  0.1387254E+04  0.7818609E-02  0.8963097E-01
       -1   -1    0    0    0  501  0.00000000000E+00  0.00000000000E+00  0.47652414565E+03  0.47652414568E+03  0.50400001928E-02 0. -1.
        1   -1    0    0  501    0  0.00000000000E+00  0.00000000000E+00 -0.10096406764E+04  0.10096406764E+04  0.50400001928E-02 0.  1.
    10030    2    1    2    0    0  0.00000000000E+00  0.00000000000E+00 -0.53311653073E+03  0.14861648221E+04  0.13872536333E+04 0.  0.
        1    1    3    3  502    0  0.65643962223E+03 -0.74763577520E+02 -0.49284256871E+03  0.82425503803E+03  0.50400001928E-02 0.  1.
       -1    1    3    3    0  502 -0.65643962223E+03  0.74763577520E+02 -0.40273962017E+02  0.66190978404E+03  0.50400001928E-02 0. -1.
</event>
<event>
 5   0  0.6194742E-04  0.1370030E+04  0.7818609E-02  0.8975803E-01
        1   -1    0    0  501    0  0.00000000000E+00  0.00000000000E+00  0.59615373536E+03  0.59615373538E+03  0.50400001928E-02 0. -1.
       -1   -1    0    0    0  501  0.00000000000E+00  0.00000000000E+00 -0.78712120365E+03  0.78712120366E+03  0.50400001928E-02 0.  1.
    10030    2    1    2    0    0  0.00000000000E+00  0.00000000000E+00 -0.19096746828E+03  0.13832749390E+04  0.13700295555E+04 0.  0.
        4    1    3    3  502    0  0.28219146531E+03  0.58196357589E+03  0.13237487217E+03  0.66018054079E+03  0.12699999809E+01 0.  1.
       -4    1    3    3    0  502 -0.28219146531E+03 -0.58196357589E+03 -0.32334234045E+03  0.72309439825E+03  0.12699999809E+01 0. -1.
</event>
<event>
 5   0  0.6194742E-04  0.1422662E+04  0.7818609E-02  0.8937576E-01
        1   -1    0    0  501    0  0.00000000000E+00  0.00000000000E+00  0.42287732656E+03  0.42287732659E+03  0.50400001928E-02 0.  1.
       -1   -1    0    0    0  501  0.00000000000E+00  0.00000000000E+00 -0.11965449349E+04  0.11965449349E+04  0.50400001928E-02 0. -1.
    10030    2    1    2    0    0  0.00000000000E+00  0.00000000000E+00 -0.77366760838E+03  0.16194222615E+04  0.14226619039E+04 0.  0.
        4    1    3    3  502    0  0.30426508763E+03 -0.64293951057E+03 -0.37948732809E+03  0.80620140342E+03  0.12699999809E+01 0.  1.
       -4    1    3    3    0  502 -0.30426508763E+03  0.64293951057E+03 -0.39418028029E+03  0.81322085811E+03  0.12699999809E+01 0. -1.
</event>
<event>
 5   0  0.1120053E-03  0.1364365E+04  0.7818609E-02  0.8980025E-01
       -2   -1    0    0    0  501  0.00000000000E+00  0.00000000000E+00  0.45722725718E+03  0.45722725719E+03  0.25500000920E-02 0.  1.
        2   -1    0    0  501    0  0.00000000000E+00  0.00000000000E+00 -0.10178150396E+04  0.10178150396E+04  0.25500000920E-02 0. -1.
    10030    2    1    2    0    0  0.00000000000E+00  0.00000000000E+00 -0.56058778238E+03  0.14750422968E+04  0.13643647296E+04 0.  0.
        2    1    3    3  502    0 -0.57204445265E+03 -0.28402599797E+02 -0.68093787143E+03  0.88978533829E+03  0.25500000920E-02 0. -1.
       -2    1    3    3    0  502  0.57204445265E+03  0.28402599797E+02  0.12035008905E+03  0.58525695846E+03  0.25500000920E-02 0.  1.
</event>
<event>
 5   0  0.1120053E-03  0.1403093E+04  0.7818609E-02  0.8951583E-01
       -2   -1    0    0    0  501  0.00000000000E+00  0.00000000000E+00  0.81305729362E+03  0.81305729363E+03  0.25500000920E-02 0.  1.
        2   -1    0    0  501    0  0.00000000000E+00  0.00000000000E+00 -0.60532898243E+03  0.60532898243E+03  0.25500000920E-02 0. -1.
    10030    2    1    2    0    0  0.00000000000E+00  0.00000000000E+00  0.20772831120E+03  0.14183862761E+04  0.14030925047E+04 0.  0.
        2    1    3    3  502    0  0.26684998311E+03  0.21203583946E+03 -0.51600721737E+03  0.61841051017E+03  0.25500000920E-02 0. -1.
       -2    1    3    3    0  502 -0.26684998311E+03 -0.21203583946E+03  0.72373552857E+03  0.79997576589E+03  0.25500000920E-02 0.  1.
</event>
<event>
 5   0  0.1098949E-03  0.1375329E+04  0.7818609E-02  0.8971873E-01
        2   -1    0    0  501    0  0.00000000000E+00  0.00000000000E+00  0.71830538124E+03  0.71830538125E+03  0.25500000920E-02 0. -1.
       -2   -1    0    0    0  501  0.00000000000E+00  0.00000000000E+00 -0.65833030334E+03  0.65833030335E+03  0.25500000920E-02 0.  1.
    10030    2    1    2    0    0  0.00000000000E+00  0.00000000000E+00  0.59975077899E+02  0.13766356846E+04  0.13753286146E+04 0.  0.
        4    1    3    3  502    0  0.27726412556E+03 -0.37273565113E+03  0.53749338821E+03  0.71042805140E+03  0.12699999809E+01 0. -1.
       -4    1    3    3    0  502 -0.27726412556E+03  0.37273565113E+03 -0.47751831031E+03  0.66620763320E+03  0.12699999809E+01 0.  1.
</event>
<event>
 5   0  0.1095119E-03  0.1412765E+04  0.7818609E-02  0.8944630E-01
        2   -1    0    0  501    0  0.00000000000E+00  0.00000000000E+00  0.77836074669E+03  0.77836074670E+03  0.25500000920E-02 0.  1.
       -2   -1    0    0    0  501  0.00000000000E+00  0.00000000000E+00 -0.64106070896E+03  0.64106070896E+03  0.25500000920E-02 0. -1.
    10030    2    1    2    0    0  0.00000000000E+00  0.00000000000E+00  0.13730003774E+03  0.14194214557E+04  0.14127653621E+04 0.  0.
        5    1    3    3  502    0  0.28505483454E+03 -0.62566297906E+03 -0.94113164997E+02  0.69396671382E+03  0.46999998093E+01 0. -1.
       -5    1    3    3    0  502 -0.28505483454E+03  0.62566297906E+03  0.23141320273E+03  0.72545474184E+03  0.46999998093E+01 0.  1.
</event>
<event>
 5   0  0.1120053E-03  0.1417942E+04  0.7818609E-02  0.8940933E-01
       -2   -1    0    0    0  501  0.00000000000E+00  0.00000000000E+00  0.46801809456E+03  0.46801809456E+03  0.25500000920E-02 0. -1.
        2   -1    0    0  501    0  0.00000000000E+00  0.00000000000E+00 -0.10739745822E+04  0.10739745822E+04  0.25500000920E-02 0.  1.
    10030    2    1    2    0    0  0.00000000000E+00  0.00000000000E+00 -0.60595648768E+03  0.15419926768E+04  0.14179415187E+04 0.  0.
        2    1    3    3  502    0 -0.44055780039E+03 -0.83486089600E+02 -0.90018420415E+03  0.10056802196E+04  0.25500000920E-02 0.  1.
       -2    1    3    3    0  502  0.44055780039E+03  0.83486089600E+02  0.29422771647E+03  0.53631245723E+03  0.25500000920E-02 0. -1.
</event>
<event>
 5   0  0.1175146E-03  0.1346482E+04  0.7818609E-02  0.8993495E-01
       -2   -1    0    0    0  501  0.00000000000E+00  0.00000000000E+00  0.47561305401E+03  0.47561305402E+03  0.25500000920E-02 0.  1.
        2   -1    0    0  501    0  0.00000000000E+00  0.00000000000E+00 -0.95298825230E+03  0.95298825230E+03  0.25500000920E-02 0. -1.
    10030    2    1    2    0    0  0.00000000000E+00  0.00000000000E+00 -0.47737519828E+03  0.14286013063E+04  0.13464823105E+04 0.  0.
        1    1    3    3  502    0 -0.13313183505E+03  0.34155952956E+03 -0.83780915294E+03  0.91450050547E+03  0.50400001928E-02 0. -1.
       -1    1    3    3    0  502  0.13313183505E+03 -0.34155952956E+03  0.36043395466E+03  0.51410080085E+03  0.50400001928E-02 0.  1.
</event>
<event>
 5   0  0.1098949E-03  0.1404450E+04  0.7818609E-02  0.8950604E-01
        2   -1    0    0  501    0  0.00000000000E+00  0.00000000000E+00  0.26301686669E+04  0.26301686669E+04  0.25500000920E-02 0. -1.
       -2   -1    0    0    0  501  0.00000000000E+00  0.00000000000E+00 -0.18748610536E+03  0.18748610538E+03  0.25500000920E-02 0.  1.
    10030    2    1    2    0    0  0.00000000000E+00  0.00000000000E+00  0.24426825616E+04  0.28176547723E+04  0.14044501840E+04 0.  0.
        4    1    3    3  502    0  0.14076010906E+03 -0.27775886363E+02  0.26004476688E+04  0.26044029256E+04  0.12699999809E+01 0. -1.
       -4    1    3    3    0  502 -0.14076010906E+03  0.27775886363E+02 -0.15776510719E+03  0.21325184668E+03  0.12699999809E+01 0.  1.
</event>
<event>
 5   0  0.1098949E-03  0.1413451E+04  0.7818609E-02  0.8944139E-01
       -2   -1    0    0    0  501  0.00000000000E+00  0.00000000000E+00  0.59586177320E+03  0.59586177321E+03  0.25500000920E-02 0. -1.
        2   -1    0    0  501    0  0.00000000000E+00  0.00000000000E+00 -0.83821599914E+03  0.83821599914E+03  0.25500000920E-02 0.  1.
    10030    2    1    2    0    0  0.00000000000E+00  0.00000000000E+00 -0.24235422594E+03  0.14340777724E+04  0.14134509140E+04 0.  0.
        4    1    3    3  502    0  0.10041347204E+03  0.61663370754E+03  0.21400627304E+03  0.66039404332E+03  0.12699999809E+01 0. -1.
       -4    1    3    3    0  502 -0.10041347204E+03 -0.61663370754E+03 -0.45636049898E+03  0.77368372904E+03  0.12699999809E+01 0.  1.
</event>
<event>
 5   0  0.1095119E-03  0.1408170E+04  0.7818609E-02  0.8947926E-01
        2   -1    0    0  501    0  0.00000000000E+00  0.00000000000E+00  0.19810905974E+04  0.19810905974E+04  0.25500000920E-02 0.  1.
       -2   -1    0    0    0  501  0.00000000000E+00  0.00000000000E+00 -0.25023383919E+03  0.25023383921E+03  0.25500000920E-02 0. -1.
    10030    2    1    2    0    0  0.00000000000E+00  0.00000000000E+00  0.17308567582E+04  0.22313244366E+04  0.14081703107E+04 0.  0.
        5    1    3    3  502    0  0.42809092752E+03  0.55693216972E+03  0.94106552191E+03  0.11743345735E+04  0.46999998093E+01 0. -1.
       -5    1    3    3    0  502 -0.42809092752E+03 -0.55693216972E+03  0.78979123630E+03  0.10569898632E+04  0.46999998093E+01 0.  1.
</event>
<event>
 5   0  0.6194742E-04  0.1387333E+04  0.7818609E-02  0.8963039E-01
       -1   -1    0    0    0  501  0.00000000000E+00  0.00000000000E+00  0.44260445912E+03  0.44260445915E+03  0.50400001928E-02 0.  1.
        1   -1    0    0  501    0  0.00000000000E+00  0.00000000000E+00 -0.10871400219E+04  0.10871400219E+04  0.50400001928E-02 0. -1.
    10030    2    1    2    0    0  0.00000000000E+00  0.00000000000E+00 -0.64453556281E+03  0.15297444811E+04  0.13873327235E+04 0.  0.
        4    1    3    3  502    0 -0.39140808372E+03 -0.45555945400E+03  0.60396297393E+02  0.60364230283E+03  0.12699999809E+01 0.  1.
       -4    1    3    3    0  502  0.39140808372E+03  0.45555945400E+03 -0.70493186020E+03  0.92610217825E+03  0.12699999809E+01 0. -1.
</event>
<event>
 5   0  0.1095119E-03  0.1392715E+04  0.7818609E-02  0.8959109E-01
        2   -1    0    0  501    0  0.00000000000E+00  0.00000000000E+00  0.20734502876E+03  0.20734502878E+03  0.25500000920E-02 0. -1.
       -2   -1    0    0    0  501  0.00000000000E+00  0.00000000000E+00 -0.23386806869E+04  0.23386806869E+04  0.25500000920E-02 0.  1.
    10030    2    1    2    0    0  0.00000000000E+00  0.00000000000E+00 -0.21313356581E+04  0.25460257157E+04  0.13927150668E+04 0.  0.
        5    1    3    3  502    0 -0.22062989256E+03  0.35199455904E+03 -0.20873039558E+04  0.21282475450E+04  0.46999998093E+01 0.  1.
       -5    1    3    3    0  502  0.22062989256E+03 -0.35199455904E+03 -0.44031702384E+02  0.41777817068E+03  0.46999998093E+01 0. -1.
</event>
<event>
 5   0  0.1108819E-03  0.1388564E+04  0.7818609E-02  0.8962138E-01
        2   -1    0    0  501    0  0.00000000000E+00  0.00000000000E+00  0.58200909200E+03  0.58200909201E+03  0.25500000920E-02 0. -1.
       -2   -1    0    0    0  501  0.00000000000E+00  0.00000000000E+00 -0.82821319421E+03  0.82821319422E+03  0.25500000920E-02 0.  1.
    10030    2    1    2    0    0  0.00000000000E+00  0.00000000000E+00 -0.24620410221E+03  0.14102222862E+04  0.13885641637E+04 0.  0.
        3    1    3    3  502    0  0.20512385591E+03  0.52842272341E+03 -0.53025561639E+03  0.77619417661E+03  0.10100000352E+00 0.  1.
       -3    1    3    3    0  502 -0.20512385591E+03 -0.52842272341E+03  0.28405151418E+03  0.63402810962E+03  0.10100000352E+00 0. -1.
</event>
<event>
 5   0  0.4176125E-04  0.1406219E+04  0.7818609E-02  0.8949329E-01
       -4   -1    0    0    0  501  0.00000000000E+00  0.00000000000E+00  0.89222594661E+03  0.89222685047E+03  0.12699999809E+01 0.  1.
        4   -1    0    0  501    0  0.00000000000E+00  0.00000000000E+00 -0.55407608201E+03  0.55407753749E+03  0.12699999809E+01 0. -1.
    10030    2    1    2    0    0  0.00000000000E+00  0.00000000000E+00  0.33814986460E+03  0.14463043880E+04  0.14062187069E+04 0.  0.
        1    1    3    3  502    0  0.28338836669E+03  0.15506361545E+03 -0.47323433369E+03  0.57297855617E+03  0.50400001928E-02 0. -1.
       -1    1    3    3    0  502 -0.28338836669E+03 -0.15506361545E+03  0.81138419829E+03  0.87332583179E+03  0.50400001928E-02 0.  1.
</event>
<event>
 5   0  0.5875298E-04  0.1403314E+04  0.7818609E-02  0.8951423E-01
        1   -1    0    0  501    0  0.00000000000E+00  0.00000000000E+00  0.34990611604E+03  0.34990611608E+03  0.50400001928E-02 0.  1.
       -1   -1    0    0    0  501  0.00000000000E+00  0.00000000000E+00 -0.14070136430E+04  0.14070136431E+04  0.50400001928E-02 0. -1.
    10030    2    1    2    0    0  0.00000000000E+00  0.00000000000E+00 -0.10571075270E+04  0.17569197591E+04  0.14033141902E+04 0.  0.
        1    1    3    3  502    0 -0.30744917991E+03  0.13505177806E+03 -0.12998771236E+04  0.13425514953E+04  0.50400001928E-02 0. -1.
       -1    1    3    3    0  502  0.30744917991E+03 -0.13505177806E+03  0.24276959663E+03  0.41436826382E+03  0.50400001928E-02 0.  1.
</event>
<event>
 5   0  0.6153318E-04  0.1352894E+04  0.7818609E-02  0.8988640E-01
        1   -1    0    0  501    0  0.00000000000E+00  0.00000000000E+00  0.65674734060E+03  0.65674734062E+03  0.50400001928E-02 0.  1.
       -1   -1    0    0    0  501  0.00000000000E+00  0.00000000000E+00 -0.69673726348E+03  0.69673726350E+03  0.50400001928E-02 0. -1.
    10030    2    1    2    0    0  0.00000000000E+00  0.00000000000E+00 -0.39989922876E+02  0.13534846041E+04  0.13528937060E+04 0.  0.
        5    1    3    3  502    0 -0.40472201771E+03  0.14682563227E+03  0.50196136328E+03  0.66132063187E+03  0.46999998093E+01 0.  1.
       -5    1    3    3    0  502  0.40472201771E+03 -0.14682563227E+03 -0.54195128616E+03  0.69216397225E+03  0.46999998093E+01 0. -1.
</event>
<event>
 5   0  0.6153318E-04  0.1311294E+04  0.7818609E-02  0.9020656E-01
       -1   -1    0    0    0  501  0.00000000000E+00  0.00000000000E+00  0.50983003823E+03  0.50983003825E+03  0.50400001928E-02 0. -1.
        1   -1    0    0  501    0  0.00000000000E+00  0.00000000000E+00 -0.84316984257E+03  0.84316984258E+03  0.50400001928E-02 0.  1.
    10030    2    1    2    0    0  0.00000000000E+00  0.00000000000E+00 -0.33333980434E+03  0.13529998808E+04  0.13112944949E+04 0.  0.
        5    1    3    3  502    0  0.43341274481E+03 -0.43665280014E+03 -0.40045724906E+03  0.73409834052E+03  0.46999998093E+01 0.  1.
       -5    1    3    3    0  502 -0.43341274481E+03  0.43665280014E+03  0.67117444723E+02  0.61890154032E+03  0.46999998093E+01 0. -1.
</event>
<event>
 5   0  0.1175146E-03  0.1411995E+04  0.7818609E-02  0.8945181E-01
       -2   -1    0    0    0  501  0.00000000000E+00  0.00000000000E+00  0.48821660502E+03  0.48821660503E+03  0.25500000920E-02 0.  1.
        2   -1    0    0  501    0  0.00000000000E+00  0.00000000000E+00 -0.10209252640E+04  0.10209252641E+04  0.25500000920E-02 0. -1.
    10030    2    1    2    0    0  0.00000000000E+00  0.00000000000E+00 -0.53270865903E+03  0.15091418691E+04  0.14119952782E+04 0.  0.
        1    1    3    3  502    0 -0.37483399402E+03 -0.56339149088E+03 -0.51203424185E+02  0.67862529112E+03  0.50400001928E-02 0. -1.
       -1    1    3    3    0  502  0.37483399402E+03  0.56339149088E+03 -0.48150523484E+03  0.83051657796E+03  0.50400001928E-02 0.  1.
</event>
<event>
 5   0  0.1175146E-03  0.1406858E+04  0.7818609E-02  0.8948869E-01
        2   -1    0    0  501    0  0.00000000000E+00  0.00000000000E+00  0.17442600048E+04  0.17442600048E+04  0.25500000920E-02 0.  1.
       -2   -1    0    0    0  501  0.00000000000E+00  0.00000000000E+00 -0.28368041766E+03  0.28368041767E+03  0.25500000920E-02 0. -1.
    10030    2    1    2    0    0  0.00000000000E+00  0.00000000000E+00  0.14605795871E+04  0.20279404224E+04  0.14068580691E+04 0.  0.
        1    1    3    3  502    0 -0.37817784260E+03  0.34482849354E+03  0.14259189065E+04  0.15149818146E+04  0.50400001928E-02 0.  1.
       -1    1    3    3    0  502  0.37817784260E+03 -0.34482849354E+03  0.34660680632E+02  0.51295860787E+03  0.50400001928E-02 0. -1.
</event>
<event>
 5   0  0.6194742E-04  0.1404803E+04  0.7818609E-02  0.8950349E-01
       -1   -1    0    0    0  501  0.00000000000E+00  0.00000000000E+00  0.99190881175E+03  0.99190881176E+03  0.50400001928E-02 0.  1.
        1   -1    0    0  501    0  0.00000000000E+00  0.00000000000E+00 -0.49739267777E+03  0.49739267779E+03  0.50400001928E-02 0. -1.
    10030    2    1    2    0    0  0.00000000000E+00  0.00000000000E+00  0.49451613398E+03  0.14893014896E+04  0.14048034453E+04 0.  0.
        4    1    3    3  502    0  0.43877083650E+03  0.54828013946E+03  0.23098524653E+03  0.73924742495E+03  0.12699999809E+01 0. -1.
       -4    1    3    3    0  502 -0.43877083650E+03 -0.54828013946E+03  0.26353088745E+03  0.75005406460E+03  0.12699999809E+01 0.  1.
</event>
<event>
 5   0  0.1120053E-03  0.1394233E+04  0.7818609E-02  0.8958004E-01
       -2   -1    0    0    0  501  0.00000000000E+00  0.00000000000E+00  0.75109746100E+03  0.75109746100E+03  0.25500000920E-02 0.  1.
        2   -1    0    0  501    0  0.00000000000E+00  0.00000000000E+00 -0.64701480951E+03  0.64701480951E+03  0.25500000920E-02 0. -1.
    10030    2    1    2    0    0  0.00000000000E+00  0.00000000000E+00  0.10408265149E+03  0.13981122705E+04  0.13942326645E+04 0.  0.
        2    1    3    3  502    0 -0.16216647087E+01  0.27289711729E+03  0.69530562972E+03  0.74694403080E+03  0.25500000920E-02 0.  1.
       -2    1    3    3    0  502  0.16216647087E+01 -0.27289711729E+03 -0.59122297823E+03  0.65116823971E+03  0.25500000920E-02 0. -1.
</event>
<event>
 5   0  0.4176125E-04  0.1405103E+04  0.7818609E-02  0.8950133E-01
       -3   -1    0    0    0  501  0.00000000000E+00  0.00000000000E+00  0.14678868738E+04  0.14678868773E+04  0.10100000352E+00 0.  1.
        3   -1    0    0  501    0  0.00000000000E+00  0.00000000000E+00 -0.33625099921E+03  0.33625101438E+03  0.10100000352E+00 0. -1.
    10030    2    1    2    0    0  0.00000000000E+00  0.00000000000E+00  0.11316358746E+04  0.18041378917E+04  0.14051027647E+04 0.  0.
        1    1    3    3  502    0 -0.27562629011E+03 -0.63641698274E+03  0.70984256970E+03  0.99240762870E+03  0.50400001928E-02 0. -1.
       -1    1    3    3    0  502  0.27562629011E+03  0.63641698274E+03  0.42179330490E+03  0.81173026296E+03  0.50400001928E-02 0.  1.
</event>
<event>
 5   0  0.1095119E-03  0.1421051E+04  0.7818609E-02  0.8938720E-01
        2   -1    0    0  501    0  0.00000000000E+00  0.00000000000E+00  0.70552022810E+03  0.70552022810E+03  0.25500000920E-02 0. -1.
       -2   -1    0    0    0  501  0.00000000000E+00  0.00000000000E+00 -0.71556591137E+03  0.71556591138E+03  0.25500000920E-02 0.  1.
    10030    2    1    2    0    0  0.00000000000E+00  0.00000000000E+00 -0.10045683278E+02  0.14210861395E+04  0.14210506325E+04 0.  0.
        5    1    3    3  502    0 -0.37460875201E+03 -0.55109608471E+03 -0.25157620507E+03  0.71228595986E+03  0.46999998093E+01 0.  1.
       -5    1    3    3    0  502  0.37460875201E+03  0.55109608471E+03  0.24153052179E+03  0.70880017961E+03  0.46999998093E+01 0. -1.
</event>
<event>
 5   0  0.1095119E-03  0.1402952E+04  0.7818609E-02  0.8951684E-01
       -2   -1    0    0    0  501  0.00000000000E+00  0.00000000000E+00  0.27096826993E+03  0.27096826994E+03  0.25500000920E-02 0. -1.
        2   -1    0    0  501    0  0.00000000000E+00  0.00000000000E+00 -0.18159639773E+04  0.18159639773E+04  0.25500000920E-02 0.  1.
    10030    2    1    2    0    0  0.00000000000E+00  0.00000000000E+00 -0.15449957074E+04  0.20869322473E+04  0.14029520551E+04 0.  0.
        5    1    3    3  502    0 -0.15241219260E+03 -0.31043536529E+03 -0.16803136230E+04  0.17155394353E+04  0.46999998093E+01 0.  1.
       -5    1    3    3    0  502  0.15241219260E+03  0.31043536529E+03  0.13531791562E+03  0.37139281194E+03  0.46999998093E+01 0. -1.
</event>
<event>
 5   0  0.5875298E-04  0.1396237E+04  0.7818609E-02  0.8956547E-01
        1   -1    0    0  501    0  0.00000000000E+00  0.00000000000E+00  0.13192897544E+04  0.13192897544E+04  0.50400001928E-02 0. -1.
       -1   -1    0    0    0  501  0.00000000000E+00  0.00000000000E+00 -0.36941785154E+03  0.36941785158E+03  0.50400001928E-02 0.  1.
    10030    2    1    2    0    0  0.00000000000E+00  0.00000000000E+00  0.94987190287E+03  0.16887076060E+04  0.13962366371E+04 0.  0.
        1    1    3    3  502    0 -0.42101004084E+03  0.13964978614E+03 -0.17707732290E+03  0.47760642329E+03  0.50400001928E-02 0.  1.
       -1    1    3    3    0  502  0.42101004084E+03 -0.13964978614E+03  0.11269492258E+04  0.12111011827E+04  0.50400001928E-02 0. -1.
</event>
<event>
 5   0  0.6194742E-04  0.1405067E+04  0.7818609E-02  0.8950159E-01
       -1   -1    0    0    0  501  0.00000000000E+00  0.00000000000E+00  0.77914260419E+03  0.77914260420E+03  0.50400001928E-02 0. -1.
        1   -1    0    0  501    0  0.00000000000E+00  0.00000000000E+00 -0.63345684652E+03  0.63345684654E+03  0.50400001928E-02 0.  1.
    10030    2    1    2    0    0  0.00000000000E+00  0.00000000000E+00  0.14568575767E+03  0.14125994507E+04  0.14050668554E+04 0.  0.
        4    1    3    3  502    0 -0.34292727770E+03  0.44185815824E+03  0.50022639552E+03  0.75037711151E+03  0.12699999809E+01 0.  1.
       -4    1    3    3    0  502  0.34292727770E+03 -0.44185815824E+03 -0.35454063785E+03  0.66222233924E+03  0.12699999809E+01 0. -1.
</event>
<event>
 5   0  0.1108819E-03  0.1381230E+04  0.7818609E-02  0.8967519E-01
       -2   -1    0    0    0  501  0.00000000000E+00  0.00000000000E+00  0.23836545340E+04  0.23836545340E+04  0.25500000920E-02 0.  1.
        2   -1    0    0  501    0  0.00000000000E+00  0.00000000000E+00 -0.20009143041E+03  0.20009143042E+03  0.25500000920E-02 0. -1.
    10030    2    1    2    0    0  0.00000000000E+00  0.00000000000E+00  0.21835631036E+04  0.25837459645E+04  0.13812296628E+04 0.  0.
        3    1    3    3  502    0  0.19884273163E+03  0.14015221520E+03 -0.11728825347E+03  0.27006965758E+03  0.10100000352E+00 0. -1.
       -3    1    3    3    0  502 -0.19884273163E+03 -0.14015221520E+03  0.23008513571E+04  0.23136763069E+04  0.10100000352E+00 0.  1.
</event>
<event>
 5   0  0.1175146E-03  0.1403707E+04  0.7818609E-02  0.8951140E-01
        2   -1    0    0  501    0  0.00000000000E+00  0.00000000000E+00  0.13173182911E+04  0.13173182911E+04  0.25500000920E-02 0. -1.
       -2   -1    0    0    0  501  0.00000000000E+00  0.00000000000E+00 -0.37394011283E+03  0.37394011284E+03  0.25500000920E-02 0.  1.
    10030    2    1    2    0    0  0.00000000000E+00  0.00000000000E+00  0.94337817823E+03  0.16912584039E+04  0.14037067363E+04 0.  0.
        1    1    3    3  502    0  0.14133816167E+03 -0.44269313949E+03  0.11054049418E+04  0.11991137465E+04  0.50400001928E-02 0. -1.
       -1    1    3    3    0  502 -0.14133816167E+03  0.44269313949E+03 -0.16202676354E+03  0.49214465741E+03  0.50400001928E-02 0.  1.
</event>
<event>
 5   0  0.1095119E-03  0.1412083E+04  0.7818609E-02  0.8945119E-01
        2   -1    0    0  501    0  0.00000000000E+00  0.00000000000E+00  0.60636781770E+03  0.60636781770E+03  0.25500000920E-02 0.  1.
       -2   -1    0    0    0  501  0.00000000000E+00  0.00000000000E+00 -0.82209913122E+03  0.82209913122E+03  0.25500000920E-02 0. -1.
    10030    2    1    2    0    0  0.00000000000E+00  0.00000000000E+00 -0.21573131352E+03  0.14284669489E+04  0.14120827966E+04 0.  0.
        5    1    3    3  502    0 -0.64134886119E+03  0.25562352583E+03 -0.25722913935E+03  0.73679079041E+03  0.46999998093E+01 0. -1.
       -5    1    3    3    0  502  0.64134886119E+03 -0.25562352583E+03  0.41497825829E+02  0.69167615851E+03  0.46999998093E+01 0.  1.
</event>
<event>
 5   0  0.4176125E-04  0.1379734E+04  0.7818609E-02  0.8968620E-01
       -4   -1    0    0    0  501  0.00000000000E+00  0.00000000000E+00  0.56383126288E+03  0.56383269318E+03  0.12699999809E+01 0.  1.
        4   -1    0    0  501    0  0.00000000000E+00  0.00000000000E+00 -0.84407359647E+03  0.84407455190E+03  0.12699999809E+01 0. -1.
    10030    2    1    2    0    0  0.00000000000E+00  0.00000000000E+00 -0.28024233359E+03  0.14079072451E+04  0.13797344111E+04 0.  0.
        3    1    3    3  502    0  0.55228480845E+02 -0.41691141586E+03 -0.69814338991E+03  0.81502731049E+03  0.10100000352E+00 0. -1.
       -3    1    3    3    0  502 -0.55228480845E+02  0.41691141586E+03  0.41790105632E+03  0.59287993459E+03  0.10100000352E+00 0.  1.
</event>
<event>
 5   0  0.1108819E-03  0.1397449E+04  0.7818609E-02  0.8955667E-01
        2   -1    0    0  501    0  0.00000000000E+00  0.00000000000E+00  0.15629282256E+04  0.15629282256E+04  0.25500000920E-02 0. -1.
       -2   -1    0    0    0  501  0.00000000000E+00  0.00000000000E+00 -0.31237275901E+03  0.31237275902E+03  0.25500000920E-02 0.  1.
    10030    2    1    2    0    0  0.00000000000E+00  0.00000000000E+00  0.12505554666E+04  0.18753009846E+04  0.13974493937E+04 0.  0.
        3    1    3    3  502    0  0.27131623005E+03  0.51918727529E+03  0.11363604164E+04  0.12784689788E+04  0.10100000352E+00 0. -1.
       -3    1    3    3    0  502 -0.27131623005E+03 -0.51918727529E+03  0.11419505017E+03  0.59683200585E+03  0.10100000352E+00 0.  1.
</event>
<event>
 5   0  0.1098949E-03  0.1381692E+04  0.7818609E-02  0.8967178E-01
       -2   -1    0    0    0  501  0.00000000000E+00  0.00000000000E+00  0.40985171725E+03  0.40985171725E+03  0.25500000920E-02 0.  1.
        2   -1    0    0  501    0  0.00000000000E+00  0.00000000000E+00 -0.11644899062E+04  0.11644899062E+04  0.25500000920E-02 0. -1.
    10030    2    1    2    0    0  0.00000000000E+00  0.00000000000E+00 -0.75463818892E+03  0.15743416234E+04  0.13816919885E+04 0.  0.
        4    1    3    3  502    0 -0.39878758340E+03 -0.53832036350E+03 -0.18514269407E+03  0.69505379683E+03  0.12699999809E+01 0.  1.
       -4    1    3    3    0  502  0.39878758340E+03  0.53832036350E+03 -0.56949549485E+03  0.87928782659E+03  0.12699999809E+01 0. -1.
</event>
<event>
 5   0  0.4176125E-04  0.1405785E+04  0.7818609E-02  0.8949641E-01
       -3   -1    0    0    0  501  0.00000000000E+00  0.00000000000E+00  0.10244032792E+04  0.10244032841E+04  0.10100000352E+00 0.  1.
        3   -1    0    0  501    0  0.00000000000E+00  0.00000000000E+00 -0.48228876825E+03  0.48228877883E+03  0.10100000352E+00 0. -1.
    10030    2    1    2    0    0  0.00000000000E+00  0.00000000000E+00  0.54211451091E+03  0.15066920630E+04  0.14057854849E+04 0.  0.
        2    1    3    3  502    0  0.13642084553E+03 -0.73556020716E+02  0.10058612387E+04  0.10177317754E+04  0.25500000920E-02 0.  1.
       -2    1    3    3    0  502 -0.13642084553E+03  0.73556020716E+02 -0.46374672775E+03  0.48896028753E+03  0.25500000920E-02 0. -1.
</event>
<event>
 5   0  0.1108819E-03  0.1382407E+04  0.7818609E-02  0.8966653E-01
        2   -1    0    0  501    0  0.00000000000E+00  0.00000000000E+00  0.18457444914E+04  0.18457444914E+04  0.25500000920E-02 0. -1.
       -2   -1    0    0    0  501  0.00000000000E+00  0.00000000000E+00 -0.25884513907E+03  0.25884513908E+03  0.25500000920E-02 0.  1.
    10030    2    1    2    0    0  0.00000000000E+00  0.00000000000E+00  0.15868993523E+04  0.21045896305E+04  0.13824065821E+04 0.  0.
        3    1    3    3  502    0 -0.65071239612E+02  0.59851648115E+02 -0.25020152645E+03  0.26536258223E+03  0.10100000352E+00 0.  1.
       -3    1    3    3    0  502  0.65071239612E+02 -0.59851648115E+02  0.18371008788E+04  0.18392270483E+04  0.10100000352E+00 0. -1.
</event>
<event>
 5   0  0.1098949E-03  0.1371352E+04  0.7818609E-02  0.8974820E-01
       -2   -1    0    0    0  501  0.00000000000E+00  0.00000000000E+00  0.34980016373E+03  0.34980016374E+03  0.25500000920E-02 0. -1.
        2   -1    0    0  501    0  0.00000000000E+00  0.00000000000E+00 -0.13440579732E+04  0.13440579732E+04  0.25500000920E-02 0.  1.
    10030    2    1    2    0    0  0.00000000000E+00  0.00000000000E+00 -0.99425780946E+03  0.16938581369E+04  0.13713521781E+04 0.  0.
        4    1    3    3  502    0  0.49642372278E+03  0.42897335059E+03 -0.25103642978E+03  0.70247814915E+03  0.12699999809E+01 0. -1.
       -4    1    3    3    0  502 -0.49642372278E+03 -0.42897335059E+03 -0.74322137968E+03  0.99137998778E+03  0.12699999809E+01 0.  1.
</event>
<event>
 5   0  0.1175146E-03  0.1404489E+04  0.7818609E-02  0.8950575E-01
        2   -1    0    0  501    0  0.00000000000E+00  0.00000000000E+00  0.11391859172E+04  0.11391859172E+04  0.25500000920E-02 0.  1.
       -2   -1    0    0    0  501  0.00000000000E+00  0.00000000000E+00 -0.43289478813E+03  0.43289478813E+03  0.25500000920E-02 0. -1.
    10030    2    1    2    0    0  0.00000000000E+00  0.00000000000E+00  0.70629112910E+03  0.15720807054E+04  0.14044894393E+04 0.  0.
        1    1    3    3  502    0  0.49581393362E+03  0.24224229056E+03  0.83929226114E+03  0.10044522307E+04  0.50400001928E-02 0.  1.
       -1    1    3    3    0  502 -0.49581393362E+03 -0.24224229056E+03 -0.13300113204E+03  0.56762847467E+03  0.50400001928E-02 0. -1.
</event>
<event>
 5   0  0.6194742E-04  0.1304188E+04  0.7818609E-02  0.9026250E-01
        1   -1    0    0  501    0  0.00000000000E+00  0.00000000000E+00  0.10326258533E+04  0.10326258533E+04  0.50400001928E-02 0. -1.
       -1   -1    0    0    0  501  0.00000000000E+00  0.00000000000E+00 -0.41179164860E+03  0.41179164863E+03  0.50400001928E-02 0.  1.
    10030    2    1    2    0    0  0.00000000000E+00  0.00000000000E+00  0.62083420474E+03  0.14444175020E+04  0.13041881805E+04 0.  0.
        4    1    3    3  502    0  0.21463341088E+03  0.73125033158E+02  0.98755656500E+03  0.10132543380E+04  0.12699999809E+01 0. -1.
       -4    1    3    3    0  502 -0.21463341088E+03 -0.73125033158E+02 -0.36672236026E+03  0.43116316396E+03  0.12699999809E+01 0.  1.
</event>
<event>
 5   0  0.1108819E-03  0.1390079E+04  0.7818609E-02  0.8961031E-01
        2   -1    0    0  501    0  0.00000000000E+00  0.00000000000E+00  0.12222792627E+04  0.12222792627E+04  0.25500000920E-02 0. -1.
       -2   -1    0    0    0  501  0.00000000000E+00  0.00000000000E+00 -0.39522896191E+03  0.39522896191E+03  0.25500000920E-02 0.  1.
    10030    2    1    2    0    0  0.00000000000E+00  0.00000000000E+00  0.82705030083E+03  0.16175082247E+04  0.13900793707E+04 0.  0.
        3    1    3    3  502    0 -0.37014857424E+03  0.56018826898E+03  0.62251938397E+03  0.91561523433E+03  0.10100000352E+00 0. -1.
       -3    1    3    3    0  502  0.37014857424E+03 -0.56018826898E+03  0.20453091686E+03  0.70189299032E+03  0.10100000352E+00 0.  1.
</event>
<event>
 5   0  0.1095119E-03  0.1403169E+04  0.7818609E-02  0.8951528E-01
        2   -1    0    0  501    0  0.00000000000E+00  0.00000000000E+00  0.58014918504E+03  0.58014918505E+03  0.25500000920E-02 0. -1.
       -2   -1    0    0    0  501  0.00000000000E+00  0.00000000000E+00 -0.84843820138E+03  0.84843820138E+03  0.25500000920E-02 0.  1.
    10030    2    1    2    0    0  0.00000000000E+00  0.00000000000E+00 -0.26828901634E+03  0.14285873864E+04  0.14031688866E+04 0.  0.
        5    1    3    3  502    0  0.39715730182E+02 -0.54900818313E+02 -0.84508282360E+03  0.84780806072E+03  0.46999998093E+01 0.  1.
       -5    1    3    3    0  502 -0.39715730182E+02  0.54900818313E+02  0.57679380727E+03  0.58077932571E+03  0.46999998093E+01 0. -1.
</event>
<event>
 5   0  0.6114266E-04  0.1397133E+04  0.7818609E-02  0.8955896E-01
        1   -1    0    0  501    0  0.00000000000E+00  0.00000000000E+00  0.11812853235E+04  0.11812853235E+04  0.50400001928E-02 0.  1.
       -1   -1    0    0    0  501  0.00000000000E+00  0.00000000000E+00 -0.41310538754E+03  0.41310538757E+03  0.50400001928E-02 0. -1.
    10030    2    1    2    0    0  0.00000000000E+00  0.00000000000E+00  0.76817993598E+03  0.15943907111E+04  0.13971332526E+04 0.  0.
        3    1    3    3  502    0 -0.95936290046E+02 -0.68884532708E+03  0.30939958844E+03  0.76120941397E+03  0.10100000352E+00 0. -1.
       -3    1    3    3    0  502  0.95936290046E+02  0.68884532708E+03  0.45878034754E+03  0.83318129713E+03  0.10100000352E+00 0.  1.
</event>
<event>
 5   0  0.6194742E-04  0.1399800E+04  0.7818609E-02  0.8953964E-01
        1   -1    0    0  501    0  0.00000000000E+00  0.00000000000E+00  0.38306020993E+03  0.38306020996E+03  0.50400001928E-02 0. -1.
       -1   -1    0    0    0  501  0.00000000000E+00  0.00000000000E+00 -0.12788061297E+04  0.12788061297E+04  0.50400001928E-02 0.  1.
    10030    2    1    2    0    0  0.00000000000E+00  0.00000000000E+00 -0.89574591980E+03  0.16618663397E+04  0.13997996207E+04 0.  0.
        4    1    3    3  502    0  0.44773994342E+03 -0.29107111998E+03 -0.98496865080E+03  0.11204277352E+04  0.12699999809E+01 0.  1.
       -4    1    3    3    0  502 -0.44773994342E+03  0.29107111998E+03  0.89222731007E+02  0.54143860450E+03  0.12699999809E+01 0. -1.
</event>
<event>
 5   0  0.1098949E-03  0.1375332E+04  0.7818609E-02  0.8971870E-01
       -2   -1    0    0    0  501  0.00000000000E+00  0.00000000000E+00  0.47682990619E+03  0.47682990619E+03  0.25500000920E-02 0. -1.
        2   -1    0    0  501    0  0.00000000000E+00  0.00000000000E+00 -0.99172631682E+03  0.99172631682E+03  0.25500000920E-02 0.  1.
    10030    2    1    2    0    0  0.00000000000E+00  0.00000000000E+00 -0.51489641063E+03  0.14685562230E+04  0.13753323476E+04 0.  0.
        4    1    3    3  502    0  0.19167735969E+03 -0.64639465668E+03 -0.40196183346E+03  0.78494661657E+03  0.12699999809E+01 0.  1.
       -4    1    3    3    0  502 -0.19167735969E+03  0.64639465668E+03 -0.11293457717E+03  0.68360960645E+03  0.12699999809E+01 0. -1.
</event>
<event>
 5   0  0.6114266E-04  0.1383778E+04  0.7818609E-02  0.8965645E-01
        1   -1    0    0  501    0  0.00000000000E+00  0.00000000000E+00  0.25710518660E+04  0.25710518660E+04  0.50400001928E-02 0. -1.
       -1   -1    0    0    0  501  0.00000000000E+00  0.00000000000E+00 -0.18619245543E+03  0.18619245550E+03  0.50400001928E-02 0.  1.
    10030    2    1    2    0    0  0.00000000000E+00  0.00000000000E+00  0.23848594105E+04  0.27572443215E+04  0.13837781037E+04 0.  0.
        3    1    3    3  502    0 -0.18385799650E+03  0.51871551742E+03  0.20279725885E+04  0.21013192001E+04  0.10100000352E+00 0. -1.
       -3    1    3    3    0  502  0.18385799650E+03 -0.51871551742E+03  0.35688682206E+03  0.65592512137E+03  0.10100000352E+00 0.  1.
</event>
<event>
 5   0  0.1095119E-03  0.1388309E+04  0.7818609E-02  0.8962324E-01
        2   -1    0    0  501    0  0.00000000000E+00  0.00000000000E+00  0.62927120620E+03  0.62927120620E+03  0.25500000920E-02 0.  1.
       -2   -1    0    0    0  501  0.00000000000E+00  0.00000000000E+00 -0.76572833609E+03  0.76572833609E+03  0.25500000920E-02 0. -1.
    10030    2    1    2    0    0  0.00000000000E+00  0.00000000000E+00 -0.13645712989E+03  0.13949995423E+04  0.13883094665E+04 0.  0.
        5    1    3    3  502    0  0.31819366074E+02 -0.11540404340E+02  0.62842551439E+03  0.62935393073E+03  0.46999998093E+01 0.  1.
       -5    1    3    3    0  502 -0.31819366074E+02  0.11540404340E+02 -0.76488264428E+03  0.76564561156E+03  0.46999998093E+01 0. -1.
</event>
<event>
 5   0  0.1120053E-03  0.1371936E+04  0.7818609E-02  0.8974387E-01
       -2   -1    0    0    0  501  0.00000000000E+00  0.00000000000E+00  0.41110581095E+03  0.41110581095E+03  0.25500000920E-02 0.  1.
        2   -1    0    0  501    0  0.00000000000E+00  0.00000000000E+00 -0.11446001702E+04  0.11446001702E+04  0.25500000920E-02 0. -1.
    10030    2    1    2    0    0  0.00000000000E+00  0.00000000000E+00 -0.73349435925E+03  0.15557059812E+04  0.13719355396E+04 0.  0.
        2    1    3    3  502    0 -0.44451429880E+03  0.79287352748E+02  0.21882818401E+03  0.50176211522E+03  0.25500000920E-02 0.  1.
       -2    1    3    3    0  502  0.44451429880E+03 -0.79287352748E+02 -0.95232254326E+03  0.10539438659E+04  0.25500000920E-02 0. -1.
</event>
<event>
 5   0  0.1095119E-03  0.1483355E+04  0.7818609E-02  0.8895598E-01
        2   -1    0    0  501    0  0.00000000000E+00  0.00000000000E+00  0.14358287659E+04  0.14358287659E+04  0.25500000920E-02 0. -1.
       -2   -1    0    0    0  501  0.00000000000E+00  0.00000000000E+00 -0.38311338345E+03  0.38311338346E+03  0.25500000920E-02 0.  1.
    10030    2    1    2    0    0  0.00000000000E+00  0.00000000000E+00  0.10527153825E+04  0.18189421494E+04  0.14833545990E+04 0.  0.
        5    1    3    3  502    0 -0.10795511321E+03 -0.50128476088E+03 -0.13070596894E+03  0.52919453727E+03  0.46999998093E+01 0.  1.
       -5    1    3    3    0  502  0.10795511321E+03  0.50128476088E+03  0.11834213514E+04  0.12897476121E+04  0.46999998093E+01 0. -1.
</event>
<event>
 5   0  0.6153318E-04  0.1403584E+04  0.7818609E-02  0.8951228E-01
        1   -1    0    0  501    0  0.00000000000E+00  0.00000000000E+00  0.49038688670E+03  0.49038688673E+03  0.50400001928E-02 0.  1.
       -1   -1    0    0    0  501  0.00000000000E+00  0.00000000000E+00 -0.10043333756E+04  0.10043333756E+04  0.50400001928E-02 0. -1.
    10030    2    1    2    0    0  0.00000000000E+00  0.00000000000E+00 -0.51394648890E+03  0.14947202623E+04  0.14035838661E+04 0.  0.
        5    1    3    3  502    0  0.26021700161E+03 -0.19220978635E+03  0.40622529822E+03  0.51932511282E+03  0.46999998093E+01 0.  1.
       -5    1    3    3    0  502 -0.26021700161E+03  0.19220978635E+03 -0.92017178712E+03  0.97539514952E+03  0.46999998093E+01 0. -1.
</event>
<event>
 5   0  0.6194742E-04  0.1417022E+04  0.7818609E-02  0.8941589E-01
       -1   -1    0    0    0  501  0.00000000000E+00  0.00000000000E+00  0.12393967826E+04  0.12393967826E+04  0.50400001928E-02 0. -1.
        1   -1    0    0  501    0  0.00000000000E+00  0.00000000000E+00 -0.40502573402E+03  0.40502573405E+03  0.50400001928E-02 0.  1.
    10030    2    1    2    0    0  0.00000000000E+00  0.00000000000E+00  0.83437104859E+03  0.16444225167E+04  0.14170216535E+04 0.  0.
        4    1    3    3  502    0  0.30888325398E+03 -0.24515357931E+03  0.11002693954E+04  0.11688043024E+04  0.12699999809E+01 0. -1.
       -4    1    3    3    0  502 -0.30888325398E+03  0.24515357931E+03 -0.26589834677E+03  0.47561821428E+03  0.12699999809E+01 0.  1.
</event>
<event>
 5   0  0.1108819E-03  0.1368381E+04  0.7818609E-02  0.8977030E-01
        2   -1    0    0  501    0  0.00000000000E+00  0.00000000000E+00  0.34250897821E+03  0.34250897822E+03  0.25500000920E-02 0. -1.
       -2   -1    0    0    0  501  0.00000000000E+00  0.00000000000E+00 -0.13667272196E+04  0.13667272196E+04  0.25500000920E-02 0.  1.
    10030    2    1    2    0    0  0.00000000000E+00  0.00000000000E+00 -0.10242182414E+04  0.17092361978E+04  0.13683805662E+04 0.  0.
        3    1    3    3  502    0  0.84497175231E+02 -0.58463295626E+02  0.33281663139E+03  0.34831688143E+03  0.10100000352E+00 0. -1.
       -3    1    3    3    0  502 -0.84497175231E+02  0.58463295626E+02 -0.13570348728E+04  0.13609193164E+04  0.10100000352E+00 0.  1.
</event>
<event>
 5   0  0.6097538E-04  0.1379295E+04  0.7818609E-02  0.8968944E-01
       -1   -1    0    0    0  501  0.00000000000E+00  0.00000000000E+00  0.56404051096E+03  0.56404051098E+03  0.50400001928E-02 0. -1.
        1   -1    0    0  501    0  0.00000000000E+00  0.00000000000E+00 -0.84322580916E+03  0.84322580918E+03  0.50400001928E-02 0.  1.
    10030    2    1    2    0    0  0.00000000000E+00  0.00000000000E+00 -0.27918529820E+03  0.14072663202E+04  0.13792947709E+04 0.  0.
        2    1    3    3  502    0  0.64492348038E+03  0.57307339211E+02  0.10271696793E+03  0.65556174551E+03  0.25500000920E-02 0. -1.
       -2    1    3    3    0  502 -0.64492348038E+03 -0.57307339211E+02 -0.38190226614E+03  0.75170457465E+03  0.25500000920E-02 0.  1.
</event>
<event>
 5   0  0.1098949E-03  0.1419507E+04  0.7818609E-02  0.8939818E-01
       -2   -1    0    0    0  501  0.00000000000E+00  0.00000000000E+00  0.53359693617E+03  0.53359693618E+03  0.25500000920E-02 0.  1.
        2   -1    0    0  501    0  0.00000000000E+00  0.00000000000E+00 -0.94406498396E+03  0.94406498396E+03  0.25500000920E-02 0. -1.
    10030    2    1    2    0    0  0.00000000000E+00  0.00000000000E+00 -0.41046804778E+03  0.14776619201E+04  0.14195072145E+04 0.  0.
        4    1    3    3  502    0  0.10830502967E+03  0.61878369328E+03  0.13864070861E+03  0.64330871089E+03  0.12699999809E+01 0.  1.
       -4    1    3    3    0  502 -0.10830502967E+03 -0.61878369328E+03 -0.54910875640E+03  0.83435320924E+03  0.12699999809E+01 0. -1.
</event>
<event>
 5   0  0.6194742E-04  0.1411773E+04  0.7818609E-02  0.8945340E-01
        1   -1    0    0  501    0  0.00000000000E+00  0.00000000000E+00  0.12688659553E+04  0.12688659553E+04  0.50400001928E-02 0. -1.
       -1   -1    0    0    0  501  0.00000000000E+00  0.00000000000E+00 -0.39269403308E+03  0.39269403311E+03  0.50400001928E-02 0.  1.
    10030    2    1    2    0    0  0.00000000000E+00  0.00000000000E+00  0.87617192219E+03  0.16615599884E+04  0.14117734796E+04 0.  0.
        4    1    3    3  502    0 -0.26337092249E+03  0.65454438926E+03  0.41225034911E+03  0.81715638868E+03  0.12699999809E+01 0. -1.
       -4    1    3    3    0  502  0.26337092249E+03 -0.65454438926E+03  0.46392157308E+03  0.84440359970E+03  0.12699999809E+01 0.  1.
</event>
<event>
 5   0  0.5875298E-04  0.1414881E+04  0.7818609E-02  0.8943117E-01
       -1   -1    0    0    0  501  0.00000000000E+00  0.00000000000E+00  0.33124259680E+03  0.33124259683E+03  0.50400001928E-02 0.  1.
        1   -1    0    0  501    0  0.00000000000E+00  0.00000000000E+00 -0.15108917934E+04  0.15108917934E+04  0.50400001928E-02 0. -1.
    10030    2    1    2    0    0  0.00000000000E+00  0.00000000000E+00 -0.11796491966E+04  0.18421343902E+04  0.14148805196E+04 0.  0.
        1    1    3    3  502    0  0.23223221684E+03 -0.39385187539E+03  0.11302383524E+03  0.47098353437E+03  0.50400001928E-02 0.  1.
       -1    1    3    3    0  502 -0.23223221684E+03  0.39385187539E+03 -0.12926730318E+04  0.13711508558E+04  0.50400001928E-02 0. -1.
</event>
<event>
 5   0  0.6153318E-04  0.1437811E+04  0.7818609E-02  0.8926894E-01
       -1   -1    0    0    0  501  0.00000000000E+00  0.00000000000E+00  0.61004387914E+03  0.61004387916E+03  0.50400001928E-02 0.  1.
        1   -1    0    0  501    0  0.00000000000E+00  0.00000000000E+00 -0.84719384183E+03  0.84719384184E+03  0.50400001928E-02 0. -1.
    10030    2    1    2    0    0  0.00000000000E+00  0.00000000000E+00 -0.23714996269E+03  0.14572377210E+04  0.14378114169E+04 0.  0.
        5    1    3    3  502    0  0.30690788448E+02  0.31382074447E+03 -0.77335169250E+03  0.83517681627E+03  0.46999998093E+01 0. -1.
       -5    1    3    3    0  502 -0.30690788448E+02 -0.31382074447E+03  0.53620172980E+03  0.62206090473E+03  0.46999998093E+01 0.  1.
</event>
<event>
 5   0  0.6114266E-04  0.1407441E+04  0.7818609E-02  0.8948450E-01
       -1   -1    0    0    0  501  0.00000000000E+00  0.00000000000E+00  0.50962041500E+03  0.50962041502E+03  0.50400001928E-02 0.  1.
        1   -1    0    0  501    0  0.00000000000E+00  0.00000000000E+00 -0.97174848500E+03  0.97174848501E+03  0.50400001928E-02 0. -1.
    10030    2    1    2    0    0  0.00000000000E+00  0.00000000000E+00 -0.46212807000E+03  0.14813689000E+04  0.14074414606E+04 0.  0.
        3    1    3    3  502    0  0.42049458020E+03 -0.55025746544E+03 -0.99502961049E+02  0.69964263714E+03  0.10100000352E+00 0. -1.
       -3    1    3    3    0  502 -0.42049458020E+03  0.55025746544E+03 -0.36262510895E+03  0.78172626289E+03  0.10100000352E+00 0.  1.
</event>
<event>
 5   0  0.1120053E-03  0.1391460E+04  0.7818609E-02  0.8960024E-01
       -2   -1    0    0    0  501  0.00000000000E+00  0.00000000000E+00  0.10130768602E+04  0.10130768602E+04  0.25500000920E-02 0. -1.
        2   -1    0    0  501    0  0.00000000000E+00  0.00000000000E+00 -0.47779210053E+03  0.47779210054E+03  0.25500000920E-02 0.  1.
    10030    2    1    2    0    0  0.00000000000E+00  0.00000000000E+00  0.53528475965E+03  0.14908689607E+04  0.13914598392E+04 0.  0.
        2    1    3    3  502    0  0.40965320938E+03 -0.33228259356E+03 -0.21843434522E+03  0.57091246012E+03  0.25500000920E-02 0.  1.
       -2    1    3    3    0  502 -0.40965320938E+03  0.33228259356E+03  0.75371910488E+03  0.91995650061E+03  0.25500000920E-02 0. -1.
</event>
<event>
 5   0  0.6194742E-04  0.1353410E+04  0.7818609E-02  0.8988251E-01
        1   -1    0    0  501    0  0.00000000000E+00  0.00000000000E+00  0.64483415081E+03  0.64483415083E+03  0.50400001928E-02 0. -1.
       -1   -1    0    0    0  501  0.00000000000E+00  0.00000000000E+00 -0.71015077053E+03  0.71015077055E+03  0.50400001928E-02 0.  1.
    10030    2    1    2    0    0  0.00000000000E+00  0.00000000000E+00 -0.65316619723E+02  0.13549849214E+04  0.13534097223E+04 0.  0.
        4    1    3    3  502    0  0.24031568899E+03  0.32735968838E+03 -0.57459402120E+03  0.70361630031E+03  0.12699999809E+01 0.  1.
       -4    1    3    3    0  502 -0.24031568899E+03 -0.32735968838E+03  0.50927740148E+03  0.65136862107E+03  0.12699999809E+01 0. -1.
</event>
<event>
 5   0  0.1095119E-03  0.1401143E+04  0.7818609E-02  0.8952992E-01
       -2   -1    0    0    0  501  0.00000000000E+00  0.00000000000E+00  0.10776549366E+04  0.10776549366E+04  0.25500000920E-02 0. -1.
        2   -1    0    0  501    0  0.00000000000E+00  0.00000000000E+00 -0.45543366879E+03  0.45543366880E+03  0.25500000920E-02 0.  1.
    10030    2    1    2    0    0  0.00000000000E+00  0.00000000000E+00  0.62222126783E+03  0.15330886054E+04  0.14011428785E+04 0.  0.
        5    1    3    3  502    0 -0.38781839171E+03  0.36852341077E+03 -0.18377082034E+03  0.56569109383E+03  0.46999998093E+01 0.  1.
       -5    1    3    3    0  502  0.38781839171E+03 -0.36852341077E+03  0.80599208816E+03  0.96739751158E+03  0.46999998093E+01 0. -1.
</event>
<event>
 5   0  0.1098949E-03  0.1347339E+04  0.7818609E-02  0.8992845E-01
       -2   -1    0    0    0  501  0.00000000000E+00  0.00000000000E+00  0.76040999993E+03  0.76040999993E+03  0.25500000920E-02 0. -1.
        2   -1    0    0  501    0  0.00000000000E+00  0.00000000000E+00 -0.59682396756E+03  0.59682396757E+03  0.25500000920E-02 0.  1.
    10030    2    1    2    0    0  0.00000000000E+00  0.00000000000E+00  0.16358603236E+03  0.13572339675E+04  0.13473394719E+04 0.  0.
        4    1    3    3  502    0  0.34858753276E+03  0.24324690972E+03 -0.44467971684E+03  0.61516175966E+03  0.12699999809E+01 0.  1.
       -4    1    3    3    0  502 -0.34858753276E+03 -0.24324690972E+03  0.60826574921E+03  0.74207220783E+03  0.12699999809E+01 0. -1.
</event>
<event>
 5   0  0.5875298E-04  0.1410196E+04  0.7818609E-02  0.8946471E-01
        1   -1    0    0  501    0  0.00000000000E+00  0.00000000000E+00  0.13248425042E+04  0.13248425043E+04  0.50400001928E-02 0. -1.
       -1   -1    0    0    0  501  0.00000000000E+00  0.00000000000E+00 -0.37526191678E+03  0.37526191682E+03  0.50400001928E-02 0.  1.
    10030    2    1    2    0    0  0.00000000000E+00  0.00000000000E+00  0.94958058746E+03  0.17001044211E+04  0.14101956426E+04 0.  0.
        1    1    3    3  502    0 -0.29962231121E+03  0.41633418490E+03 -0.10846061781E+03  0.52428178353E+03  0.50400001928E-02 0.  1.
       -1    1    3    3    0  502  0.29962231121E+03 -0.41633418490E+03  0.10580412053E+04  0.11758226376E+04  0.50400001928E-02 0. -1.
</event>
<event>
 5   0  0.1095119E-03  0.1397325E+04  0.7818609E-02  0.8955757E-01
        2   -1    0    0  501    0  0.00000000000E+00  0.00000000000E+00  0.10511222387E+04  0.10511222387E+04  0.25500000920E-02 0. -1.
       -2   -1    0    0    0  501  0.00000000000E+00  0.00000000000E+00 -0.46438852874E+03  0.46438852875E+03  0.25500000920E-02 0.  1.
    10030    2    1    2    0    0  0.00000000000E+00  0.00000000000E+00  0.58673370995E+03  0.15155107674E+04  0.13973247439E+04 0.  0.
        5    1    3    3  502    0  0.11834014649E+03  0.20214186984E+03  0.10072491298E+04  0.10341366570E+04  0.46999998093E+01 0. -1.
       -5    1    3    3    0  502 -0.11834014649E+03 -0.20214186984E+03 -0.42051541990E+03  0.48137411042E+03  0.46999998093E+01 0.  1.
</event>
<event>
 5   0  0.4176125E-04  0.1251606E+04  0.7818609E-02  0.9068847E-01
        3   -1    0    0  501    0  0.00000000000E+00  0.00000000000E+00  0.10486540255E+04  0.10486540303E+04  0.10100000352E+00 0.  1.
       -3   -1    0    0    0  501  0.00000000000E+00  0.00000000000E+00 -0.37345927154E+03  0.37345928520E+03  0.10100000352E+00 0. -1.
    10030    2    1    2    0    0  0.00000000000E+00  0.00000000000E+00  0.67519475391E+03  0.14221133155E+04  0.12516062985E+04 0.  0.
        5    1    3    3  502    0 -0.49489980785E+02 -0.35168742236E+02  0.10452796682E+04  0.10470519440E+04  0.46999998093E+01 0.  1.
       -5    1    3    3    0  502  0.49489980785E+02  0.35168742236E+02 -0.37008491430E+03  0.37506137154E+03  0.46999998093E+01 0. -1.
</event>
<event>
 5   0  0.1175146E-03  0.1489830E+04  0.7818609E-02  0.8891244E-01
       -2   -1    0    0    0  501  0.00000000000E+00  0.00000000000E+00  0.60158127641E+03  0.60158127642E+03  0.25500000920E-02 0.  1.
        2   -1    0    0  501    0  0.00000000000E+00  0.00000000000E+00 -0.92240026276E+03  0.92240026276E+03  0.25500000920E-02 0. -1.
    10030    2    1    2    0    0  0.00000000000E+00  0.00000000000E+00 -0.32081898635E+03  0.15239815392E+04  0.14898304970E+04 0.  0.
        1    1    3    3  502    0 -0.15836950465E+03  0.20773968399E+03  0.55319337545E+03  0.61176759229E+03  0.50400001928E-02 0.  1.
       -1    1    3    3    0  502  0.15836950465E+03 -0.20773968399E+03 -0.87401236179E+03  0.91221394689E+03  0.50400001928E-02 0. -1.
</event>
<event>
 5   0  0.1108819E-03  0.1391236E+04  0.7818609E-02  0.8960187E-01
       -2   -1    0    0    0  501  0.00000000000E+00  0.00000000000E+00  0.21850591261E+03  0.21850591263E+03  0.25500000920E-02 0.  1.
        2   -1    0    0  501    0  0.00000000000E+00  0.00000000000E+00 -0.22145142947E+04  0.22145142947E+04  0.25500000920E-02 0. -1.
    10030    2    1    2    0    0  0.00000000000E+00  0.00000000000E+00 -0.19960083821E+04  0.24330202073E+04  0.13912360935E+04 0.  0.
        3    1    3    3  502    0  0.40550409055E+03 -0.23035203145E+03 -0.95388486176E+02  0.47601953672E+03  0.10100000352E+00 0.  1.
       -3    1    3    3    0  502 -0.40550409055E+03  0.23035203145E+03 -0.19006198959E+04  0.19570006706E+04  0.10100000352E+00 0. -1.
</event>
<event>
 5   0  0.5875298E-04  0.1393211E+04  0.7818609E-02  0.8958748E-01
        1   -1    0    0  501    0  0.00000000000E+00  0.00000000000E+00  0.79530920939E+03  0.79530920941E+03  0.50400001928E-02 0. -1.
       -1   -1    0    0    0  501  0.00000000000E+00  0.00000000000E+00 -0.61015143795E+03  0.61015143797E+03  0.50400001928E-02 0.  1.
    10030    2    1    2    0    0  0.00000000000E+00  0.00000000000E+00  0.18515777144E+03  0.14054606474E+04  0.13932107633E+04 0.  0.
        1    1    3    3  502    0 -0.32731479186E+03 -0.13363838526E+03 -0.51291927011E+03  0.62296096881E+03  0.50400001928E-02 0.  1.
       -1    1    3    3    0  502  0.32731479186E+03  0.13363838526E+03  0.69807704155E+03  0.78249967856E+03  0.50400001928E-02 0. -1.
</event>
<event>
 5   0  0.6097538E-04  0.1393481E+04  0.7818609E-02  0.8958551E-01
       -1   -1    0    0    0  501  0.00000000000E+00  0.00000000000E+00  0.75930515998E+03  0.75930516000E+03  0.50400001928E-02 0.  1.
        1   -1    0    0  501    0  0.00000000000E+00  0.00000000000E+00 -0.63933057791E+03  0.63933057793E+03  0.50400001928E-02 0. -1.
    10030    2    1    2    0    0  0.00000000000E+00  0.00000000000E+00  0.11997458207E+03  0.13986357379E+04  0.13934805442E+04 0.  0.
        2    1    3    3  502    0 -0.33625445895E+03 -0.40460078929E+01 -0.55248621571E+03  0.64678006301E+03  0.25500000920E-02 0. -1.
       -2    1    3    3    0  502  0.33625445895E+03  0.40460078929E+01  0.67246079779E+03  0.75185567492E+03  0.25500000920E-02 0.  1.
</event>
<event>
 5   0  0.1175146E-03  0.1418495E+04  0.7818609E-02  0.8940538E-01
       -2   -1    0    0    0  501  0.00000000000E+00  0.00000000000E+00  0.49453593586E+03  0.49453593587E+03  0.25500000920E-02 0.  1.
        2   -1    0    0  501    0  0.00000000000E+00  0.00000000000E+00 -0.10171804878E+04  0.10171804878E+04  0.25500000920E-02 0. -1.
    10030    2    1    2    0    0  0.00000000000E+00  0.00000000000E+00 -0.52264455189E+03  0.15117164236E+04  0.14184954063E+04 0.  0.
        1    1    3    3  502    0  0.50364768009E+03 -0.46055961512E+03 -0.55618889780E+02  0.68474053894E+03  0.50400001928E-02 0.  1.
       -1    1    3    3    0  502 -0.50364768009E+03  0.46055961512E+03 -0.46702566211E+03  0.82697588468E+03  0.50400001928E-02 0. -1.
</event>
<event>
 5   0  0.1108819E-03  0.1395358E+04  0.7818609E-02  0.8957185E-01
        2   -1    0    0  501    0  0.00000000000E+00  0.00000000000E+00  0.89178374002E+03  0.89178374002E+03  0.25500000920E-02 0. -1.
       -2   -1    0    0    0  501  0.00000000000E+00  0.00000000000E+00 -0.54582311284E+03  0.54582311285E+03  0.25500000920E-02 0.  1.
    10030    2    1    2    0    0  0.00000000000E+00  0.00000000000E+00  0.34596062718E+03  0.14376068529E+04  0.13953582722E+04 0.  0.
        3    1    3    3  502    0  0.58070385556E+03  0.23889949614E+02 -0.22467022997E+03  0.62310867431E+03  0.10100000352E+00 0.  1.
       -3    1    3    3    0  502 -0.58070385556E+03 -0.23889949614E+02  0.57063085715E+03  0.81449817857E+03  0.10100000352E+00 0. -1.
</event>
<event>
 5   0  0.6153318E-04  0.1414701E+04  0.7818609E-02  0.8943245E-01
       -1   -1    0    0    0  501  0.00000000000E+00  0.00000000000E+00  0.80029911365E+03  0.80029911367E+03  0.50400001928E-02 0.  1.
        1   -1    0    0  501    0  0.00000000000E+00  0.00000000000E+00 -0.62519758263E+03  0.62519758265E+03  0.50400001928E-02 0. -1.
    10030    2    1    2    0    0  0.00000000000E+00  0.00000000000E+00  0.17510153103E+03  0.14254966963E+04  0.14147014827E+04 0.  0.
        5    1    3    3  502    0  0.55306924606E+01 -0.55213911646E+03  0.53300423242E+03  0.76746582611E+03  0.46999998093E+01 0.  1.
       -5    1    3    3    0  502 -0.55306924606E+01  0.55213911646E+03 -0.35790270139E+03  0.65803087020E+03  0.46999998093E+01 0. -1.
</event>
<event>
 5   0  0.1108819E-03  0.1394162E+04  0.7818609E-02  0.8958055E-01
       -2   -1    0    0    0  501  0.00000000000E+00  0.00000000000E+00  0.60444329796E+03  0.60444329796E+03  0.25500000920E-02 0. -1.
        2   -1    0    0  501    0  0.00000000000E+00  0.00000000000E+00 -0.80391609247E+03  0.80391609247E+03  0.25500000920E-02 0.  1.
    10030    2    1    2    0    0  0.00000000000E+00  0.00000000000E+00 -0.19947279451E+03  0.14083593904E+04  0.13941616753E+04 0.  0.
        3    1    3    3  502    0 -0.53144469228E+02 -0.46248972825E+03  0.42439281545E+03  0.62994472405E+03  0.10100000352E+00 0. -1.
       -3    1    3    3    0  502  0.53144469228E+02  0.46248972825E+03 -0.62386560996E+03  0.77841466639E+03  0.10100000352E+00 0.  1.
</event>
<event>
 5   0  0.6194742E-04  0.1404968E+04  0.7818609E-02  0.8950230E-01
        1   -1    0    0  501    0  0.00000000000E+00  0.00000000000E+00  0.87751425084E+03  0.87751425085E+03  0.50400001928E-02 0. -1.
       -1   -1    0    0    0  501  0.00000000000E+00  0.00000000000E+00 -0.56236583967E+03  0.56236583969E+03  0.50400001928E-02 0.  1.
    10030    2    1    2    0    0  0.00000000000E+00  0.00000000000E+00  0.31514841117E+03  0.14398800905E+04  0.14049683819E+04 0.  0.
        4    1    3    3  502    0 -0.45064182100E+03 -0.31552115146E+02 -0.39376093144E+03  0.59926861326E+03  0.12699999809E+01 0.  1.
       -4    1    3    3    0  502  0.45064182100E+03  0.31552115146E+02  0.70890934261E+03  0.84061147728E+03  0.12699999809E+01 0. -1.
</event>
<event>
 5   0  0.6194742E-04  0.1401036E+04  0.7818609E-02  0.8953069E-01
       -1   -1    0    0    0  501  0.00000000000E+00  0.00000000000E+00  0.37765603019E+03  0.37765603023E+03  0.50400001928E-02 0. -1.
        1   -1    0    0  501    0  0.00000000000E+00  0.00000000000E+00 -0.12993986224E+04  0.12993986224E+04  0.50400001928E-02 0.  1.
    10030    2    1    2    0    0  0.00000000000E+00  0.00000000000E+00 -0.92174259220E+03  0.16770546526E+04  0.14010363670E+04 0.  0.
        4    1    3    3  502    0 -0.56945469659E+01  0.93724472054E+02 -0.12918303201E+04  0.12952389330E+04  0.12699999809E+01 0.  1.
       -4    1    3    3    0  502  0.56945469659E+01 -0.93724472054E+02  0.37008772793E+03  0.38181571968E+03  0.12699999809E+01 0. -1.
</event>
<event>
 5   0  0.1108819E-03  0.1384913E+04  0.7818609E-02  0.8964812E-01
        2   -1    0    0  501    0  0.00000000000E+00  0.00000000000E+00  0.66123678175E+03  0.66123678175E+03  0.25500000920E-02 0. -1.
       -2   -1    0    0    0  501  0.00000000000E+00  0.00000000000E+00 -0.72515025359E+03  0.72515025359E+03  0.25500000920E-02 0.  1.
    10030    2    1    2    0    0  0.00000000000E+00  0.00000000000E+00 -0.63913471838E+02  0.13863870353E+04  0.13849130225E+04 0.  0.
        3    1    3    3  502    0  0.45683346344E+02  0.62869853931E+03  0.25496162494E+03  0.67996636818E+03  0.10100000352E+00 0. -1.
       -3    1    3    3    0  502 -0.45683346344E+02 -0.62869853931E+03 -0.31887509677E+03  0.70642066717E+03  0.10100000352E+00 0.  1.
</event>
<event>
 5   0  0.6114266E-04  0.1382137E+04  0.7818609E-02  0.8966851E-01
       -1   -1    0    0    0  501  0.00000000000E+00  0.00000000000E+00  0.11904123592E+04  0.11904123592E+04  0.50400001928E-02 0. -1.
        1   -1    0    0  501    0  0.00000000000E+00  0.00000000000E+00 -0.40118536377E+03  0.40118536380E+03  0.50400001928E-02 0.  1.
    10030    2    1    2    0    0  0.00000000000E+00  0.00000000000E+00  0.78922699542E+03  0.15915977230E+04  0.13821374973E+04 0.  0.
        3    1    3    3  502    0  0.13547522466E+03  0.62735282351E+03  0.68966811372E+03  0.94210785951E+03  0.10100000352E+00 0. -1.
       -3    1    3    3    0  502 -0.13547522466E+03 -0.62735282351E+03  0.99558881695E+02  0.64948986350E+03  0.10100000352E+00 0.  1.
</event>
<event>
 5   0  0.5875298E-04  0.1392133E+04  0.7818609E-02  0.8959533E-01
       -1   -1    0    0    0  501  0.00000000000E+00  0.00000000000E+00  0.92863904578E+03  0.92863904579E+03  0.50400001928E-02 0.  1.
        1   -1    0    0  501    0  0.00000000000E+00  0.00000000000E+00 -0.52174063171E+03  0.52174063174E+03  0.50400001928E-02 0. -1.
    10030    2    1    2    0    0  0.00000000000E+00  0.00000000000E+00  0.40689841407E+03  0.14503796775E+04  0.13921332155E+04 0.  0.
        1    1    3    3  502    0  0.31268760963E+02 -0.47892013168E+03 -0.32179353485E+03  0.57783501714E+03  0.50400001928E-02 0. -1.
       -1    1    3    3    0  502 -0.31268760963E+02  0.47892013168E+03  0.72869194891E+03  0.87254466039E+03  0.50400001928E-02 0.  1.
</event>
<event>
 5   0  0.6194742E-04  0.1391931E+04  0.7818609E-02  0.8959680E-01
        1   -1    0    0  501    0  0.00000000000E+00  0.00000000000E+00  0.91067752865E+03  0.91067752866E+03  0.50400001928E-02 0. -1.
       -1   -1    0    0    0  501  0.00000000000E+00  0.00000000000E+00 -0.53187614277E+03  0.53187614280E+03  0.50400001928E-02 0.  1.
    10030    2    1    2    0    0  0.00000000000E+00  0.00000000000E+00  0.37880138587E+03  0.14425536715E+04  0.13919305317E+04 0.  0.
        4    1    3    3  502    0  0.10970580306E+03 -0.62149043536E+02  0.89874071502E+03  0.90754303070E+03  0.12699999809E+01 0. -1.
       -4    1    3    3    0  502 -0.10970580306E+03  0.62149043536E+02 -0.51993932914E+03  0.53501064076E+03  0.12699999809E+01 0.  1.
</event>
<event>
 5   0  0.1120053E-03  0.1409885E+04  0.7818609E-02  0.8946694E-01
        2   -1    0    0  501    0  0.00000000000E+00  0.00000000000E+00  0.11219008633E+04  0.11219008633E+04  0.25500000920E-02 0.  1.
       -2   -1    0    0    0  501  0.00000000000E+00  0.00000000000E+00 -0.44294794093E+03  0.44294794093E+03  0.25500000920E-02 0. -1.
    10030    2    1    2    0    0  0.00000000000E+00  0.00000000000E+00  0.67895292233E+03  0.15648488042E+04  0.14098846439E+04 0.  0.
        2    1    3    3  502    0  0.12969389743E+03  0.27805984969E+03  0.10439046203E+04  0.10880600366E+04  0.25500000920E-02 0.  1.
       -2    1    3    3    0  502 -0.12969389743E+03 -0.27805984969E+03 -0.36495169795E+03  0.47678876757E+03  0.25500000920E-02 0. -1.
</event>
<event>
 5   0  0.1120053E-03  0.1400837E+04  0.7818609E-02  0.8953213E-01
       -2   -1    0    0    0  501  0.00000000000E+00  0.00000000000E+00  0.47055560655E+03  0.47055560656E+03  0.25500000920E-02 0. -1.
        2   -1    0    0  501    0  0.00000000000E+00  0.00000000000E+00 -0.10425673721E+04  0.10425673721E+04  0.25500000920E-02 0.  1.
    10030    2    1    2    0    0  0.00000000000E+00  0.00000000000E+00 -0.57201176553E+03  0.15131229786E+04  0.14008367816E+04 0.  0.
        2    1    3    3  502    0  0.51232886280E+03 -0.39345467240E+03  0.64323645302E+01  0.64600992114E+03  0.25500000920E-02 0. -1.
       -2    1    3    3    0  502 -0.51232886280E+03  0.39345467240E+03 -0.57844413006E+03  0.86711305751E+03  0.25500000920E-02 0.  1.
</event>
<event>
 5   0  0.1120053E-03  0.1390700E+04  0.7818609E-02  0.8960578E-01
       -2   -1    0    0    0  501  0.00000000000E+00  0.00000000000E+00  0.15570738501E+04  0.15570738501E+04  0.25500000920E-02 0.  1.
        2   -1    0    0  501    0  0.00000000000E+00  0.00000000000E+00 -0.31052595604E+03  0.31052595605E+03  0.25500000920E-02 0. -1.
    10030    2    1    2    0    0  0.00000000000E+00  0.00000000000E+00  0.12465478940E+04  0.18675998061E+04  0.13907003213E+04 0.  0.
        2    1    3    3  502    0 -0.39171764149E+03 -0.19264744601E+03  0.13501352287E+04  0.14189506280E+04  0.25500000920E-02 0.  1.
       -2    1    3    3    0  502  0.39171764149E+03  0.19264744601E+03 -0.10358733463E+03  0.44864917810E+03  0.25500000920E-02 0. -1.
</event>
<event>
 5   0  0.6097538E-04  0.1403103E+04  0.7818609E-02  0.8951575E-01
        1   -1    0    0  501    0  0.00000000000E+00  0.00000000000E+00  0.73962328043E+03  0.73962328045E+03  0.50400001928E-02 0. -1.
       -1   -1    0    0    0  501  0.00000000000E+00  0.00000000000E+00 -0.66543954747E+03  0.66543954749E+03  0.50400001928E-02 0.  1.
    10030    2    1    2    0    0  0.00000000000E+00  0.00000000000E+00  0.74183732965E+02  0.14050628279E+04  0.14031031053E+04 0.  0.
        2    1    3    3  502    0  0.62861173070E+03 -0.17954938060E+03  0.29197416772E+03  0.71598854926E+03  0.25500000920E-02 0. -1.
       -2    1    3    3    0  502 -0.62861173070E+03  0.17954938060E+03 -0.21779043475E+03  0.68907427867E+03  0.25500000920E-02 0.  1.
</event>
<event>
 5   0  0.6194742E-04  0.1404323E+04  0.7818609E-02  0.8950696E-01
        1   -1    0    0  501    0  0.00000000000E+00  0.00000000000E+00  0.55549045492E+03  0.55549045494E+03  0.50400001928E-02 0. -1.
       -1   -1    0    0    0  501  0.00000000000E+00  0.00000000000E+00 -0.88755888702E+03  0.88755888704E+03  0.50400001928E-02 0.  1.
    10030    2    1    2    0    0  0.00000000000E+00  0.00000000000E+00 -0.33206843210E+03  0.14430493420E+04  0.14043225982E+04 0.  0.
        4    1    3    3  502    0 -0.55078065271E+02  0.37050777506E+03 -0.77631387038E+03  0.86195965271E+03  0.12699999809E+01 0.  1.
       -4    1    3    3    0  502  0.55078065271E+02 -0.37050777506E+03  0.44424543828E+03  0.58108968928E+03  0.12699999809E+01 0. -1.
</event>
<event>
 5   0  0.6114266E-04  0.1420776E+04  0.7818609E-02  0.8938916E-01
       -1   -1    0    0    0  501  0.00000000000E+00  0.00000000000E+00  0.47235018614E+03  0.47235018617E+03  0.50400001928E-02 0. -1.
        1   -1    0    0  501    0  0.00000000000E+00  0.00000000000E+00 -0.10683831251E+04  0.10683831251E+04  0.50400001928E-02 0.  1.
    10030    2    1    2    0    0  0.00000000000E+00  0.00000000000E+00 -0.59603293896E+03  0.15407333113E+04  0.14207757994E+04 0.  0.
        3    1    3    3  502    0  0.70560102758E+02  0.99679051119E+02 -0.10569138897E+04  0.10639462495E+04  0.10100000352E+00 0.  1.
       -3    1    3    3    0  502 -0.70560102758E+02 -0.99679051119E+02  0.46088095075E+03  0.47678706180E+03  0.10100000352E+00 0. -1.
</event>
<event>
 5   0  0.1095119E-03  0.1408263E+04  0.7818609E-02  0.8947859E-01
       -2   -1    0    0    0  501  0.00000000000E+00  0.00000000000E+00  0.97580119385E+03  0.97580119386E+03  0.25500000920E-02 0.  1.
        2   -1    0    0  501    0  0.00000000000E+00  0.00000000000E+00 -0.50809613845E+03  0.50809613846E+03  0.25500000920E-02 0. -1.
    10030    2    1    2    0    0  0.00000000000E+00  0.00000000000E+00  0.46770505540E+03  0.14838973323E+04  0.14082625018E+04 0.  0.
        5    1    3    3  502    0 -0.62638062580E+03  0.21235634479E+02 -0.10427951217E+03  0.63537386412E+03  0.46999998093E+01 0. -1.
       -5    1    3    3    0  502  0.62638062580E+03 -0.21235634479E+02  0.57198456757E+03  0.84852346820E+03  0.46999998093E+01 0.  1.
</event>
<event>
 5   0  0.6194742E-04  0.1394254E+04  0.7818609E-02  0.8957988E-01
       -1   -1    0    0    0  501  0.00000000000E+00  0.00000000000E+00  0.82261224921E+03  0.82261224923E+03  0.50400001928E-02 0.  1.
        1   -1    0    0  501    0  0.00000000000E+00  0.00000000000E+00 -0.59078405805E+03  0.59078405807E+03  0.50400001928E-02 0. -1.
    10030    2    1    2    0    0  0.00000000000E+00  0.00000000000E+00  0.23182819117E+03  0.14133963073E+04  0.13942542133E+04 0.  0.
        4    1    3    3  502    0  0.67194684166E+03  0.41899911696E+00  0.30412913473E+03  0.73756957439E+03  0.12699999809E+01 0.  1.
       -4    1    3    3    0  502 -0.67194684166E+03 -0.41899911696E+00 -0.72300943563E+02  0.67582673291E+03  0.12699999809E+01 0. -1.
</event>
<event>
 5   0  0.1095119E-03  0.1384461E+04  0.7818609E-02  0.8965144E-01
       -2   -1    0    0    0  501  0.00000000000E+00  0.00000000000E+00  0.21747473399E+03  0.21747473400E+03  0.25500000920E-02 0.  1.
        2   -1    0    0  501    0  0.00000000000E+00  0.00000000000E+00 -0.22033959092E+04  0.22033959092E+04  0.25500000920E-02 0. -1.
    10030    2    1    2    0    0  0.00000000000E+00  0.00000000000E+00 -0.19859211752E+04  0.24208706432E+04  0.13844608181E+04 0.  0.
        5    1    3    3  502    0 -0.13150111432E+03 -0.23490935931E+03  0.12215650303E+03  0.29566746758E+03  0.46999998093E+01 0.  1.
       -5    1    3    3    0  502  0.13150111432E+03  0.23490935931E+03 -0.21080776782E+04  0.21252031756E+04  0.46999998093E+01 0. -1.
</event>
<event>
 5   0  0.6194742E-04  0.1388644E+04  0.7818609E-02  0.8962080E-01
        1   -1    0    0  501    0  0.00000000000E+00  0.00000000000E+00  0.14533721962E+04  0.14533721962E+04  0.50400001928E-02 0.  1.
       -1   -1    0    0    0  501  0.00000000000E+00  0.00000000000E+00 -0.33169946261E+03  0.33169946265E+03  0.50400001928E-02 0. -1.
    10030    2    1    2    0    0  0.00000000000E+00  0.00000000000E+00  0.11216727336E+04  0.17850716588E+04  0.13886436209E+04 0.  0.
        4    1    3    3  502    0 -0.63745156617E+02  0.27620638561E+03  0.13755983717E+04  0.14045020134E+04  0.12699999809E+01 0.  1.
       -4    1    3    3    0  502  0.63745156617E+02 -0.27620638561E+03 -0.25392563813E+03  0.38056964546E+03  0.12699999809E+01 0. -1.
</event>
<event>
 5   0  0.6153318E-04  0.1430021E+04  0.7818609E-02  0.8932370E-01
       -1   -1    0    0    0  501  0.00000000000E+00  0.00000000000E+00  0.27637272119E+03  0.27637272124E+03  0.50400001928E-02 0. -1.
        1   -1    0    0  501    0  0.00000000000E+00  0.00000000000E+00 -0.18498220478E+04  0.18498220478E+04  0.50400001928E-02 0.  1.
    10030    2    1    2    0    0  0.00000000000E+00  0.00000000000E+00 -0.15734493266E+04  0.21261947690E+04  0.14300214727E+04 0.  0.
        5    1    3    3  502    0 -0.29223885162E+03 -0.57336087482E+03 -0.32348308886E+03  0.72028441462E+03  0.46999998093E+01 0.  1.
       -5    1    3    3    0  502  0.29223885162E+03  0.57336087482E+03 -0.12499662377E+04  0.14059103544E+04  0.46999998093E+01 0. -1.
</event>
<event>
 5   0  0.6114266E-04  0.1387225E+04  0.7818609E-02  0.8963118E-01
       -1   -1    0    0    0  501  0.00000000000E+00  0.00000000000E+00  0.77409746211E+03  0.77409746212E+03  0.50400001928E-02 0.  1.
        1   -1    0    0  501    0  0.00000000000E+00  0.00000000000E+00 -0.62149613926E+03  0.62149613928E+03  0.50400001928E-02 0. -1.
    10030    2    1    2    0    0  0.00000000000E+00  0.00000000000E+00  0.15260132284E+03  0.13955936014E+04  0.13872254094E+04 0.  0.
        3    1    3    3  502    0 -0.13496084604E+03  0.62957620293E+03  0.33576720015E+03  0.72616819550E+03  0.10100000352E+00 0.  1.
       -3    1    3    3    0  502  0.13496084604E+03 -0.62957620293E+03 -0.18316587731E+03  0.66942540591E+03  0.10100000352E+00 0. -1.
</event>
<event>
 5   0  0.5875298E-04  0.1398323E+04  0.7818609E-02  0.8955034E-01
       -1   -1    0    0    0  501  0.00000000000E+00  0.00000000000E+00  0.11086667848E+04  0.11086667848E+04  0.50400001928E-02 0. -1.
        1   -1    0    0  501    0  0.00000000000E+00  0.00000000000E+00 -0.44091388559E+03  0.44091388562E+03  0.50400001928E-02 0.  1.
    10030    2    1    2    0    0  0.00000000000E+00  0.00000000000E+00  0.66775289921E+03  0.15495806704E+04  0.13983226808E+04 0.  0.
        1    1    3    3  502    0 -0.57245487168E+03 -0.22953510302E+03 -0.31039465283E+02  0.61753898019E+03  0.50400001928E-02 0.  1.
       -1    1    3    3    0  502  0.57245487168E+03  0.22953510302E+03  0.69879236449E+03  0.93204169023E+03  0.50400001928E-02 0. -1.
</event>
<event>
 5   0  0.1098949E-03  0.1394444E+04  0.7818609E-02  0.8957850E-01
        2   -1    0    0  501    0  0.00000000000E+00  0.00000000000E+00  0.10169109933E+04  0.10169109933E+04  0.25500000920E-02 0. -1.
       -2   -1    0    0    0  501  0.00000000000E+00  0.00000000000E+00 -0.47803446094E+03  0.47803446095E+03  0.25500000920E-02 0.  1.
    10030    2    1    2    0    0  0.00000000000E+00  0.00000000000E+00  0.53887653232E+03  0.14949454542E+04  0.13944439730E+04 0.  0.
        4    1    3    3  502    0 -0.68934186928E+03  0.10303855148E+03  0.28824481168E+03  0.75425184136E+03  0.12699999809E+01 0.  1.
       -4    1    3    3    0  502  0.68934186928E+03 -0.10303855148E+03  0.25063172063E+03  0.74069361285E+03  0.12699999809E+01 0. -1.
</event>
<event>
 5   0  0.1120053E-03  0.1409011E+04  0.7818609E-02  0.8947322E-01
        2   -1    0    0  501    0  0.00000000000E+00  0.00000000000E+00  0.16974649983E+04  0.16974649983E+04  0.25500000920E-02 0. -1.
       -2   -1    0    0    0  501  0.00000000000E+00  0.00000000000E+00 -0.29239361164E+03  0.29239361165E+03  0.25500000920E-02 0.  1.
    10030    2    1    2    0    0  0.00000000000E+00  0.00000000000E+00  0.14050713867E+04  0.19898586100E+04  0.14090108893E+04 0.  0.
        2    1    3    3  502    0  0.20990718887E+03  0.54743839027E+03  0.12541734375E+04  0.13844496489E+04  0.25500000920E-02 0. -1.
       -2    1    3    3    0  502 -0.20990718887E+03 -0.54743839027E+03  0.15089794923E+03  0.60540896109E+03  0.25500000920E-02 0.  1.
</event>
<event>
 5   0  0.6114266E-04  0.1403165E+04  0.7818609E-02  0.8951531E-01
       -1   -1    0    0    0  501  0.00000000000E+00  0.00000000000E+00  0.19967739822E+03  0.19967739828E+03  0.50400001928E-02 0. -1.
        1   -1    0    0  501    0  0.00000000000E+00  0.00000000000E+00 -0.24650670585E+04  0.24650670585E+04  0.50400001928E-02 0.  1.
    10030    2    1    2    0    0  0.00000000000E+00  0.00000000000E+00 -0.22653896603E+04  0.26647444568E+04  0.14031652458E+04 0.  0.
        3    1    3    3  502    0 -0.34841643606E+03 -0.56678474643E+02 -0.22841350974E+04  0.23112506605E+04  0.10100000352E+00 0.  1.
       -3    1    3    3    0  502  0.34841643606E+03  0.56678474643E+02  0.18745437094E+02  0.35349379629E+03  0.10100000352E+00 0. -1.
</event>
<event>
 5   0  0.1108819E-03  0.1415537E+04  0.7818609E-02  0.8942648E-01
       -2   -1    0    0    0  501  0.00000000000E+00  0.00000000000E+00  0.57969316204E+03  0.57969316205E+03  0.25500000920E-02 0. -1.
        2   -1    0    0  501    0  0.00000000000E+00  0.00000000000E+00 -0.86413992269E+03  0.86413992270E+03  0.25500000920E-02 0.  1.
    10030    2    1    2    0    0  0.00000000000E+00  0.00000000000E+00 -0.28444676065E+03  0.14438330847E+04  0.14155366533E+04 0.  0.
        3    1    3    3  502    0  0.24133670633E+03  0.33914429399E+03  0.44164732575E+03  0.60688930499E+03  0.10100000352E+00 0. -1.
       -3    1    3    3    0  502 -0.24133670633E+03 -0.33914429399E+03 -0.72609408640E+03  0.83694377976E+03  0.10100000352E+00 0.  1.
</event>
<event>
 5   0  0.5875298E-04  0.1254424E+04  0.7818609E-02  0.9066509E-01
        1   -1    0    0  501    0  0.00000000000E+00  0.00000000000E+00  0.39863335471E+03  0.39863335474E+03  0.50400001928E-02 0.  1.
       -1   -1    0    0    0  501  0.00000000000E+00  0.00000000000E+00 -0.98685965112E+03  0.98685965113E+03  0.50400001928E-02 0. -1.
    10030    2    1    2    0    0  0.00000000000E+00  0.00000000000E+00 -0.58822629641E+03  0.13854930059E+04  0.12544244471E+04 0.  0.
        1    1    3    3  502    0 -0.87044075662E+02 -0.47604684986E+02 -0.97813838015E+03  0.98315693961E+03  0.50400001928E-02 0. -1.
       -1    1    3    3    0  502  0.87044075662E+02  0.47604684986E+02  0.38991208375E+03  0.40233606626E+03  0.50400001928E-02 0.  1.
</event>
<event>
 5   0  0.6194742E-04  0.1414362E+04  0.7818609E-02  0.8943488E-01
        1   -1    0    0  501    0  0.00000000000E+00  0.00000000000E+00  0.89808472955E+03  0.89808472956E+03  0.50400001928E-02 0.  1.
       -1   -1    0    0    0  501  0.00000000000E+00  0.00000000000E+00 -0.55685738433E+03  0.55685738435E+03  0.50400001928E-02 0. -1.
    10030    2    1    2    0    0  0.00000000000E+00  0.00000000000E+00  0.34122734522E+03  0.14549421139E+04  0.14143622074E+04 0.  0.
        4    1    3    3  502    0 -0.58261683896E+03  0.39408740939E+03  0.24589977470E+03  0.74512789464E+03  0.12699999809E+01 0.  1.
       -4    1    3    3    0  502  0.58261683896E+03 -0.39408740939E+03  0.95327570519E+02  0.70981421927E+03  0.12699999809E+01 0. -1.
</event>
<event>
 5   0  0.6153318E-04  0.1392833E+04  0.7818609E-02  0.8959023E-01
        1   -1    0    0  501    0  0.00000000000E+00  0.00000000000E+00  0.10087237616E+04  0.10087237616E+04  0.50400001928E-02 0.  1.
       -1   -1    0    0    0  501  0.00000000000E+00  0.00000000000E+00 -0.48080143409E+03  0.48080143411E+03  0.50400001928E-02 0. -1.
    10030    2    1    2    0    0  0.00000000000E+00  0.00000000000E+00  0.52792232749E+03  0.14895251957E+04  0.13928328416E+04 0.  0.
        5    1    3    3  502    0 -0.30431689830E+02 -0.69019228469E+03  0.17022796075E+03  0.71154137351E+03  0.46999998093E+01 0. -1.
       -5    1    3    3    0  502  0.30431689830E+02  0.69019228469E+03  0.35769436674E+03  0.77798382219E+03  0.46999998093E+01 0.  1.
</event>
<event>
 5   0  0.1108819E-03  0.1395831E+04  0.7818609E-02  0.8956842E-01
       -2   -1    0    0    0  501  0.00000000000E+00  0.00000000000E+00  0.83480438028E+03  0.83480438028E+03  0.25500000920E-02 0. -1.
        2   -1    0    0  501    0  0.00000000000E+00  0.00000000000E+00 -0.58347350965E+03  0.58347350966E+03  0.25500000920E-02 0.  1.
    10030    2    1    2    0    0  0.00000000000E+00  0.00000000000E+00  0.25133087063E+03  0.14182778899E+04  0.13958312816E+04 0.  0.
        3    1    3    3  502    0  0.17546201552E+03  0.40987436143E+03  0.67123793943E+03  0.80581901974E+03  0.10100000352E+00 0. -1.
       -3    1    3    3    0  502 -0.17546201552E+03 -0.40987436143E+03 -0.41990706881E+03  0.61245887019E+03  0.10100000352E+00 0.  1.
</event>
<event>
 5   0  0.5875298E-04  0.1373280E+04  0.7818609E-02  0.8973390E-01
       -1   -1    0    0    0  501  0.00000000000E+00  0.00000000000E+00  0.41842793891E+03  0.41842793894E+03  0.50400001928E-02 0.  1.
        1   -1    0    0  501    0  0.00000000000E+00  0.00000000000E+00 -0.11267760718E+04  0.11267760718E+04  0.50400001928E-02 0. -1.
    10030    2    1    2    0    0  0.00000000000E+00  0.00000000000E+00 -0.70834813290E+03  0.15452040108E+04  0.13732801453E+04 0.  0.
        1    1    3    3  502    0  0.48746590404E+03  0.45271802981E+03 -0.16289813182E+03  0.68491782244E+03  0.50400001928E-02 0.  1.
       -1    1    3    3    0  502 -0.48746590404E+03 -0.45271802981E+03 -0.54545000108E+03  0.86028618833E+03  0.50400001928E-02 0. -1.
</event>
<event>
 5   0  0.1175146E-03  0.1150258E+04  0.7818609E-02  0.9157546E-01
       -2   -1    0    0    0  501  0.00000000000E+00  0.00000000000E+00  0.29428028546E+03  0.29428028547E+03  0.25500000920E-02 0. -1.
        2   -1    0    0  501    0  0.00000000000E+00  0.00000000000E+00 -0.11240075151E+04  0.11240075151E+04  0.25500000920E-02 0.  1.
    10030    2    1    2    0    0  0.00000000000E+00  0.00000000000E+00 -0.82972722960E+03  0.14182878005E+04  0.11502578014E+04 0.  0.
        1    1    3    3  502    0 -0.14906560796E+03 -0.12177024080E+03  0.25338707891E+03  0.31820364360E+03  0.50400001928E-02 0. -1.
       -1    1    3    3    0  502  0.14906560796E+03  0.12177024080E+03 -0.10831143085E+04  0.11000841569E+04  0.50400001928E-02 0.  1.
</event>
<event>
 5   0  0.6194742E-04  0.1381002E+04  0.7818609E-02  0.8967686E-01
       -1   -1    0    0    0  501  0.00000000000E+00  0.00000000000E+00  0.58976629919E+03  0.58976629921E+03  0.50400001928E-02 0.  1.
        1   -1    0    0  501    0  0.00000000000E+00  0.00000000000E+00 -0.80844163309E+03  0.80844163311E+03  0.50400001928E-02 0. -1.
    10030    2    1    2    0    0  0.00000000000E+00  0.00000000000E+00 -0.21867533391E+03  0.13982079323E+04  0.13810019987E+04 0.  0.
        4    1    3    3  502    0  0.68321005102E+02 -0.32662954569E+03  0.50270649634E+03  0.60338217923E+03  0.12699999809E+01 0.  1.
       -4    1    3    3    0  502 -0.68321005102E+02  0.32662954569E+03 -0.72138183024E+03  0.79482575308E+03  0.12699999809E+01 0. -1.
</event>
<event>
 5   0  0.6153318E-04  0.1398748E+04  0.7818609E-02  0.8954725E-01
        1   -1    0    0  501    0  0.00000000000E+00  0.00000000000E+00  0.10323299867E+04  0.10323299867E+04  0.50400001928E-02 0.  1.
       -1   -1    0    0    0  501  0.00000000000E+00  0.00000000000E+00 -0.47380618997E+03  0.47380619000E+03  0.50400001928E-02 0. -1.
    10030    2    1    2    0    0  0.00000000000E+00  0.00000000000E+00  0.55852379676E+03  0.15061361767E+04  0.13987484947E+04 0.  0.
        5    1    3    3  502    0 -0.47540113916E+03 -0.43576006240E+02 -0.27104988704E+03  0.54899475653E+03  0.46999998093E+01 0. -1.
       -5    1    3    3    0  502  0.47540113916E+03  0.43576006240E+02  0.82957368381E+03  0.95714142022E+03  0.46999998093E+01 0.  1.
</event>
<event>
 5   0  0.6097538E-04  0.1402153E+04  0.7818609E-02  0.8952261E-01
       -1   -1    0    0    0  501  0.00000000000E+00  0.00000000000E+00  0.52891271746E+03  0.52891271749E+03  0.50400001928E-02 0. -1.
        1   -1    0    0  501    0  0.00000000000E+00  0.00000000000E+00 -0.92928099024E+03  0.92928099025E+03  0.50400001928E-02 0.  1.
    10030    2    1    2    0    0  0.00000000000E+00  0.00000000000E+00 -0.40036827277E+03  0.14581937077E+04  0.14021533923E+04 0.  0.
        2    1    3    3  502    0 -0.15513133614E+03  0.12850377724E+03  0.49816734085E+03  0.53735430743E+03  0.25500000920E-02 0. -1.
       -2    1    3    3    0  502  0.15513133614E+03 -0.12850377724E+03 -0.89853561362E+03  0.92083940031E+03  0.25500000920E-02 0.  1.
</event>
<event>
 5   0  0.6194742E-04  0.1373702E+04  0.7818609E-02  0.8973077E-01
       -1   -1    0    0    0  501  0.00000000000E+00  0.00000000000E+00  0.30187792813E+03  0.30187792817E+03  0.50400001928E-02 0.  1.
        1   -1    0    0  501    0  0.00000000000E+00  0.00000000000E+00 -0.15627655692E+04  0.15627655692E+04  0.50400001928E-02 0. -1.
    10030    2    1    2    0    0  0.00000000000E+00  0.00000000000E+00 -0.12608876410E+04  0.18646434973E+04  0.13737021980E+04 0.  0.
        4    1    3    3  502    0  0.16708796688E+03 -0.66597278203E+03 -0.60598509537E+03  0.91578255268E+03  0.12699999809E+01 0.  1.
       -4    1    3    3    0  502 -0.16708796688E+03  0.66597278203E+03 -0.65490254565E+03  0.94886094465E+03  0.12699999809E+01 0. -1.
</event>
<event>
 5   0  0.6153318E-04  0.1400831E+04  0.7818609E-02  0.8953217E-01
       -1   -1    0    0    0  501  0.00000000000E+00  0.00000000000E+00  0.41772546300E+03  0.41772546303E+03  0.50400001928E-02 0.  1.
        1   -1    0    0  501    0  0.00000000000E+00  0.00000000000E+00 -0.11744129294E+04  0.11744129295E+04  0.50400001928E-02 0. -1.
    10030    2    1    2    0    0  0.00000000000E+00  0.00000000000E+00 -0.75668746644E+03  0.15921383925E+04  0.14008314456E+04 0.  0.
        5    1    3    3  502    0 -0.38178698398E+03  0.17714439459E+03 -0.10146370410E+04  0.10984770605E+04  0.46999998093E+01 0. -1.
       -5    1    3    3    0  502  0.38178698398E+03 -0.17714439459E+03  0.25794957451E+03  0.49366133195E+03  0.46999998093E+01 0.  1.
</event>
<event>
 5   0  0.1120053E-03  0.1368961E+04  0.7818609E-02  0.8976598E-01
       -2   -1    0    0    0  501  0.00000000000E+00  0.00000000000E+00  0.37107188687E+03  0.37107188688E+03  0.25500000920E-02 0.  1.
        2   -1    0    0  501    0  0.00000000000E+00  0.00000000000E+00 -0.12625953242E+04  0.12625953242E+04  0.25500000920E-02 0. -1.
    10030    2    1    2    0    0  0.00000000000E+00  0.00000000000E+00 -0.89152343732E+03  0.16336672111E+04  0.13689611087E+04 0.  0.
        2    1    3    3  502    0  0.27030873970E+03  0.59959106371E+03 -0.67198934197E+03  0.94029034568E+03  0.25500000920E-02 0. -1.
       -2    1    3    3    0  502 -0.27030873970E+03 -0.59959106371E+03 -0.21953409535E+03  0.69337686540E+03  0.25500000920E-02 0.  1.
</event>
<event>
 5   0  0.5875298E-04  0.1370058E+04  0.7818609E-02  0.8975782E-01
       -1   -1    0    0    0  501  0.00000000000E+00  0.00000000000E+00  0.83219691292E+03  0.83219691293E+03  0.50400001928E-02 0.  1.
        1   -1    0    0  501    0  0.00000000000E+00  0.00000000000E+00 -0.56388644571E+03  0.56388644573E+03  0.50400001928E-02 0. -1.
    10030    2    1    2    0    0  0.00000000000E+00  0.00000000000E+00  0.26831046721E+03  0.13960833587E+04  0.13700577497E+04 0.  0.
        1    1    3    3  502    0  0.35483894225E+03 -0.57739078540E+03  0.23592108025E+03  0.71759985377E+03  0.50400001928E-02 0.  1.
       -1    1    3    3    0  502 -0.35483894225E+03  0.57739078540E+03  0.32389386958E+02  0.67848350490E+03  0.50400001928E-02 0. -1.
</event>
<event>
 5   0  0.5875298E-04  0.1406398E+04  0.7818609E-02  0.8949200E-01
        1   -1    0    0  501    0  0.00000000000E+00  0.00000000000E+00  0.12523487240E+04  0.12523487241E+04  0.50400001928E-02 0. -1.
       -1   -1    0    0    0  501  0.00000000000E+00  0.00000000000E+00 -0.39484941019E+03  0.39484941022E+03  0.50400001928E-02 0.  1.
    10030    2    1    2    0    0  0.00000000000E+00  0.00000000000E+00  0.85749931386E+03  0.16471981343E+04  0.14063984572E+04 0.  0.
        1    1    3    3  502    0  0.58396031015E+03  0.32982398139E+03  0.18113856156E+03  0.69469754645E+03  0.50400001928E-02 0.  1.
       -1    1    3    3    0  502 -0.58396031015E+03 -0.32982398139E+03  0.67636075230E+03  0.95250058783E+03  0.50400001928E-02 0. -1.
</event>
<event>
 5   0  0.5875298E-04  0.1395201E+04  0.7818609E-02  0.8957300E-01
        1   -1    0    0  501    0  0.00000000000E+00  0.00000000000E+00  0.17121915561E+04  0.17121915562E+04  0.50400001928E-02 0.  1.
       -1   -1    0    0    0  501  0.00000000000E+00  0.00000000000E+00 -0.28422422169E+03  0.28422422174E+03  0.50400001928E-02 0. -1.
    10030    2    1    2    0    0  0.00000000000E+00  0.00000000000E+00  0.14279673344E+04  0.19964157779E+04  0.13952007920E+04 0.  0.
        1    1    3    3  502    0  0.34567419545E+02  0.63651040145E+03  0.11194810414E+04  0.12882461720E+04  0.50400001928E-02 0.  1.
       -1    1    3    3    0  502 -0.34567419545E+02 -0.63651040145E+03  0.30848629305E+03  0.70816960587E+03  0.50400001928E-02 0. -1.
</event>
<event>
 5   0  0.1098949E-03  0.1365144E+04  0.7818609E-02  0.8979443E-01
        2   -1    0    0  501    0  0.00000000000E+00  0.00000000000E+00  0.16688882448E+04  0.16688882448E+04  0.25500000920E-02 0.  1.
       -2   -1    0    0    0  501  0.00000000000E+00  0.00000000000E+00 -0.27917057142E+03  0.27917057143E+03  0.25500000920E-02 0. -1.
    10030    2    1    2    0    0  0.00000000000E+00  0.00000000000E+00  0.13897176733E+04  0.19480588162E+04  0.13651439264E+04 0.  0.
        4    1    3    3  502    0  0.28762446678E+03 -0.61862676105E+03  0.72599125082E+03  0.99623883308E+03  0.12699999809E+01 0. -1.
       -4    1    3    3    0  502 -0.28762446678E+03  0.61862676105E+03  0.66372642252E+03  0.95181998310E+03  0.12699999809E+01 0.  1.
</event>
<event>
 5   0  0.6114266E-04  0.1317839E+04  0.7818609E-02  0.9015537E-01
        1   -1    0    0  501    0  0.00000000000E+00  0.00000000000E+00  0.12373761114E+04  0.12373761114E+04  0.50400001928E-02 0. -1.
       -1   -1    0    0    0  501  0.00000000000E+00  0.00000000000E+00 -0.35088364098E+03  0.35088364102E+03  0.50400001928E-02 0.  1.
    10030    2    1    2    0    0  0.00000000000E+00  0.00000000000E+00  0.88649247038E+03  0.15882597524E+04  0.13178391939E+04 0.  0.
        3    1    3    3  502    0 -0.56436715173E+03  0.27509363269E+03  0.68425078206E+03  0.92864736668E+03  0.10100000352E+00 0. -1.
       -3    1    3    3    0  502  0.56436715173E+03 -0.27509363269E+03  0.20224168832E+03  0.65961238571E+03  0.10100000352E+00 0.  1.
</event>
<event>
 5   0  0.1098949E-03  0.1231514E+04  0.7818609E-02  0.9085711E-01
        2   -1    0    0  501    0  0.00000000000E+00  0.00000000000E+00  0.57624991230E+03  0.57624991231E+03  0.25500000920E-02 0. -1.
       -2   -1    0    0    0  501  0.00000000000E+00  0.00000000000E+00 -0.65797299889E+03  0.65797299889E+03  0.25500000920E-02 0.  1.
    10030    2    1    2    0    0  0.00000000000E+00  0.00000000000E+00 -0.81723086583E+02  0.12342229112E+04  0.12315143246E+04 0.  0.
        4    1    3    3  502    0 -0.25413562986E+03 -0.45526908516E+03  0.28742632246E+03  0.59537413616E+03  0.12699999809E+01 0. -1.
       -4    1    3    3    0  502  0.25413562986E+03  0.45526908516E+03 -0.36914940904E+03  0.63884877504E+03  0.12699999809E+01 0.  1.
</event>
<event>
 5   0  0.1108819E-03  0.1398823E+04  0.7818609E-02  0.8954671E-01
        2   -1    0    0  501    0  0.00000000000E+00  0.00000000000E+00  0.21193650232E+04  0.21193650232E+04  0.25500000920E-02 0.  1.
       -2   -1    0    0    0  501  0.00000000000E+00  0.00000000000E+00 -0.23081286180E+03  0.23081286182E+03  0.25500000920E-02 0. -1.
    10030    2    1    2    0    0  0.00000000000E+00  0.00000000000E+00  0.18885521614E+04  0.23501778850E+04  0.13988233716E+04 0.  0.
        3    1    3    3  502    0 -0.49979041721E+03  0.43845917477E+03  0.57949553976E+03  0.88195918266E+03  0.10100000352E+00 0. -1.
       -3    1    3    3    0  502  0.49979041721E+03 -0.43845917477E+03  0.13090566216E+04  0.14682187023E+04  0.10100000352E+00 0.  1.
</event>
<event>
 5   0  0.1175146E-03  0.1388703E+04  0.7818609E-02  0.8962037E-01
       -2   -1    0    0    0  501  0.00000000000E+00  0.00000000000E+00  0.10069730451E+04  0.10069730451E+04  0.25500000920E-02 0. -1.
        2   -1    0    0  501    0  0.00000000000E+00  0.00000000000E+00 -0.47878514008E+03  0.47878514008E+03  0.25500000920E-02 0.  1.
    10030    2    1    2    0    0  0.00000000000E+00  0.00000000000E+00  0.52818790502E+03  0.14857581852E+04  0.13887026038E+04 0.  0.
        1    1    3    3  502    0  0.27752458486E+03  0.61854955755E+03  0.10360954476E+03  0.68582679164E+03  0.50400001928E-02 0.  1.
       -1    1    3    3    0  502 -0.27752458486E+03 -0.61854955755E+03  0.42457836027E+03  0.79993139354E+03  0.50400001928E-02 0. -1.
</event>
<event>
 5   0  0.1098949E-03  0.1405066E+04  0.7818609E-02  0.8950160E-01
        2   -1    0    0  501    0  0.00000000000E+00  0.00000000000E+00  0.14832293676E+04  0.14832293676E+04  0.25500000920E-02 0.  1.
       -2   -1    0    0    0  501  0.00000000000E+00  0.00000000000E+00 -0.33275539746E+03  0.33275539747E+03  0.25500000920E-02 0. -1.
    10030    2    1    2    0    0  0.00000000000E+00  0.00000000000E+00  0.11504739702E+04  0.18159847651E+04  0.14050659454E+04 0.  0.
        4    1    3    3  502    0  0.36140092705E+03 -0.39549367889E+03  0.11625936448E+04  0.12800982290E+04  0.12699999809E+01 0.  1.
       -4    1    3    3    0  502 -0.36140092705E+03  0.39549367889E+03 -0.12119674654E+02  0.53588653606E+03  0.12699999809E+01 0. -1.
</event>
<event>
 5   0  0.6114266E-04  0.1417226E+04  0.7818609E-02  0.8941443E-01
       -1   -1    0    0    0  501  0.00000000000E+00  0.00000000000E+00  0.10143529836E+04  0.10143529836E+04  0.50400001928E-02 0. -1.
        1   -1    0    0  501    0  0.00000000000E+00  0.00000000000E+00 -0.49502708125E+03  0.49502708127E+03  0.50400001928E-02 0.  1.
    10030    2    1    2    0    0  0.00000000000E+00  0.00000000000E+00  0.51932590234E+03  0.15093800649E+04  0.14172257362E+04 0.  0.
        3    1    3    3  502    0 -0.19625905609E+03 -0.63309842154E+03 -0.72334479528E+01  0.66286013715E+03  0.10100000352E+00 0.  1.
       -3    1    3    3    0  502  0.19625905609E+03  0.63309842154E+03  0.52655935030E+03  0.84651992773E+03  0.10100000352E+00 0. -1.
</event>
<event>
 5   0  0.1108819E-03  0.1393099E+04  0.7818609E-02  0.8958829E-01
       -2   -1    0    0    0  501  0.00000000000E+00  0.00000000000E+00  0.31667530322E+03  0.31667530323E+03  0.25500000920E-02 0. -1.
        2   -1    0    0  501    0  0.00000000000E+00  0.00000000000E+00 -0.15321085067E+04  0.15321085067E+04  0.25500000920E-02 0.  1.
    10030    2    1    2    0    0  0.00000000000E+00  0.00000000000E+00 -0.12154332035E+04  0.18487838100E+04  0.13930985980E+04 0.  0.
        3    1    3    3  502    0  0.12598899966E+03  0.16451799864E+03  0.27482264796E+03  0.34419020605E+03  0.10100000352E+00 0. -1.
       -3    1    3    3    0  502 -0.12598899966E+03 -0.16451799864E+03 -0.14902558515E+04  0.15045936039E+04  0.10100000352E+00 0.  1.
</event>
<event>
 5   0  0.6114266E-04  0.1418074E+04  0.7818609E-02  0.8940839E-01
        1   -1    0    0  501    0  0.00000000000E+00  0.00000000000E+00  0.13426813813E+04  0.13426813813E+04  0.50400001928E-02 0. -1.
       -1   -1    0    0    0  501  0.00000000000E+00  0.00000000000E+00 -0.37442492388E+03  0.37442492391E+03  0.50400001928E-02 0.  1.
    10030    2    1    2    0    0  0.00000000000E+00  0.00000000000E+00  0.96825645746E+03  0.17171063052E+04  0.14180738684E+04 0.  0.
        3    1    3    3  502    0 -0.16794211332E+03 -0.15798448457E+03  0.12960175920E+04  0.13163682083E+04  0.10100000352E+00 0. -1.
       -3    1    3    3    0  502  0.16794211332E+03  0.15798448457E+03 -0.32776113458E+03  0.40073809693E+03  0.10100000352E+00 0.  1.
</event>
<event>
 5   0  0.1098949E-03  0.1420641E+04  0.7818609E-02  0.8939011E-01
       -2   -1    0    0    0  501  0.00000000000E+00  0.00000000000E+00  0.13380421072E+04  0.13380421072E+04  0.25500000920E-02 0. -1.
        2   -1    0    0  501    0  0.00000000000E+00  0.00000000000E+00 -0.37708477867E+03  0.37708477868E+03  0.25500000920E-02 0.  1.
    10030    2    1    2    0    0  0.00000000000E+00  0.00000000000E+00  0.96095732856E+03  0.17151268859E+04  0.14206411396E+04 0.  0.
        4    1    3    3  502    0  0.45055639277E+02 -0.27520532275E+03  0.12691876833E+04  0.12994641082E+04  0.12699999809E+01 0. -1.
       -4    1    3    3    0  502 -0.45055639277E+02  0.27520532275E+03 -0.30823035470E+03  0.41566277769E+03  0.12699999809E+01 0.  1.
</event>
<event>
 5   0  0.1120053E-03  0.1489376E+04  0.7818609E-02  0.8891549E-01
        2   -1    0    0  501    0  0.00000000000E+00  0.00000000000E+00  0.11107233032E+04  0.11107233032E+04  0.25500000920E-02 0. -1.
       -2   -1    0    0    0  501  0.00000000000E+00  0.00000000000E+00 -0.49927821089E+03  0.49927821090E+03  0.25500000920E-02 0.  1.
    10030    2    1    2    0    0  0.00000000000E+00  0.00000000000E+00  0.61144509231E+03  0.16100015141E+04  0.14893756324E+04 0.  0.
        2    1    3    3  502    0  0.70998308473E+03 -0.18371644807E+03  0.16589299949E+03  0.75189640322E+03  0.25500000920E-02 0.  1.
       -2    1    3    3    0  502 -0.70998308473E+03  0.18371644807E+03  0.44555209282E+03  0.85810511088E+03  0.25500000920E-02 0. -1.
</event>
<event>
 5   0  0.1175146E-03  0.1399895E+04  0.7818609E-02  0.8953894E-01
       -2   -1    0    0    0  501  0.00000000000E+00  0.00000000000E+00  0.49817543421E+03  0.49817543421E+03  0.25500000920E-02 0.  1.
        2   -1    0    0  501    0  0.00000000000E+00  0.00000000000E+00 -0.98344192945E+03  0.98344192945E+03  0.25500000920E-02 0. -1.
    10030    2    1    2    0    0  0.00000000000E+00  0.00000000000E+00 -0.48526649524E+03  0.14816173637E+04  0.13998951535E+04 0.  0.
        1    1    3    3  502    0  0.15695620351E+03 -0.25396285971E+03 -0.91267409211E+03  0.96026370460E+03  0.50400001928E-02 0. -1.
       -1    1    3    3    0  502 -0.15695620351E+03  0.25396285971E+03  0.42740759687E+03  0.52135365907E+03  0.50400001928E-02 0.  1.
</event>
<event>
 5   0  0.1108819E-03  0.1399405E+04  0.7818609E-02  0.8954249E-01
       -2   -1    0    0    0  501  0.00000000000E+00  0.00000000000E+00  0.19626561602E+03  0.19626561604E+03  0.25500000920E-02 0. -1.
        2   -1    0    0  501    0  0.00000000000E+00  0.00000000000E+00 -0.24944962902E+04  0.24944962902E+04  0.25500000920E-02 0.  1.
    10030    2    1    2    0    0  0.00000000000E+00  0.00000000000E+00 -0.22982306742E+04  0.26907619063E+04  0.13994053753E+04 0.  0.
        3    1    3    3  502    0  0.42264761624E+03 -0.55381275401E+03 -0.12743812981E+04  0.14523729814E+04  0.10100000352E+00 0. -1.
       -3    1    3    3    0  502 -0.42264761624E+03  0.55381275401E+03 -0.10238493761E+04  0.12383889248E+04  0.10100000352E+00 0.  1.
</event>
<event>
 5   0  0.1120053E-03  0.1389222E+04  0.7818609E-02  0.8961657E-01
        2   -1    0    0  501    0  0.00000000000E+00  0.00000000000E+00  0.11497279082E+04  0.11497279082E+04  0.25500000920E-02 0.  1.
       -2   -1    0    0    0  501  0.00000000000E+00  0.00000000000E+00 -0.41965102310E+03  0.41965102311E+03  0.25500000920E-02 0. -1.
    10030    2    1    2    0    0  0.00000000000E+00  0.00000000000E+00  0.73007688506E+03  0.15693789313E+04  0.13892220743E+04 0.  0.
        2    1    3    3  502    0  0.30705997371E+03  0.15563548837E+03  0.10465805168E+04  0.11017436230E+04  0.25500000920E-02 0.  1.
       -2    1    3    3    0  502 -0.30705997371E+03 -0.15563548837E+03 -0.31650363169E+03  0.46763530831E+03  0.25500000920E-02 0. -1.
</event>
<event>
 5   0  0.6097538E-04  0.1396049E+04  0.7818609E-02  0.8956683E-01
        1   -1    0    0  501    0  0.00000000000E+00  0.00000000000E+00  0.11570510262E+04  0.11570510262E+04  0.50400001928E-02 0. -1.
       -1   -1    0    0    0  501  0.00000000000E+00  0.00000000000E+00 -0.42110357732E+03  0.42110357735E+03  0.50400001928E-02 0.  1.
    10030    2    1    2    0    0  0.00000000000E+00  0.00000000000E+00  0.73594744888E+03  0.15781546036E+04  0.13960491772E+04 0.  0.
        2    1    3    3  502    0  0.17851763377E+02  0.68528436578E+03  0.51668173585E+03  0.85842493184E+03  0.25500000920E-02 0. -1.
       -2    1    3    3    0  502 -0.17851763377E+02 -0.68528436578E+03  0.21926571303E+03  0.71972967172E+03  0.25500000920E-02 0.  1.
</event>
<event>
 5   0  0.6097538E-04  0.1413416E+04  0.7818609E-02  0.8944164E-01
        1   -1    0    0  501    0  0.00000000000E+00  0.00000000000E+00  0.11076715837E+04  0.11076715837E+04  0.50400001928E-02 0.  1.
       -1   -1    0    0    0  501  0.00000000000E+00  0.00000000000E+00 -0.45088823960E+03  0.45088823962E+03  0.50400001928E-02 0. -1.
    10030    2    1    2    0    0  0.00000000000E+00  0.00000000000E+00  0.65678334414E+03  0.15585598234E+04  0.14134158489E+04 0.  0.
        2    1    3    3  502    0  0.20433239288E+03 -0.65115125464E+02  0.10709242860E+04  0.10921861255E+04  0.25500000920E-02 0.  1.
       -2    1    3    3    0  502 -0.20433239288E+03  0.65115125464E+02 -0.41414094186E+03  0.46637369789E+03  0.25500000920E-02 0. -1.
</event>
<event>
 5   0  0.6194742E-04  0.1414574E+04  0.7818609E-02  0.8943336E-01
       -1   -1    0    0    0  501  0.00000000000E+00  0.00000000000E+00  0.42983086151E+03  0.42983086154E+03  0.50400001928E-02 0.  1.
        1   -1    0    0  501    0  0.00000000000E+00  0.00000000000E+00 -0.11638416240E+04  0.11638416241E+04  0.50400001928E-02 0. -1.
    10030    2    1    2    0    0  0.00000000000E+00  0.00000000000E+00 -0.73401076253E+03  0.15936724856E+04  0.14145742087E+04 0.  0.
        4    1    3    3  502    0  0.66299988227E+03  0.10235498358E+02 -0.64429738698E+03  0.92455088831E+03  0.12699999809E+01 0. -1.
       -4    1    3    3    0  502 -0.66299988227E+03 -0.10235498358E+02 -0.89713375560E+02  0.66912159729E+03  0.12699999809E+01 0.  1.
</event>
<event>
 5   0  0.6153318E-04  0.1402359E+04  0.7818609E-02  0.8952112E-01
        1   -1    0    0  501    0  0.00000000000E+00  0.00000000000E+00  0.16447440868E+04  0.16447440868E+04  0.50400001928E-02 0.  1.
       -1   -1    0    0    0  501  0.00000000000E+00  0.00000000000E+00 -0.29892371245E+03  0.29892371250E+03  0.50400001928E-02 0. -1.
    10030    2    1    2    0    0  0.00000000000E+00  0.00000000000E+00  0.13458203743E+04  0.19436677993E+04  0.14023594525E+04 0.  0.
        5    1    3    3  502    0 -0.55395319951E+03 -0.34768316712E+03  0.32259740899E+03  0.72927286404E+03  0.46999998093E+01 0.  1.
       -5    1    3    3    0  502  0.55395319951E+03  0.34768316712E+03  0.10232229654E+04  0.12143949353E+04  0.46999998093E+01 0. -1.
</event>
<event>
 5   0  0.6153318E-04  0.1393408E+04  0.7818609E-02  0.8958604E-01
       -1   -1    0    0    0  501  0.00000000000E+00  0.00000000000E+00  0.51262245358E+03  0.51262245360E+03  0.50400001928E-02 0. -1.
        1   -1    0    0  501    0  0.00000000000E+00  0.00000000000E+00 -0.94688851193E+03  0.94688851195E+03  0.50400001928E-02 0.  1.
    10030    2    1    2    0    0  0.00000000000E+00  0.00000000000E+00 -0.43426605836E+03  0.14595109655E+04  0.13934077828E+04 0.  0.
        5    1    3    3  502    0  0.26482688633E+03  0.64327586599E+03 -0.25684057511E+03  0.74157015212E+03  0.46999998093E+01 0.  1.
       -5    1    3    3    0  502 -0.26482688633E+03 -0.64327586599E+03 -0.17742548324E+03  0.71794081343E+03  0.46999998093E+01 0. -1.
</event>
<event>
 5   0  0.1108819E-03  0.1373851E+04  0.7818609E-02  0.8972967E-01
        2   -1    0    0  501    0  0.00000000000E+00  0.00000000000E+00  0.16464871815E+04  0.16464871815E+04  0.25500000920E-02 0. -1.
       -2   -1    0    0    0  501  0.00000000000E+00  0.00000000000E+00 -0.28658993766E+03  0.28658993767E+03  0.25500000920E-02 0.  1.
    10030    2    1    2    0    0  0.00000000000E+00  0.00000000000E+00  0.13598972439E+04  0.19330771192E+04  0.13738510235E+04 0.  0.
        3    1    3    3  502    0  0.37281997245E+03 -0.18974769066E+03  0.14465878449E+04  0.15058603259E+04  0.10100000352E+00 0. -1.
       -3    1    3    3    0  502 -0.37281997245E+03  0.18974769066E+03 -0.86690601016E+02  0.42721679330E+03  0.10100000352E+00 0.  1.
</event>
<event>
 5   0  0.1108819E-03  0.1396892E+04  0.7818609E-02  0.8956071E-01
       -2   -1    0    0    0  501  0.00000000000E+00  0.00000000000E+00  0.87324336608E+03  0.87324336608E+03  0.25500000920E-02 0. -1.
        2   -1    0    0  501    0  0.00000000000E+00  0.00000000000E+00 -0.55863793270E+03  0.55863793271E+03  0.25500000920E-02 0.  1.
    10030    2    1    2    0    0  0.00000000000E+00  0.00000000000E+00  0.31460543337E+03  0.14318812988E+04  0.13968920771E+04 0.  0.
        3    1    3    3  502    0  0.35738521193E+03  0.59740100337E+03  0.21542130631E+03  0.72871016045E+03  0.10100000352E+00 0. -1.
       -3    1    3    3    0  502 -0.35738521193E+03 -0.59740100337E+03  0.99184127066E+02  0.70317113834E+03  0.10100000352E+00 0.  1.
</event>
<event>
 5   0  0.6153318E-04  0.1357487E+04  0.7818609E-02  0.8985180E-01
       -1   -1    0    0    0  501  0.00000000000E+00  0.00000000000E+00  0.41670554408E+03  0.41670554411E+03  0.50400001928E-02 0. -1.
        1   -1    0    0  501    0  0.00000000000E+00  0.00000000000E+00 -0.11055595466E+04  0.11055595466E+04  0.50400001928E-02 0.  1.
    10030    2    1    2    0    0  0.00000000000E+00  0.00000000000E+00 -0.68885400255E+03  0.15222650908E+04  0.13574870790E+04 0.  0.
        5    1    3    3  502    0  0.36461909047E+03  0.42253079068E+03  0.88711120195E+02  0.56512927995E+03  0.46999998093E+01 0. -1.
       -5    1    3    3    0  502 -0.36461909047E+03 -0.42253079068E+03 -0.77756512274E+03  0.95713581080E+03  0.46999998093E+01 0.  1.
</event>
<event>
 5   0  0.1175146E-03  0.1386933E+04  0.7818609E-02  0.8963332E-01
        2   -1    0    0  501    0  0.00000000000E+00  0.00000000000E+00  0.39568100558E+03  0.39568100559E+03  0.25500000920E-02 0.  1.
       -2   -1    0    0    0  501  0.00000000000E+00  0.00000000000E+00 -0.12153624365E+04  0.12153624365E+04  0.25500000920E-02 0. -1.
    10030    2    1    2    0    0  0.00000000000E+00  0.00000000000E+00 -0.81968143096E+03  0.16110434421E+04  0.13869330641E+04 0.  0.
        1    1    3    3  502    0 -0.53042198967E+03 -0.23519147786E+03 -0.85098894315E+03  0.10299731549E+04  0.50400001928E-02 0.  1.
       -1    1    3    3    0  502  0.53042198967E+03  0.23519147786E+03  0.31307512193E+02  0.58107028725E+03  0.50400001928E-02 0. -1.
</event>
<event>
 5   0  0.6097538E-04  0.1378538E+04  0.7818609E-02  0.8969502E-01
        1   -1    0    0  501    0  0.00000000000E+00  0.00000000000E+00  0.11755313832E+04  0.11755313832E+04  0.50400001928E-02 0.  1.
       -1   -1    0    0    0  501  0.00000000000E+00  0.00000000000E+00 -0.40415080074E+03  0.40415080077E+03  0.50400001928E-02 0. -1.
    10030    2    1    2    0    0  0.00000000000E+00  0.00000000000E+00  0.77138058243E+03  0.15796821839E+04  0.13785382836E+04 0.  0.
        2    1    3    3  502    0 -0.55478275208E+03  0.39554137028E+03  0.26630048502E+03  0.73154140412E+03  0.25500000920E-02 0. -1.
       -2    1    3    3    0  502  0.55478275208E+03 -0.39554137028E+03  0.50508009741E+03  0.84814077983E+03  0.25500000920E-02 0.  1.
</event>
<event>
 5   0  0.1108819E-03  0.1412754E+04  0.7818609E-02  0.8944638E-01
        2   -1    0    0  501    0  0.00000000000E+00  0.00000000000E+00  0.11094819183E+04  0.11094819183E+04  0.25500000920E-02 0.  1.
       -2   -1    0    0    0  501  0.00000000000E+00  0.00000000000E+00 -0.44973092774E+03  0.44973092774E+03  0.25500000920E-02 0. -1.
    10030    2    1    2    0    0  0.00000000000E+00  0.00000000000E+00  0.65975099056E+03  0.15592128460E+04  0.14127538107E+04 0.  0.
        3    1    3    3  502    0  0.26648785523E+03  0.64962385348E+03  0.41494680163E+03  0.81560271357E+03  0.10100000352E+00 0.  1.
       -3    1    3    3    0  502 -0.26648785523E+03 -0.64962385348E+03  0.24480418893E+03  0.74361013247E+03  0.10100000352E+00 0. -1.
</event>
<event>
 5   0  0.1098949E-03  0.1404789E+04  0.7818609E-02  0.8950359E-01
        2   -1    0    0  501    0  0.00000000000E+00  0.00000000000E+00  0.91088353587E+03  0.91088353587E+03  0.25500000920E-02 0. -1.
       -2   -1    0    0    0  501  0.00000000000E+00  0.00000000000E+00 -0.54162605423E+03  0.54162605424E+03  0.25500000920E-02 0.  1.
    10030    2    1    2    0    0  0.00000000000E+00  0.00000000000E+00  0.36925748164E+03  0.14525095901E+04  0.14047893157E+04 0.  0.
        4    1    3    3  502    0 -0.53411448125E+03 -0.21578577265E+03 -0.23091243148E+03  0.62061577701E+03  0.12699999809E+01 0.  1.
       -4    1    3    3    0  502  0.53411448125E+03  0.21578577265E+03  0.60016991312E+03  0.83189381310E+03  0.12699999809E+01 0. -1.
</event>
<event>
 5   0  0.1095119E-03  0.1395276E+04  0.7818609E-02  0.8957245E-01
        2   -1    0    0  501    0  0.00000000000E+00  0.00000000000E+00  0.10874770590E+04  0.10874770590E+04  0.25500000920E-02 0. -1.
       -2   -1    0    0    0  501  0.00000000000E+00  0.00000000000E+00 -0.44754863095E+03  0.44754863096E+03  0.25500000920E-02 0.  1.
    10030    2    1    2    0    0  0.00000000000E+00  0.00000000000E+00  0.63992842804E+03  0.15350256900E+04  0.13952761289E+04 0.  0.
        5    1    3    3  502    0  0.53249625858E+03  0.21817777709E+03  0.75382735523E+03  0.94838366672E+03  0.46999998093E+01 0. -1.
       -5    1    3    3    0  502 -0.53249625858E+03 -0.21817777709E+03 -0.11389892719E+03  0.58664202324E+03  0.46999998093E+01 0.  1.
</event>
<event>
 5   0  0.5875298E-04  0.1376420E+04  0.7818609E-02  0.8971066E-01
        1   -1    0    0  501    0  0.00000000000E+00  0.00000000000E+00  0.11208223277E+04  0.11208223277E+04  0.50400001928E-02 0. -1.
       -1   -1    0    0    0  501  0.00000000000E+00  0.00000000000E+00 -0.42257662616E+03  0.42257662619E+03  0.50400001928E-02 0.  1.
    10030    2    1    2    0    0  0.00000000000E+00  0.00000000000E+00  0.69824570152E+03  0.15433989539E+04  0.13764204558E+04 0.  0.
        1    1    3    3  502    0  0.25617743289E+03  0.45285339164E+03 -0.15600402305E+03  0.54317614701E+03  0.50400001928E-02 0.  1.
       -1    1    3    3    0  502 -0.25617743289E+03 -0.45285339164E+03  0.85424972457E+03  0.10002228069E+04  0.50400001928E-02 0. -1.
</event>
<event>
 5   0  0.6114266E-04  0.1382031E+04  0.7818609E-02  0.8966929E-01
       -1   -1    0    0    0  501  0.00000000000E+00  0.00000000000E+00  0.32878081692E+03  0.32878081696E+03  0.50400001928E-02 0.  1.
        1   -1    0    0  501    0  0.00000000000E+00  0.00000000000E+00 -0.14523425470E+04  0.14523425470E+04  0.50400001928E-02 0. -1.
    10030    2    1    2    0    0  0.00000000000E+00  0.00000000000E+00 -0.11235617301E+04  0.17811233640E+04  0.13820309246E+04 0.  0.
        3    1    3    3  502    0  0.52189217050E+03  0.45061534216E+03 -0.62051177757E+03  0.92761010156E+03  0.10100000352E+00 0. -1.
       -3    1    3    3    0  502 -0.52189217050E+03 -0.45061534216E+03 -0.50304995254E+03  0.85351326244E+03  0.10100000352E+00 0.  1.
</event>
<event>
 5   0  0.6194742E-04  0.1395101E+04  0.7818609E-02  0.8957372E-01
       -1   -1    0    0    0  501  0.00000000000E+00  0.00000000000E+00  0.67511769470E+03  0.67511769472E+03  0.50400001928E-02 0. -1.
        1   -1    0    0  501    0  0.00000000000E+00  0.00000000000E+00 -0.72072896842E+03  0.72072896844E+03  0.50400001928E-02 0.  1.
    10030    2    1    2    0    0  0.00000000000E+00  0.00000000000E+00 -0.45611273722E+02  0.13958466632E+04  0.13951012575E+04 0.  0.
        4    1    3    3  502    0 -0.49424019174E+03 -0.12170734823E+03  0.45440750415E+03  0.68232971390E+03  0.12699999809E+01 0. -1.
       -4    1    3    3    0  502  0.49424019174E+03  0.12170734823E+03 -0.50001877787E+03  0.71351694925E+03  0.12699999809E+01 0.  1.
</event>
<event>
 5   0  0.6153318E-04  0.1452010E+04  0.7818609E-02  0.8917008E-01
        1   -1    0    0  501    0  0.00000000000E+00  0.00000000000E+00  0.85247433671E+03  0.85247433672E+03  0.50400001928E-02 0. -1.
       -1   -1    0    0    0  501  0.00000000000E+00  0.00000000000E+00 -0.61829826162E+03  0.61829826164E+03  0.50400001928E-02 0.  1.
    10030    2    1    2    0    0  0.00000000000E+00  0.00000000000E+00  0.23417607509E+03  0.14707725984E+04  0.14520101935E+04 0.  0.
        5    1    3    3  502    0  0.27966754551E+03 -0.26173956895E+03 -0.50759790929E+03  0.63592394630E+03  0.46999998093E+01 0.  1.
       -5    1    3    3    0  502 -0.27966754551E+03  0.26173956895E+03  0.74177398437E+03  0.83484865207E+03  0.46999998093E+01 0. -1.
</event>
<event>
 5   0  0.1108819E-03  0.1245792E+04  0.7818609E-02  0.9073693E-01
       -2   -1    0    0    0  501  0.00000000000E+00  0.00000000000E+00  0.35242617444E+03  0.35242617445E+03  0.25500000920E-02 0. -1.
        2   -1    0    0  501    0  0.00000000000E+00  0.00000000000E+00 -0.11009383878E+04  0.11009383878E+04  0.25500000920E-02 0.  1.
    10030    2    1    2    0    0  0.00000000000E+00  0.00000000000E+00 -0.74851221333E+03  0.14533645622E+04  0.12457921244E+04 0.  0.
        3    1    3    3  502    0  0.14999319967E+03  0.42136141695E+03  0.13151869321E+03  0.46619800569E+03  0.10100000352E+00 0. -1.
       -3    1    3    3    0  502 -0.14999319967E+03 -0.42136141695E+03 -0.88003090654E+03  0.98716655652E+03  0.10100000352E+00 0.  1.
</event>
<event>
 5   0  0.6097538E-04  0.1401167E+04  0.7818609E-02  0.8952974E-01
       -1   -1    0    0    0  501  0.00000000000E+00  0.00000000000E+00  0.37514471510E+03  0.37514471513E+03  0.50400001928E-02 0.  1.
        1   -1    0    0  501    0  0.00000000000E+00  0.00000000000E+00 -0.13083417117E+04  0.13083417118E+04  0.50400001928E-02 0. -1.
    10030    2    1    2    0    0  0.00000000000E+00  0.00000000000E+00 -0.93319699665E+03  0.16834864269E+04  0.14011673401E+04 0.  0.
        2    1    3    3  502    0  0.25887207588E+03 -0.13699789248E+02  0.31539888592E+03  0.40826326451E+03  0.25500000920E-02 0.  1.
       -2    1    3    3    0  502 -0.25887207588E+03  0.13699789248E+02 -0.12485958826E+04  0.12752231624E+04  0.25500000920E-02 0. -1.
</event>
<event>
 5   0  0.6194742E-04  0.1419706E+04  0.7818609E-02  0.8939677E-01
       -1   -1    0    0    0  501  0.00000000000E+00  0.00000000000E+00  0.25117087790E+03  0.25117087795E+03  0.50400001928E-02 0. -1.
        1   -1    0    0  501    0  0.00000000000E+00  0.00000000000E+00 -0.20061681265E+04  0.20061681265E+04  0.50400001928E-02 0.  1.
    10030    2    1    2    0    0  0.00000000000E+00  0.00000000000E+00 -0.17549972486E+04  0.22573390045E+04  0.14197056168E+04 0.  0.
        4    1    3    3  502    0  0.51614808014E+03  0.15111560527E+03 -0.14085319411E+03  0.55595503594E+03  0.12699999809E+01 0. -1.
       -4    1    3    3    0  502 -0.51614808014E+03 -0.15111560527E+03 -0.16141440545E+04  0.17013839685E+04  0.12699999809E+01 0.  1.
</event>
<event>
 5   0  0.6114266E-04  0.1416082E+04  0.7818609E-02  0.8942259E-01
       -1   -1    0    0    0  501  0.00000000000E+00  0.00000000000E+00  0.87015189819E+03  0.87015189820E+03  0.50400001928E-02 0.  1.
        1   -1    0    0  501    0  0.00000000000E+00  0.00000000000E+00 -0.57613143370E+03  0.57613143372E+03  0.50400001928E-02 0. -1.
    10030    2    1    2    0    0  0.00000000000E+00  0.00000000000E+00  0.29402046449E+03  0.14462833319E+04  0.14160817217E+04 0.  0.
        3    1    3    3  502    0  0.11368900445E+03  0.30527211193E+03  0.78907170116E+03  0.85366879516E+03  0.10100000352E+00 0.  1.
       -3    1    3    3    0  502 -0.11368900445E+03 -0.30527211193E+03 -0.49505123667E+03  0.59261453676E+03  0.10100000352E+00 0. -1.
</event>
<event>
 5   0  0.6194742E-04  0.1413408E+04  0.7818609E-02  0.8944170E-01
        1   -1    0    0  501    0  0.00000000000E+00  0.00000000000E+00  0.19094635497E+04  0.19094635497E+04  0.50400001928E-02 0.  1.
       -1   -1    0    0    0  501  0.00000000000E+00  0.00000000000E+00 -0.26155541393E+03  0.26155541398E+03  0.50400001928E-02 0. -1.
    10030    2    1    2    0    0  0.00000000000E+00  0.00000000000E+00  0.16479081358E+04  0.21710189637E+04  0.14134079796E+04 0.  0.
        4    1    3    3  502    0 -0.38294983434E+02 -0.11436678777E+03  0.18935368415E+04  0.18973744098E+04  0.12699999809E+01 0.  1.
       -4    1    3    3    0  502  0.38294983434E+02  0.11436678777E+03 -0.24562870573E+03  0.27364455390E+03  0.12699999809E+01 0. -1.
</event>
<event>
 5   0  0.1120053E-03  0.1403284E+04  0.7818609E-02  0.8951445E-01
        2   -1    0    0  501    0  0.00000000000E+00  0.00000000000E+00  0.15647130385E+04  0.15647130385E+04  0.25500000920E-02 0. -1.
       -2   -1    0    0    0  501  0.00000000000E+00  0.00000000000E+00 -0.31462746969E+03  0.31462746970E+03  0.25500000920E-02 0.  1.
    10030    2    1    2    0    0  0.00000000000E+00  0.00000000000E+00  0.12500855688E+04  0.18793405082E+04  0.14032842963E+04 0.  0.
        2    1    3    3  502    0  0.65490690596E+03 -0.16457382852E+03  0.88025265869E+03  0.11094288367E+04  0.25500000920E-02 0. -1.
       -2    1    3    3    0  502 -0.65490690596E+03  0.16457382852E+03  0.36983291009E+03  0.76991167150E+03  0.25500000920E-02 0.  1.
</event>
<event>
 5   0  0.1095119E-03  0.1361170E+04  0.7818609E-02  0.8982415E-01
        2   -1    0    0  501    0  0.00000000000E+00  0.00000000000E+00  0.65760327397E+03  0.65760327397E+03  0.25500000920E-02 0. -1.
       -2   -1    0    0    0  501  0.00000000000E+00  0.00000000000E+00 -0.70437015053E+03  0.70437015054E+03  0.25500000920E-02 0.  1.
    10030    2    1    2    0    0  0.00000000000E+00  0.00000000000E+00 -0.46766876563E+02  0.13619734245E+04  0.13611702569E+04 0.  0.
        5    1    3    3  502    0  0.26877952476E+02 -0.53319552395E+03  0.39894870600E+03  0.66648484687E+03  0.46999998093E+01 0. -1.
       -5    1    3    3    0  502 -0.26877952476E+02  0.53319552395E+03 -0.44571558257E+03  0.69548857764E+03  0.46999998093E+01 0.  1.
</event>
<event>
 5   0  0.1108819E-03  0.1388198E+04  0.7818609E-02  0.8962406E-01
       -2   -1    0    0    0  501  0.00000000000E+00  0.00000000000E+00  0.50176841046E+03  0.50176841047E+03  0.25500000920E-02 0. -1.
        2   -1    0    0  501    0  0.00000000000E+00  0.00000000000E+00 -0.96015130337E+03  0.96015130338E+03  0.25500000920E-02 0.  1.
    10030    2    1    2    0    0  0.00000000000E+00  0.00000000000E+00 -0.45838289291E+03  0.14619197138E+04  0.13881982471E+04 0.  0.
        3    1    3    3  502    0 -0.66409417931E+03  0.10625240161E+03 -0.48428252176E+02  0.67428180878E+03  0.10100000352E+00 0.  1.
       -3    1    3    3    0  502  0.66409417931E+03 -0.10625240161E+03 -0.40995464074E+03  0.78763790507E+03  0.10100000352E+00 0. -1.
</event>
<event>
 5   0  0.1095119E-03  0.1351078E+04  0.7818609E-02  0.8990012E-01
        2   -1    0    0  501    0  0.00000000000E+00  0.00000000000E+00  0.52086521334E+03  0.52086521335E+03  0.25500000920E-02 0.  1.
       -2   -1    0    0    0  501  0.00000000000E+00  0.00000000000E+00 -0.87614435615E+03  0.87614435615E+03  0.25500000920E-02 0. -1.
    10030    2    1    2    0    0  0.00000000000E+00  0.00000000000E+00 -0.35527914280E+03  0.13970095695E+04  0.13510782612E+04 0.  0.
        5    1    3    3  502    0  0.27473071314E+03  0.52024548380E+03  0.16560771148E+03  0.61121218268E+03  0.46999998093E+01 0.  1.
       -5    1    3    3    0  502 -0.27473071314E+03 -0.52024548380E+03 -0.52088685428E+03  0.78579738682E+03  0.46999998093E+01 0. -1.
</event>
<event>
 5   0  0.6194742E-04  0.1401278E+04  0.7818609E-02  0.8952894E-01
       -1   -1    0    0    0  501  0.00000000000E+00  0.00000000000E+00  0.53730447677E+03  0.53730447680E+03  0.50400001928E-02 0.  1.
        1   -1    0    0  501    0  0.00000000000E+00  0.00000000000E+00 -0.91362531561E+03  0.91362531562E+03  0.50400001928E-02 0. -1.
    10030    2    1    2    0    0  0.00000000000E+00  0.00000000000E+00 -0.37632083884E+03  0.14509297924E+04  0.14012779484E+04 0.  0.
        4    1    3    3  502    0  0.31068029918E+03 -0.36641496313E+03 -0.71624273625E+03  0.86243112399E+03  0.12699999809E+01 0. -1.
       -4    1    3    3    0  502 -0.31068029918E+03  0.36641496313E+03  0.33992189741E+03  0.58849866843E+03  0.12699999809E+01 0.  1.
</event>
<event>
 5   0  0.6114266E-04  0.1402981E+04  0.7818609E-02  0.8951663E-01
        1   -1    0    0  501    0  0.00000000000E+00  0.00000000000E+00  0.52549667240E+03  0.52549667243E+03  0.50400001928E-02 0.  1.
       -1   -1    0    0    0  501  0.00000000000E+00  0.00000000000E+00 -0.93642666376E+03  0.93642666377E+03  0.50400001928E-02 0. -1.
    10030    2    1    2    0    0  0.00000000000E+00  0.00000000000E+00 -0.41092999136E+03  0.14619233362E+04  0.14029812483E+04 0.  0.
        3    1    3    3  502    0  0.28086049158E+03 -0.30124223425E+02 -0.87454626703E+03  0.91903278937E+03  0.10100000352E+00 0. -1.
       -3    1    3    3    0  502 -0.28086049158E+03  0.30124223425E+02  0.46361627567E+03  0.54289054683E+03  0.10100000352E+00 0.  1.
</event>
<event>
 5   0  0.6114266E-04  0.1405988E+04  0.7818609E-02  0.8949495E-01
       -1   -1    0    0    0  501  0.00000000000E+00  0.00000000000E+00  0.38552926587E+03  0.38552926590E+03  0.50400001928E-02 0. -1.
        1   -1    0    0  501    0  0.00000000000E+00  0.00000000000E+00 -0.12818759611E+04  0.12818759611E+04  0.50400001928E-02 0.  1.
    10030    2    1    2    0    0  0.00000000000E+00  0.00000000000E+00 -0.89634669524E+03  0.16674052270E+04  0.14059881909E+04 0.  0.
        3    1    3    3  502    0  0.45129867021E+03 -0.49796088165E+03 -0.69284666698E+03  0.96523160098E+03  0.10100000352E+00 0.  1.
       -3    1    3    3    0  502 -0.45129867021E+03  0.49796088165E+03 -0.20350002826E+03  0.70217362603E+03  0.10100000352E+00 0. -1.
</event>
<event>
 5   0  0.6153318E-04  0.1425262E+04  0.7818609E-02  0.8935733E-01
        1   -1    0    0  501    0  0.00000000000E+00  0.00000000000E+00  0.89027691213E+03  0.89027691215E+03  0.50400001928E-02 0. -1.
       -1   -1    0    0    0  501  0.00000000000E+00  0.00000000000E+00 -0.57043241477E+03  0.57043241479E+03  0.50400001928E-02 0.  1.
    10030    2    1    2    0    0  0.00000000000E+00  0.00000000000E+00  0.31984449736E+03  0.14607093269E+04  0.14252618129E+04 0.  0.
        5    1    3    3  502    0 -0.70544376331E+03  0.50119575902E+02  0.24960778375E+03  0.74999267382E+03  0.46999998093E+01 0.  1.
       -5    1    3    3    0  502  0.70544376331E+03 -0.50119575902E+02  0.70236713613E+02  0.71071665312E+03  0.46999998093E+01 0. -1.
</event>
<event>
 5   0  0.1120053E-03  0.1417047E+04  0.7818609E-02  0.8941571E-01
       -2   -1    0    0    0  501  0.00000000000E+00  0.00000000000E+00  0.58412310718E+03  0.58412310718E+03  0.25500000920E-02 0.  1.
        2   -1    0    0  501    0  0.00000000000E+00  0.00000000000E+00 -0.85941733675E+03  0.85941733675E+03  0.25500000920E-02 0. -1.
    10030    2    1    2    0    0  0.00000000000E+00  0.00000000000E+00 -0.27529422957E+03  0.14435404439E+04  0.14170469648E+04 0.  0.
        2    1    3    3  502    0  0.52730801753E+03 -0.14090060778E+03 -0.59786652967E+03  0.80953759266E+03  0.25500000920E-02 0. -1.
       -2    1    3    3    0  502 -0.52730801753E+03  0.14090060778E+03  0.32257230010E+03  0.63400285127E+03  0.25500000920E-02 0.  1.
</event>
<event>
 5   0  0.1108819E-03  0.1402980E+04  0.7818609E-02  0.8951664E-01
       -2   -1    0    0    0  501  0.00000000000E+00  0.00000000000E+00  0.33520658810E+03  0.33520658811E+03  0.25500000920E-02 0.  1.
        2   -1    0    0  501    0  0.00000000000E+00  0.00000000000E+00 -0.14680146095E+04  0.14680146095E+04  0.25500000920E-02 0. -1.
    10030    2    1    2    0    0  0.00000000000E+00  0.00000000000E+00 -0.11328080214E+04  0.18032211976E+04  0.14029799265E+04 0.  0.
        3    1    3    3  502    0 -0.51866264946E+03  0.39710677794E+03 -0.89505229373E+03  0.11080719091E+04  0.10100000352E+00 0. -1.
       -3    1    3    3    0  502  0.51866264946E+03 -0.39710677794E+03 -0.23775572763E+03  0.69514928847E+03  0.10100000352E+00 0.  1.
</event>
<event>
 5   0  0.1108819E-03  0.1390935E+04  0.7818609E-02  0.8960406E-01
       -2   -1    0    0    0  501  0.00000000000E+00  0.00000000000E+00  0.11186544827E+04  0.11186544827E+04  0.25500000920E-02 0.  1.
        2   -1    0    0  501    0  0.00000000000E+00  0.00000000000E+00 -0.43237236697E+03  0.43237236698E+03  0.25500000920E-02 0. -1.
    10030    2    1    2    0    0  0.00000000000E+00  0.00000000000E+00  0.68628211568E+03  0.15510268496E+04  0.13909353493E+04 0.  0.
        3    1    3    3  502    0 -0.49392322469E+03 -0.27849731432E+03 -0.10589033075E+03  0.57683071894E+03  0.10100000352E+00 0. -1.
       -3    1    3    3    0  502  0.49392322469E+03  0.27849731432E+03  0.79217244644E+03  0.97419613070E+03  0.10100000352E+00 0.  1.
</event>
<event>
 5   0  0.6097538E-04  0.1395390E+04  0.7818609E-02  0.8957162E-01
        1   -1    0    0  501    0  0.00000000000E+00  0.00000000000E+00  0.84187980840E+03  0.84187980842E+03  0.50400001928E-02 0.  1.
       -1   -1    0    0    0  501  0.00000000000E+00  0.00000000000E+00 -0.57820439401E+03  0.57820439403E+03  0.50400001928E-02 0. -1.
    10030    2    1    2    0    0  0.00000000000E+00  0.00000000000E+00  0.26367541440E+03  0.14200842025E+04  0.13953904177E+04 0.  0.
        2    1    3    3  502    0 -0.69102128864E+03  0.82063007760E+02  0.18306583172E+03  0.71955392942E+03  0.25500000920E-02 0.  1.
       -2    1    3    3    0  502  0.69102128864E+03 -0.82063007760E+02  0.80609582676E+02  0.70053027303E+03  0.25500000920E-02 0. -1.
</event>
<event>
 5   0  0.1098949E-03  0.1403992E+04  0.7818609E-02  0.8950934E-01
        2   -1    0    0  501    0  0.00000000000E+00  0.00000000000E+00  0.12353334362E+04  0.12353334362E+04  0.25500000920E-02 0. -1.
       -2   -1    0    0    0  501  0.00000000000E+00  0.00000000000E+00 -0.39891923689E+03  0.39891923689E+03  0.25500000920E-02 0.  1.
    10030    2    1    2    0    0  0.00000000000E+00  0.00000000000E+00  0.83641419930E+03  0.16342526731E+04  0.14039918400E+04 0.  0.
        4    1    3    3  502    0 -0.56447130048E+03  0.39765761232E+03  0.56561451821E+03  0.89256978540E+03  0.12699999809E+01 0.  1.
       -4    1    3    3    0  502  0.56447130048E+03 -0.39765761232E+03  0.27079968109E+03  0.74168288769E+03  0.12699999809E+01 0. -1.
</event>
<event>
 5   0  0.1108819E-03  0.1330507E+04  0.7818609E-02  0.9005717E-01
       -2   -1    0    0    0  501  0.00000000000E+00  0.00000000000E+00  0.79451294149E+03  0.79451294150E+03  0.25500000920E-02 0.  1.
        2   -1    0    0  501    0  0.00000000000E+00  0.00000000000E+00 -0.55702288635E+03  0.55702288636E+03  0.25500000920E-02 0. -1.
    10030    2    1    2    0    0  0.00000000000E+00  0.00000000000E+00  0.23749005514E+03  0.13515358279E+04  0.13305065079E+04 0.  0.
        3    1    3    3  502    0  0.64246221026E+03 -0.45762229509E+02 -0.50349241546E+02  0.64605489673E+03  0.10100000352E+00 0. -1.
       -3    1    3    3    0  502 -0.64246221026E+03  0.45762229509E+02  0.28783929669E+03  0.70548093112E+03  0.10100000352E+00 0.  1.
</event>
<event>
 5   0  0.1108819E-03  0.1344668E+04  0.7818609E-02  0.8994874E-01
        2   -1    0    0  501    0  0.00000000000E+00  0.00000000000E+00  0.53709189296E+03  0.53709189297E+03  0.25500000920E-02 0.  1.
       -2   -1    0    0    0  501  0.00000000000E+00  0.00000000000E+00 -0.84163095465E+03  0.84163095465E+03  0.25500000920E-02 0. -1.
    10030    2    1    2    0    0  0.00000000000E+00  0.00000000000E+00 -0.30453906169E+03  0.13787228476E+04  0.13446682306E+04 0.  0.
        3    1    3    3  502    0 -0.31098602065E+03  0.51491780237E+03  0.15563647339E+03  0.62134963610E+03  0.10100000352E+00 0. -1.
       -3    1    3    3    0  502  0.31098602065E+03 -0.51491780237E+03 -0.46017553508E+03  0.75737321152E+03  0.10100000352E+00 0.  1.
</event>
<event>
 5   0  0.1108819E-03  0.1269108E+04  0.7818609E-02  0.9054428E-01
       -2   -1    0    0    0  501  0.00000000000E+00  0.00000000000E+00  0.11990013674E+04  0.11990013674E+04  0.25500000920E-02 0.  1.
        2   -1    0    0  501    0  0.00000000000E+00  0.00000000000E+00 -0.33582865145E+03  0.33582865146E+03  0.25500000920E-02 0. -1.
    10030    2    1    2    0    0  0.00000000000E+00  0.00000000000E+00  0.86317271596E+03  0.15348300189E+04  0.12691083678E+04 0.  0.
        3    1    3    3  502    0  0.21305241701E+02 -0.55269330377E+03  0.80773010431E+03  0.97895440801E+03  0.10100000352E+00 0.  1.
       -3    1    3    3    0  502 -0.21305241701E+02  0.55269330377E+03  0.55442611655E+02  0.55587561086E+03  0.10100000352E+00 0. -1.
</event>
<event>
 5   0  0.1095119E-03  0.1389574E+04  0.7818609E-02  0.8961400E-01
        2   -1    0    0  501    0  0.00000000000E+00  0.00000000000E+00  0.33669213524E+03  0.33669213525E+03  0.25500000920E-02 0. -1.
       -2   -1    0    0    0  501  0.00000000000E+00  0.00000000000E+00 -0.14337403383E+04  0.14337403383E+04  0.25500000920E-02 0.  1.
    10030    2    1    2    0    0  0.00000000000E+00  0.00000000000E+00 -0.10970482031E+04  0.17704324736E+04  0.13895741735E+04 0.  0.
        5    1    3    3  502    0  0.17736764460E+03  0.76677822458E+02 -0.13987948784E+04  0.14120863896E+04  0.46999998093E+01 0.  1.
       -5    1    3    3    0  502 -0.17736764460E+03 -0.76677822458E+02  0.30174667535E+03  0.35834608396E+03  0.46999998093E+01 0. -1.
</event>
<event>
 5   0  0.6114266E-04  0.1417001E+04  0.7818609E-02  0.8941603E-01
        1   -1    0    0  501    0  0.00000000000E+00  0.00000000000E+00  0.88113849748E+03  0.88113849750E+03  0.50400001928E-02 0. -1.
       -1   -1    0    0    0  501  0.00000000000E+00  0.00000000000E+00 -0.56968694481E+03  0.56968694483E+03  0.50400001928E-02 0.  1.
    10030    2    1    2    0    0  0.00000000000E+00  0.00000000000E+00  0.31145155267E+03  0.14508254423E+04  0.14170011978E+04 0.  0.
        3    1    3    3  502    0  0.71897931188E+02 -0.52100482802E+03  0.64177604760E+03  0.82975408936E+03  0.10100000352E+00 0. -1.
       -3    1    3    3    0  502 -0.71897931188E+02  0.52100482802E+03 -0.33032449493E+03  0.62107135297E+03  0.10100000352E+00 0.  1.
</event>
<event>
 5   0  0.6097538E-04  0.1363347E+04  0.7818609E-02  0.8980786E-01
       -1   -1    0    0    0  501  0.00000000000E+00  0.00000000000E+00  0.89740336089E+03  0.89740336090E+03  0.50400001928E-02 0. -1.
        1   -1    0    0  501    0  0.00000000000E+00  0.00000000000E+00 -0.51780358825E+03  0.51780358828E+03  0.50400001928E-02 0.  1.
    10030    2    1    2    0    0  0.00000000000E+00  0.00000000000E+00  0.37959977264E+03  0.14152069492E+04  0.13633468824E+04 0.  0.
        2    1    3    3  502    0  0.15796093698E+03  0.66260991653E+03  0.16282842411E+03  0.70036894191E+03  0.25500000920E-02 0.  1.
       -2    1    3    3    0  502 -0.15796093698E+03 -0.66260991653E+03  0.21677134853E+03  0.71483800727E+03  0.25500000920E-02 0. -1.
</event>
<event>
 5   0  0.6194742E-04  0.1390309E+04  0.7818609E-02  0.8960864E-01
        1   -1    0    0  501    0  0.00000000000E+00  0.00000000000E+00  0.90499564552E+03  0.90499564554E+03  0.50400001928E-02 0.  1.
       -1   -1    0    0    0  501  0.00000000000E+00  0.00000000000E+00 -0.53396894925E+03  0.53396894928E+03  0.50400001928E-02 0. -1.
    10030    2    1    2    0    0  0.00000000000E+00  0.00000000000E+00  0.37102669627E+03  0.14389645948E+04  0.13903087052E+04 0.  0.
        4    1    3    3  502    0  0.38432014256E+03  0.12949788498E+03  0.76986605235E+03  0.87015344949E+03  0.12699999809E+01 0.  1.
       -4    1    3    3    0  502 -0.38432014256E+03 -0.12949788498E+03 -0.39883935608E+03  0.56881114533E+03  0.12699999809E+01 0. -1.
</event>
<event>
 5   0  0.1108819E-03  0.1397358E+04  0.7818609E-02  0.8955733E-01
       -2   -1    0    0    0  501  0.00000000000E+00  0.00000000000E+00  0.79761087408E+03  0.79761087409E+03  0.25500000920E-02 0.  1.
        2   -1    0    0  501    0  0.00000000000E+00  0.00000000000E+00 -0.61201842405E+03  0.61201842406E+03  0.25500000920E-02 0. -1.
    10030    2    1    2    0    0  0.00000000000E+00  0.00000000000E+00  0.18559245003E+03  0.14096292981E+04  0.13973582936E+04 0.  0.
        3    1    3    3  502    0 -0.67301783714E+03 -0.10306751652E+03  0.25094222056E+03  0.72563622451E+03  0.10100000352E+00 0.  1.
       -3    1    3    3    0  502  0.67301783714E+03  0.10306751652E+03 -0.65349770532E+02  0.68399307363E+03  0.10100000352E+00 0. -1.
</event>
<event>
 5   0  0.1108819E-03  0.1399574E+04  0.7818609E-02  0.8954127E-01
        2   -1    0    0  501    0  0.00000000000E+00  0.00000000000E+00  0.22012127513E+04  0.22012127513E+04  0.25500000920E-02 0.  1.
       -2   -1    0    0    0  501  0.00000000000E+00  0.00000000000E+00 -0.22246904568E+03  0.22246904569E+03  0.25500000920E-02 0. -1.
    10030    2    1    2    0    0  0.00000000000E+00  0.00000000000E+00  0.19787437056E+04  0.24236817970E+04  0.13995737925E+04 0.  0.
        3    1    3    3  502    0 -0.56833720030E+03 -0.28684534374E+03  0.14925105518E+04  0.16226136885E+04  0.10100000352E+00 0.  1.
       -3    1    3    3    0  502  0.56833720030E+03  0.28684534374E+03  0.48623315381E+03  0.80106810855E+03  0.10100000352E+00 0. -1.
</event>
<event>
 5   0  0.1175146E-03  0.1429218E+04  0.7818609E-02  0.8932937E-01
        2   -1    0    0  501    0  0.00000000000E+00  0.00000000000E+00  0.12090276246E+04  0.12090276246E+04  0.25500000920E-02 0. -1.
       -2   -1    0    0    0  501  0.00000000000E+00  0.00000000000E+00 -0.42237737388E+03  0.42237737388E+03  0.25500000920E-02 0.  1.
    10030    2    1    2    0    0  0.00000000000E+00  0.00000000000E+00  0.78665025067E+03  0.16314049984E+04  0.14292178463E+04 0.  0.
        1    1    3    3  502    0  0.71005473122E+03  0.73104349197E+02  0.43193212736E+03  0.83431848228E+03  0.50400001928E-02 0.  1.
       -1    1    3    3    0  502 -0.71005473122E+03 -0.73104349197E+02  0.35471812331E+03  0.79708651615E+03  0.50400001928E-02 0. -1.
</event>
<event>
 5   0  0.5875298E-04  0.1413164E+04  0.7818609E-02  0.8944345E-01
       -1   -1    0    0    0  501  0.00000000000E+00  0.00000000000E+00  0.55335367628E+03  0.55335367630E+03  0.50400001928E-02 0. -1.
        1   -1    0    0  501    0  0.00000000000E+00  0.00000000000E+00 -0.90224029935E+03  0.90224029936E+03  0.50400001928E-02 0.  1.
    10030    2    1    2    0    0  0.00000000000E+00  0.00000000000E+00 -0.34888662307E+03  0.14555939757E+04  0.14131638073E+04 0.  0.
        1    1    3    3  502    0 -0.69326276677E+03 -0.77801991306E+02 -0.29002465420E+03  0.75550030689E+03  0.50400001928E-02 0.  1.
       -1    1    3    3    0  502  0.69326276677E+03  0.77801991306E+02 -0.58861968877E+02  0.70009366877E+03  0.50400001928E-02 0. -1.
</event>
<event>
 5   0  0.1120053E-03  0.1421416E+04  0.7818609E-02  0.8938461E-01
        2   -1    0    0  501    0  0.00000000000E+00  0.00000000000E+00  0.68359280787E+03  0.68359280787E+03  0.25500000920E-02 0.  1.
       -2   -1    0    0    0  501  0.00000000000E+00  0.00000000000E+00 -0.73889830349E+03  0.73889830349E+03  0.25500000920E-02 0. -1.
    10030    2    1    2    0    0  0.00000000000E+00  0.00000000000E+00 -0.55305495622E+02  0.14224911114E+04  0.14214155846E+04 0.  0.
        2    1    3    3  502    0  0.25458123893E+03 -0.25290405365E+03  0.58627169877E+03  0.68737658700E+03  0.25500000920E-02 0.  1.
       -2    1    3    3    0  502 -0.25458123893E+03  0.25290405365E+03 -0.64157719439E+03  0.73511452437E+03  0.25500000920E-02 0. -1.
</event>
<event>
 5   0  0.1108819E-03  0.1395855E+04  0.7818609E-02  0.8956824E-01
       -2   -1    0    0    0  501  0.00000000000E+00  0.00000000000E+00  0.88845024563E+03  0.88845024564E+03  0.25500000920E-02 0. -1.
        2   -1    0    0  501    0  0.00000000000E+00  0.00000000000E+00 -0.54826114713E+03  0.54826114714E+03  0.25500000920E-02 0.  1.
    10030    2    1    2    0    0  0.00000000000E+00  0.00000000000E+00  0.34018909850E+03  0.14367113928E+04  0.13958549364E+04 0.  0.
        3    1    3    3  502    0 -0.45931658850E+03  0.24880606586E+03 -0.30629903007E+03  0.60555370769E+03  0.10100000352E+00 0.  1.
       -3    1    3    3    0  502  0.45931658850E+03 -0.24880606586E+03  0.64648812857E+03  0.83115768508E+03  0.10100000352E+00 0. -1.
</event>
<event>
 5   0  0.5875298E-04  0.1364126E+04  0.7818609E-02  0.8980203E-01
        1   -1    0    0  501    0  0.00000000000E+00  0.00000000000E+00  0.45769192734E+03  0.45769192737E+03  0.50400001928E-02 0. -1.
       -1   -1    0    0    0  501  0.00000000000E+00  0.00000000000E+00 -0.10164260609E+04  0.10164260609E+04  0.50400001928E-02 0.  1.
    10030    2    1    2    0    0  0.00000000000E+00  0.00000000000E+00 -0.55873413351E+03  0.14741179882E+04  0.13641260980E+04 0.  0.
        1    1    3    3  502    0 -0.66224131069E+03  0.55846599763E+02 -0.44512205313E+03  0.79988501580E+03  0.50400001928E-02 0.  1.
       -1    1    3    3    0  502  0.66224131069E+03 -0.55846599763E+02 -0.11361208038E+03  0.67423297243E+03  0.50400001928E-02 0. -1.
</event>
<event>
 5   0  0.1098949E-03  0.1391626E+04  0.7818609E-02  0.8959902E-01
       -2   -1    0    0    0  501  0.00000000000E+00  0.00000000000E+00  0.86218726575E+03  0.86218726575E+03  0.25500000920E-02 0.  1.
        2   -1    0    0  501    0  0.00000000000E+00  0.00000000000E+00 -0.56154356035E+03  0.56154356035E+03  0.25500000920E-02 0. -1.
    10030    2    1    2    0    0  0.00000000000E+00  0.00000000000E+00  0.30064370540E+03  0.14237308261E+04  0.13916259654E+04 0.  0.
        4    1    3    3  502    0 -0.58444572742E+02 -0.50195076273E+03 -0.33902630702E+03  0.60853166396E+03  0.12699999809E+01 0. -1.
       -4    1    3    3    0  502  0.58444572742E+02  0.50195076273E+03  0.63967001242E+03  0.81519916215E+03  0.12699999809E+01 0.  1.
</event>
<event>
 5   0  0.6153318E-04  0.1406139E+04  0.7818609E-02  0.8949387E-01
       -1   -1    0    0    0  501  0.00000000000E+00  0.00000000000E+00  0.83936487421E+03  0.83936487422E+03  0.50400001928E-02 0.  1.
        1   -1    0    0  501    0  0.00000000000E+00  0.00000000000E+00 -0.58890562366E+03  0.58890562368E+03  0.50400001928E-02 0. -1.
    10030    2    1    2    0    0  0.00000000000E+00  0.00000000000E+00  0.25045925054E+03  0.14282704979E+04  0.14061389615E+04 0.  0.
        5    1    3    3  502    0  0.22201768832E+03  0.32786687605E+03  0.71531734792E+03  0.81761209664E+03  0.46999998093E+01 0.  1.
       -5    1    3    3    0  502 -0.22201768832E+03 -0.32786687605E+03 -0.46485809738E+03  0.61065840126E+03  0.46999998093E+01 0. -1.
</event>
<event>
 5   0  0.1095119E-03  0.1409155E+04  0.7818609E-02  0.8947218E-01
       -2   -1    0    0    0  501  0.00000000000E+00  0.00000000000E+00  0.38027795341E+03  0.38027795342E+03  0.25500000920E-02 0.  1.
        2   -1    0    0  501    0  0.00000000000E+00  0.00000000000E+00 -0.13054389127E+04  0.13054389127E+04  0.25500000920E-02 0. -1.
    10030    2    1    2    0    0  0.00000000000E+00  0.00000000000E+00 -0.92516095926E+03  0.16857168661E+04  0.14091552619E+04 0.  0.
        5    1    3    3  502    0 -0.69108288346E+03 -0.43707768928E+02 -0.30705912018E+03  0.75750466280E+03  0.46999998093E+01 0.  1.
       -5    1    3    3    0  502  0.69108288346E+03  0.43707768928E+02 -0.61810183908E+03  0.92821220330E+03  0.46999998093E+01 0. -1.
</event>
<event>
 5   0  0.1098949E-03  0.1427292E+04  0.7818609E-02  0.8934297E-01
       -2   -1    0    0    0  501  0.00000000000E+00  0.00000000000E+00  0.77245698361E+03  0.77245698361E+03  0.25500000920E-02 0.  1.
        2   -1    0    0  501    0  0.00000000000E+00  0.00000000000E+00 -0.65931286681E+03  0.65931286681E+03  0.25500000920E-02 0. -1.
    10030    2    1    2    0    0  0.00000000000E+00  0.00000000000E+00  0.11314411680E+03  0.14317698504E+04  0.14272923013E+04 0.  0.
        4    1    3    3  502    0  0.59984021253E+03 -0.36298589176E+03  0.19011435105E+03  0.72643796539E+03  0.12699999809E+01 0.  1.
       -4    1    3    3    0  502 -0.59984021253E+03  0.36298589176E+03 -0.76970234250E+02  0.70533188504E+03  0.12699999809E+01 0. -1.
</event>
<event>
 5   0  0.1108819E-03  0.1409891E+04  0.7818609E-02  0.8946690E-01
        2   -1    0    0  501    0  0.00000000000E+00  0.00000000000E+00  0.10468652994E+04  0.10468652994E+04  0.25500000920E-02 0. -1.
       -2   -1    0    0    0  501  0.00000000000E+00  0.00000000000E+00 -0.47470099955E+03  0.47470099955E+03  0.25500000920E-02 0.  1.
    10030    2    1    2    0    0  0.00000000000E+00  0.00000000000E+00  0.57216429984E+03  0.15215662989E+04  0.14098907816E+04 0.  0.
        3    1    3    3  502    0  0.89207813160E+02  0.46254286620E+03  0.85206926201E+03  0.97361490050E+03  0.10100000352E+00 0. -1.
       -3    1    3    3    0  502 -0.89207813160E+02 -0.46254286620E+03 -0.27990496217E+03  0.54795139844E+03  0.10100000352E+00 0.  1.
</event>
<event>
 5   0  0.1095119E-03  0.1406529E+04  0.7818609E-02  0.8949106E-01
       -2   -1    0    0    0  501  0.00000000000E+00  0.00000000000E+00  0.36282053661E+03  0.36282053661E+03  0.25500000920E-02 0.  1.
        2   -1    0    0  501    0  0.00000000000E+00  0.00000000000E+00 -0.13631560870E+04  0.13631560870E+04  0.25500000920E-02 0. -1.
    10030    2    1    2    0    0  0.00000000000E+00  0.00000000000E+00 -0.10003355504E+04  0.17259766236E+04  0.14065290939E+04 0.  0.
        5    1    3    3  502    0 -0.55879283543E+03 -0.37859419197E+03 -0.74242931685E+03  0.10033974166E+04  0.46999998093E+01 0.  1.
       -5    1    3    3    0  502  0.55879283543E+03  0.37859419197E+03 -0.25790623354E+03  0.72257920702E+03  0.46999998093E+01 0. -1.
</event>
<event>
 5   0  0.1098949E-03  0.1378908E+04  0.7818609E-02  0.8969229E-01
       -2   -1    0    0    0  501  0.00000000000E+00  0.00000000000E+00  0.35064081562E+03  0.35064081563E+03  0.25500000920E-02 0. -1.
        2   -1    0    0  501    0  0.00000000000E+00  0.00000000000E+00 -0.13556511777E+04  0.13556511777E+04  0.25500000920E-02 0.  1.
    10030    2    1    2    0    0  0.00000000000E+00  0.00000000000E+00 -0.10050103621E+04  0.17062919933E+04  0.13789077339E+04 0.  0.
        4    1    3    3  502    0  0.22409445602E+03  0.60405217075E+03 -0.19877476926E+03  0.67424800482E+03  0.12699999809E+01 0. -1.
       -4    1    3    3    0  502 -0.22409445602E+03 -0.60405217075E+03 -0.80623559283E+03  0.10320439885E+04  0.12699999809E+01 0.  1.
</event>
<event>
 5   0  0.1108819E-03  0.1402996E+04  0.7818609E-02  0.8951652E-01
       -2   -1    0    0    0  501  0.00000000000E+00  0.00000000000E+00  0.92388602219E+03  0.92388602219E+03  0.25500000920E-02 0.  1.
        2   -1    0    0  501    0  0.00000000000E+00  0.00000000000E+00 -0.53264118951E+03  0.53264118952E+03  0.25500000920E-02 0. -1.
    10030    2    1    2    0    0  0.00000000000E+00  0.00000000000E+00  0.39124483267E+03  0.14565272117E+04  0.14029964360E+04 0.  0.
        3    1    3    3  502    0  0.27092804635E+03 -0.21207233341E+03 -0.43903152628E+03  0.55778613479E+03  0.10100000352E+00 0. -1.
       -3    1    3    3    0  502 -0.27092804635E+03  0.21207233341E+03  0.83027635895E+03  0.89874107692E+03  0.10100000352E+00 0.  1.
</event>
<event>
 5   0  0.6153318E-04  0.1411153E+04  0.7818609E-02  0.8945785E-01
        1   -1    0    0  501    0  0.00000000000E+00  0.00000000000E+00  0.83444614441E+03  0.83444614442E+03  0.50400001928E-02 0.  1.
       -1   -1    0    0    0  501  0.00000000000E+00  0.00000000000E+00 -0.59660915276E+03  0.59660915278E+03  0.50400001928E-02 0. -1.
    10030    2    1    2    0    0  0.00000000000E+00  0.00000000000E+00  0.23783699164E+03  0.14310552972E+04  0.14111530140E+04 0.  0.
        5    1    3    3  502    0  0.42180508111E+03  0.50922129085E+03 -0.13070401301E+03  0.67404115492E+03  0.46999998093E+01 0. -1.
       -5    1    3    3    0  502 -0.42180508111E+03 -0.50922129085E+03  0.36854100465E+03  0.75701414228E+03  0.46999998093E+01 0.  1.
</event>
<event>
 5   0  0.1175146E-03  0.1408909E+04  0.7818609E-02  0.8947395E-01
        2   -1    0    0  501    0  0.00000000000E+00  0.00000000000E+00  0.26194237691E+04  0.26194237691E+04  0.25500000920E-02 0. -1.
       -2   -1    0    0    0  501  0.00000000000E+00  0.00000000000E+00 -0.18945229528E+03  0.18945229530E+03  0.25500000920E-02 0.  1.
    10030    2    1    2    0    0  0.00000000000E+00  0.00000000000E+00  0.24299714738E+04  0.28088760644E+04  0.14089085782E+04 0.  0.
        1    1    3    3  502    0 -0.33811432346E+03 -0.23602382247E+03  0.23536873033E+04  0.23895339425E+04  0.50400001928E-02 0. -1.
       -1    1    3    3    0  502  0.33811432346E+03  0.23602382247E+03  0.76284170474E+02  0.41934212189E+03  0.50400001928E-02 0.  1.
</event>
<event>
 5   0  0.6114266E-04  0.1379285E+04  0.7818609E-02  0.8968951E-01
       -1   -1    0    0    0  501  0.00000000000E+00  0.00000000000E+00  0.65736025259E+03  0.65736025261E+03  0.50400001928E-02 0. -1.
        1   -1    0    0  501    0  0.00000000000E+00  0.00000000000E+00 -0.72351045583E+03  0.72351045585E+03  0.50400001928E-02 0.  1.
    10030    2    1    2    0    0  0.00000000000E+00  0.00000000000E+00 -0.66150203241E+02  0.13808707085E+04  0.13792853454E+04 0.  0.
        3    1    3    3  502    0  0.32050145881E+03 -0.32660461616E+03  0.48347845568E+03  0.66569000871E+03  0.10100000352E+00 0. -1.
       -3    1    3    3    0  502 -0.32050145881E+03  0.32660461616E+03 -0.54962865892E+03  0.71518069975E+03  0.10100000352E+00 0.  1.
</event>
<event>
 5   0  0.1098949E-03  0.1410759E+04  0.7818609E-02  0.8946067E-01
       -2   -1    0    0    0  501  0.00000000000E+00  0.00000000000E+00  0.27337396052E+03  0.27337396053E+03  0.25500000920E-02 0.  1.
        2   -1    0    0  501    0  0.00000000000E+00  0.00000000000E+00 -0.18200716579E+04  0.18200716579E+04  0.25500000920E-02 0. -1.
    10030    2    1    2    0    0  0.00000000000E+00  0.00000000000E+00 -0.15466976974E+04  0.20934456184E+04  0.14107589412E+04 0.  0.
        4    1    3    3  502    0 -0.29091089653E+03 -0.47102358849E+03 -0.14219845089E+04  0.15259534485E+04  0.12699999809E+01 0. -1.
       -4    1    3    3    0  502  0.29091089653E+03  0.47102358849E+03 -0.12471318851E+03  0.56749216992E+03  0.12699999809E+01 0.  1.
</event>
<event>
 5   0  0.1098949E-03  0.1399920E+04  0.7818609E-02  0.8953877E-01
       -2   -1    0    0    0  501  0.00000000000E+00  0.00000000000E+00  0.10733816919E+04  0.10733816919E+04  0.25500000920E-02 0.  1.
        2   -1    0    0  501    0  0.00000000000E+00  0.00000000000E+00 -0.45644881440E+03  0.45644881441E+03  0.25500000920E-02 0. -1.
    10030    2    1    2    0    0  0.00000000000E+00  0.00000000000E+00  0.61693287746E+03  0.15298305063E+04  0.13999197129E+04 0.  0.
        4    1    3    3  502    0  0.11225188854E+03 -0.53610591897E+03 -0.16778842535E+03  0.57285653651E+03  0.12699999809E+01 0. -1.
       -4    1    3    3    0  502 -0.11225188854E+03  0.53610591897E+03  0.78472130281E+03  0.95697396977E+03  0.12699999809E+01 0.  1.
</event>
<event>
 5   0  0.4176125E-04  0.1390799E+04  0.7818609E-02  0.8960506E-01
        3   -1    0    0  501    0  0.00000000000E+00  0.00000000000E+00  0.10310902596E+04  0.10310902645E+04  0.10100000352E+00 0.  1.
       -3   -1    0    0    0  501  0.00000000000E+00  0.00000000000E+00 -0.46899899829E+03  0.46899900917E+03  0.10100000352E+00 0. -1.
    10030    2    1    2    0    0  0.00000000000E+00  0.00000000000E+00  0.56209126127E+03  0.15000892737E+04  0.13907987788E+04 0.  0.
        1    1    3    3  502    0 -0.18116726241E+03  0.54615827285E+03  0.70220340968E+03  0.90785464947E+03  0.50400001928E-02 0.  1.
       -1    1    3    3    0  502  0.18116726241E+03 -0.54615827285E+03 -0.14011214840E+03  0.59223462422E+03  0.50400001928E-02 0. -1.
</event>
<event>
 5   0  0.1098949E-03  0.1387499E+04  0.7818609E-02  0.8962917E-01
        2   -1    0    0  501    0  0.00000000000E+00  0.00000000000E+00  0.11728775891E+04  0.11728775891E+04  0.25500000920E-02 0.  1.
       -2   -1    0    0    0  501  0.00000000000E+00  0.00000000000E+00 -0.41034835660E+03  0.41034835661E+03  0.25500000920E-02 0. -1.
    10030    2    1    2    0    0  0.00000000000E+00  0.00000000000E+00  0.76252923245E+03  0.15832259457E+04  0.13874990323E+04 0.  0.
        4    1    3    3  502    0 -0.12699974736E+02  0.14080658435E+03 -0.39373495743E+03  0.41834986932E+03  0.12699999809E+01 0. -1.
       -4    1    3    3    0  502  0.12699974736E+02 -0.14080658435E+03  0.11562641899E+04  0.11648760764E+04  0.12699999809E+01 0.  1.
</event>
<event>
 5   0  0.1175146E-03  0.1401731E+04  0.7818609E-02  0.8952567E-01
        2   -1    0    0  501    0  0.00000000000E+00  0.00000000000E+00  0.65383225869E+03  0.65383225869E+03  0.25500000920E-02 0. -1.
       -2   -1    0    0    0  501  0.00000000000E+00  0.00000000000E+00 -0.75128164544E+03  0.75128164544E+03  0.25500000920E-02 0.  1.
    10030    2    1    2    0    0  0.00000000000E+00  0.00000000000E+00 -0.97449386750E+02  0.14051139041E+04  0.14017306091E+04 0.  0.
        1    1    3    3  502    0 -0.55730860962E+03  0.41570763386E+03 -0.13729207771E+03  0.70869939878E+03  0.50400001928E-02 0. -1.
       -1    1    3    3    0  502  0.55730860962E+03 -0.41570763386E+03  0.39842690955E+02  0.69641450535E+03  0.50400001928E-02 0.  1.
</event>
<event>
 5   0  0.6194742E-04  0.1407554E+04  0.7818609E-02  0.8948368E-01
       -1   -1    0    0    0  501  0.00000000000E+00  0.00000000000E+00  0.49569873629E+03  0.49569873632E+03  0.50400001928E-02 0.  1.
        1   -1    0    0  501    0  0.00000000000E+00  0.00000000000E+00 -0.99920043725E+03  0.99920043726E+03  0.50400001928E-02 0. -1.
    10030    2    1    2    0    0  0.00000000000E+00  0.00000000000E+00 -0.50350170096E+03  0.14948991736E+04  0.14075544665E+04 0.  0.
        4    1    3    3  502    0  0.58176650870E+03  0.15232403443E+03 -0.64001251404E+03  0.87822122107E+03  0.12699999809E+01 0. -1.
       -4    1    3    3    0  502 -0.58176650870E+03 -0.15232403443E+03  0.13651081309E+03  0.61667795250E+03  0.12699999809E+01 0.  1.
</event>
<event>
 5   0  0.4176125E-04  0.1380037E+04  0.7818609E-02  0.8968397E-01
       -3   -1    0    0    0  501  0.00000000000E+00  0.00000000000E+00  0.77461344533E+03  0.77461345192E+03  0.10100000352E+00 0. -1.
        3   -1    0    0  501    0  0.00000000000E+00  0.00000000000E+00 -0.61466243057E+03  0.61466243887E+03  0.10100000352E+00 0.  1.
    10030    2    1    2    0    0  0.00000000000E+00  0.00000000000E+00  0.15995101476E+03  0.13892758908E+04  0.13800373812E+04 0.  0.
        3    1    3    3  502    0 -0.19014517688E+03 -0.96994081433E+02 -0.58058996948E+03  0.61858529160E+03  0.10100000352E+00 0.  1.
       -3    1    3    3    0  502  0.19014517688E+03  0.96994081433E+02  0.74054098424E+03  0.77069059918E+03  0.10100000352E+00 0. -1.
</event>
<event>
 5   0  0.6153318E-04  0.1396820E+04  0.7818609E-02  0.8956123E-01
       -1   -1    0    0    0  501  0.00000000000E+00  0.00000000000E+00  0.11756613688E+04  0.11756613688E+04  0.50400001928E-02 0. -1.
        1   -1    0    0  501    0  0.00000000000E+00  0.00000000000E+00 -0.41489566356E+03  0.41489566360E+03  0.50400001928E-02 0.  1.
    10030    2    1    2    0    0  0.00000000000E+00  0.00000000000E+00  0.76076570523E+03  0.15905570324E+04  0.13968203947E+04 0.  0.
        5    1    3    3  502    0 -0.28012734428E+03  0.26537856768E+03  0.10432359567E+04  0.11123221046E+04  0.46999998093E+01 0. -1.
       -5    1    3    3    0  502  0.28012734428E+03 -0.26537856768E+03 -0.28247025143E+03  0.47823492777E+03  0.46999998093E+01 0.  1.
</event>
<event>
 5   0  0.1098949E-03  0.1381261E+04  0.7818609E-02  0.8967496E-01
        2   -1    0    0  501    0  0.00000000000E+00  0.00000000000E+00  0.13055392333E+04  0.13055392333E+04  0.25500000920E-02 0. -1.
       -2   -1    0    0    0  501  0.00000000000E+00  0.00000000000E+00 -0.36534358002E+03  0.36534358003E+03  0.25500000920E-02 0.  1.
    10030    2    1    2    0    0  0.00000000000E+00  0.00000000000E+00  0.94019565328E+03  0.16708828133E+04  0.13812608405E+04 0.  0.
        4    1    3    3  502    0 -0.30379711788E+03 -0.96945710731E+02 -0.27095064591E+03  0.41845791315E+03  0.12699999809E+01 0.  1.
       -4    1    3    3    0  502  0.30379711788E+03  0.96945710731E+02  0.12111462992E+04  0.12524249002E+04  0.12699999809E+01 0. -1.
</event>
<event>
 5   0  0.1175146E-03  0.1313341E+04  0.7818609E-02  0.9019052E-01
        2   -1    0    0  501    0  0.00000000000E+00  0.00000000000E+00  0.14197319629E+04  0.14197319629E+04  0.25500000920E-02 0. -1.
       -2   -1    0    0    0  501  0.00000000000E+00  0.00000000000E+00 -0.30373046419E+03  0.30373046421E+03  0.25500000920E-02 0.  1.
    10030    2    1    2    0    0  0.00000000000E+00  0.00000000000E+00  0.11160014987E+04  0.17234624271E+04  0.13133405471E+04 0.  0.
        1    1    3    3  502    0  0.44693343071E+03 -0.45370454007E+03  0.34796089231E+03  0.72572314540E+03  0.50400001928E-02 0.  1.
       -1    1    3    3    0  502 -0.44693343071E+03  0.45370454007E+03  0.76804060641E+03  0.99773928172E+03  0.50400001928E-02 0. -1.
</event>
<event>
 5   0  0.1120053E-03  0.1402756E+04  0.7818609E-02  0.8951826E-01
       -2   -1    0    0    0  501  0.00000000000E+00  0.00000000000E+00  0.67503864976E+03  0.67503864976E+03  0.25500000920E-02 0.  1.
        2   -1    0    0  501    0  0.00000000000E+00  0.00000000000E+00 -0.72874471036E+03  0.72874471037E+03  0.25500000920E-02 0. -1.
    10030    2    1    2    0    0  0.00000000000E+00  0.00000000000E+00 -0.53706060602E+02  0.14037833601E+04  0.14027556385E+04 0.  0.
        2    1    3    3  502    0  0.36389100208E+03 -0.35956098391E+03  0.45332147975E+03  0.68352112370E+03  0.25500000920E-02 0.  1.
       -2    1    3    3    0  502 -0.36389100208E+03  0.35956098391E+03 -0.50702754035E+03  0.72026223643E+03  0.25500000920E-02 0. -1.
</event>
<event>
 5   0  0.1095119E-03  0.1408276E+04  0.7818609E-02  0.8947850E-01
        2   -1    0    0  501    0  0.00000000000E+00  0.00000000000E+00  0.20413459122E+04  0.20413459122E+04  0.25500000920E-02 0.  1.
       -2   -1    0    0    0  501  0.00000000000E+00  0.00000000000E+00 -0.24288394915E+03  0.24288394916E+03  0.25500000920E-02 0. -1.
    10030    2    1    2    0    0  0.00000000000E+00  0.00000000000E+00  0.17984619631E+04  0.22842298614E+04  0.14082757638E+04 0.  0.
        5    1    3    3  502    0  0.90090768862E+02 -0.17766794876E+03  0.19946616775E+04  0.20045896200E+04  0.46999998093E+01 0.  1.
       -5    1    3    3    0  502 -0.90090768862E+02  0.17766794876E+03 -0.19619971448E+03  0.27964024140E+03  0.46999998093E+01 0. -1.
</event>
<event>
 5   0  0.1120053E-03  0.1391288E+04  0.7818609E-02  0.8960149E-01
        2   -1    0    0  501    0  0.00000000000E+00  0.00000000000E+00  0.13294832944E+04  0.13294832944E+04  0.25500000920E-02 0. -1.
       -2   -1    0    0    0  501  0.00000000000E+00  0.00000000000E+00 -0.36399158929E+03  0.36399158930E+03  0.25500000920E-02 0.  1.
    10030    2    1    2    0    0  0.00000000000E+00  0.00000000000E+00  0.96549170511E+03  0.16934748837E+04  0.13912882337E+04 0.  0.
        2    1    3    3  502    0 -0.13207968016E+03  0.24763295159E+03 -0.29202184916E+03  0.40502330922E+03  0.25500000920E-02 0.  1.
       -2    1    3    3    0  502  0.13207968016E+03 -0.24763295159E+03  0.12575135543E+04  0.12884515745E+04  0.25500000920E-02 0. -1.
</event>
<event>
 5   0  0.6114266E-04  0.1394402E+04  0.7818609E-02  0.8957881E-01
        1   -1    0    0  501    0  0.00000000000E+00  0.00000000000E+00  0.12802426819E+04  0.12802426819E+04  0.50400001928E-02 0. -1.
       -1   -1    0    0    0  501  0.00000000000E+00  0.00000000000E+00 -0.37968532150E+03  0.37968532153E+03  0.50400001928E-02 0.  1.
    10030    2    1    2    0    0  0.00000000000E+00  0.00000000000E+00  0.90055736041E+03  0.16599280035E+04  0.13944021720E+04 0.  0.
        3    1    3    3  502    0  0.16448555915E+03  0.54432918900E+03  0.93050703054E+03  0.10905013110E+04  0.10100000352E+00 0. -1.
       -3    1    3    3    0  502 -0.16448555915E+03 -0.54432918900E+03 -0.29949670124E+02  0.56942669248E+03  0.10100000352E+00 0.  1.
</event>
<event>
 5   0  0.1175146E-03  0.1401483E+04  0.7818609E-02  0.8952746E-01
        2   -1    0    0  501    0  0.00000000000E+00  0.00000000000E+00  0.30688021788E+03  0.30688021789E+03  0.25500000920E-02 0. -1.
       -2   -1    0    0    0  501  0.00000000000E+00  0.00000000000E+00 -0.16000976655E+04  0.16000976655E+04  0.25500000920E-02 0.  1.
    10030    2    1    2    0    0  0.00000000000E+00  0.00000000000E+00 -0.12932174476E+04  0.19069778834E+04  0.14014825297E+04 0.  0.
        1    1    3    3  502    0  0.16119921314E+02 -0.54812956738E+03 -0.52980717560E+02  0.55091998599E+03  0.50400001928E-02 0. -1.
       -1    1    3    3    0  502 -0.16119921314E+02  0.54812956738E+03 -0.12402367301E+04  0.13560578974E+04  0.50400001928E-02 0.  1.
</event>
<event>
 5   0  0.6097538E-04  0.1397045E+04  0.7818609E-02  0.8955960E-01
        1   -1    0    0  501    0  0.00000000000E+00  0.00000000000E+00  0.42839110477E+03  0.42839110480E+03  0.50400001928E-02 0. -1.
       -1   -1    0    0    0  501  0.00000000000E+00  0.00000000000E+00 -0.11389914100E+04  0.11389914100E+04  0.50400001928E-02 0.  1.
    10030    2    1    2    0    0  0.00000000000E+00  0.00000000000E+00 -0.71060030522E+03  0.15673825148E+04  0.13970451510E+04 0.  0.
        2    1    3    3  502    0 -0.43535863069E+03 -0.85985223825E+02 -0.96052037675E+03  0.10580784424E+04  0.25500000920E-02 0.  1.
       -2    1    3    3    0  502  0.43535863069E+03  0.85985223825E+02  0.24992007153E+03  0.50930407243E+03  0.25500000920E-02 0. -1.
</event>
<event>
 5   0  0.6194742E-04  0.1410488E+04  0.7818609E-02  0.8946262E-01
       -1   -1    0    0    0  501  0.00000000000E+00  0.00000000000E+00  0.57280784807E+03  0.57280784809E+03  0.50400001928E-02 0.  1.
        1   -1    0    0  501    0  0.00000000000E+00  0.00000000000E+00 -0.86830001075E+03  0.86830001077E+03  0.50400001928E-02 0. -1.
    10030    2    1    2    0    0  0.00000000000E+00  0.00000000000E+00 -0.29549216268E+03  0.14411078589E+04  0.14104879449E+04 0.  0.
        4    1    3    3  502    0  0.28492028706E+03 -0.22074147070E+03  0.47159912699E+03  0.59356020448E+03  0.12699999809E+01 0.  1.
       -4    1    3    3    0  502 -0.28492028706E+03  0.22074147070E+03 -0.76709128967E+03  0.84754765438E+03  0.12699999809E+01 0. -1.
</event>
<event>
 5   0  0.1108819E-03  0.1397257E+04  0.7818609E-02  0.8955807E-01
        2   -1    0    0  501    0  0.00000000000E+00  0.00000000000E+00  0.66553345015E+03  0.66553345015E+03  0.25500000920E-02 0.  1.
       -2   -1    0    0    0  501  0.00000000000E+00  0.00000000000E+00 -0.73336910397E+03  0.73336910398E+03  0.25500000920E-02 0. -1.
    10030    2    1    2    0    0  0.00000000000E+00  0.00000000000E+00 -0.67835653821E+02  0.13989025541E+04  0.13972568411E+04 0.  0.
        3    1    3    3  502    0 -0.41940689343E+03 -0.49963229639E+03 -0.28430654626E+03  0.71159313958E+03  0.10100000352E+00 0. -1.
       -3    1    3    3    0  502  0.41940689343E+03  0.49963229639E+03  0.21647089244E+03  0.68730941455E+03  0.10100000352E+00 0.  1.
</event>
<event>
 5   0  0.1095119E-03  0.1433606E+04  0.7818609E-02  0.8929846E-01
       -2   -1    0    0    0  501  0.00000000000E+00  0.00000000000E+00  0.74134589907E+03  0.74134589907E+03  0.25500000920E-02 0.  1.
        2   -1    0    0  501    0  0.00000000000E+00  0.00000000000E+00 -0.69307267436E+03  0.69307267437E+03  0.25500000920E-02 0. -1.
    10030    2    1    2    0    0  0.00000000000E+00  0.00000000000E+00  0.48273224708E+02  0.14344185734E+04  0.14336060615E+04 0.  0.
        5    1    3    3  502    0  0.58143032553E+03  0.41918956750E+03  0.22297648786E+02  0.71714739914E+03  0.46999998093E+01 0. -1.
       -5    1    3    3    0  502 -0.58143032553E+03 -0.41918956750E+03  0.25975575922E+02  0.71727117431E+03  0.46999998093E+01 0.  1.
</event>
<event>
 5   0  0.4176125E-04  0.1422033E+04  0.7818609E-02  0.8938023E-01
        3   -1    0    0  501    0  0.00000000000E+00  0.00000000000E+00  0.20889545680E+03  0.20889548121E+03  0.10100000352E+00 0.  1.
       -3   -1    0    0    0  501  0.00000000000E+00  0.00000000000E+00 -0.24200823113E+04  0.24200823134E+04  0.10100000352E+00 0. -1.
    10030    2    1    2    0    0  0.00000000000E+00  0.00000000000E+00 -0.22111868545E+04  0.26289777947E+04  0.14220326786E+04 0.  0.
        3    1    3    3  502    0  0.36309229731E+03 -0.46260061745E+03 -0.18444189149E+04  0.19359019840E+04  0.10100000352E+00 0. -1.
       -3    1    3    3    0  502 -0.36309229731E+03  0.46260061745E+03 -0.36676793962E+03  0.69307581069E+03  0.10100000352E+00 0.  1.
</event>
<event>
 5   0  0.1095119E-03  0.1426848E+04  0.7818609E-02  0.8934611E-01
       -2   -1    0    0    0  501  0.00000000000E+00  0.00000000000E+00  0.64905482188E+03  0.64905482188E+03  0.25500000920E-02 0. -1.
        2   -1    0    0  501    0  0.00000000000E+00  0.00000000000E+00 -0.78417686961E+03  0.78417686962E+03  0.25500000920E-02 0.  1.
    10030    2    1    2    0    0  0.00000000000E+00  0.00000000000E+00 -0.13512204774E+03  0.14332316915E+04  0.14268479645E+04 0.  0.
        5    1    3    3  502    0 -0.31003069003E+03  0.50806578594E+03  0.32752021754E+03  0.67936842324E+03  0.46999998093E+01 0. -1.
       -5    1    3    3    0  502  0.31003069003E+03 -0.50806578594E+03 -0.46264226528E+03  0.75386326826E+03  0.46999998093E+01 0.  1.
</event>
<event>
 5   0  0.1175146E-03  0.1400186E+04  0.7818609E-02  0.8953684E-01
        2   -1    0    0  501    0  0.00000000000E+00  0.00000000000E+00  0.10667786509E+04  0.10667786509E+04  0.25500000920E-02 0. -1.
       -2   -1    0    0    0  501  0.00000000000E+00  0.00000000000E+00 -0.45944885836E+03  0.45944885836E+03  0.25500000920E-02 0.  1.
    10030    2    1    2    0    0  0.00000000000E+00  0.00000000000E+00  0.60732979257E+03  0.15262275093E+04  0.14001860352E+04 0.  0.
        1    1    3    3  502    0  0.67577743406E+03  0.94004098617E+02  0.47469114185E+03  0.83117001337E+03  0.50400001928E-02 0. -1.
       -1    1    3    3    0  502 -0.67577743406E+03 -0.94004098617E+02  0.13263865071E+03  0.69505749592E+03  0.50400001928E-02 0.  1.
</event>
<event>
 5   0  0.6194742E-04  0.1390796E+04  0.7818609E-02  0.8960508E-01
        1   -1    0    0  501    0  0.00000000000E+00  0.00000000000E+00  0.10064092217E+04  0.10064092218E+04  0.50400001928E-02 0.  1.
       -1   -1    0    0    0  501  0.00000000000E+00  0.00000000000E+00 -0.48049874099E+03  0.48049874102E+03  0.50400001928E-02 0. -1.
    10030    2    1    2    0    0  0.00000000000E+00  0.00000000000E+00  0.52591048075E+03  0.14869079628E+04  0.13907959793E+04 0.  0.
        4    1    3    3  502    0 -0.14092889682E+03  0.27060991480E+03 -0.40511701202E+03  0.50716080909E+03  0.12699999809E+01 0. -1.
       -4    1    3    3    0  502  0.14092889682E+03 -0.27060991480E+03  0.93102749278E+03  0.97974715369E+03  0.12699999809E+01 0.  1.
</event>
<event>
 5   0  0.6153318E-04  0.1403150E+04  0.7818609E-02  0.8951542E-01
        1   -1    0    0  501    0  0.00000000000E+00  0.00000000000E+00  0.88307823645E+03  0.88307823647E+03  0.50400001928E-02 0.  1.
       -1   -1    0    0    0  501  0.00000000000E+00  0.00000000000E+00 -0.55737699231E+03  0.55737699233E+03  0.50400001928E-02 0. -1.
    10030    2    1    2    0    0  0.00000000000E+00  0.00000000000E+00  0.32570124414E+03  0.14404552288E+04  0.14031500154E+04 0.  0.
        5    1    3    3  502    0  0.68694597058E+03 -0.11328361391E+03  0.74198107169E+02  0.70018239965E+03  0.46999998093E+01 0. -1.
       -5    1    3    3    0  502 -0.68694597058E+03  0.11328361391E+03  0.25150313697E+03  0.74027282915E+03  0.46999998093E+01 0.  1.
</event>
<event>
 5   0  0.1095119E-03  0.1398720E+04  0.7818609E-02  0.8954746E-01
        2   -1    0    0  501    0  0.00000000000E+00  0.00000000000E+00  0.29285227786E+04  0.29285227786E+04  0.25500000920E-02 0.  1.
       -2   -1    0    0    0  501  0.00000000000E+00  0.00000000000E+00 -0.16701398998E+03  0.16701399000E+03  0.25500000920E-02 0. -1.
    10030    2    1    2    0    0  0.00000000000E+00  0.00000000000E+00  0.27615087887E+04  0.30955367686E+04  0.13987198062E+04 0.  0.
        5    1    3    3  502    0  0.12989548461E+03  0.12722600365E+03 -0.11375470673E+03  0.21452626000E+03  0.46999998093E+01 0. -1.
       -5    1    3    3    0  502 -0.12989548461E+03 -0.12722600365E+03  0.28752634954E+04  0.28810105086E+04  0.46999998093E+01 0.  1.
</event>
<event>
 5   0  0.1120053E-03  0.1398951E+04  0.7818609E-02  0.8954578E-01
       -2   -1    0    0    0  501  0.00000000000E+00  0.00000000000E+00  0.26887129250E+03  0.26887129252E+03  0.25500000920E-02 0.  1.
        2   -1    0    0  501    0  0.00000000000E+00  0.00000000000E+00 -0.18197023000E+04  0.18197023000E+04  0.25500000920E-02 0. -1.
    10030    2    1    2    0    0  0.00000000000E+00  0.00000000000E+00 -0.15508310075E+04  0.20885735925E+04  0.13989506201E+04 0.  0.
        2    1    3    3  502    0  0.30095513565E+03 -0.51741267753E+03 -0.13157254825E+04  0.14454838007E+04  0.25500000920E-02 0. -1.
       -2    1    3    3    0  502 -0.30095513565E+03  0.51741267753E+03 -0.23510552496E+03  0.64308979187E+03  0.25500000920E-02 0.  1.
</event>
<event>
 5   0  0.1108819E-03  0.1401271E+04  0.7818609E-02  0.8952899E-01
       -2   -1    0    0    0  501  0.00000000000E+00  0.00000000000E+00  0.22327928539E+03  0.22327928540E+03  0.25500000920E-02 0. -1.
        2   -1    0    0  501    0  0.00000000000E+00  0.00000000000E+00 -0.21985489521E+04  0.21985489521E+04  0.25500000920E-02 0.  1.
    10030    2    1    2    0    0  0.00000000000E+00  0.00000000000E+00 -0.19752696667E+04  0.24218282375E+04  0.14012714782E+04 0.  0.
        3    1    3    3  502    0 -0.68931803368E+03  0.99743677841E+02 -0.85621211028E+03  0.11037243047E+04  0.10100000352E+00 0. -1.
       -3    1    3    3    0  502  0.68931803368E+03 -0.99743677841E+02 -0.11190575564E+04  0.13181039328E+04  0.10100000352E+00 0.  1.
</event>
<event>
 5   0  0.5875298E-04  0.1409966E+04  0.7818609E-02  0.8946636E-01
       -1   -1    0    0    0  501  0.00000000000E+00  0.00000000000E+00  0.69832260409E+03  0.69832260411E+03  0.50400001928E-02 0. -1.
        1   -1    0    0  501    0  0.00000000000E+00  0.00000000000E+00 -0.71170732501E+03  0.71170732503E+03  0.50400001928E-02 0.  1.
    10030    2    1    2    0    0  0.00000000000E+00  0.00000000000E+00 -0.13384720921E+02  0.14100299291E+04  0.14099664004E+04 0.  0.
        1    1    3    3  502    0 -0.47827650176E+03  0.48679113798E+03  0.17019774069E+03  0.70333583380E+03  0.50400001928E-02 0. -1.
       -1    1    3    3    0  502  0.47827650176E+03 -0.48679113798E+03 -0.18358246161E+03  0.70669409534E+03  0.50400001928E-02 0.  1.
</event>
<event>
 5   0  0.1108819E-03  0.1434724E+04  0.7818609E-02  0.8929060E-01
       -2   -1    0    0    0  501  0.00000000000E+00  0.00000000000E+00  0.35518331455E+03  0.35518331456E+03  0.25500000920E-02 0. -1.
        2   -1    0    0  501    0  0.00000000000E+00  0.00000000000E+00 -0.14488530856E+04  0.14488530856E+04  0.25500000920E-02 0.  1.
    10030    2    1    2    0    0  0.00000000000E+00  0.00000000000E+00 -0.10936697711E+04  0.18040364002E+04  0.14347242819E+04 0.  0.
        3    1    3    3  502    0 -0.36452645159E+03  0.60283565188E+03 -0.37665165960E+03  0.79884719438E+03  0.10100000352E+00 0. -1.
       -3    1    3    3    0  502  0.36452645159E+03 -0.60283565188E+03 -0.71701811147E+03  0.10051892058E+04  0.10100000352E+00 0.  1.
</event>
<event>
 5   0  0.1095119E-03  0.1402145E+04  0.7818609E-02  0.8952267E-01
        2   -1    0    0  501    0  0.00000000000E+00  0.00000000000E+00  0.11030516348E+04  0.11030516348E+04  0.25500000920E-02 0. -1.
       -2   -1    0    0    0  501  0.00000000000E+00  0.00000000000E+00 -0.44558447805E+03  0.44558447805E+03  0.25500000920E-02 0.  1.
    10030    2    1    2    0    0  0.00000000000E+00  0.00000000000E+00  0.65746715671E+03  0.15486361128E+04  0.14021450523E+04 0.  0.
        5    1    3    3  502    0 -0.54706326558E+03 -0.38773416852E+03  0.55471871993E+03  0.87025912821E+03  0.46999998093E+01 0. -1.
       -5    1    3    3    0  502  0.54706326558E+03  0.38773416852E+03  0.10274843678E+03  0.67837698461E+03  0.46999998093E+01 0.  1.
</event>
<event>
 5   0  0.5875298E-04  0.1394053E+04  0.7818609E-02  0.8958135E-01
        1   -1    0    0  501    0  0.00000000000E+00  0.00000000000E+00  0.19456231879E+04  0.19456231879E+04  0.50400001928E-02 0. -1.
       -1   -1    0    0    0  501  0.00000000000E+00  0.00000000000E+00 -0.24971221804E+03  0.24971221809E+03  0.50400001928E-02 0.  1.
    10030    2    1    2    0    0  0.00000000000E+00  0.00000000000E+00  0.16959109698E+04  0.21953354060E+04  0.13940529140E+04 0.  0.
        1    1    3    3  502    0  0.47406951025E+03  0.41076185126E+03  0.13265938493E+04  0.14674189722E+04  0.50400001928E-02 0.  1.
       -1    1    3    3    0  502 -0.47406951025E+03 -0.41076185126E+03  0.36931712056E+03  0.72791643378E+03  0.50400001928E-02 0. -1.
</event>
<event>
 5   0  0.6097538E-04  0.1396254E+04  0.7818609E-02  0.8956534E-01
       -1   -1    0    0    0  501  0.00000000000E+00  0.00000000000E+00  0.11038942697E+04  0.11038942697E+04  0.50400001928E-02 0.  1.
        1   -1    0    0  501    0  0.00000000000E+00  0.00000000000E+00 -0.44151110011E+03  0.44151110013E+03  0.50400001928E-02 0. -1.
    10030    2    1    2    0    0  0.00000000000E+00  0.00000000000E+00  0.66238316961E+03  0.15454053699E+04  0.13962543801E+04 0.  0.
        2    1    3    3  502    0  0.64243627356E+03  0.26319061501E+03  0.24994821003E+03  0.73788059544E+03  0.25500000920E-02 0. -1.
       -2    1    3    3    0  502 -0.64243627356E+03 -0.26319061501E+03  0.41243495957E+03  0.80752477442E+03  0.25500000920E-02 0.  1.
</event>
<event>
 5   0  0.1098949E-03  0.1405652E+04  0.7818609E-02  0.8949737E-01
        2   -1    0    0  501    0  0.00000000000E+00  0.00000000000E+00  0.11950731255E+04  0.11950731255E+04  0.25500000920E-02 0. -1.
       -2   -1    0    0    0  501  0.00000000000E+00  0.00000000000E+00 -0.41333405236E+03  0.41333405237E+03  0.25500000920E-02 0.  1.
    10030    2    1    2    0    0  0.00000000000E+00  0.00000000000E+00  0.78173907315E+03  0.16084071779E+04  0.14056520449E+04 0.  0.
        4    1    3    3  502    0  0.33591395705E+03 -0.14905284500E+03 -0.29463394247E+03  0.47102623080E+03  0.12699999809E+01 0.  1.
       -4    1    3    3    0  502 -0.33591395705E+03  0.14905284500E+03  0.10763730156E+04  0.11373809471E+04  0.12699999809E+01 0. -1.
</event>
<event>
 5   0  0.1098949E-03  0.1238696E+04  0.7818609E-02  0.9079644E-01
        2   -1    0    0  501    0  0.00000000000E+00  0.00000000000E+00  0.21864192175E+04  0.21864192175E+04  0.25500000920E-02 0.  1.
       -2   -1    0    0    0  501  0.00000000000E+00  0.00000000000E+00 -0.17544311031E+03  0.17544311033E+03  0.25500000920E-02 0. -1.
    10030    2    1    2    0    0  0.00000000000E+00  0.00000000000E+00  0.20109761072E+04  0.23618623279E+04  0.12386963922E+04 0.  0.
        4    1    3    3  502    0 -0.59112005912E+03 -0.17317348771E+03  0.88223298378E+03  0.10759872823E+04  0.12699999809E+01 0. -1.
       -4    1    3    3    0  502  0.59112005912E+03  0.17317348771E+03  0.11287431234E+04  0.12858750455E+04  0.12699999809E+01 0.  1.
</event>
<event>
 5   0  0.1120053E-03  0.1407629E+04  0.7818609E-02  0.8948315E-01
       -2   -1    0    0    0  501  0.00000000000E+00  0.00000000000E+00  0.24062561905E+03  0.24062561906E+03  0.25500000920E-02 0. -1.
        2   -1    0    0  501    0  0.00000000000E+00  0.00000000000E+00 -0.20586126578E+04  0.20586126578E+04  0.25500000920E-02 0.  1.
    10030    2    1    2    0    0  0.00000000000E+00  0.00000000000E+00 -0.18179870387E+04  0.22992382769E+04  0.14076291346E+04 0.  0.
        2    1    3    3  502    0 -0.40656972513E+03 -0.22679294722E+03 -0.46804220946E+02  0.46789380997E+03  0.25500000920E-02 0. -1.
       -2    1    3    3    0  502  0.40656972513E+03  0.22679294722E+03 -0.17711828178E+04  0.18313444669E+04  0.25500000920E-02 0.  1.
</event>
<event>
 5   0  0.1175146E-03  0.1397297E+04  0.7818609E-02  0.8955777E-01
        2   -1    0    0  501    0  0.00000000000E+00  0.00000000000E+00  0.28506081495E+04  0.28506081495E+04  0.25500000920E-02 0. -1.
       -2   -1    0    0    0  501  0.00000000000E+00  0.00000000000E+00 -0.17123008765E+03  0.17123008767E+03  0.25500000920E-02 0.  1.
    10030    2    1    2    0    0  0.00000000000E+00  0.00000000000E+00  0.26793780619E+04  0.30218382372E+04  0.13972972244E+04 0.  0.
        1    1    3    3  502    0 -0.42494740002E+02  0.51112078195E+03  0.31372717869E+03  0.60122790965E+03  0.50400001928E-02 0.  1.
       -1    1    3    3    0  502  0.42494740002E+02 -0.51112078195E+03  0.23656508832E+04  0.24206103276E+04  0.50400001928E-02 0. -1.
</event>
<event>
 5   0  0.1098949E-03  0.1408760E+04  0.7818609E-02  0.8947502E-01
       -2   -1    0    0    0  501  0.00000000000E+00  0.00000000000E+00  0.29974830786E+03  0.29974830787E+03  0.25500000920E-02 0. -1.
        2   -1    0    0  501    0  0.00000000000E+00  0.00000000000E+00 -0.16552250598E+04  0.16552250598E+04  0.25500000920E-02 0.  1.
    10030    2    1    2    0    0  0.00000000000E+00  0.00000000000E+00 -0.13554767520E+04  0.19549733677E+04  0.14087596116E+04 0.  0.
        4    1    3    3  502    0  0.35912718985E+03 -0.33786809433E+03 -0.13757830054E+04  0.14614744878E+04  0.12699999809E+01 0.  1.
       -4    1    3    3    0  502 -0.35912718985E+03  0.33786809433E+03  0.20306253404E+02  0.49349887992E+03  0.12699999809E+01 0. -1.
</event>
<event>
 5   0  0.1095119E-03  0.1408714E+04  0.7818609E-02  0.8947535E-01
        2   -1    0    0  501    0  0.00000000000E+00  0.00000000000E+00  0.13892690068E+04  0.13892690068E+04  0.25500000920E-02 0.  1.
       -2   -1    0    0    0  501  0.00000000000E+00  0.00000000000E+00 -0.35710787305E+03  0.35710787306E+03  0.25500000920E-02 0. -1.
    10030    2    1    2    0    0  0.00000000000E+00  0.00000000000E+00  0.10321611338E+04  0.17463768799E+04  0.14087141657E+04 0.  0.
        5    1    3    3  502    0  0.53543986350E+03 -0.10651073089E+03  0.10677889224E+04  0.11992646313E+04  0.46999998093E+01 0.  1.
       -5    1    3    3    0  502 -0.53543986350E+03  0.10651073089E+03 -0.35627788579E+02  0.54711224857E+03  0.46999998093E+01 0. -1.
</event>
<event>
 5   0  0.6114266E-04  0.1397531E+04  0.7818609E-02  0.8955608E-01
       -1   -1    0    0    0  501  0.00000000000E+00  0.00000000000E+00  0.36439916377E+03  0.36439916380E+03  0.50400001928E-02 0. -1.
        1   -1    0    0  501    0  0.00000000000E+00  0.00000000000E+00 -0.13399403027E+04  0.13399403027E+04  0.50400001928E-02 0.  1.
    10030    2    1    2    0    0  0.00000000000E+00  0.00000000000E+00 -0.97554113896E+03  0.17043394665E+04  0.13975308595E+04 0.  0.
        3    1    3    3  502    0  0.39183856482E+03 -0.48211484754E+03 -0.97707815999E+02  0.62890302481E+03  0.10100000352E+00 0. -1.
       -3    1    3    3    0  502 -0.39183856482E+03  0.48211484754E+03 -0.87783332296E+03  0.10754364417E+04  0.10100000352E+00 0.  1.
</event>
<event>
 5   0  0.6114266E-04  0.1417798E+04  0.7818609E-02  0.8941035E-01
        1   -1    0    0  501    0  0.00000000000E+00  0.00000000000E+00  0.11790337472E+04  0.11790337472E+04  0.50400001928E-02 0. -1.
       -1   -1    0    0    0  501  0.00000000000E+00  0.00000000000E+00 -0.42622876584E+03  0.42622876587E+03  0.50400001928E-02 0.  1.
    10030    2    1    2    0    0  0.00000000000E+00  0.00000000000E+00  0.75280498133E+03  0.16052625131E+04  0.14177984327E+04 0.  0.
        3    1    3    3  502    0  0.33609680049E+03 -0.43648058177E+02 -0.32855628337E+03  0.47203331855E+03  0.10100000352E+00 0.  1.
       -3    1    3    3    0  502 -0.33609680049E+03  0.43648058177E+02  0.10813612647E+04  0.11332291945E+04  0.10100000352E+00 0. -1.
</event>
<event>
 5   0  0.6194742E-04  0.1401948E+04  0.7818609E-02  0.8952410E-01
       -1   -1    0    0    0  501  0.00000000000E+00  0.00000000000E+00  0.47527876559E+03  0.47527876561E+03  0.50400001928E-02 0.  1.
        1   -1    0    0  501    0  0.00000000000E+00  0.00000000000E+00 -0.10338449069E+04  0.10338449069E+04  0.50400001928E-02 0. -1.
    10030    2    1    2    0    0  0.00000000000E+00  0.00000000000E+00 -0.55856614129E+03  0.15091236725E+04  0.14019479750E+04 0.  0.
        4    1    3    3  502    0  0.24545200564E+03  0.99804106251E+02  0.41929364506E+03  0.49600032297E+03  0.12699999809E+01 0.  1.
       -4    1    3    3    0  502 -0.24545200564E+03 -0.99804106251E+02 -0.97785978636E+03  0.10131233495E+04  0.12699999809E+01 0. -1.
</event>
<event>
 5   0  0.5875298E-04  0.1418487E+04  0.7818609E-02  0.8940544E-01
        1   -1    0    0  501    0  0.00000000000E+00  0.00000000000E+00  0.89539721236E+03  0.89539721237E+03  0.50400001928E-02 0. -1.
       -1   -1    0    0    0  501  0.00000000000E+00  0.00000000000E+00 -0.56179135245E+03  0.56179135247E+03  0.50400001928E-02 0.  1.
    10030    2    1    2    0    0  0.00000000000E+00  0.00000000000E+00  0.33360585991E+03  0.14571885648E+04  0.14184870968E+04 0.  0.
        1    1    3    3  502    0  0.59464373948E+03 -0.13451085519E+03  0.53908811113E+03  0.81382451342E+03  0.50400001928E-02 0. -1.
       -1    1    3    3    0  502 -0.59464373948E+03  0.13451085519E+03 -0.20548225122E+03  0.64336405142E+03  0.50400001928E-02 0.  1.
</event>
<event>
 5   0  0.1175146E-03  0.1400990E+04  0.7818609E-02  0.8953103E-01
       -2   -1    0    0    0  501  0.00000000000E+00  0.00000000000E+00  0.93131426955E+03  0.93131426955E+03  0.25500000920E-02 0.  1.
        2   -1    0    0  501    0  0.00000000000E+00  0.00000000000E+00 -0.52688228477E+03  0.52688228478E+03  0.25500000920E-02 0. -1.
    10030    2    1    2    0    0  0.00000000000E+00  0.00000000000E+00  0.40443198477E+03  0.14581965543E+04  0.14009896362E+04 0.  0.
        1    1    3    3  502    0 -0.57107560059E+03  0.38072827626E+03  0.34797586196E+03  0.76952489399E+03  0.50400001928E-02 0.  1.
       -1    1    3    3    0  502  0.57107560059E+03 -0.38072827626E+03  0.56456122811E+02  0.68867166034E+03  0.50400001928E-02 0. -1.
</event>
<event>
 5   0  0.1098949E-03  0.1427837E+04  0.7818609E-02  0.8933912E-01
        2   -1    0    0  501    0  0.00000000000E+00  0.00000000000E+00  0.12080099738E+04  0.12080099739E+04  0.25500000920E-02 0.  1.
       -2   -1    0    0    0  501  0.00000000000E+00  0.00000000000E+00 -0.42191648750E+03  0.42191648750E+03  0.25500000920E-02 0. -1.
    10030    2    1    2    0    0  0.00000000000E+00  0.00000000000E+00  0.78609348635E+03  0.16299264614E+04  0.14278365803E+04 0.  0.
        4    1    3    3  502    0  0.26229765989E+03 -0.66390541265E+03  0.38122466447E+03  0.80926158751E+03  0.12699999809E+01 0. -1.
       -4    1    3    3    0  502 -0.26229765989E+03  0.66390541265E+03  0.40486882188E+03  0.82066487384E+03  0.12699999809E+01 0.  1.
</event>
<event>
 5   0  0.1120053E-03  0.1496537E+04  0.7818609E-02  0.8886759E-01
       -2   -1    0    0    0  501  0.00000000000E+00  0.00000000000E+00  0.49586470789E+03  0.49586470790E+03  0.25500000920E-02 0. -1.
        2   -1    0    0  501    0  0.00000000000E+00  0.00000000000E+00 -0.11291498732E+04  0.11291498732E+04  0.25500000920E-02 0.  1.
    10030    2    1    2    0    0  0.00000000000E+00  0.00000000000E+00 -0.63328516526E+03  0.16250145811E+04  0.14965367647E+04 0.  0.
        2    1    3    3  502    0 -0.12957661063E+03 -0.57820731863E+03  0.17952291441E+03  0.61914641091E+03  0.25500000920E-02 0. -1.
       -2    1    3    3    0  502  0.12957661063E+03  0.57820731863E+03 -0.81280807967E+03  0.10058681701E+04  0.25500000920E-02 0.  1.
</event>
<event>
 5   0  0.6153318E-04  0.1391342E+04  0.7818609E-02  0.8960110E-01
        1   -1    0    0  501    0  0.00000000000E+00  0.00000000000E+00  0.64886528926E+03  0.64886528928E+03  0.50400001928E-02 0.  1.
       -1   -1    0    0    0  501  0.00000000000E+00  0.00000000000E+00 -0.74585312988E+03  0.74585312989E+03  0.50400001928E-02 0. -1.
    10030    2    1    2    0    0  0.00000000000E+00  0.00000000000E+00 -0.96987840613E+02  0.13947184192E+04  0.13913420958E+04 0.  0.
        5    1    3    3  502    0 -0.66659626624E+03  0.18433704901E+03  0.26556895214E+02  0.69214022314E+03  0.46999998093E+01 0. -1.
       -5    1    3    3    0  502  0.66659626624E+03 -0.18433704901E+03 -0.12354473583E+03  0.70257819604E+03  0.46999998093E+01 0.  1.
</event>
<event>
 5   0  0.6114266E-04  0.1399053E+04  0.7818609E-02  0.8954505E-01
       -1   -1    0    0    0  501  0.00000000000E+00  0.00000000000E+00  0.48135879260E+03  0.48135879263E+03  0.50400001928E-02 0. -1.
        1   -1    0    0  501    0  0.00000000000E+00  0.00000000000E+00 -0.10165746061E+04  0.10165746061E+04  0.50400001928E-02 0.  1.
    10030    2    1    2    0    0  0.00000000000E+00  0.00000000000E+00 -0.53521581347E+03  0.14979333987E+04  0.13990527152E+04 0.  0.
        3    1    3    3  502    0  0.34240578562E+03  0.19391215684E+03 -0.88683827411E+03  0.97021945004E+03  0.10100000352E+00 0.  1.
       -3    1    3    3    0  502 -0.34240578562E+03 -0.19391215684E+03  0.35162246065E+03  0.52771394868E+03  0.10100000352E+00 0. -1.
</event>
<event>
 5   0  0.1175146E-03  0.1342089E+04  0.7818609E-02  0.8996838E-01
        2   -1    0    0  501    0  0.00000000000E+00  0.00000000000E+00  0.26658999312E+04  0.26658999312E+04  0.25500000920E-02 0. -1.
       -2   -1    0    0    0  501  0.00000000000E+00  0.00000000000E+00 -0.16891131847E+03  0.16891131849E+03  0.25500000920E-02 0.  1.
    10030    2    1    2    0    0  0.00000000000E+00  0.00000000000E+00  0.24969886127E+04  0.28348112497E+04  0.13420889275E+04 0.  0.
        1    1    3    3  502    0  0.48023642553E+02  0.27243064067E+03 -0.42869262083E+02  0.27993302392E+03  0.50400001928E-02 0.  1.
       -1    1    3    3    0  502 -0.48023642553E+02 -0.27243064067E+03  0.25398578748E+04  0.25548782257E+04  0.50400001928E-02 0. -1.
</event>
<event>
 5   0  0.6194742E-04  0.1420600E+04  0.7818609E-02  0.8939041E-01
        1   -1    0    0  501    0  0.00000000000E+00  0.00000000000E+00  0.18380646961E+04  0.18380646961E+04  0.50400001928E-02 0. -1.
       -1   -1    0    0    0  501  0.00000000000E+00  0.00000000000E+00 -0.27448756089E+03  0.27448756094E+03  0.50400001928E-02 0.  1.
    10030    2    1    2    0    0  0.00000000000E+00  0.00000000000E+00  0.15635771352E+04  0.21125522570E+04  0.14205997258E+04 0.  0.
        4    1    3    3  502    0  0.12918152008E+03 -0.36020871669E+03  0.16716645067E+04  0.17149058343E+04  0.12699999809E+01 0. -1.
       -4    1    3    3    0  502 -0.12918152008E+03  0.36020871669E+03 -0.10808737151E+03  0.39764642271E+03  0.12699999809E+01 0.  1.
</event>
<event>
 5   0  0.6114266E-04  0.1394884E+04  0.7818609E-02  0.8957530E-01
       -1   -1    0    0    0  501  0.00000000000E+00  0.00000000000E+00  0.26586280692E+03  0.26586280697E+03  0.50400001928E-02 0.  1.
        1   -1    0    0  501    0  0.00000000000E+00  0.00000000000E+00 -0.18296098002E+04  0.18296098002E+04  0.50400001928E-02 0. -1.
    10030    2    1    2    0    0  0.00000000000E+00  0.00000000000E+00 -0.15637469932E+04  0.20954726071E+04  0.13948837903E+04 0.  0.
        3    1    3    3  502    0 -0.19722978827E+03  0.48966935840E+03 -0.97151985458E+02  0.53676269283E+03  0.10100000352E+00 0.  1.
       -3    1    3    3    0  502  0.19722978827E+03 -0.48966935840E+03 -0.14665950078E+04  0.15587099143E+04  0.10100000352E+00 0. -1.
</event>
<event>
 5   0  0.5875298E-04  0.1395417E+04  0.7818609E-02  0.8957143E-01
        1   -1    0    0  501    0  0.00000000000E+00  0.00000000000E+00  0.98841829343E+03  0.98841829344E+03  0.50400001928E-02 0. -1.
       -1   -1    0    0    0  501  0.00000000000E+00  0.00000000000E+00 -0.49250106073E+03  0.49250106075E+03  0.50400001928E-02 0.  1.
    10030    2    1    2    0    0  0.00000000000E+00  0.00000000000E+00  0.49591723270E+03  0.14809193542E+04  0.13954168667E+04 0.  0.
        1    1    3    3  502    0 -0.13155224884E+03 -0.64818299621E+03  0.48371878585E+03  0.81940896661E+03  0.50400001928E-02 0.  1.
       -1    1    3    3    0  502  0.13155224884E+03  0.64818299621E+03  0.12198446858E+02  0.66151038758E+03  0.50400001928E-02 0. -1.
</event>
<event>
 5   0  0.6153318E-04  0.1402227E+04  0.7818609E-02  0.8952208E-01
       -1   -1    0    0    0  501  0.00000000000E+00  0.00000000000E+00  0.10797159441E+04  0.10797159441E+04  0.50400001928E-02 0. -1.
        1   -1    0    0  501    0  0.00000000000E+00  0.00000000000E+00 -0.45526773977E+03  0.45526773980E+03  0.50400001928E-02 0.  1.
    10030    2    1    2    0    0  0.00000000000E+00  0.00000000000E+00  0.62444820436E+03  0.15349836839E+04  0.14022265687E+04 0.  0.
        5    1    3    3  502    0  0.53630970491E+03  0.44569731070E+03  0.23280496562E+03  0.73518326584E+03  0.46999998093E+01 0.  1.
       -5    1    3    3    0  502 -0.53630970491E+03 -0.44569731070E+03  0.39164323874E+03  0.79980041810E+03  0.46999998093E+01 0. -1.
</event>
<event>
 5   0  0.6114266E-04  0.1402743E+04  0.7818609E-02  0.8951836E-01
        1   -1    0    0  501    0  0.00000000000E+00  0.00000000000E+00  0.10175567599E+04  0.10175567599E+04  0.50400001928E-02 0.  1.
       -1   -1    0    0    0  501  0.00000000000E+00  0.00000000000E+00 -0.48343411647E+03  0.48343411650E+03  0.50400001928E-02 0. -1.
    10030    2    1    2    0    0  0.00000000000E+00  0.00000000000E+00  0.53412264342E+03  0.15009908764E+04  0.14027425326E+04 0.  0.
        3    1    3    3  502    0 -0.17978093670E+03  0.36000227567E+03 -0.34762886525E+03  0.53175996638E+03  0.10100000352E+00 0. -1.
       -3    1    3    3    0  502  0.17978093670E+03 -0.36000227567E+03  0.88175150868E+03  0.96923091002E+03  0.10100000352E+00 0.  1.
</event>
<event>
 5   0  0.1098949E-03  0.1421568E+04  0.7818609E-02  0.8938353E-01
        2   -1    0    0  501    0  0.00000000000E+00  0.00000000000E+00  0.16347987933E+04  0.16347987933E+04  0.25500000920E-02 0.  1.
       -2   -1    0    0    0  501  0.00000000000E+00  0.00000000000E+00 -0.30903729670E+03  0.30903729671E+03  0.25500000920E-02 0. -1.
    10030    2    1    2    0    0  0.00000000000E+00  0.00000000000E+00  0.13257614966E+04  0.19438360900E+04  0.14215678665E+04 0.  0.
        4    1    3    3  502    0 -0.27212819301E+03 -0.60454902097E+03  0.31244772386E+03  0.73291095314E+03  0.12699999809E+01 0.  1.
       -4    1    3    3    0  502  0.27212819301E+03  0.60454902097E+03  0.10133137727E+04  0.12109251369E+04  0.12699999809E+01 0. -1.
</event>
<event>
 5   0  0.1175146E-03  0.1404915E+04  0.7818609E-02  0.8950269E-01
       -2   -1    0    0    0  501  0.00000000000E+00  0.00000000000E+00  0.11845381156E+04  0.11845381156E+04  0.25500000920E-02 0. -1.
        2   -1    0    0  501    0  0.00000000000E+00  0.00000000000E+00 -0.41657278780E+03  0.41657278781E+03  0.25500000920E-02 0.  1.
    10030    2    1    2    0    0  0.00000000000E+00  0.00000000000E+00  0.76796532777E+03  0.16011109034E+04  0.14049147235E+04 0.  0.
        1    1    3    3  502    0 -0.24345371598E+03  0.14680688437E+03  0.11160463921E+04  0.11516863820E+04  0.50400001928E-02 0. -1.
       -1    1    3    3    0  502  0.24345371598E+03 -0.14680688437E+03 -0.34808106429E+03  0.44942452143E+03  0.50400001928E-02 0.  1.
</event>
<event>
 5   0  0.6194742E-04  0.1404429E+04  0.7818609E-02  0.8950619E-01
       -1   -1    0    0    0  501  0.00000000000E+00  0.00000000000E+00  0.38620500099E+03  0.38620500102E+03  0.50400001928E-02 0.  1.
        1   -1    0    0  501    0  0.00000000000E+00  0.00000000000E+00 -0.12767960614E+04  0.12767960614E+04  0.50400001928E-02 0. -1.
    10030    2    1    2    0    0  0.00000000000E+00  0.00000000000E+00 -0.89059106042E+03  0.16630010624E+04  0.14044287439E+04 0.  0.
        4    1    3    3  502    0 -0.69682012241E+02 -0.52948901988E+03  0.94598826261E+02  0.54236957496E+03  0.12699999809E+01 0.  1.
       -4    1    3    3    0  502  0.69682012241E+02  0.52948901988E+03 -0.98518988668E+03  0.11206314875E+04  0.12699999809E+01 0. -1.
</event>
<event>
 5   0  0.1095119E-03  0.1401318E+04  0.7818609E-02  0.8952865E-01
        2   -1    0    0  501    0  0.00000000000E+00  0.00000000000E+00  0.43472038558E+03  0.43472038559E+03  0.25500000920E-02 0. -1.
       -2   -1    0    0    0  501  0.00000000000E+00  0.00000000000E+00 -0.11292839759E+04  0.11292839759E+04  0.25500000920E-02 0.  1.
    10030    2    1    2    0    0  0.00000000000E+00  0.00000000000E+00 -0.69456359033E+03  0.15640043615E+04  0.14013176163E+04 0.  0.
        5    1    3    3  502    0 -0.48260804310E+03  0.48923848888E+03 -0.49964356838E+03  0.84966499733E+03  0.46999998093E+01 0.  1.
       -5    1    3    3    0  502  0.48260804310E+03 -0.48923848888E+03 -0.19492002195E+03  0.71433936418E+03  0.46999998093E+01 0. -1.
</event>
<event>
 5   0  0.6194742E-04  0.1407269E+04  0.7818609E-02  0.8948573E-01
       -1   -1    0    0    0  501  0.00000000000E+00  0.00000000000E+00  0.22087760349E+03  0.22087760354E+03  0.50400001928E-02 0. -1.
        1   -1    0    0  501    0  0.00000000000E+00  0.00000000000E+00 -0.22415210790E+04  0.22415210791E+04  0.50400001928E-02 0.  1.
    10030    2    1    2    0    0  0.00000000000E+00  0.00000000000E+00 -0.20206434756E+04  0.24623986826E+04  0.14072694187E+04 0.  0.
        4    1    3    3  502    0  0.20223106293E+03 -0.67348910533E+03 -0.96692130743E+03  0.11955849637E+04  0.12699999809E+01 0. -1.
       -4    1    3    3    0  502 -0.20223106293E+03  0.67348910533E+03 -0.10537221681E+04  0.12668137189E+04  0.12699999809E+01 0.  1.
</event>
<event>
 5   0  0.5875298E-04  0.1402833E+04  0.7818609E-02  0.8951771E-01
        1   -1    0    0  501    0  0.00000000000E+00  0.00000000000E+00  0.27357279588E+04  0.27357279588E+04  0.50400001928E-02 0.  1.
       -1   -1    0    0    0  501  0.00000000000E+00  0.00000000000E+00 -0.17983693245E+03  0.17983693252E+03  0.50400001928E-02 0. -1.
    10030    2    1    2    0    0  0.00000000000E+00  0.00000000000E+00  0.25558910264E+04  0.29155648913E+04  0.14028327402E+04 0.  0.
        1    1    3    3  502    0 -0.61919556473E+03 -0.26015436066E+03  0.85761941220E+03  0.10893091824E+04  0.50400001928E-02 0. -1.
       -1    1    3    3    0  502  0.61919556473E+03  0.26015436066E+03  0.16982716142E+04  0.18262557089E+04  0.50400001928E-02 0.  1.
</event>
<event>
 5   0  0.5875298E-04  0.1441680E+04  0.7818609E-02  0.8924189E-01
        1   -1    0    0  501    0  0.00000000000E+00  0.00000000000E+00  0.12865787024E+04  0.12865787025E+04  0.50400001928E-02 0. -1.
       -1   -1    0    0    0  501  0.00000000000E+00  0.00000000000E+00 -0.40387009028E+03  0.40387009031E+03  0.50400001928E-02 0.  1.
    10030    2    1    2    0    0  0.00000000000E+00  0.00000000000E+00  0.88270861217E+03  0.16904487928E+04  0.14416804871E+04 0.  0.
        1    1    3    3  502    0  0.57907016302E+03 -0.38903786670E+03  0.22854960157E+03  0.73410328689E+03  0.50400001928E-02 0.  1.
       -1    1    3    3    0  502 -0.57907016302E+03  0.38903786670E+03  0.65415901061E+03  0.95634550587E+03  0.50400001928E-02 0. -1.
</event>
<event>
 5   0  0.6114266E-04  0.1472513E+04  0.7818609E-02  0.8902940E-01
        1   -1    0    0  501    0  0.00000000000E+00  0.00000000000E+00  0.42377811774E+03  0.42377811777E+03  0.50400001928E-02 0.  1.
       -1   -1    0    0    0  501  0.00000000000E+00  0.00000000000E+00 -0.12791443258E+04  0.12791443258E+04  0.50400001928E-02 0. -1.
    10030    2    1    2    0    0  0.00000000000E+00  0.00000000000E+00 -0.85536620802E+03  0.17029224435E+04  0.14725126481E+04 0.  0.
        3    1    3    3  502    0  0.22690405572E+03 -0.14641707617E+03 -0.12198043727E+04  0.12493382763E+04  0.10100000352E+00 0. -1.
       -3    1    3    3    0  502 -0.22690405572E+03  0.14641707617E+03  0.36443816469E+03  0.45358416725E+03  0.10100000352E+00 0.  1.
</event>
<event>
 5   0  0.1095119E-03  0.1406698E+04  0.7818609E-02  0.8948984E-01
        2   -1    0    0  501    0  0.00000000000E+00  0.00000000000E+00  0.91793935633E+03  0.91793935633E+03  0.25500000920E-02 0. -1.
       -2   -1    0    0    0  501  0.00000000000E+00  0.00000000000E+00 -0.53892464655E+03  0.53892464656E+03  0.25500000920E-02 0.  1.
    10030    2    1    2    0    0  0.00000000000E+00  0.00000000000E+00  0.37901470978E+03  0.14568640029E+04  0.14066984654E+04 0.  0.
        5    1    3    3  502    0  0.46369009360E+02  0.60255330524E+03 -0.18312587213E+03  0.63148851591E+03  0.46999998093E+01 0.  1.
       -5    1    3    3    0  502 -0.46369009360E+02 -0.60255330524E+03  0.56214058191E+03  0.82537548698E+03  0.46999998093E+01 0. -1.
</event>
<event>
 5   0  0.1175146E-03  0.1411952E+04  0.7818609E-02  0.8945212E-01
       -2   -1    0    0    0  501  0.00000000000E+00  0.00000000000E+00  0.28967398990E+03  0.28967398991E+03  0.25500000920E-02 0.  1.
        2   -1    0    0  501    0  0.00000000000E+00  0.00000000000E+00 -0.17205620641E+04  0.17205620641E+04  0.25500000920E-02 0. -1.
    10030    2    1    2    0    0  0.00000000000E+00  0.00000000000E+00 -0.14308880742E+04  0.20102360540E+04  0.14119519510E+04 0.  0.
        1    1    3    3  502    0 -0.48643316855E+03  0.24228039195E+03 -0.73841414979E+02  0.54842462598E+03  0.50400001928E-02 0.  1.
       -1    1    3    3    0  502  0.48643316855E+03 -0.24228039195E+03 -0.13570466592E+04  0.14618114280E+04  0.50400001928E-02 0. -1.
</event>
<event>
 5   0  0.6194742E-04  0.1380008E+04  0.7818609E-02  0.8968419E-01
       -1   -1    0    0    0  501  0.00000000000E+00  0.00000000000E+00  0.43821998375E+03  0.43821998377E+03  0.50400001928E-02 0.  1.
        1   -1    0    0  501    0  0.00000000000E+00  0.00000000000E+00 -0.10864525856E+04  0.10864525857E+04  0.50400001928E-02 0. -1.
    10030    2    1    2    0    0  0.00000000000E+00  0.00000000000E+00 -0.64823260190E+03  0.15246725694E+04  0.13800075861E+04 0.  0.
        4    1    3    3  502    0  0.31617380475E+03 -0.39566834727E+03 -0.84183727722E+03  0.98245148993E+03  0.12699999809E+01 0. -1.
       -4    1    3    3    0  502 -0.31617380475E+03  0.39566834727E+03  0.19360467532E+03  0.54222107950E+03  0.12699999809E+01 0.  1.
</event>
<event>
 5   0  0.6114266E-04  0.1397794E+04  0.7818609E-02  0.8955417E-01
       -1   -1    0    0    0  501  0.00000000000E+00  0.00000000000E+00  0.10708830545E+04  0.10708830545E+04  0.50400001928E-02 0. -1.
        1   -1    0    0  501    0  0.00000000000E+00  0.00000000000E+00 -0.45612537591E+03  0.45612537593E+03  0.50400001928E-02 0.  1.
    10030    2    1    2    0    0  0.00000000000E+00  0.00000000000E+00  0.61475767857E+03  0.15270084304E+04  0.13977938844E+04 0.  0.
        3    1    3    3  502    0 -0.22480467118E+03  0.16583680028E+02  0.10300806930E+04  0.10544564490E+04  0.10100000352E+00 0. -1.
       -3    1    3    3    0  502  0.22480467118E+03 -0.16583680028E+02 -0.41532301441E+03  0.47255198140E+03  0.10100000352E+00 0.  1.
</event>
<event>
 5   0  0.1095119E-03  0.1393696E+04  0.7818609E-02  0.8958394E-01
        2   -1    0    0  501    0  0.00000000000E+00  0.00000000000E+00  0.11944227908E+04  0.11944227908E+04  0.25500000920E-02 0.  1.
       -2   -1    0    0    0  501  0.00000000000E+00  0.00000000000E+00 -0.40655393786E+03  0.40655393787E+03  0.25500000920E-02 0. -1.
    10030    2    1    2    0    0  0.00000000000E+00  0.00000000000E+00  0.78786885292E+03  0.16009767287E+04  0.13936962210E+04 0.  0.
        5    1    3    3  502    0  0.51923332676E+03 -0.45573286328E+03  0.49845918732E+03  0.85192684058E+03  0.46999998093E+01 0. -1.
       -5    1    3    3    0  502 -0.51923332676E+03  0.45573286328E+03  0.28940966560E+03  0.74904988808E+03  0.46999998093E+01 0.  1.
</event>
<event>
 5   0  0.6114266E-04  0.1407348E+04  0.7818609E-02  0.8948517E-01
       -1   -1    0    0    0  501  0.00000000000E+00  0.00000000000E+00  0.55907671175E+03  0.55907671177E+03  0.50400001928E-02 0. -1.
        1   -1    0    0  501    0  0.00000000000E+00  0.00000000000E+00 -0.88566882709E+03  0.88566882710E+03  0.50400001928E-02 0.  1.
    10030    2    1    2    0    0  0.00000000000E+00  0.00000000000E+00 -0.32659211534E+03  0.14447455389E+04  0.14073475982E+04 0.  0.
        3    1    3    3  502    0 -0.15551648219E+03 -0.65897139032E+03  0.33442475494E+02  0.67789901819E+03  0.10100000352E+00 0. -1.
       -3    1    3    3    0  502  0.15551648219E+03  0.65897139032E+03 -0.36003459084E+03  0.76684652069E+03  0.10100000352E+00 0.  1.
</event>
<event>
 5   0  0.6114266E-04  0.1396516E+04  0.7818609E-02  0.8956344E-01
        1   -1    0    0  501    0  0.00000000000E+00  0.00000000000E+00  0.66714575442E+03  0.66714575444E+03  0.50400001928E-02 0. -1.
       -1   -1    0    0    0  501  0.00000000000E+00  0.00000000000E+00 -0.73082123077E+03  0.73082123079E+03  0.50400001928E-02 0.  1.
    10030    2    1    2    0    0  0.00000000000E+00  0.00000000000E+00 -0.63675476356E+02  0.13979669852E+04  0.13965160670E+04 0.  0.
        3    1    3    3  502    0 -0.58508606083E+03  0.34996146848E+03  0.11920156973E+03  0.69210385956E+03  0.10100000352E+00 0. -1.
       -3    1    3    3    0  502  0.58508606083E+03 -0.34996146848E+03 -0.18287704609E+03  0.70586312567E+03  0.10100000352E+00 0.  1.
</event>
<event>
 5   0  0.1098949E-03  0.1424207E+04  0.7818609E-02  0.8936480E-01
       -2   -1    0    0    0  501  0.00000000000E+00  0.00000000000E+00  0.23713319782E+03  0.23713319783E+03  0.25500000920E-02 0. -1.
        2   -1    0    0  501    0  0.00000000000E+00  0.00000000000E+00 -0.21384255776E+04  0.21384255776E+04  0.25500000920E-02 0.  1.
    10030    2    1    2    0    0  0.00000000000E+00  0.00000000000E+00 -0.19012923798E+04  0.23755587754E+04  0.14242074224E+04 0.  0.
        4    1    3    3  502    0  0.28891237563E+03  0.26366113046E+03  0.41914452278E+02  0.39337766424E+03  0.12699999809E+01 0. -1.
       -4    1    3    3    0  502 -0.28891237563E+03 -0.26366113046E+03 -0.19432068321E+04  0.19821811112E+04  0.12699999809E+01 0.  1.
</event>
<event>
 5   0  0.1120053E-03  0.1400487E+04  0.7818609E-02  0.8953466E-01
       -2   -1    0    0    0  501  0.00000000000E+00  0.00000000000E+00  0.27654060736E+03  0.27654060737E+03  0.25500000920E-02 0.  1.
        2   -1    0    0  501    0  0.00000000000E+00  0.00000000000E+00 -0.17731242996E+04  0.17731242996E+04  0.25500000920E-02 0. -1.
    10030    2    1    2    0    0  0.00000000000E+00  0.00000000000E+00 -0.14965836923E+04  0.20496649070E+04  0.14004868736E+04 0.  0.
        2    1    3    3  502    0  0.51120034401E+03 -0.36968680747E+03 -0.30354321999E+03  0.70009471770E+03  0.25500000920E-02 0.  1.
       -2    1    3    3    0  502 -0.51120034401E+03  0.36968680747E+03 -0.11930404723E+04  0.13495701893E+04  0.25500000920E-02 0. -1.
</event>
<event>
 5   0  0.6097538E-04  0.1425080E+04  0.7818609E-02  0.8935862E-01
        1   -1    0    0  501    0  0.00000000000E+00  0.00000000000E+00  0.10630987723E+04  0.10630987723E+04  0.50400001928E-02 0.  1.
       -1   -1    0    0    0  501  0.00000000000E+00  0.00000000000E+00 -0.47757847134E+03  0.47757847137E+03  0.50400001928E-02 0. -1.
    10030    2    1    2    0    0  0.00000000000E+00  0.00000000000E+00  0.58552030095E+03  0.15406772437E+04  0.14250797684E+04 0.  0.
        2    1    3    3  502    0  0.29668018035E+03  0.44331175536E+03  0.80348746050E+03  0.96443586673E+03  0.25500000920E-02 0.  1.
       -2    1    3    3    0  502 -0.29668018035E+03 -0.44331175536E+03 -0.21796715955E+03  0.57624137694E+03  0.25500000920E-02 0. -1.
</event>
<event>
 5   0  0.1120053E-03  0.1413954E+04  0.7818609E-02  0.8943780E-01
        2   -1    0    0  501    0  0.00000000000E+00  0.00000000000E+00  0.95373838713E+03  0.95373838713E+03  0.25500000920E-02 0.  1.
       -2   -1    0    0    0  501  0.00000000000E+00  0.00000000000E+00 -0.52406019130E+03  0.52406019130E+03  0.25500000920E-02 0. -1.
    10030    2    1    2    0    0  0.00000000000E+00  0.00000000000E+00  0.42967819583E+03  0.14777985784E+04  0.14139537780E+04 0.  0.
        2    1    3    3  502    0  0.12935905011E+03 -0.46576333930E+03 -0.32434971900E+03  0.58212712727E+03  0.25500000920E-02 0. -1.
       -2    1    3    3    0  502 -0.12935905011E+03  0.46576333930E+03  0.75402791483E+03  0.89567145116E+03  0.25500000920E-02 0.  1.
</event>
<event>
 5   0  0.6097538E-04  0.1396078E+04  0.7818609E-02  0.8956662E-01
        1   -1    0    0  501    0  0.00000000000E+00  0.00000000000E+00  0.87968229435E+03  0.87968229437E+03  0.50400001928E-02 0. -1.
       -1   -1    0    0    0  501  0.00000000000E+00  0.00000000000E+00 -0.55390302001E+03  0.55390302004E+03  0.50400001928E-02 0.  1.
    10030    2    1    2    0    0  0.00000000000E+00  0.00000000000E+00  0.32577927434E+03  0.14335853144E+04  0.13960783352E+04 0.  0.
        2    1    3    3  502    0 -0.23610994483E+03  0.49921242887E+03 -0.27554451798E+03  0.61715940937E+03  0.25500000920E-02 0.  1.
       -2    1    3    3    0  502  0.23610994483E+03 -0.49921242887E+03  0.60132379232E+03  0.81642590503E+03  0.25500000920E-02 0. -1.
</event>
<event>
 5   0  0.4176125E-04  0.1419474E+04  0.7818609E-02  0.8939842E-01
        3   -1    0    0  501    0  0.00000000000E+00  0.00000000000E+00  0.58399318068E+03  0.58399318941E+03  0.10100000352E+00 0. -1.
       -3   -1    0    0    0  501  0.00000000000E+00  0.00000000000E+00 -0.86255589433E+03  0.86255590024E+03  0.10100000352E+00 0.  1.
    10030    2    1    2    0    0  0.00000000000E+00  0.00000000000E+00 -0.27856271365E+03  0.14465490897E+04  0.14194742278E+04 0.  0.
        1    1    3    3  502    0  0.57123280407E+03 -0.35077664381E+03  0.98352161293E+02  0.67751333414E+03  0.50400001928E-02 0. -1.
       -1    1    3    3    0  502 -0.57123280407E+03  0.35077664381E+03 -0.37691487494E+03  0.76903575551E+03  0.50400001928E-02 0.  1.
</event>
<event>
 5   0  0.5875298E-04  0.1393954E+04  0.7818609E-02  0.8958207E-01
       -1   -1    0    0    0  501  0.00000000000E+00  0.00000000000E+00  0.60894577120E+03  0.60894577122E+03  0.50400001928E-02 0. -1.
        1   -1    0    0  501    0  0.00000000000E+00  0.00000000000E+00 -0.79773382158E+03  0.79773382160E+03  0.50400001928E-02 0.  1.
    10030    2    1    2    0    0  0.00000000000E+00  0.00000000000E+00 -0.18878805038E+03  0.14066795928E+04  0.13939535677E+04 0.  0.
        1    1    3    3  502    0 -0.49747111025E+03 -0.87321896804E+02 -0.57906411541E+03  0.76838653618E+03  0.50400001928E-02 0.  1.
       -1    1    3    3    0  502  0.49747111025E+03  0.87321896804E+02  0.39027606503E+03  0.63829305664E+03  0.50400001928E-02 0. -1.
</event>
<event>
 5   0  0.1120053E-03  0.1378999E+04  0.7818609E-02  0.8969162E-01
        2   -1    0    0  501    0  0.00000000000E+00  0.00000000000E+00  0.64647954411E+03  0.64647954412E+03  0.25500000920E-02 0.  1.
       -2   -1    0    0    0  501  0.00000000000E+00  0.00000000000E+00 -0.73538237739E+03  0.73538237739E+03  0.25500000920E-02 0. -1.
    10030    2    1    2    0    0  0.00000000000E+00  0.00000000000E+00 -0.88902833276E+02  0.13818619215E+04  0.13789991502E+04 0.  0.
        2    1    3    3  502    0  0.31339722969E+02 -0.44447408595E+03  0.48282556838E+03  0.65700831106E+03  0.25500000920E-02 0.  1.
       -2    1    3    3    0  502 -0.31339722969E+02  0.44447408595E+03 -0.57172840166E+03  0.72485361045E+03  0.25500000920E-02 0. -1.
</event>
<event>
 5   0  0.1098949E-03  0.1412496E+04  0.7818609E-02  0.8944823E-01
       -2   -1    0    0    0  501  0.00000000000E+00  0.00000000000E+00  0.90947512534E+03  0.90947512534E+03  0.25500000920E-02 0.  1.
        2   -1    0    0  501    0  0.00000000000E+00  0.00000000000E+00 -0.54843318712E+03  0.54843318712E+03  0.25500000920E-02 0. -1.
    10030    2    1    2    0    0  0.00000000000E+00  0.00000000000E+00  0.36104193823E+03  0.14579083125E+04  0.14124961474E+04 0.  0.
        4    1    3    3  502    0  0.22569376778E+03  0.27785396697E+03  0.80889981902E+03  0.88456827543E+03  0.12699999809E+01 0.  1.
       -4    1    3    3    0  502 -0.22569376778E+03 -0.27785396697E+03 -0.44785788080E+03  0.57334003704E+03  0.12699999809E+01 0. -1.
</event>
<event>
 5   0  0.1175146E-03  0.1392941E+04  0.7818609E-02  0.8958944E-01
       -2   -1    0    0    0  501  0.00000000000E+00  0.00000000000E+00  0.80111231704E+03  0.80111231704E+03  0.25500000920E-02 0. -1.
        2   -1    0    0  501    0  0.00000000000E+00  0.00000000000E+00 -0.60549700405E+03  0.60549700405E+03  0.25500000920E-02 0.  1.
    10030    2    1    2    0    0  0.00000000000E+00  0.00000000000E+00  0.19561531299E+03  0.14066093211E+04  0.13929409289E+04 0.  0.
        1    1    3    3  502    0  0.42444137522E+03 -0.30993584074E+03 -0.36368930477E+03  0.63912488357E+03  0.50400001928E-02 0.  1.
       -1    1    3    3    0  502 -0.42444137522E+03  0.30993584074E+03  0.55930461776E+03  0.76748443752E+03  0.50400001928E-02 0. -1.
</event>
<event>
 5   0  0.1175146E-03  0.1396177E+04  0.7818609E-02  0.8956590E-01
        2   -1    0    0  501    0  0.00000000000E+00  0.00000000000E+00  0.15701912271E+04  0.15701912271E+04  0.25500000920E-02 0.  1.
       -2   -1    0    0    0  501  0.00000000000E+00  0.00000000000E+00 -0.31036202844E+03  0.31036202845E+03  0.25500000920E-02 0. -1.
    10030    2    1    2    0    0  0.00000000000E+00  0.00000000000E+00  0.12598291986E+04  0.18805532555E+04  0.13961772585E+04 0.  0.
        1    1    3    3  502    0  0.33415389146E+03 -0.50674268485E+02 -0.19281723266E+03  0.38910819819E+03  0.50400001928E-02 0. -1.
       -1    1    3    3    0  502 -0.33415389146E+03  0.50674268485E+02  0.14526464313E+04  0.14914450573E+04  0.50400001928E-02 0.  1.
</event>
<event>
 5   0  0.6097538E-04  0.1368651E+04  0.7818609E-02  0.8976829E-01
        1   -1    0    0  501    0  0.00000000000E+00  0.00000000000E+00  0.81777669618E+03  0.81777669620E+03  0.50400001928E-02 0.  1.
       -1   -1    0    0    0  501  0.00000000000E+00  0.00000000000E+00 -0.57265154136E+03  0.57265154138E+03  0.50400001928E-02 0. -1.
    10030    2    1    2    0    0  0.00000000000E+00  0.00000000000E+00  0.24512515482E+03  0.13904282376E+04  0.13686505552E+04 0.  0.
        2    1    3    3  502    0  0.53456729840E+03  0.39570387813E+03  0.28623895674E+03  0.72406940002E+03  0.25500000920E-02 0.  1.
       -2    1    3    3    0  502 -0.53456729840E+03 -0.39570387813E+03 -0.41113801920E+02  0.66635883756E+03  0.25500000920E-02 0. -1.
</event>
<event>
 5   0  0.4176125E-04  0.1441763E+04  0.7818609E-02  0.8924131E-01
       -4   -1    0    0    0  501  0.00000000000E+00  0.00000000000E+00  0.98834298394E+03  0.98834379990E+03  0.12699999809E+01 0.  1.
        4   -1    0    0  501    0  0.00000000000E+00  0.00000000000E+00 -0.52579731275E+03  0.52579884652E+03  0.12699999809E+01 0. -1.
    10030    2    1    2    0    0  0.00000000000E+00  0.00000000000E+00  0.46254567118E+03  0.15141426464E+04  0.14417626212E+04 0.  0.
        3    1    3    3  502    0  0.22593558142E+03 -0.38604683737E+03  0.82497710007E+03  0.93843820971E+03  0.10100000352E+00 0.  1.
       -3    1    3    3    0  502 -0.22593558142E+03  0.38604683737E+03 -0.36243142889E+03  0.57570443671E+03  0.10100000352E+00 0. -1.
</event>
<event>
 5   0  0.1175146E-03  0.1403279E+04  0.7818609E-02  0.8951448E-01
        2   -1    0    0  501    0  0.00000000000E+00  0.00000000000E+00  0.51667856009E+03  0.51667856010E+03  0.25500000920E-02 0.  1.
       -2   -1    0    0    0  501  0.00000000000E+00  0.00000000000E+00 -0.95281303740E+03  0.95281303741E+03  0.25500000920E-02 0. -1.
    10030    2    1    2    0    0  0.00000000000E+00  0.00000000000E+00 -0.43613447731E+03  0.14694915975E+04  0.14032791144E+04 0.  0.
        1    1    3    3  502    0  0.50552181338E+03 -0.19161407827E+03 -0.68641711104E+03  0.87374865330E+03  0.50400001928E-02 0. -1.
       -1    1    3    3    0  502 -0.50552181338E+03  0.19161407827E+03  0.25028263373E+03  0.59574294420E+03  0.50400001928E-02 0.  1.
</event>
<event>
 5   0  0.1095119E-03  0.1412875E+04  0.7818609E-02  0.8944551E-01
        2   -1    0    0  501    0  0.00000000000E+00  0.00000000000E+00  0.63267283618E+03  0.63267283618E+03  0.25500000920E-02 0.  1.
       -2   -1    0    0    0  501  0.00000000000E+00  0.00000000000E+00 -0.78880272821E+03  0.78880272822E+03  0.25500000920E-02 0. -1.
    10030    2    1    2    0    0  0.00000000000E+00  0.00000000000E+00 -0.15612989204E+03  0.14214755644E+04  0.14128751668E+04 0.  0.
        5    1    3    3  502    0 -0.32290544178E+03 -0.11518730678E+02 -0.71008579612E+03  0.78015673639E+03  0.46999998093E+01 0. -1.
       -5    1    3    3    0  502  0.32290544178E+03  0.11518730678E+02  0.55395590408E+03  0.64131882801E+03  0.46999998093E+01 0.  1.
</event>
<event>
 5   0  0.1098949E-03  0.1399654E+04  0.7818609E-02  0.8954069E-01
       -2   -1    0    0    0  501  0.00000000000E+00  0.00000000000E+00  0.22413596013E+03  0.22413596014E+03  0.25500000920E-02 0.  1.
        2   -1    0    0  501    0  0.00000000000E+00  0.00000000000E+00 -0.21850935015E+04  0.21850935015E+04  0.25500000920E-02 0. -1.
    10030    2    1    2    0    0  0.00000000000E+00  0.00000000000E+00 -0.19609575414E+04  0.24092294617E+04  0.13996542858E+04 0.  0.
        4    1    3    3  502    0 -0.21674598387E+03 -0.46123961509E+03 -0.18060507142E+04  0.18765770966E+04  0.12699999809E+01 0. -1.
       -4    1    3    3    0  502  0.21674598387E+03  0.46123961509E+03 -0.15490682717E+03  0.53265236511E+03  0.12699999809E+01 0.  1.
</event>
<event>
 5   0  0.5875298E-04  0.1382691E+04  0.7818609E-02  0.8966444E-01
       -1   -1    0    0    0  501  0.00000000000E+00  0.00000000000E+00  0.85098916076E+03  0.85098916077E+03  0.50400001928E-02 0. -1.
        1   -1    0    0  501    0  0.00000000000E+00  0.00000000000E+00 -0.56165061207E+03  0.56165061210E+03  0.50400001928E-02 0.  1.
    10030    2    1    2    0    0  0.00000000000E+00  0.00000000000E+00  0.28933854868E+03  0.14126397729E+04  0.13826909749E+04 0.  0.
        1    1    3    3  502    0 -0.33589888872E+03  0.22126733085E+03  0.71913948833E+03  0.82398355496E+03  0.50400001928E-02 0. -1.
       -1    1    3    3    0  502  0.33589888872E+03 -0.22126733085E+03 -0.42980093964E+03  0.58865621791E+03  0.50400001928E-02 0.  1.
</event>
<event>
 5   0  0.1108819E-03  0.1290588E+04  0.7818609E-02  0.9037062E-01
       -2   -1    0    0    0  501  0.00000000000E+00  0.00000000000E+00  0.40860872592E+03  0.40860872593E+03  0.25500000920E-02 0. -1.
        2   -1    0    0  501    0  0.00000000000E+00  0.00000000000E+00 -0.10190788247E+04  0.10190788247E+04  0.25500000920E-02 0.  1.
    10030    2    1    2    0    0  0.00000000000E+00  0.00000000000E+00 -0.61047009879E+03  0.14276875506E+04  0.12905882383E+04 0.  0.
        3    1    3    3  502    0 -0.53552917405E+03  0.11304616852E+03 -0.68335471932E+03  0.87552533663E+03  0.10100000352E+00 0.  1.
       -3    1    3    3    0  502  0.53552917405E+03 -0.11304616852E+03  0.72884620527E+02  0.55216221401E+03  0.10100000352E+00 0. -1.
</event>
<event>
 5   0  0.1175146E-03  0.1454988E+04  0.7818609E-02  0.8914950E-01
        2   -1    0    0  501    0  0.00000000000E+00  0.00000000000E+00  0.55410144575E+03  0.55410144575E+03  0.25500000920E-02 0.  1.
       -2   -1    0    0    0  501  0.00000000000E+00  0.00000000000E+00 -0.95514548788E+03  0.95514548788E+03  0.25500000920E-02 0. -1.
    10030    2    1    2    0    0  0.00000000000E+00  0.00000000000E+00 -0.40104404214E+03  0.15092469336E+04  0.14549879666E+04 0.  0.
        1    1    3    3  502    0 -0.30932697423E+03  0.10270300578E+03  0.47412950787E+03  0.57535195719E+03  0.50400001928E-02 0.  1.
       -1    1    3    3    0  502  0.30932697423E+03 -0.10270300578E+03 -0.87517355000E+03  0.93389497645E+03  0.50400001928E-02 0. -1.
</event>
<event>
 5   0  0.6194742E-04  0.1395784E+04  0.7818609E-02  0.8956876E-01
       -1   -1    0    0    0  501  0.00000000000E+00  0.00000000000E+00  0.36082130936E+03  0.36082130940E+03  0.50400001928E-02 0. -1.
        1   -1    0    0  501    0  0.00000000000E+00  0.00000000000E+00 -0.13498469469E+04  0.13498469469E+04  0.50400001928E-02 0.  1.
    10030    2    1    2    0    0  0.00000000000E+00  0.00000000000E+00 -0.98902563752E+03  0.17106682563E+04  0.13957844287E+04 0.  0.
        4    1    3    3  502    0  0.99244070427E+02 -0.23339062126E+03 -0.12913685161E+04  0.13160375469E+04  0.12699999809E+01 0.  1.
       -4    1    3    3    0  502 -0.99244070427E+02  0.23339062126E+03  0.30234287861E+03  0.39463070934E+03  0.12699999809E+01 0. -1.
</event>
<event>
 5   0  0.1108819E-03  0.1368105E+04  0.7818609E-02  0.8977235E-01
        2   -1    0    0  501    0  0.00000000000E+00  0.00000000000E+00  0.21348995555E+04  0.21348995555E+04  0.25500000920E-02 0.  1.
       -2   -1    0    0    0  501  0.00000000000E+00  0.00000000000E+00 -0.21918021304E+03  0.21918021305E+03  0.25500000920E-02 0. -1.
    10030    2    1    2    0    0  0.00000000000E+00  0.00000000000E+00  0.19157193425E+04  0.23540797686E+04  0.13681048782E+04 0.  0.
        3    1    3    3  502    0  0.28696227569E+02  0.63281633060E+02  0.21288114993E+04  0.21299451750E+04  0.10100000352E+00 0.  1.
       -3    1    3    3    0  502 -0.28696227569E+02 -0.63281633060E+02 -0.21309215682E+03  0.22413459362E+03  0.10100000352E+00 0. -1.
</event>
<event>
 5   0  0.1175146E-03  0.1413395E+04  0.7818609E-02  0.8944179E-01
        2   -1    0    0  501    0  0.00000000000E+00  0.00000000000E+00  0.73013591412E+03  0.73013591412E+03  0.25500000920E-02 0.  1.
       -2   -1    0    0    0  501  0.00000000000E+00  0.00000000000E+00 -0.68401152642E+03  0.68401152642E+03  0.25500000920E-02 0. -1.
    10030    2    1    2    0    0  0.00000000000E+00  0.00000000000E+00  0.46124387697E+02  0.14141474405E+04  0.14133950348E+04 0.  0.
        1    1    3    3  502    0  0.73262768845E+02 -0.53411983244E+02  0.72429269685E+03  0.72994532945E+03  0.50400001928E-02 0.  1.
       -1    1    3    3    0  502 -0.73262768845E+02  0.53411983244E+02 -0.67816830915E+03  0.68420211109E+03  0.50400001928E-02 0. -1.
</event>
<event>
 5   0  0.6097538E-04  0.1391074E+04  0.7818609E-02  0.8960305E-01
        1   -1    0    0  501    0  0.00000000000E+00  0.00000000000E+00  0.42494898130E+03  0.42494898133E+03  0.50400001928E-02 0. -1.
       -1   -1    0    0    0  501  0.00000000000E+00  0.00000000000E+00 -0.11384232999E+04  0.11384232999E+04  0.50400001928E-02 0.  1.
    10030    2    1    2    0    0  0.00000000000E+00  0.00000000000E+00 -0.71347431859E+03  0.15633722812E+04  0.13910741484E+04 0.  0.
        2    1    3    3  502    0 -0.41012133844E+02  0.62666648358E+03 -0.20744538434E+02  0.62834959429E+03  0.25500000920E-02 0. -1.
       -2    1    3    3    0  502  0.41012133844E+02 -0.62666648358E+03 -0.69272978015E+03  0.93502268693E+03  0.25500000920E-02 0.  1.
</event>
<event>
 5   0  0.1095119E-03  0.1398217E+04  0.7818609E-02  0.8955110E-01
       -2   -1    0    0    0  501  0.00000000000E+00  0.00000000000E+00  0.40548973880E+03  0.40548973881E+03  0.25500000920E-02 0. -1.
        2   -1    0    0  501    0  0.00000000000E+00  0.00000000000E+00 -0.12053390979E+04  0.12053390979E+04  0.25500000920E-02 0.  1.
    10030    2    1    2    0    0  0.00000000000E+00  0.00000000000E+00 -0.79984935905E+03  0.16108288367E+04  0.13982169159E+04 0.  0.
        5    1    3    3  502    0 -0.25239889551E+03  0.56119870434E+02  0.34836060364E+03  0.43385693780E+03  0.46999998093E+01 0. -1.
       -5    1    3    3    0  502  0.25239889551E+03 -0.56119870434E+02 -0.11482099627E+04  0.11769718989E+04  0.46999998093E+01 0.  1.
</event>
<event>
 5   0  0.5875298E-04  0.1397721E+04  0.7818609E-02  0.8955470E-01
        1   -1    0    0  501    0  0.00000000000E+00  0.00000000000E+00  0.45048109714E+03  0.45048109717E+03  0.50400001928E-02 0. -1.
       -1   -1    0    0    0  501  0.00000000000E+00  0.00000000000E+00 -0.10841880786E+04  0.10841880787E+04  0.50400001928E-02 0.  1.
    10030    2    1    2    0    0  0.00000000000E+00  0.00000000000E+00 -0.63370698150E+03  0.15346691758E+04  0.13977213388E+04 0.  0.
        1    1    3    3  502    0 -0.27662454210E+03  0.63879941016E+03 -0.38471902073E+03  0.79535812603E+03  0.50400001928E-02 0.  1.
       -1    1    3    3    0  502  0.27662454210E+03 -0.63879941016E+03 -0.24898796077E+03  0.73931104979E+03  0.50400001928E-02 0. -1.
</event>
<event>
 5   0  0.1175146E-03  0.1414323E+04  0.7818609E-02  0.8943516E-01
        2   -1    0    0  501    0  0.00000000000E+00  0.00000000000E+00  0.20473409622E+04  0.20473409622E+04  0.25500000920E-02 0. -1.
       -2   -1    0    0    0  501  0.00000000000E+00  0.00000000000E+00 -0.24425685475E+03  0.24425685477E+03  0.25500000920E-02 0.  1.
    10030    2    1    2    0    0  0.00000000000E+00  0.00000000000E+00  0.18030841075E+04  0.22915978170E+04  0.14143225432E+04 0.  0.
        1    1    3    3  502    0  0.32387786651E+03 -0.51948146094E+03  0.14751283261E+04  0.15971103403E+04  0.50400001928E-02 0. -1.
       -1    1    3    3    0  502 -0.32387786651E+03  0.51948146094E+03  0.32795578135E+03  0.69448747665E+03  0.50400001928E-02 0.  1.
</event>
<event>
 5   0  0.1120053E-03  0.1412882E+04  0.7818609E-02  0.8944546E-01
       -2   -1    0    0    0  501  0.00000000000E+00  0.00000000000E+00  0.18119840888E+03  0.18119840890E+03  0.25500000920E-02 0. -1.
        2   -1    0    0  501    0  0.00000000000E+00  0.00000000000E+00 -0.27542141417E+04  0.27542141417E+04  0.25500000920E-02 0.  1.
    10030    2    1    2    0    0  0.00000000000E+00  0.00000000000E+00 -0.25730157328E+04  0.29354125506E+04  0.14128824724E+04 0.  0.
        2    1    3    3  502    0  0.27263386229E+03 -0.65093193101E+03 -0.13527837634E+04  0.15257999581E+04  0.25500000920E-02 0. -1.
       -2    1    3    3    0  502 -0.27263386229E+03  0.65093193101E+03 -0.12202319694E+04  0.14096125925E+04  0.25500000920E-02 0.  1.
</event>
<event>
 5   0  0.6153318E-04  0.1403651E+04  0.7818609E-02  0.8951180E-01
        1   -1    0    0  501    0  0.00000000000E+00  0.00000000000E+00  0.35305116356E+03  0.35305116359E+03  0.50400001928E-02 0. -1.
       -1   -1    0    0    0  501  0.00000000000E+00  0.00000000000E+00 -0.13951497167E+04  0.13951497167E+04  0.50400001928E-02 0.  1.
    10030    2    1    2    0    0  0.00000000000E+00  0.00000000000E+00 -0.10420985531E+04  0.17482008803E+04  0.14036512827E+04 0.  0.
        5    1    3    3  502    0  0.49878861948E+03 -0.96320899420E+02  0.82031015636E+02  0.51460565495E+03  0.46999998093E+01 0. -1.
       -5    1    3    3    0  502 -0.49878861948E+03  0.96320899420E+02 -0.11241295687E+04  0.12335952253E+04  0.46999998093E+01 0.  1.
</event>
<event>
 5   0  0.6114266E-04  0.1351856E+04  0.7818609E-02  0.8989424E-01
       -1   -1    0    0    0  501  0.00000000000E+00  0.00000000000E+00  0.69322909617E+03  0.69322909619E+03  0.50400001928E-02 0.  1.
        1   -1    0    0  501    0  0.00000000000E+00  0.00000000000E+00 -0.65905852249E+03  0.65905852251E+03  0.50400001928E-02 0. -1.
    10030    2    1    2    0    0  0.00000000000E+00  0.00000000000E+00  0.34170573674E+02  0.13522876187E+04  0.13518558265E+04 0.  0.
        3    1    3    3  502    0  0.33070543861E+03  0.62022436806E+02 -0.56933200265E+03  0.66132579659E+03  0.10100000352E+00 0. -1.
       -3    1    3    3    0  502 -0.33070543861E+03 -0.62022436806E+02  0.60350257632E+03  0.69096182211E+03  0.10100000352E+00 0.  1.
</event>
<event>
 5   0  0.1108819E-03  0.1402833E+04  0.7818609E-02  0.8951771E-01
        2   -1    0    0  501    0  0.00000000000E+00  0.00000000000E+00  0.95198910911E+03  0.95198910911E+03  0.25500000920E-02 0. -1.
       -2   -1    0    0    0  501  0.00000000000E+00  0.00000000000E+00 -0.51679680380E+03  0.51679680380E+03  0.25500000920E-02 0.  1.
    10030    2    1    2    0    0  0.00000000000E+00  0.00000000000E+00  0.43519230531E+03  0.14687859129E+04  0.14028327468E+04 0.  0.
        3    1    3    3  502    0  0.82221100840E+02  0.33089970777E+03  0.85938259044E+03  0.92455036260E+03  0.10100000352E+00 0. -1.
       -3    1    3    3    0  502 -0.82221100840E+02 -0.33089970777E+03 -0.42419028513E+03  0.54423555031E+03  0.10100000352E+00 0.  1.
</event>
<event>
 5   0  0.1095119E-03  0.1401767E+04  0.7818609E-02  0.8952540E-01
       -2   -1    0    0    0  501  0.00000000000E+00  0.00000000000E+00  0.44529302931E+03  0.44529302931E+03  0.25500000920E-02 0.  1.
        2   -1    0    0  501    0  0.00000000000E+00  0.00000000000E+00 -0.11031791280E+04  0.11031791280E+04  0.25500000920E-02 0. -1.
    10030    2    1    2    0    0  0.00000000000E+00  0.00000000000E+00 -0.65788609866E+03  0.15484721573E+04  0.14017674212E+04 0.  0.
        5    1    3    3  502    0 -0.35449125737E+02 -0.38156093866E+03 -0.97718988611E+03  0.10496511582E+04  0.46999998093E+01 0. -1.
       -5    1    3    3    0  502  0.35449125737E+02  0.38156093866E+03  0.31930378746E+03  0.49882099906E+03  0.46999998093E+01 0.  1.
</event>
<event>
 5   0  0.6153318E-04  0.1365543E+04  0.7818609E-02  0.8979145E-01
        1   -1    0    0  501    0  0.00000000000E+00  0.00000000000E+00  0.98558928680E+03  0.98558928682E+03  0.50400001928E-02 0.  1.
       -1   -1    0    0    0  501  0.00000000000E+00  0.00000000000E+00 -0.47299305293E+03  0.47299305295E+03  0.50400001928E-02 0. -1.
    10030    2    1    2    0    0  0.00000000000E+00  0.00000000000E+00  0.51259623388E+03  0.14585823398E+04  0.13655429480E+04 0.  0.
        5    1    3    3  502    0 -0.50289550346E+03  0.34187882482E+02  0.74819898797E+03  0.90216213305E+03  0.46999998093E+01 0.  1.
       -5    1    3    3    0  502  0.50289550346E+03 -0.34187882482E+02 -0.23560275409E+03  0.55642020672E+03  0.46999998093E+01 0. -1.
</event>
<event>
 5   0  0.1175146E-03  0.1400137E+04  0.7818609E-02  0.8953719E-01
        2   -1    0    0  501    0  0.00000000000E+00  0.00000000000E+00  0.22622410907E+04  0.22622410907E+04  0.25500000920E-02 0.  1.
       -2   -1    0    0    0  501  0.00000000000E+00  0.00000000000E+00 -0.21664188351E+03  0.21664188353E+03  0.25500000920E-02 0. -1.
    10030    2    1    2    0    0  0.00000000000E+00  0.00000000000E+00  0.20455992071E+04  0.24788829742E+04  0.14001373802E+04 0.  0.
        1    1    3    3  502    0  0.58029512205E+01 -0.14132688577E+03 -0.19107972214E+03  0.23773603665E+03  0.50400001928E-02 0. -1.
       -1    1    3    3    0  502 -0.58029512205E+01  0.14132688577E+03  0.22366789293E+04  0.22411469375E+04  0.50400001928E-02 0.  1.
</event>
<event>
 5   0  0.5875298E-04  0.1441274E+04  0.7818609E-02  0.8924473E-01
        1   -1    0    0  501    0  0.00000000000E+00  0.00000000000E+00  0.74234100624E+03  0.74234100625E+03  0.50400001928E-02 0. -1.
       -1   -1    0    0    0  501  0.00000000000E+00  0.00000000000E+00 -0.69956726442E+03  0.69956726444E+03  0.50400001928E-02 0.  1.
    10030    2    1    2    0    0  0.00000000000E+00  0.00000000000E+00  0.42773741819E+02  0.14419082707E+04  0.14412736965E+04 0.  0.
        1    1    3    3  502    0 -0.29839870262E+03  0.62970978836E+03 -0.16238195653E+03  0.71550269260E+03  0.50400001928E-02 0.  1.
       -1    1    3    3    0  502  0.29839870262E+03 -0.62970978836E+03  0.20515569835E+03  0.72640557809E+03  0.50400001928E-02 0. -1.
</event>
<event>
 5   0  0.1108819E-03  0.1402798E+04  0.7818609E-02  0.8951796E-01
       -2   -1    0    0    0  501  0.00000000000E+00  0.00000000000E+00  0.42073003756E+03  0.42073003756E+03  0.25500000920E-02 0. -1.
        2   -1    0    0  501    0  0.00000000000E+00  0.00000000000E+00 -0.11693026362E+04  0.11693026362E+04  0.25500000920E-02 0.  1.
    10030    2    1    2    0    0  0.00000000000E+00  0.00000000000E+00 -0.74857259867E+03  0.15900326738E+04  0.14027982636E+04 0.  0.
        3    1    3    3  502    0  0.53996241098E+03 -0.35968423324E+03 -0.67637006899E+03  0.93723456687E+03  0.10100000352E+00 0.  1.
       -3    1    3    3    0  502 -0.53996241098E+03  0.35968423324E+03 -0.72202529673E+02  0.65279810692E+03  0.10100000352E+00 0. -1.
</event>
<event>
 5   0  0.1098949E-03  0.1156423E+04  0.7818609E-02  0.9151878E-01
       -2   -1    0    0    0  501  0.00000000000E+00  0.00000000000E+00  0.33789129910E+03  0.33789129911E+03  0.25500000920E-02 0.  1.
        2   -1    0    0  501    0  0.00000000000E+00  0.00000000000E+00 -0.98945578705E+03  0.98945578705E+03  0.25500000920E-02 0. -1.
    10030    2    1    2    0    0  0.00000000000E+00  0.00000000000E+00 -0.65156448794E+03  0.13273470862E+04  0.11564229353E+04 0.  0.
        4    1    3    3  502    0 -0.37306919907E+03  0.16766313847E+03  0.14332482579E+03  0.43339955455E+03  0.12699999809E+01 0.  1.
       -4    1    3    3    0  502  0.37306919907E+03 -0.16766313847E+03 -0.79488931373E+03  0.89394753161E+03  0.12699999809E+01 0. -1.
</event>
<event>
 5   0  0.1120053E-03  0.1395746E+04  0.7818609E-02  0.8956904E-01
       -2   -1    0    0    0  501  0.00000000000E+00  0.00000000000E+00  0.64435268904E+03  0.64435268904E+03  0.25500000920E-02 0. -1.
        2   -1    0    0  501    0  0.00000000000E+00  0.00000000000E+00 -0.75583836837E+03  0.75583836838E+03  0.25500000920E-02 0.  1.
    10030    2    1    2    0    0  0.00000000000E+00  0.00000000000E+00 -0.11148567934E+03  0.14001910574E+04  0.13957456576E+04 0.  0.
        2    1    3    3  502    0 -0.11390301433E+03 -0.17475479148E+02  0.63474230676E+03  0.64511788461E+03  0.25500000920E-02 0. -1.
       -2    1    3    3    0  502  0.11390301433E+03  0.17475479148E+02 -0.74622798610E+03  0.75507317281E+03  0.25500000920E-02 0.  1.
</event>
<event>
 5   0  0.1120053E-03  0.1412145E+04  0.7818609E-02  0.8945074E-01
        2   -1    0    0  501    0  0.00000000000E+00  0.00000000000E+00  0.10912269033E+04  0.10912269033E+04  0.25500000920E-02 0. -1.
       -2   -1    0    0    0  501  0.00000000000E+00  0.00000000000E+00 -0.45686051820E+03  0.45686051821E+03  0.25500000920E-02 0.  1.
    10030    2    1    2    0    0  0.00000000000E+00  0.00000000000E+00  0.63436638513E+03  0.15480874215E+04  0.14121451604E+04 0.  0.
        2    1    3    3  502    0  0.30456612665E+03 -0.53961861775E+03 -0.53915095503E+02  0.62197718258E+03  0.25500000920E-02 0. -1.
       -2    1    3    3    0  502 -0.30456612665E+03  0.53961861775E+03  0.68828148063E+03  0.92611023896E+03  0.25500000920E-02 0.  1.
</event>
<event>
 5   0  0.1175146E-03  0.1409325E+04  0.7818609E-02  0.8947096E-01
       -2   -1    0    0    0  501  0.00000000000E+00  0.00000000000E+00  0.60321232361E+03  0.60321232362E+03  0.25500000920E-02 0. -1.
        2   -1    0    0  501    0  0.00000000000E+00  0.00000000000E+00 -0.82317443535E+03  0.82317443536E+03  0.25500000920E-02 0.  1.
    10030    2    1    2    0    0  0.00000000000E+00  0.00000000000E+00 -0.21996211174E+03  0.14263867590E+04  0.14093246097E+04 0.  0.
        1    1    3    3  502    0 -0.40323878236E+03  0.87215055970E+02  0.46819762137E+03  0.62403284711E+03  0.50400001928E-02 0. -1.
       -1    1    3    3    0  502  0.40323878236E+03 -0.87215055970E+02 -0.68815973311E+03  0.80235391187E+03  0.50400001928E-02 0.  1.
</event>
<event>
 5   0  0.6153318E-04  0.1418422E+04  0.7818609E-02  0.8940590E-01
       -1   -1    0    0    0  501  0.00000000000E+00  0.00000000000E+00  0.22562233495E+03  0.22562233501E+03  0.50400001928E-02 0.  1.
        1   -1    0    0  501    0  0.00000000000E+00  0.00000000000E+00 -0.22293029362E+04  0.22293029362E+04  0.50400001928E-02 0. -1.
    10030    2    1    2    0    0  0.00000000000E+00  0.00000000000E+00 -0.20036806013E+04  0.24549252712E+04  0.14184224108E+04 0.  0.
        5    1    3    3  502    0  0.29802600370E+03  0.13120827492E+03 -0.20922407134E+04  0.21174343917E+04  0.46999998093E+01 0. -1.
       -5    1    3    3    0  502 -0.29802600370E+03 -0.13120827492E+03  0.88560112162E+02  0.33749087952E+03  0.46999998093E+01 0.  1.
</event>
<event>
 5   0  0.5875298E-04  0.1410137E+04  0.7818609E-02  0.8946513E-01
        1   -1    0    0  501    0  0.00000000000E+00  0.00000000000E+00  0.78209176055E+03  0.78209176057E+03  0.50400001928E-02 0. -1.
       -1   -1    0    0    0  501  0.00000000000E+00  0.00000000000E+00 -0.63563098890E+03  0.63563098892E+03  0.50400001928E-02 0.  1.
    10030    2    1    2    0    0  0.00000000000E+00  0.00000000000E+00  0.14646077165E+03  0.14177227495E+04  0.14101372404E+04 0.  0.
        1    1    3    3  502    0  0.32839606222E+03 -0.26222396225E+03  0.64241747465E+03  0.76766242049E+03  0.50400001928E-02 0. -1.
       -1    1    3    3    0  502 -0.32839606222E+03  0.26222396225E+03 -0.49595670300E+03  0.65006032900E+03  0.50400001928E-02 0.  1.
</event>
<event>
 5   0  0.1175146E-03  0.1402559E+04  0.7818609E-02  0.8951969E-01
       -2   -1    0    0    0  501  0.00000000000E+00  0.00000000000E+00  0.93709735235E+03  0.93709735235E+03  0.25500000920E-02 0. -1.
        2   -1    0    0  501    0  0.00000000000E+00  0.00000000000E+00 -0.52480427444E+03  0.52480427444E+03  0.25500000920E-02 0.  1.
    10030    2    1    2    0    0  0.00000000000E+00  0.00000000000E+00  0.41229307791E+03  0.14619016268E+04  0.14025586563E+04 0.  0.
        1    1    3    3  502    0 -0.25452129794E+03 -0.23900828598E+02 -0.47450724740E+03  0.53898930284E+03  0.50400001928E-02 0.  1.
       -1    1    3    3    0  502  0.25452129794E+03  0.23900828598E+02  0.88680032531E+03  0.92291232396E+03  0.50400001928E-02 0. -1.
</event>
<event>
 5   0  0.6097538E-04  0.1397791E+04  0.7818609E-02  0.8955419E-01
       -1   -1    0    0    0  501  0.00000000000E+00  0.00000000000E+00  0.60064485491E+03  0.60064485494E+03  0.50400001928E-02 0. -1.
        1   -1    0    0  501    0  0.00000000000E+00  0.00000000000E+00 -0.81321788868E+03  0.81321788870E+03  0.50400001928E-02 0.  1.
    10030    2    1    2    0    0  0.00000000000E+00  0.00000000000E+00 -0.21257303377E+03  0.14138627436E+04  0.13977913160E+04 0.  0.
        2    1    3    3  502    0  0.16971022820E+02 -0.39501173502E+03  0.47664942263E+03  0.61928746033E+03  0.25500000920E-02 0. -1.
       -2    1    3    3    0  502 -0.16971022820E+02  0.39501173502E+03 -0.68922245640E+03  0.79457528330E+03  0.25500000920E-02 0.  1.
</event>
<event>
 5   0  0.6114266E-04  0.1422080E+04  0.7818609E-02  0.8937989E-01
        1   -1    0    0  501    0  0.00000000000E+00  0.00000000000E+00  0.42791214886E+03  0.42791214889E+03  0.50400001928E-02 0.  1.
       -1   -1    0    0    0  501  0.00000000000E+00  0.00000000000E+00 -0.11814993214E+04  0.11814993214E+04  0.50400001928E-02 0. -1.
    10030    2    1    2    0    0  0.00000000000E+00  0.00000000000E+00 -0.75358717256E+03  0.16094114703E+04  0.14220800449E+04 0.  0.
        3    1    3    3  502    0  0.14843744731E+03  0.57387363864E+03  0.67636989055E+02  0.59660657169E+03  0.10100000352E+00 0.  1.
       -3    1    3    3    0  502 -0.14843744731E+03 -0.57387363864E+03 -0.82122416162E+03  0.10128048986E+04  0.10100000352E+00 0. -1.
</event>
<event>
 5   0  0.6194742E-04  0.1393693E+04  0.7818609E-02  0.8958396E-01
        1   -1    0    0  501    0  0.00000000000E+00  0.00000000000E+00  0.13938136955E+04  0.13938136955E+04  0.50400001928E-02 0. -1.
       -1   -1    0    0    0  501  0.00000000000E+00  0.00000000000E+00 -0.34839322627E+03  0.34839322630E+03  0.50400001928E-02 0.  1.
    10030    2    1    2    0    0  0.00000000000E+00  0.00000000000E+00  0.10454204692E+04  0.17422069218E+04  0.13936932951E+04 0.  0.
        4    1    3    3  502    0 -0.29063039271E+03  0.56268049064E+03  0.88612941378E+03  0.10891750597E+04  0.12699999809E+01 0. -1.
       -4    1    3    3    0  502  0.29063039271E+03 -0.56268049064E+03  0.15929105542E+03  0.65303186212E+03  0.12699999809E+01 0.  1.
</event>
<event>
 5   0  0.1175146E-03  0.1276616E+04  0.7818609E-02  0.9048317E-01
        2   -1    0    0  501    0  0.00000000000E+00  0.00000000000E+00  0.14796089389E+04  0.14796089389E+04  0.25500000920E-02 0. -1.
       -2   -1    0    0    0  501  0.00000000000E+00  0.00000000000E+00 -0.27536805606E+03  0.27536805607E+03  0.25500000920E-02 0.  1.
    10030    2    1    2    0    0  0.00000000000E+00  0.00000000000E+00  0.12042408829E+04  0.17549769950E+04  0.12766158972E+04 0.  0.
        1    1    3    3  502    0 -0.57557530572E+03 -0.50234204777E+02  0.97513745358E+03  0.11334475997E+04  0.50400001928E-02 0. -1.
       -1    1    3    3    0  502  0.57557530572E+03  0.50234204777E+02  0.22910342929E+03  0.62152939530E+03  0.50400001928E-02 0.  1.
</event>
<event>
 5   0  0.6097538E-04  0.1187821E+04  0.7818609E-02  0.9123584E-01
       -1   -1    0    0    0  501  0.00000000000E+00  0.00000000000E+00  0.86215358785E+03  0.86215358787E+03  0.50400001928E-02 0.  1.
        1   -1    0    0  501    0  0.00000000000E+00  0.00000000000E+00 -0.40912642345E+03  0.40912642348E+03  0.50400001928E-02 0. -1.
    10030    2    1    2    0    0  0.00000000000E+00  0.00000000000E+00  0.45302716440E+03  0.12712800114E+04  0.11878212221E+04 0.  0.
        2    1    3    3  502    0 -0.30200529037E+03  0.87100540276E+02 -0.31281367925E+03  0.44344796477E+03  0.25500000920E-02 0. -1.
       -2    1    3    3    0  502  0.30200529037E+03 -0.87100540276E+02  0.76584084365E+03  0.82783204658E+03  0.25500000920E-02 0.  1.
</event>
<event>
 5   0  0.6114266E-04  0.1385046E+04  0.7818609E-02  0.8964715E-01
        1   -1    0    0  501    0  0.00000000000E+00  0.00000000000E+00  0.10893121829E+04  0.10893121829E+04  0.50400001928E-02 0. -1.
       -1   -1    0    0    0  501  0.00000000000E+00  0.00000000000E+00 -0.44026692551E+03  0.44026692554E+03  0.50400001928E-02 0.  1.
    10030    2    1    2    0    0  0.00000000000E+00  0.00000000000E+00  0.64904525742E+03  0.15295791085E+04  0.13850460292E+04 0.  0.
        3    1    3    3  502    0  0.12359426237E+03 -0.48872871558E+03 -0.19984928469E+03  0.54228317871E+03  0.10100000352E+00 0.  1.
       -3    1    3    3    0  502 -0.12359426237E+03  0.48872871558E+03  0.84889454211E+03  0.98729592977E+03  0.10100000352E+00 0. -1.
</event>
<event>
 5   0  0.6153318E-04  0.1424893E+04  0.7818609E-02  0.8935995E-01
       -1   -1    0    0    0  501  0.00000000000E+00  0.00000000000E+00  0.43958419219E+03  0.43958419222E+03  0.50400001928E-02 0.  1.
        1   -1    0    0  501    0  0.00000000000E+00  0.00000000000E+00 -0.11546813725E+04  0.11546813725E+04  0.50400001928E-02 0. -1.
    10030    2    1    2    0    0  0.00000000000E+00  0.00000000000E+00 -0.71509718027E+03  0.15942655647E+04  0.14248925270E+04 0.  0.
        5    1    3    3  502    0  0.43526984538E+03 -0.44136583870E+03 -0.75041910314E+03  0.97335222927E+03  0.46999998093E+01 0. -1.
       -5    1    3    3    0  502 -0.43526984538E+03  0.44136583870E+03  0.35321922868E+02  0.62091333542E+03  0.46999998093E+01 0.  1.
</event>
<event>
 5   0  0.1175146E-03  0.1350634E+04  0.7818609E-02  0.8990348E-01
        2   -1    0    0  501    0  0.00000000000E+00  0.00000000000E+00  0.12343346464E+04  0.12343346464E+04  0.25500000920E-02 0.  1.
       -2   -1    0    0    0  501  0.00000000000E+00  0.00000000000E+00 -0.36947287215E+03  0.36947287216E+03  0.25500000920E-02 0. -1.
    10030    2    1    2    0    0  0.00000000000E+00  0.00000000000E+00  0.86486177424E+03  0.16038075186E+04  0.13506341725E+04 0.  0.
        1    1    3    3  502    0  0.64754700386E+03  0.75029380832E+02  0.64186192290E+03  0.91484056441E+03  0.50400001928E-02 0.  1.
       -1    1    3    3    0  502 -0.64754700386E+03 -0.75029380832E+02  0.22299985134E+03  0.68896695415E+03  0.50400001928E-02 0. -1.
</event>
<event>
 5   0  0.4176125E-04  0.1418181E+04  0.7818609E-02  0.8940762E-01
       -3   -1    0    0    0  501  0.00000000000E+00  0.00000000000E+00  0.30618414988E+03  0.30618416654E+03  0.10100000352E+00 0.  1.
        3   -1    0    0  501    0  0.00000000000E+00  0.00000000000E+00 -0.16421794882E+04  0.16421794913E+04  0.10100000352E+00 0. -1.
    10030    2    1    2    0    0  0.00000000000E+00  0.00000000000E+00 -0.13359953383E+04  0.19483636579E+04  0.14181810178E+04 0.  0.
        5    1    3    3  502    0  0.70200520716E+03  0.60360232115E+01 -0.80496625016E+03  0.10681013521E+04  0.46999998093E+01 0. -1.
       -5    1    3    3    0  502 -0.70200520716E+03 -0.60360232115E+01 -0.53102908818E+03  0.88026230576E+03  0.46999998093E+01 0.  1.
</event>
<event>
 5   0  0.6153318E-04  0.1369439E+04  0.7818609E-02  0.8976242E-01
       -1   -1    0    0    0  501  0.00000000000E+00  0.00000000000E+00  0.31640677988E+03  0.31640677992E+03  0.50400001928E-02 0. -1.
        1   -1    0    0  501    0  0.00000000000E+00  0.00000000000E+00 -0.14817653511E+04  0.14817653511E+04  0.50400001928E-02 0.  1.
    10030    2    1    2    0    0  0.00000000000E+00  0.00000000000E+00 -0.11653585713E+04  0.17981721311E+04  0.13694387220E+04 0.  0.
        5    1    3    3  502    0 -0.18516244952E+03  0.48653338510E+03 -0.11666919581E+04  0.12775727309E+04  0.46999998093E+01 0.  1.
       -5    1    3    3    0  502  0.18516244952E+03 -0.48653338510E+03  0.13333868829E+01  0.52059940017E+03  0.46999998093E+01 0. -1.
</event>
<event>
 5   0  0.1120053E-03  0.1403327E+04  0.7818609E-02  0.8951414E-01
        2   -1    0    0  501    0  0.00000000000E+00  0.00000000000E+00  0.94602866848E+03  0.94602866848E+03  0.25500000920E-02 0. -1.
       -2   -1    0    0    0  501  0.00000000000E+00  0.00000000000E+00 -0.52041916815E+03  0.52041916816E+03  0.25500000920E-02 0.  1.
    10030    2    1    2    0    0  0.00000000000E+00  0.00000000000E+00  0.42560950032E+03  0.14664478366E+04  0.14033266943E+04 0.  0.
        2    1    3    3  502    0 -0.36549671061E+02  0.64788637956E+03 -0.66106589228E+02  0.65227503434E+03  0.25500000920E-02 0.  1.
       -2    1    3    3    0  502  0.36549671061E+02 -0.64788637956E+03  0.49171608955E+03  0.81417280230E+03  0.25500000920E-02 0. -1.
</event>
<event>
 5   0  0.6097538E-04  0.1386529E+04  0.7818609E-02  0.8963627E-01
        1   -1    0    0  501    0  0.00000000000E+00  0.00000000000E+00  0.10638694388E+04  0.10638694389E+04  0.50400001928E-02 0. -1.
       -1   -1    0    0    0  501  0.00000000000E+00  0.00000000000E+00 -0.45176218915E+03  0.45176218918E+03  0.50400001928E-02 0.  1.
    10030    2    1    2    0    0  0.00000000000E+00  0.00000000000E+00  0.61210724969E+03  0.15156316280E+04  0.13865294612E+04 0.  0.
        2    1    3    3  502    0 -0.22556404467E+03  0.88447956164E+02  0.10160831799E+04  0.10445703460E+04  0.25500000920E-02 0. -1.
       -2    1    3    3    0  502  0.22556404467E+03 -0.88447956164E+02 -0.40397593025E+03  0.47106128203E+03  0.25500000920E-02 0.  1.
</event>
<event>
 5   0  0.1095119E-03  0.1423321E+04  0.7818609E-02  0.8937109E-01
       -2   -1    0    0    0  501  0.00000000000E+00  0.00000000000E+00  0.20494004404E+03  0.20494004406E+03  0.25500000920E-02 0.  1.
        2   -1    0    0  501    0  0.00000000000E+00  0.00000000000E+00 -0.24712623068E+04  0.24712623068E+04  0.25500000920E-02 0. -1.
    10030    2    1    2    0    0  0.00000000000E+00  0.00000000000E+00 -0.22663222627E+04  0.26762023508E+04  0.14233209139E+04 0.  0.
        5    1    3    3  502    0 -0.23144324996E+03  0.54765179974E+03 -0.18685057535E+04  0.19608223562E+04  0.46999998093E+01 0. -1.
       -5    1    3    3    0  502  0.23144324996E+03 -0.54765179974E+03 -0.39781650923E+03  0.71537999463E+03  0.46999998093E+01 0.  1.
</event>
<event>
 5   0  0.1098949E-03  0.1428781E+04  0.7818609E-02  0.8933245E-01
       -2   -1    0    0    0  501  0.00000000000E+00  0.00000000000E+00  0.34338808981E+03  0.34338808982E+03  0.25500000920E-02 0.  1.
        2   -1    0    0  501    0  0.00000000000E+00  0.00000000000E+00 -0.14862298256E+04  0.14862298256E+04  0.25500000920E-02 0. -1.
    10030    2    1    2    0    0  0.00000000000E+00  0.00000000000E+00 -0.11428417358E+04  0.18296179154E+04  0.14287807681E+04 0.  0.
        4    1    3    3  502    0 -0.68420913042E+03 -0.10924409541E+03 -0.34860752330E+03  0.77563214524E+03  0.12699999809E+01 0.  1.
       -4    1    3    3    0  502  0.68420913042E+03  0.10924409541E+03 -0.79423421247E+03  0.10539857702E+04  0.12699999809E+01 0. -1.
</event>
<event>
 5   0  0.1098949E-03  0.1420016E+04  0.7818609E-02  0.8939456E-01
        2   -1    0    0  501    0  0.00000000000E+00  0.00000000000E+00  0.12390352687E+04  0.12390352687E+04  0.25500000920E-02 0.  1.
       -2   -1    0    0    0  501  0.00000000000E+00  0.00000000000E+00 -0.40685821180E+03  0.40685821181E+03  0.25500000920E-02 0. -1.
    10030    2    1    2    0    0  0.00000000000E+00  0.00000000000E+00  0.83217705688E+03  0.16458934805E+04  0.14200164418E+04 0.  0.
        4    1    3    3  502    0  0.44075055388E+03 -0.15988530680E+03  0.10340848049E+04  0.11354106564E+04  0.12699999809E+01 0.  1.
       -4    1    3    3    0  502 -0.44075055388E+03  0.15988530680E+03 -0.20190774801E+03  0.51048282408E+03  0.12699999809E+01 0. -1.
</event>
<event>
 5   0  0.6153318E-04  0.1394530E+04  0.7818609E-02  0.8957787E-01
       -1   -1    0    0    0  501  0.00000000000E+00  0.00000000000E+00  0.41734914981E+03  0.41734914984E+03  0.50400001928E-02 0. -1.
        1   -1    0    0  501    0  0.00000000000E+00  0.00000000000E+00 -0.11649210550E+04  0.11649210550E+04  0.50400001928E-02 0.  1.
    10030    2    1    2    0    0  0.00000000000E+00  0.00000000000E+00 -0.74757190517E+03  0.15822702048E+04  0.13945304757E+04 0.  0.
        5    1    3    3  502    0  0.45989881782E+03  0.24923002260E+03 -0.89686466711E+03  0.10382730122E+04  0.46999998093E+01 0.  1.
       -5    1    3    3    0  502 -0.45989881782E+03 -0.24923002260E+03  0.14929276195E+03  0.54399719261E+03  0.46999998093E+01 0. -1.
</event>
<event>
 5   0  0.4176125E-04  0.1221897E+04  0.7818609E-02  0.9093904E-01
        3   -1    0    0  501    0  0.00000000000E+00  0.00000000000E+00  0.89554630004E+03  0.89554630573E+03  0.10100000352E+00 0. -1.
       -3   -1    0    0    0  501  0.00000000000E+00  0.00000000000E+00 -0.41679336294E+03  0.41679337518E+03  0.10100000352E+00 0.  1.
    10030    2    1    2    0    0  0.00000000000E+00  0.00000000000E+00  0.47875293709E+03  0.13123396809E+04  0.12218965027E+04 0.  0.
        2    1    3    3  502    0 -0.24609741690E+03 -0.10710531084E+03  0.82883788635E+03  0.87121049585E+03  0.25500000920E-02 0. -1.
       -2    1    3    3    0  502  0.24609741690E+03  0.10710531084E+03 -0.35008494926E+03  0.44112918507E+03  0.25500000920E-02 0.  1.
</event>
<event>
 5   0  0.6153318E-04  0.1404419E+04  0.7818609E-02  0.8950626E-01
        1   -1    0    0  501    0  0.00000000000E+00  0.00000000000E+00  0.79829572064E+03  0.79829572066E+03  0.50400001928E-02 0.  1.
       -1   -1    0    0    0  501  0.00000000000E+00  0.00000000000E+00 -0.61768879847E+03  0.61768879849E+03  0.50400001928E-02 0. -1.
    10030    2    1    2    0    0  0.00000000000E+00  0.00000000000E+00  0.18060692217E+03  0.14159845191E+04  0.14044192031E+04 0.  0.
        5    1    3    3  502    0  0.45423171428E+03 -0.41638779997E+03 -0.24917537523E+03  0.66469219030E+03  0.46999998093E+01 0. -1.
       -5    1    3    3    0  502 -0.45423171428E+03  0.41638779997E+03  0.42978229740E+03  0.75129232885E+03  0.46999998093E+01 0.  1.
</event>
<event>
 5   0  0.1098949E-03  0.1397240E+04  0.7818609E-02  0.8955819E-01
       -2   -1    0    0    0  501  0.00000000000E+00  0.00000000000E+00  0.19388422586E+03  0.19388422588E+03  0.25500000920E-02 0.  1.
        2   -1    0    0  501    0  0.00000000000E+00  0.00000000000E+00 -0.25173254864E+04  0.25173254864E+04  0.25500000920E-02 0. -1.
    10030    2    1    2    0    0  0.00000000000E+00  0.00000000000E+00 -0.23234412605E+04  0.27112097123E+04  0.13972397120E+04 0.  0.
        4    1    3    3  502    0  0.80580024259E+02 -0.24418976936E+03  0.98715332224E+02  0.27544166984E+03  0.12699999809E+01 0.  1.
       -4    1    3    3    0  502 -0.80580024259E+02  0.24418976936E+03 -0.24221565928E+04  0.24357680424E+04  0.12699999809E+01 0. -1.
</event>
<event>
 5   0  0.1095119E-03  0.1391922E+04  0.7818609E-02  0.8959687E-01
       -2   -1    0    0    0  501  0.00000000000E+00  0.00000000000E+00  0.50812724260E+03  0.50812724260E+03  0.25500000920E-02 0.  1.
        2   -1    0    0  501    0  0.00000000000E+00  0.00000000000E+00 -0.95322860992E+03  0.95322860993E+03  0.25500000920E-02 0. -1.
    10030    2    1    2    0    0  0.00000000000E+00  0.00000000000E+00 -0.44510136733E+03  0.14613558525E+04  0.13919215856E+04 0.  0.
        5    1    3    3  502    0  0.19182510044E+03 -0.63413304347E+03 -0.44629603300E+03  0.79882653001E+03  0.46999998093E+01 0. -1.
       -5    1    3    3    0  502 -0.19182510044E+03  0.63413304347E+03  0.11946656703E+01  0.66252932252E+03  0.46999998093E+01 0.  1.
</event>
<event>
 5   0  0.6114266E-04  0.1399575E+04  0.7818609E-02  0.8954126E-01
        1   -1    0    0  501    0  0.00000000000E+00  0.00000000000E+00  0.85035999219E+03  0.85035999221E+03  0.50400001928E-02 0.  1.
       -1   -1    0    0    0  501  0.00000000000E+00  0.00000000000E+00 -0.57587671557E+03  0.57587671559E+03  0.50400001928E-02 0. -1.
    10030    2    1    2    0    0  0.00000000000E+00  0.00000000000E+00  0.27448327662E+03  0.14262367078E+04  0.13995749632E+04 0.  0.
        3    1    3    3  502    0  0.39564392213E+03 -0.57052605737E+03  0.22647930757E+03  0.73029239502E+03  0.10100000352E+00 0.  1.
       -3    1    3    3    0  502 -0.39564392213E+03  0.57052605737E+03  0.48003969047E+02  0.69594431279E+03  0.10100000352E+00 0. -1.
</event>
<event>
 5   0  0.1098949E-03  0.1554398E+04  0.7818609E-02  0.8849063E-01
        2   -1    0    0  501    0  0.00000000000E+00  0.00000000000E+00  0.16189542752E+04  0.16189542752E+04  0.25500000920E-02 0. -1.
       -2   -1    0    0    0  501  0.00000000000E+00  0.00000000000E+00 -0.37310404363E+03  0.37310404364E+03  0.25500000920E-02 0.  1.
    10030    2    1    2    0    0  0.00000000000E+00  0.00000000000E+00  0.12458502316E+04  0.19920583189E+04  0.15543981299E+04 0.  0.
        4    1    3    3  502    0  0.52942267714E+03  0.38258044604E+03  0.11626753621E+04  0.13335935585E+04  0.12699999809E+01 0. -1.
       -4    1    3    3    0  502 -0.52942267714E+03 -0.38258044604E+03  0.83174869438E+02  0.65846476031E+03  0.12699999809E+01 0.  1.
</event>
<event>
 5   0  0.1175146E-03  0.1420090E+04  0.7818609E-02  0.8939403E-01
       -2   -1    0    0    0  501  0.00000000000E+00  0.00000000000E+00  0.77838924416E+03  0.77838924416E+03  0.25500000920E-02 0. -1.
        2   -1    0    0  501    0  0.00000000000E+00  0.00000000000E+00 -0.64770197537E+03  0.64770197537E+03  0.25500000920E-02 0.  1.
    10030    2    1    2    0    0  0.00000000000E+00  0.00000000000E+00  0.13068726879E+03  0.14260912195E+04  0.14200904916E+04 0.  0.
        1    1    3    3  502    0 -0.55582996566E+03 -0.69000629094E+02 -0.37291336331E+03  0.67288365570E+03  0.50400001928E-02 0.  1.
       -1    1    3    3    0  502  0.55582996566E+03  0.69000629094E+02  0.50360063210E+03  0.75320756384E+03  0.50400001928E-02 0. -1.
</event>
<event>
 5   0  0.6114266E-04  0.1400962E+04  0.7818609E-02  0.8953123E-01
        1   -1    0    0  501    0  0.00000000000E+00  0.00000000000E+00  0.94705244108E+03  0.94705244110E+03  0.50400001928E-02 0. -1.
       -1   -1    0    0    0  501  0.00000000000E+00  0.00000000000E+00 -0.51810574561E+03  0.51810574563E+03  0.50400001928E-02 0.  1.
    10030    2    1    2    0    0  0.00000000000E+00  0.00000000000E+00  0.42894669548E+03  0.14651581867E+04  0.14009615429E+04 0.  0.
        3    1    3    3  502    0  0.60231059968E+03  0.28803778682E+03  0.43615205398E+03  0.79747880820E+03  0.10100000352E+00 0.  1.
       -3    1    3    3    0  502 -0.60231059968E+03 -0.28803778682E+03 -0.72053585050E+01  0.66767937853E+03  0.10100000352E+00 0. -1.
</event>
<event>
 5   0  0.1108819E-03  0.1516957E+04  0.7818609E-02  0.8873255E-01
        2   -1    0    0  501    0  0.00000000000E+00  0.00000000000E+00  0.11474387051E+04  0.11474387051E+04  0.25500000920E-02 0.  1.
       -2   -1    0    0    0  501  0.00000000000E+00  0.00000000000E+00 -0.50136833586E+03  0.50136833587E+03  0.25500000920E-02 0. -1.
    10030    2    1    2    0    0  0.00000000000E+00  0.00000000000E+00  0.64607036928E+03  0.16488070410E+04  0.15169567352E+04 0.  0.
        3    1    3    3  502    0 -0.20975388321E+03  0.23936502670E+03  0.10713502499E+04  0.11176241209E+04  0.10100000352E+00 0.  1.
       -3    1    3    3    0  502  0.20975388321E+03 -0.23936502670E+03 -0.42527988061E+03  0.53118292008E+03  0.10100000352E+00 0. -1.
</event>
<event>
 5   0  0.6114266E-04  0.1381512E+04  0.7818609E-02  0.8967311E-01
       -1   -1    0    0    0  501  0.00000000000E+00  0.00000000000E+00  0.55657802004E+03  0.55657802007E+03  0.50400001928E-02 0. -1.
        1   -1    0    0  501    0  0.00000000000E+00  0.00000000000E+00 -0.85728125933E+03  0.85728125935E+03  0.50400001928E-02 0.  1.
    10030    2    1    2    0    0  0.00000000000E+00  0.00000000000E+00 -0.30070323929E+03  0.14138592794E+04  0.13815120788E+04 0.  0.
        3    1    3    3  502    0  0.18008970646E+03  0.13890128363E+03 -0.81786418387E+03  0.84889793404E+03  0.10100000352E+00 0.  1.
       -3    1    3    3    0  502 -0.18008970646E+03 -0.13890128363E+03  0.51716094458E+03  0.56496134537E+03  0.10100000352E+00 0. -1.
</event>
<event>
 5   0  0.6153318E-04  0.1406265E+04  0.7818609E-02  0.8949296E-01
       -1   -1    0    0    0  501  0.00000000000E+00  0.00000000000E+00  0.26355063053E+03  0.26355063057E+03  0.50400001928E-02 0. -1.
        1   -1    0    0  501    0  0.00000000000E+00  0.00000000000E+00 -0.18759018708E+04  0.18759018709E+04  0.50400001928E-02 0.  1.
    10030    2    1    2    0    0  0.00000000000E+00  0.00000000000E+00 -0.16123512403E+04  0.21394525014E+04  0.14062647275E+04 0.  0.
        5    1    3    3  502    0  0.47427418565E+02  0.60276801665E+03 -0.13521648009E+04  0.14811989673E+04  0.46999998093E+01 0.  1.
       -5    1    3    3    0  502 -0.47427418565E+02 -0.60276801665E+03 -0.26018643939E+03  0.65825353411E+03  0.46999998093E+01 0. -1.
</event>
<event>
 5   0  0.5875298E-04  0.1397162E+04  0.7818609E-02  0.8955876E-01
       -1   -1    0    0    0  501  0.00000000000E+00  0.00000000000E+00  0.44115594057E+03  0.44115594060E+03  0.50400001928E-02 0.  1.
        1   -1    0    0  501    0  0.00000000000E+00  0.00000000000E+00 -0.11062194223E+04  0.11062194224E+04  0.50400001928E-02 0. -1.
    10030    2    1    2    0    0  0.00000000000E+00  0.00000000000E+00 -0.66506348178E+03  0.15473753630E+04  0.13971617942E+04 0.  0.
        1    1    3    3  502    0 -0.59250257967E+03 -0.10046273919E+02  0.77180903302E+02  0.59759277639E+03  0.50400001928E-02 0.  1.
       -1    1    3    3    0  502  0.59250257967E+03  0.10046273919E+02 -0.74224438508E+03  0.94978258657E+03  0.50400001928E-02 0. -1.
</event>
<event>
 5   0  0.5875298E-04  0.1408024E+04  0.7818609E-02  0.8948031E-01
       -1   -1    0    0    0  501  0.00000000000E+00  0.00000000000E+00  0.44346182478E+03  0.44346182481E+03  0.50400001928E-02 0. -1.
        1   -1    0    0  501    0  0.00000000000E+00  0.00000000000E+00 -0.11176443294E+04  0.11176443294E+04  0.50400001928E-02 0.  1.
    10030    2    1    2    0    0  0.00000000000E+00  0.00000000000E+00 -0.67418250463E+03  0.15611061542E+04  0.14080235706E+04 0.  0.
        1    1    3    3  502    0 -0.15103760557E+03  0.36287283137E+03 -0.98466776552E+03  0.10602167979E+04  0.50400001928E-02 0.  1.
       -1    1    3    3    0  502  0.15103760557E+03 -0.36287283137E+03  0.31048526089E+03  0.50088935634E+03  0.50400001928E-02 0. -1.
</event>
<event>
 5   0  0.1108819E-03  0.1398118E+04  0.7818609E-02  0.8955182E-01
       -2   -1    0    0    0  501  0.00000000000E+00  0.00000000000E+00  0.60392254335E+03  0.60392254336E+03  0.25500000920E-02 0.  1.
        2   -1    0    0  501    0  0.00000000000E+00  0.00000000000E+00 -0.80918246878E+03  0.80918246879E+03  0.25500000920E-02 0. -1.
    10030    2    1    2    0    0  0.00000000000E+00  0.00000000000E+00 -0.20525992543E+03  0.14131050121E+04  0.13981180702E+04 0.  0.
        3    1    3    3  502    0  0.61412879944E+03 -0.76892983513E+02 -0.43110102378E+03  0.75426442056E+03  0.10100000352E+00 0. -1.
       -3    1    3    3    0  502 -0.61412879944E+03  0.76892983513E+02  0.22584109835E+03  0.65884059159E+03  0.10100000352E+00 0.  1.
</event>
<event>
 5   0  0.5875298E-04  0.1443128E+04  0.7818609E-02  0.8923179E-01
       -1   -1    0    0    0  501  0.00000000000E+00  0.00000000000E+00  0.81358392938E+03  0.81358392939E+03  0.50400001928E-02 0.  1.
        1   -1    0    0  501    0  0.00000000000E+00  0.00000000000E+00 -0.63995183686E+03  0.63995183688E+03  0.50400001928E-02 0. -1.
    10030    2    1    2    0    0  0.00000000000E+00  0.00000000000E+00  0.17363209252E+03  0.14535357663E+04  0.14431278946E+04 0.  0.
        1    1    3    3  502    0 -0.40359079158E+02 -0.37784214979E+03 -0.53100897830E+03  0.65296560437E+03  0.50400001928E-02 0. -1.
       -1    1    3    3    0  502  0.40359079158E+02  0.37784214979E+03  0.70464107082E+03  0.80057016191E+03  0.50400001928E-02 0.  1.
</event>
<event>
 5   0  0.6097538E-04  0.1392827E+04  0.7818609E-02  0.8959027E-01
       -1   -1    0    0    0  501  0.00000000000E+00  0.00000000000E+00  0.96048976162E+03  0.96048976164E+03  0.50400001928E-02 0. -1.
        1   -1    0    0  501    0  0.00000000000E+00  0.00000000000E+00 -0.50494194952E+03  0.50494194955E+03  0.50400001928E-02 0.  1.
    10030    2    1    2    0    0  0.00000000000E+00  0.00000000000E+00  0.45554781210E+03  0.14654317112E+04  0.13928267269E+04 0.  0.
        2    1    3    3  502    0 -0.49568000722E+03  0.38309306232E+03 -0.92274668049E+02  0.63322474551E+03  0.25500000920E-02 0.  1.
       -2    1    3    3    0  502  0.49568000722E+03 -0.38309306232E+03  0.54782248015E+03  0.83220696568E+03  0.25500000920E-02 0. -1.
</event>
<event>
 5   0  0.6153318E-04  0.1403476E+04  0.7818609E-02  0.8951306E-01
       -1   -1    0    0    0  501  0.00000000000E+00  0.00000000000E+00  0.22783881766E+03  0.22783881772E+03  0.50400001928E-02 0. -1.
        1   -1    0    0  501    0  0.00000000000E+00  0.00000000000E+00 -0.21613372091E+04  0.21613372091E+04  0.50400001928E-02 0.  1.
    10030    2    1    2    0    0  0.00000000000E+00  0.00000000000E+00 -0.19334983915E+04  0.23891760269E+04  0.14034764186E+04 0.  0.
        5    1    3    3  502    0  0.30422632765E+03 -0.39833047398E+03 -0.13071138799E+03  0.51800422960E+03  0.46999998093E+01 0. -1.
       -5    1    3    3    0  502 -0.30422632765E+03  0.39833047398E+03 -0.18027870035E+04  0.18711717973E+04  0.46999998093E+01 0.  1.
</event>
<event>
 5   0  0.1098949E-03  0.1392390E+04  0.7818609E-02  0.8959346E-01
       -2   -1    0    0    0  501  0.00000000000E+00  0.00000000000E+00  0.12446834513E+04  0.12446834513E+04  0.25500000920E-02 0.  1.
        2   -1    0    0  501    0  0.00000000000E+00  0.00000000000E+00 -0.38940599829E+03  0.38940599830E+03  0.25500000920E-02 0. -1.
    10030    2    1    2    0    0  0.00000000000E+00  0.00000000000E+00  0.85527745299E+03  0.16340894496E+04  0.13923896034E+04 0.  0.
        4    1    3    3  502    0 -0.47032290925E+03  0.20426466968E+03 -0.12501690419E+03  0.52778644685E+03  0.12699999809E+01 0. -1.
       -4    1    3    3    0  502  0.47032290925E+03 -0.20426466968E+03  0.98029435718E+03  0.11063030027E+04  0.12699999809E+01 0.  1.
</event>
<event>
 5   0  0.1108819E-03  0.1398153E+04  0.7818609E-02  0.8955157E-01
        2   -1    0    0  501    0  0.00000000000E+00  0.00000000000E+00  0.48985165797E+03  0.48985165798E+03  0.25500000920E-02 0.  1.
       -2   -1    0    0    0  501  0.00000000000E+00  0.00000000000E+00 -0.99766469212E+03  0.99766469212E+03  0.25500000920E-02 0. -1.
    10030    2    1    2    0    0  0.00000000000E+00  0.00000000000E+00 -0.50781303415E+03  0.14875163501E+04  0.13981526434E+04 0.  0.
        3    1    3    3  502    0 -0.14530838523E+03 -0.13445889760E+03 -0.96721724745E+03  0.98727044721E+03  0.10100000352E+00 0. -1.
       -3    1    3    3    0  502  0.14530838523E+03  0.13445889760E+03  0.45940421330E+03  0.50024590289E+03  0.10100000352E+00 0.  1.
</event>
<event>
 5   0  0.6194742E-04  0.1404495E+04  0.7818609E-02  0.8950572E-01
       -1   -1    0    0    0  501  0.00000000000E+00  0.00000000000E+00  0.19753484163E+03  0.19753484169E+03  0.50400001928E-02 0.  1.
        1   -1    0    0  501    0  0.00000000000E+00  0.00000000000E+00 -0.24965281154E+04  0.24965281154E+04  0.50400001928E-02 0. -1.
    10030    2    1    2    0    0  0.00000000000E+00  0.00000000000E+00 -0.22989932738E+04  0.26940629571E+04  0.14044946223E+04 0.  0.
        4    1    3    3  502    0 -0.63292130337E+03 -0.28564458572E+03 -0.94861472288E+03  0.11756078049E+04  0.12699999809E+01 0.  1.
       -4    1    3    3    0  502  0.63292130337E+03  0.28564458572E+03 -0.13503785509E+04  0.15184551522E+04  0.12699999809E+01 0. -1.
</event>
<event>
 5   0  0.6097538E-04  0.1397995E+04  0.7818609E-02  0.8955271E-01
       -1   -1    0    0    0  501  0.00000000000E+00  0.00000000000E+00  0.90194336534E+03  0.90194336536E+03  0.50400001928E-02 0. -1.
        1   -1    0    0  501    0  0.00000000000E+00  0.00000000000E+00 -0.54171635145E+03  0.54171635148E+03  0.50400001928E-02 0.  1.
    10030    2    1    2    0    0  0.00000000000E+00  0.00000000000E+00  0.36022701389E+03  0.14436597168E+04  0.13979949487E+04 0.  0.
        2    1    3    3  502    0 -0.15698183706E+02 -0.50842765806E+03  0.67520300353E+03  0.84536631849E+03  0.25500000920E-02 0. -1.
       -2    1    3    3    0  502  0.15698183706E+02  0.50842765806E+03 -0.31497598963E+03  0.59829339835E+03  0.25500000920E-02 0.  1.
</event>
<event>
 5   0  0.6194742E-04  0.1405044E+04  0.7818609E-02  0.8950176E-01
        1   -1    0    0  501    0  0.00000000000E+00  0.00000000000E+00  0.11286855793E+04  0.11286855793E+04  0.50400001928E-02 0. -1.
       -1   -1    0    0    0  501  0.00000000000E+00  0.00000000000E+00 -0.43726701845E+03  0.43726701848E+03  0.50400001928E-02 0.  1.
    10030    2    1    2    0    0  0.00000000000E+00  0.00000000000E+00  0.69141856086E+03  0.15659525978E+04  0.14050437403E+04 0.  0.
        4    1    3    3  502    0 -0.38555804011E+03  0.13662349951E+03 -0.29085214767E+03  0.50191390458E+03  0.12699999809E+01 0.  1.
       -4    1    3    3    0  502  0.38555804011E+03 -0.13662349951E+03  0.98227070853E+03  0.10640386932E+04  0.12699999809E+01 0. -1.
</event>
<event>
 5   0  0.5875298E-04  0.1404818E+04  0.7818609E-02  0.8950338E-01
        1   -1    0    0  501    0  0.00000000000E+00  0.00000000000E+00  0.86086769434E+03  0.86086769436E+03  0.50400001928E-02 0.  1.
       -1   -1    0    0    0  501  0.00000000000E+00  0.00000000000E+00 -0.57311777155E+03  0.57311777158E+03  0.50400001928E-02 0. -1.
    10030    2    1    2    0    0  0.00000000000E+00  0.00000000000E+00  0.28774992279E+03  0.14339854659E+04  0.14048182439E+04 0.  0.
        1    1    3    3  502    0  0.98111024784E+02  0.63800475809E+03 -0.13882778132E+03  0.66026433905E+03  0.50400001928E-02 0. -1.
       -1    1    3    3    0  502 -0.98111024784E+02 -0.63800475809E+03  0.42657770411E+03  0.77372112689E+03  0.50400001928E-02 0.  1.
</event>
<event>
 5   0  0.4176125E-04  0.1337899E+04  0.7818609E-02  0.9000040E-01
        3   -1    0    0  501    0  0.00000000000E+00  0.00000000000E+00  0.91856535390E+03  0.91856535946E+03  0.10100000352E+00 0.  1.
       -3   -1    0    0    0  501  0.00000000000E+00  0.00000000000E+00 -0.48716521938E+03  0.48716522985E+03  0.10100000352E+00 0. -1.
    10030    2    1    2    0    0  0.00000000000E+00  0.00000000000E+00  0.43140013452E+03  0.14057305893E+04  0.13378985065E+04 0.  0.
        1    1    3    3  502    0  0.60221657346E+03 -0.19324303637E+03 -0.13259670099E+02  0.63260057803E+03  0.50400001928E-02 0. -1.
       -1    1    3    3    0  502 -0.60221657346E+03  0.19324303637E+03  0.44465980462E+03  0.77313001127E+03  0.50400001928E-02 0.  1.
</event>
<event>
 5   0  0.5875298E-04  0.1403475E+04  0.7818609E-02  0.8951307E-01
       -1   -1    0    0    0  501  0.00000000000E+00  0.00000000000E+00  0.93934136911E+03  0.93934136912E+03  0.50400001928E-02 0. -1.
        1   -1    0    0  501    0  0.00000000000E+00  0.00000000000E+00 -0.52423508042E+03  0.52423508044E+03  0.50400001928E-02 0.  1.
    10030    2    1    2    0    0  0.00000000000E+00  0.00000000000E+00  0.41510628869E+03  0.14635764496E+04  0.14034752555E+04 0.  0.
        1    1    3    3  502    0  0.15225147782E+03 -0.11778861135E+03  0.91127026896E+03  0.93137971450E+03  0.50400001928E-02 0. -1.
       -1    1    3    3    0  502 -0.15225147782E+03  0.11778861135E+03 -0.49616398027E+03  0.53219673506E+03  0.50400001928E-02 0.  1.
</event>
<event>
 5   0  0.1098949E-03  0.1402893E+04  0.7818609E-02  0.8951727E-01
        2   -1    0    0  501    0  0.00000000000E+00  0.00000000000E+00  0.37271915206E+03  0.37271915207E+03  0.25500000920E-02 0. -1.
       -2   -1    0    0    0  501  0.00000000000E+00  0.00000000000E+00 -0.13201016375E+04  0.13201016375E+04  0.25500000920E-02 0.  1.
    10030    2    1    2    0    0  0.00000000000E+00  0.00000000000E+00 -0.94738248546E+03  0.16928207896E+04  0.14028929581E+04 0.  0.
        4    1    3    3  502    0  0.52100173070E+03 -0.16120791411E+03 -0.10059857859E+04  0.11443075676E+04  0.12699999809E+01 0.  1.
       -4    1    3    3    0  502 -0.52100173070E+03  0.16120791411E+03  0.58603300435E+02  0.54851322198E+03  0.12699999809E+01 0. -1.
</event>
<event>
 5   0  0.1098949E-03  0.1402125E+04  0.7818609E-02  0.8952282E-01
        2   -1    0    0  501    0  0.00000000000E+00  0.00000000000E+00  0.95587557443E+03  0.95587557443E+03  0.25500000920E-02 0.  1.
       -2   -1    0    0    0  501  0.00000000000E+00  0.00000000000E+00 -0.51417650805E+03  0.51417650805E+03  0.25500000920E-02 0. -1.
    10030    2    1    2    0    0  0.00000000000E+00  0.00000000000E+00  0.44169906638E+03  0.14700520825E+04  0.14021251941E+04 0.  0.
        4    1    3    3  502    0  0.53698361172E+03 -0.33973222347E+03 -0.89670567086E+02  0.64172564732E+03  0.12699999809E+01 0. -1.
       -4    1    3    3    0  502 -0.53698361172E+03  0.33973222347E+03  0.53136963346E+03  0.82832643516E+03  0.12699999809E+01 0.  1.
</event>
<event>
 5   0  0.5875298E-04  0.1433874E+04  0.7818609E-02  0.8929658E-01
        1   -1    0    0  501    0  0.00000000000E+00  0.00000000000E+00  0.64857838629E+03  0.64857838631E+03  0.50400001928E-02 0.  1.
       -1   -1    0    0    0  501  0.00000000000E+00  0.00000000000E+00 -0.79250003894E+03  0.79250003896E+03  0.50400001928E-02 0. -1.
    10030    2    1    2    0    0  0.00000000000E+00  0.00000000000E+00 -0.14392165265E+03  0.14410784253E+04  0.14338736296E+04 0.  0.
        1    1    3    3  502    0  0.42594809609E+03  0.48859269253E+03 -0.37983944080E+03  0.75128729562E+03  0.50400001928E-02 0. -1.
       -1    1    3    3    0  502 -0.42594809609E+03 -0.48859269253E+03  0.23591778814E+03  0.68979112965E+03  0.50400001928E-02 0.  1.
</event>
<event>
 5   0  0.6194742E-04  0.1393267E+04  0.7818609E-02  0.8958707E-01
       -1   -1    0    0    0  501  0.00000000000E+00  0.00000000000E+00  0.49333046299E+03  0.49333046302E+03  0.50400001928E-02 0. -1.
        1   -1    0    0  501    0  0.00000000000E+00  0.00000000000E+00 -0.98371812674E+03  0.98371812675E+03  0.50400001928E-02 0.  1.
    10030    2    1    2    0    0  0.00000000000E+00  0.00000000000E+00 -0.49038766375E+03  0.14770485898E+04  0.13932668358E+04 0.  0.
        4    1    3    3  502    0  0.60624540960E+02 -0.69389305011E+03 -0.23293995213E+03  0.73445594432E+03  0.12699999809E+01 0.  1.
       -4    1    3    3    0  502 -0.60624540960E+02  0.69389305011E+03 -0.25744771162E+03  0.74259264545E+03  0.12699999809E+01 0. -1.
</event>
<event>
 5   0  0.1098949E-03  0.1399360E+04  0.7818609E-02  0.8954282E-01
        2   -1    0    0  501    0  0.00000000000E+00  0.00000000000E+00  0.89708217679E+03  0.89708217679E+03  0.25500000920E-02 0. -1.
       -2   -1    0    0    0  501  0.00000000000E+00  0.00000000000E+00 -0.54571581845E+03  0.54571581846E+03  0.25500000920E-02 0.  1.
    10030    2    1    2    0    0  0.00000000000E+00  0.00000000000E+00  0.35136635834E+03  0.14427979952E+04  0.13993597598E+04 0.  0.
        4    1    3    3  502    0 -0.30047607344E+03 -0.61828061262E+03  0.31008897952E+03  0.75413100638E+03  0.12699999809E+01 0. -1.
       -4    1    3    3    0  502  0.30047607344E+03  0.61828061262E+03  0.41277378820E+02  0.68866698887E+03  0.12699999809E+01 0.  1.
</event>
<event>
 5   0  0.1098949E-03  0.1377549E+04  0.7818609E-02  0.8970232E-01
        2   -1    0    0  501    0  0.00000000000E+00  0.00000000000E+00  0.13920432500E+04  0.13920432500E+04  0.25500000920E-02 0. -1.
       -2   -1    0    0    0  501  0.00000000000E+00  0.00000000000E+00 -0.34080134869E+03  0.34080134870E+03  0.25500000920E-02 0.  1.
    10030    2    1    2    0    0  0.00000000000E+00  0.00000000000E+00  0.10512419013E+04  0.17328445987E+04  0.13775488624E+04 0.  0.
        4    1    3    3  502    0  0.45945531488E+03  0.35559192925E+03  0.60252542328E+02  0.58410340547E+03  0.12699999809E+01 0.  1.
       -4    1    3    3    0  502 -0.45945531488E+03 -0.35559192925E+03  0.99098935897E+03  0.11487411932E+04  0.12699999809E+01 0. -1.
</event>
<event>
 5   0  0.1095119E-03  0.1385318E+04  0.7818609E-02  0.8964515E-01
        2   -1    0    0  501    0  0.00000000000E+00  0.00000000000E+00  0.18380838761E+04  0.18380838761E+04  0.25500000920E-02 0. -1.
       -2   -1    0    0    0  501  0.00000000000E+00  0.00000000000E+00 -0.26101985886E+03  0.26101985887E+03  0.25500000920E-02 0.  1.
    10030    2    1    2    0    0  0.00000000000E+00  0.00000000000E+00  0.15770640172E+04  0.20991037350E+04  0.13853178609E+04 0.  0.
        5    1    3    3  502    0  0.36422448925E+03  0.58703025794E+03  0.86414744146E+03  0.11063620081E+04  0.46999998093E+01 0.  1.
       -5    1    3    3    0  502 -0.36422448925E+03 -0.58703025794E+03  0.71291657577E+03  0.99274172689E+03  0.46999998093E+01 0. -1.
</event>
<event>
 5   0  0.1175146E-03  0.1396657E+04  0.7818609E-02  0.8956242E-01
        2   -1    0    0  501    0  0.00000000000E+00  0.00000000000E+00  0.18686102857E+04  0.18686102857E+04  0.25500000920E-02 0.  1.
       -2   -1    0    0    0  501  0.00000000000E+00  0.00000000000E+00 -0.26097619552E+03  0.26097619554E+03  0.25500000920E-02 0. -1.
    10030    2    1    2    0    0  0.00000000000E+00  0.00000000000E+00  0.16076340902E+04  0.21295864812E+04  0.13966571566E+04 0.  0.
        1    1    3    3  502    0 -0.16460194680E+03 -0.30363782757E+03 -0.12162538656E+03  0.36617272687E+03  0.50400001928E-02 0. -1.
       -1    1    3    3    0  502  0.16460194680E+03  0.30363782757E+03  0.17292594767E+04  0.17634137544E+04  0.50400001928E-02 0.  1.
</event>
<event>
 5   0  0.6153318E-04  0.1399229E+04  0.7818609E-02  0.8954377E-01
        1   -1    0    0  501    0  0.00000000000E+00  0.00000000000E+00  0.96748091524E+03  0.96748091525E+03  0.50400001928E-02 0. -1.
       -1   -1    0    0    0  501  0.00000000000E+00  0.00000000000E+00 -0.50591254749E+03  0.50591254751E+03  0.50400001928E-02 0.  1.
    10030    2    1    2    0    0  0.00000000000E+00  0.00000000000E+00  0.46156836775E+03  0.14733934628E+04  0.13992294086E+04 0.  0.
        5    1    3    3  502    0  0.58841636592E+03  0.23845146285E+03 -0.78637135465E+02  0.63976465117E+03  0.46999998093E+01 0.  1.
       -5    1    3    3    0  502 -0.58841636592E+03 -0.23845146285E+03  0.54020550322E+03  0.83362881160E+03  0.46999998093E+01 0. -1.
</event>
<event>
 5   0  0.1095119E-03  0.1407526E+04  0.7818609E-02  0.8948389E-01
       -2   -1    0    0    0  501  0.00000000000E+00  0.00000000000E+00  0.75950279778E+03  0.75950279778E+03  0.25500000920E-02 0. -1.
        2   -1    0    0  501    0  0.00000000000E+00  0.00000000000E+00 -0.65211351396E+03  0.65211351397E+03  0.25500000920E-02 0.  1.
    10030    2    1    2    0    0  0.00000000000E+00  0.00000000000E+00  0.10738928382E+03  0.14116163117E+04  0.14075255427E+04 0.  0.
        5    1    3    3  502    0  0.39695702807E+03  0.57467954710E+03 -0.32744508482E+02  0.69923226243E+03  0.46999998093E+01 0.  1.
       -5    1    3    3    0  502 -0.39695702807E+03 -0.57467954710E+03  0.14013379230E+03  0.71238404932E+03  0.46999998093E+01 0. -1.
</event>
<event>
 5   0  0.6097538E-04  0.1329461E+04  0.7818609E-02  0.9006523E-01
        1   -1    0    0  501    0  0.00000000000E+00  0.00000000000E+00  0.80325122832E+03  0.80325122834E+03  0.50400001928E-02 0. -1.
       -1   -1    0    0    0  501  0.00000000000E+00  0.00000000000E+00 -0.55009736925E+03  0.55009736927E+03  0.50400001928E-02 0.  1.
    10030    2    1    2    0    0  0.00000000000E+00  0.00000000000E+00  0.25315385908E+03  0.13533485976E+04  0.13294606238E+04 0.  0.
        2    1    3    3  502    0  0.45500025104E+03 -0.16424389877E+03  0.59069127091E+03  0.76349031707E+03  0.25500000920E-02 0. -1.
       -2    1    3    3    0  502 -0.45500025104E+03  0.16424389877E+03 -0.33753741183E+03  0.58985828054E+03  0.25500000920E-02 0.  1.
</event>
<event>
 5   0  0.1095119E-03  0.1392821E+04  0.7818609E-02  0.8959032E-01
        2   -1    0    0  501    0  0.00000000000E+00  0.00000000000E+00  0.21760379815E+04  0.21760379815E+04  0.25500000920E-02 0. -1.
       -2   -1    0    0    0  501  0.00000000000E+00  0.00000000000E+00 -0.22287632299E+03  0.22287632301E+03  0.25500000920E-02 0.  1.
    10030    2    1    2    0    0  0.00000000000E+00  0.00000000000E+00  0.19531616585E+04  0.23989143045E+04  0.13928206547E+04 0.  0.
        5    1    3    3  502    0 -0.33126677839E+02 -0.38574312428E+03 -0.20401327692E+02  0.38772856341E+03  0.46999998093E+01 0.  1.
       -5    1    3    3    0  502  0.33126677839E+02  0.38574312428E+03  0.19735629862E+04  0.20111857411E+04  0.46999998093E+01 0. -1.
</event>
<event>
 5   0  0.6114266E-04  0.1403097E+04  0.7818609E-02  0.8951580E-01
       -1   -1    0    0    0  501  0.00000000000E+00  0.00000000000E+00  0.64611164043E+03  0.64611164045E+03  0.50400001928E-02 0.  1.
        1   -1    0    0  501    0  0.00000000000E+00  0.00000000000E+00 -0.76174209577E+03  0.76174209579E+03  0.50400001928E-02 0. -1.
    10030    2    1    2    0    0  0.00000000000E+00  0.00000000000E+00 -0.11563045534E+03  0.14078537362E+04  0.14030971957E+04 0.  0.
        3    1    3    3  502    0 -0.33769981280E+03 -0.39155950155E+03  0.41793389686E+03  0.66485243412E+03  0.10100000352E+00 0.  1.
       -3    1    3    3    0  502  0.33769981280E+03  0.39155950155E+03 -0.53356435220E+03  0.74300130212E+03  0.10100000352E+00 0. -1.
</event>
<event>
 5   0  0.6194742E-04  0.1422743E+04  0.7818609E-02  0.8937519E-01
        1   -1    0    0  501    0  0.00000000000E+00  0.00000000000E+00  0.12272615897E+04  0.12272615897E+04  0.50400001928E-02 0.  1.
       -1   -1    0    0    0  501  0.00000000000E+00  0.00000000000E+00 -0.41234028949E+03  0.41234028952E+03  0.50400001928E-02 0. -1.
    10030    2    1    2    0    0  0.00000000000E+00  0.00000000000E+00  0.81492130019E+03  0.16396018792E+04  0.14227429834E+04 0.  0.
        4    1    3    3  502    0  0.65109400593E+03  0.16063323295E+03  0.13396623111E+03  0.68386768024E+03  0.12699999809E+01 0. -1.
       -4    1    3    3    0  502 -0.65109400593E+03 -0.16063323295E+03  0.68095506908E+03  0.95573419898E+03  0.12699999809E+01 0.  1.
</event>
<event>
 5   0  0.6114266E-04  0.1394838E+04  0.7818609E-02  0.8957564E-01
       -1   -1    0    0    0  501  0.00000000000E+00  0.00000000000E+00  0.55799984760E+03  0.55799984762E+03  0.50400001928E-02 0. -1.
        1   -1    0    0  501    0  0.00000000000E+00  0.00000000000E+00 -0.87167246390E+03  0.87167246392E+03  0.50400001928E-02 0.  1.
    10030    2    1    2    0    0  0.00000000000E+00  0.00000000000E+00 -0.31367261630E+03  0.14296723115E+04  0.13948377713E+04 0.  0.
        3    1    3    3  502    0  0.25925574255E+03 -0.15211641887E+03  0.48819740431E+03  0.57331462629E+03  0.10100000352E+00 0. -1.
       -3    1    3    3    0  502 -0.25925574255E+03  0.15211641887E+03 -0.80187002061E+03  0.85635768525E+03  0.10100000352E+00 0.  1.
</event>
<event>
 5   0  0.6114266E-04  0.1363915E+04  0.7818609E-02  0.8980361E-01
        1   -1    0    0  501    0  0.00000000000E+00  0.00000000000E+00  0.18553000029E+04  0.18553000029E+04  0.50400001928E-02 0. -1.
       -1   -1    0    0    0  501  0.00000000000E+00  0.00000000000E+00 -0.25066885004E+03  0.25066885009E+03  0.50400001928E-02 0.  1.
    10030    2    1    2    0    0  0.00000000000E+00  0.00000000000E+00  0.16046311529E+04  0.21059688530E+04  0.13639148335E+04 0.  0.
        3    1    3    3  502    0 -0.61965197844E+03  0.15149009334E+03  0.11746493231E+04  0.13366820360E+04  0.10100000352E+00 0. -1.
       -3    1    3    3    0  502  0.61965197844E+03 -0.15149009334E+03  0.42998182975E+03  0.76928681705E+03  0.10100000352E+00 0.  1.
</event>
<event>
 5   0  0.1120053E-03  0.1387005E+04  0.7818609E-02  0.8963279E-01
       -2   -1    0    0    0  501  0.00000000000E+00  0.00000000000E+00  0.38955583150E+03  0.38955583150E+03  0.25500000920E-02 0. -1.
        2   -1    0    0  501    0  0.00000000000E+00  0.00000000000E+00 -0.12345996119E+04  0.12345996119E+04  0.25500000920E-02 0.  1.
    10030    2    1    2    0    0  0.00000000000E+00  0.00000000000E+00 -0.84504378041E+03  0.16241554434E+04  0.13870046552E+04 0.  0.
        2    1    3    3  502    0 -0.66039368134E+03  0.78714501734E+02 -0.19237225450E+03  0.69233147513E+03  0.25500000920E-02 0. -1.
       -2    1    3    3    0  502  0.66039368134E+03 -0.78714501734E+02 -0.65267152591E+03  0.93182396829E+03  0.25500000920E-02 0.  1.
</event>
<event>
 5   0  0.6153318E-04  0.1510893E+04  0.7818609E-02  0.8877241E-01
        1   -1    0    0  501    0  0.00000000000E+00  0.00000000000E+00  0.12776437494E+04  0.12776437494E+04  0.50400001928E-02 0.  1.
       -1   -1    0    0    0  501  0.00000000000E+00  0.00000000000E+00 -0.44668129355E+03  0.44668129358E+03  0.50400001928E-02 0. -1.
    10030    2    1    2    0    0  0.00000000000E+00  0.00000000000E+00  0.83096245582E+03  0.17243250430E+04  0.15108931964E+04 0.  0.
        5    1    3    3  502    0 -0.24474315778E+03 -0.43271255796E+03 -0.23367329382E+03  0.54933111084E+03  0.46999998093E+01 0. -1.
       -5    1    3    3    0  502  0.24474315778E+03  0.43271255796E+03  0.10646357496E+04  0.11749939321E+04  0.46999998093E+01 0.  1.
</event>
<event>
 5   0  0.6097538E-04  0.1406658E+04  0.7818609E-02  0.8949013E-01
        1   -1    0    0  501    0  0.00000000000E+00  0.00000000000E+00  0.17524348316E+04  0.17524348316E+04  0.50400001928E-02 0.  1.
       -1   -1    0    0    0  501  0.00000000000E+00  0.00000000000E+00 -0.28227679904E+03  0.28227679908E+03  0.50400001928E-02 0. -1.
    10030    2    1    2    0    0  0.00000000000E+00  0.00000000000E+00  0.14701580325E+04  0.20347116306E+04  0.14066580179E+04 0.  0.
        2    1    3    3  502    0 -0.23896707085E+03 -0.32603343726E+03  0.15676178465E+04  0.16188973951E+04  0.25500000920E-02 0.  1.
       -2    1    3    3    0  502  0.23896707085E+03  0.32603343726E+03 -0.97459813962E+02  0.41581423557E+03  0.25500000920E-02 0. -1.
</event>
<event>
 5   0  0.6114266E-04  0.1402035E+04  0.7818609E-02  0.8952347E-01
       -1   -1    0    0    0  501  0.00000000000E+00  0.00000000000E+00  0.28803294811E+03  0.28803294816E+03  0.50400001928E-02 0. -1.
        1   -1    0    0  501    0  0.00000000000E+00  0.00000000000E+00 -0.17061437837E+04  0.17061437837E+04  0.50400001928E-02 0.  1.
    10030    2    1    2    0    0  0.00000000000E+00  0.00000000000E+00 -0.14181108356E+04  0.19941767319E+04  0.14020351265E+04 0.  0.
        3    1    3    3  502    0 -0.48598992183E+03 -0.81940746413E+01 -0.14275466717E+04  0.15080261460E+04  0.10100000352E+00 0.  1.
       -3    1    3    3    0  502  0.48598992183E+03  0.81940746413E+01  0.94358360588E+01  0.48615058591E+03  0.10100000352E+00 0. -1.
</event>
<event>
 5   0  0.1175146E-03  0.1407697E+04  0.7818609E-02  0.8948266E-01
       -2   -1    0    0    0  501  0.00000000000E+00  0.00000000000E+00  0.89031439813E+03  0.89031439814E+03  0.25500000920E-02 0. -1.
        2   -1    0    0  501    0  0.00000000000E+00  0.00000000000E+00 -0.55643535755E+03  0.55643535755E+03  0.25500000920E-02 0.  1.
    10030    2    1    2    0    0  0.00000000000E+00  0.00000000000E+00  0.33387904058E+03  0.14467497557E+04  0.14076965731E+04 0.  0.
        1    1    3    3  502    0  0.82987845492E+02 -0.69662411297E+03  0.22535177755E+03  0.73685518315E+03  0.50400001928E-02 0.  1.
       -1    1    3    3    0  502 -0.82987845492E+02  0.69662411297E+03  0.10852726304E+03  0.70989457254E+03  0.50400001928E-02 0. -1.
</event>
<event>
 5   0  0.1120053E-03  0.1421111E+04  0.7818609E-02  0.8938678E-01
        2   -1    0    0  501    0  0.00000000000E+00  0.00000000000E+00  0.10014662670E+04  0.10014662670E+04  0.25500000920E-02 0. -1.
       -2   -1    0    0    0  501  0.00000000000E+00  0.00000000000E+00 -0.50414960050E+03  0.50414960050E+03  0.25500000920E-02 0.  1.
    10030    2    1    2    0    0  0.00000000000E+00  0.00000000000E+00  0.49731666651E+03  0.15056158675E+04  0.14211105776E+04 0.  0.
        2    1    3    3  502    0  0.43054934720E+03 -0.19160931426E+03  0.81207217191E+03  0.93890791992E+03  0.25500000920E-02 0. -1.
       -2    1    3    3    0  502 -0.43054934720E+03  0.19160931426E+03 -0.31475550540E+03  0.56670794760E+03  0.25500000920E-02 0.  1.
</event>
<event>
 5   0  0.6114266E-04  0.1396699E+04  0.7818609E-02  0.8956212E-01
        1   -1    0    0  501    0  0.00000000000E+00  0.00000000000E+00  0.93496028129E+03  0.93496028131E+03  0.50400001928E-02 0.  1.
       -1   -1    0    0    0  501  0.00000000000E+00  0.00000000000E+00 -0.52161779020E+03  0.52161779022E+03  0.50400001928E-02 0. -1.
    10030    2    1    2    0    0  0.00000000000E+00  0.00000000000E+00  0.41334249110E+03  0.14565780715E+04  0.13966988450E+04 0.  0.
        3    1    3    3  502    0 -0.34338091500E+03 -0.60650017451E+03  0.16074944445E+03  0.71525751207E+03  0.10100000352E+00 0. -1.
       -3    1    3    3    0  502  0.34338091500E+03  0.60650017451E+03  0.25259304664E+03  0.74132055947E+03  0.10100000352E+00 0.  1.
</event>
<event>
 5   0  0.1175146E-03  0.1401081E+04  0.7818609E-02  0.8953037E-01
       -2   -1    0    0    0  501  0.00000000000E+00  0.00000000000E+00  0.47770325617E+03  0.47770325618E+03  0.25500000920E-02 0. -1.
        2   -1    0    0  501    0  0.00000000000E+00  0.00000000000E+00 -0.10273258616E+04  0.10273258616E+04  0.25500000920E-02 0.  1.
    10030    2    1    2    0    0  0.00000000000E+00  0.00000000000E+00 -0.54962260547E+03  0.15050291178E+04  0.14010808817E+04 0.  0.
        1    1    3    3  502    0  0.29590966074E+03  0.49450656154E+03  0.15305904863E+03  0.59626029477E+03  0.50400001928E-02 0. -1.
       -1    1    3    3    0  502 -0.29590966074E+03 -0.49450656154E+03 -0.70268165410E+03  0.90876882305E+03  0.50400001928E-02 0.  1.
</event>
<event>
 5   0  0.5875298E-04  0.1478933E+04  0.7818609E-02  0.8898584E-01
       -1   -1    0    0    0  501  0.00000000000E+00  0.00000000000E+00  0.84922594839E+03  0.84922594841E+03  0.50400001928E-02 0.  1.
        1   -1    0    0  501    0  0.00000000000E+00  0.00000000000E+00 -0.64389290548E+03  0.64389290550E+03  0.50400001928E-02 0. -1.
    10030    2    1    2    0    0  0.00000000000E+00  0.00000000000E+00  0.20533304292E+03  0.14931188539E+04  0.14789328089E+04 0.  0.
        1    1    3    3  502    0 -0.64153652265E+03 -0.34895405770E+03 -0.14518023743E+02  0.73044426024E+03  0.50400001928E-02 0.  1.
       -1    1    3    3    0  502  0.64153652265E+03  0.34895405770E+03  0.21985106666E+03  0.76267459366E+03  0.50400001928E-02 0. -1.
</event>
<event>
 5   0  0.6114266E-04  0.1411254E+04  0.7818609E-02  0.8945712E-01
       -1   -1    0    0    0  501  0.00000000000E+00  0.00000000000E+00  0.43079749387E+03  0.43079749390E+03  0.50400001928E-02 0.  1.
        1   -1    0    0  501    0  0.00000000000E+00  0.00000000000E+00 -0.11557860384E+04  0.11557860384E+04  0.50400001928E-02 0. -1.
    10030    2    1    2    0    0  0.00000000000E+00  0.00000000000E+00 -0.72498854455E+03  0.15865835323E+04  0.14112543766E+04 0.  0.
        3    1    3    3  502    0 -0.25268089089E+03  0.40152321664E+03  0.22474164427E+03  0.52495461041E+03  0.10100000352E+00 0.  1.
       -3    1    3    3    0  502  0.25268089089E+03 -0.40152321664E+03 -0.94973018882E+03  0.10616289219E+04  0.10100000352E+00 0. -1.
</event>
<event>
 5   0  0.1098949E-03  0.1403218E+04  0.7818609E-02  0.8951493E-01
        2   -1    0    0  501    0  0.00000000000E+00  0.00000000000E+00  0.14507260401E+04  0.14507260401E+04  0.25500000920E-02 0.  1.
       -2   -1    0    0    0  501  0.00000000000E+00  0.00000000000E+00 -0.33931632635E+03  0.33931632636E+03  0.25500000920E-02 0. -1.
    10030    2    1    2    0    0  0.00000000000E+00  0.00000000000E+00  0.11114097138E+04  0.17900423665E+04  0.14032177742E+04 0.  0.
        4    1    3    3  502    0 -0.52548238471E+03 -0.48449291463E+01 -0.37307598381E+02  0.52682889042E+03  0.12699999809E+01 0. -1.
       -4    1    3    3    0  502  0.52548238471E+03  0.48449291463E+01  0.11487173122E+04  0.12632134761E+04  0.12699999809E+01 0.  1.
</event>
<event>
 5   0  0.4176125E-04  0.1410093E+04  0.7818609E-02  0.8946545E-01
       -4   -1    0    0    0  501  0.00000000000E+00  0.00000000000E+00  0.58659227898E+03  0.58659365379E+03  0.12699999809E+01 0. -1.
        4   -1    0    0  501    0  0.00000000000E+00  0.00000000000E+00 -0.84741765004E+03  0.84741860169E+03  0.12699999809E+01 0.  1.
    10030    2    1    2    0    0  0.00000000000E+00  0.00000000000E+00 -0.26082537105E+03  0.14340122555E+04  0.14100926476E+04 0.  0.
        4    1    3    3  502    0  0.41164341866E+03 -0.88233833583E+02 -0.70556193788E+03  0.82161717035E+03  0.12699999809E+01 0.  1.
       -4    1    3    3    0  502 -0.41164341866E+03  0.88233833583E+02  0.44473656683E+03  0.61239508513E+03  0.12699999809E+01 0. -1.
</event>
<event>
 5   0  0.4176125E-04  0.1393469E+04  0.7818609E-02  0.8958560E-01
        3   -1    0    0  501    0  0.00000000000E+00  0.00000000000E+00  0.10799169346E+04  0.10799169393E+04  0.10100000352E+00 0.  1.
       -3   -1    0    0    0  501  0.00000000000E+00  0.00000000000E+00 -0.44951480116E+03  0.44951481251E+03  0.10100000352E+00 0. -1.
    10030    2    1    2    0    0  0.00000000000E+00  0.00000000000E+00  0.63040213339E+03  0.15294317518E+04  0.13934685621E+04 0.  0.
        5    1    3    3  502    0 -0.33156524406E+03  0.61253378802E+03  0.29672349036E+03  0.75709977695E+03  0.46999998093E+01 0.  1.
       -5    1    3    3    0  502  0.33156524406E+03 -0.61253378802E+03  0.33367864303E+03  0.77233197483E+03  0.46999998093E+01 0. -1.
</event>
<event>
 5   0  0.1175146E-03  0.1403982E+04  0.7818609E-02  0.8950941E-01
        2   -1    0    0  501    0  0.00000000000E+00  0.00000000000E+00  0.11891167876E+04  0.11891167876E+04  0.25500000920E-02 0.  1.
       -2   -1    0    0    0  501  0.00000000000E+00  0.00000000000E+00 -0.41441782132E+03  0.41441782133E+03  0.25500000920E-02 0. -1.
    10030    2    1    2    0    0  0.00000000000E+00  0.00000000000E+00  0.77469896627E+03  0.16035346089E+04  0.14039817498E+04 0.  0.
        1    1    3    3  502    0 -0.38459589240E+03 -0.13382084904E+03  0.10404353365E+04  0.11172858674E+04  0.50400001928E-02 0.  1.
       -1    1    3    3    0  502  0.38459589240E+03  0.13382084904E+03 -0.26573637025E+03  0.48624874148E+03  0.50400001928E-02 0. -1.
</event>
<event>
 5   0  0.1095119E-03  0.1400486E+04  0.7818609E-02  0.8953467E-01
        2   -1    0    0  501    0  0.00000000000E+00  0.00000000000E+00  0.64732350809E+03  0.64732350810E+03  0.25500000920E-02 0. -1.
       -2   -1    0    0    0  501  0.00000000000E+00  0.00000000000E+00 -0.75748821619E+03  0.75748821619E+03  0.25500000920E-02 0.  1.
    10030    2    1    2    0    0  0.00000000000E+00  0.00000000000E+00 -0.11016470809E+03  0.14048117243E+04  0.14004855293E+04 0.  0.
        5    1    3    3  502    0  0.33630348879E+03  0.23485730335E+03  0.51417387357E+03  0.65776504298E+03  0.46999998093E+01 0. -1.
       -5    1    3    3    0  502 -0.33630348879E+03 -0.23485730335E+03 -0.62433858166E+03  0.74704668131E+03  0.46999998093E+01 0.  1.
</event>
<event>
 5   0  0.1098949E-03  0.1214213E+04  0.7818609E-02  0.9100506E-01
        2   -1    0    0  501    0  0.00000000000E+00  0.00000000000E+00  0.11275593846E+04  0.11275593846E+04  0.25500000920E-02 0.  1.
       -2   -1    0    0    0  501  0.00000000000E+00  0.00000000000E+00 -0.32688157999E+03  0.32688158000E+03  0.25500000920E-02 0. -1.
    10030    2    1    2    0    0  0.00000000000E+00  0.00000000000E+00  0.80067780458E+03  0.14544409646E+04  0.12142131496E+04 0.  0.
        4    1    3    3  502    0 -0.25467614674E+03 -0.20266768094E+03  0.10142193390E+04  0.10651650619E+04  0.12699999809E+01 0.  1.
       -4    1    3    3    0  502  0.25467614674E+03  0.20266768094E+03 -0.21354153439E+03  0.38927590270E+03  0.12699999809E+01 0. -1.
</event>
<event>
 5   0  0.6114266E-04  0.1440362E+04  0.7818609E-02  0.8925109E-01
        1   -1    0    0  501    0  0.00000000000E+00  0.00000000000E+00  0.18471470022E+04  0.18471470022E+04  0.50400001928E-02 0. -1.
       -1   -1    0    0    0  501  0.00000000000E+00  0.00000000000E+00 -0.28079028495E+03  0.28079028500E+03  0.50400001928E-02 0.  1.
    10030    2    1    2    0    0  0.00000000000E+00  0.00000000000E+00  0.15663567172E+04  0.21279372872E+04  0.14403623616E+04 0.  0.
        3    1    3    3  502    0  0.33638092365E+03 -0.16550055401E+03 -0.12527146598E+03  0.39526637798E+03  0.10100000352E+00 0.  1.
       -3    1    3    3    0  502 -0.33638092365E+03  0.16550055401E+03  0.16916281832E+04  0.17326709092E+04  0.10100000352E+00 0. -1.
</event>
<event>
 5   0  0.6114266E-04  0.1399790E+04  0.7818609E-02  0.8953971E-01
       -1   -1    0    0    0  501  0.00000000000E+00  0.00000000000E+00  0.76128565066E+03  0.76128565068E+03  0.50400001928E-02 0. -1.
        1   -1    0    0  501    0  0.00000000000E+00  0.00000000000E+00 -0.64345487000E+03  0.64345487002E+03  0.50400001928E-02 0.  1.
    10030    2    1    2    0    0  0.00000000000E+00  0.00000000000E+00  0.11783078066E+03  0.14047405207E+04  0.13997899262E+04 0.  0.
        3    1    3    3  502    0  0.11969607885E+03  0.43793219133E+03  0.59347290871E+03  0.74720938101E+03  0.10100000352E+00 0. -1.
       -3    1    3    3    0  502 -0.11969607885E+03 -0.43793219133E+03 -0.47564212805E+03  0.65753113969E+03  0.10100000352E+00 0.  1.
</event>
<event>
 5   0  0.1108819E-03  0.1392754E+04  0.7818609E-02  0.8959080E-01
        2   -1    0    0  501    0  0.00000000000E+00  0.00000000000E+00  0.98863967461E+03  0.98863967461E+03  0.25500000920E-02 0.  1.
       -2   -1    0    0    0  501  0.00000000000E+00  0.00000000000E+00 -0.49051332134E+03  0.49051332134E+03  0.25500000920E-02 0. -1.
    10030    2    1    2    0    0  0.00000000000E+00  0.00000000000E+00  0.49812635327E+03  0.14791529960E+04  0.13927540061E+04 0.  0.
        3    1    3    3  502    0 -0.96123266360E+02 -0.28842391754E+02  0.98091937064E+03  0.98603974961E+03  0.10100000352E+00 0.  1.
       -3    1    3    3    0  502  0.96123266360E+02  0.28842391754E+02 -0.48279301737E+03  0.49311324635E+03  0.10100000352E+00 0. -1.
</event>
<event>
 5   0  0.1098949E-03  0.1391835E+04  0.7818609E-02  0.8959750E-01
        2   -1    0    0  501    0  0.00000000000E+00  0.00000000000E+00  0.89334822147E+03  0.89334822148E+03  0.25500000920E-02 0. -1.
       -2   -1    0    0    0  501  0.00000000000E+00  0.00000000000E+00 -0.54211950115E+03  0.54211950115E+03  0.25500000920E-02 0.  1.
    10030    2    1    2    0    0  0.00000000000E+00  0.00000000000E+00  0.35122872033E+03  0.14354677226E+04  0.13918354676E+04 0.  0.
        4    1    3    3  502    0  0.22597685725E+03  0.65490252231E+03  0.10769375886E+03  0.70111512060E+03  0.12699999809E+01 0. -1.
       -4    1    3    3    0  502 -0.22597685725E+03 -0.65490252231E+03  0.24353496147E+03  0.73435260203E+03  0.12699999809E+01 0.  1.
</event>
<event>
 5   0  0.6097538E-04  0.1356730E+04  0.7818609E-02  0.8985749E-01
        1   -1    0    0  501    0  0.00000000000E+00  0.00000000000E+00  0.66820115539E+03  0.66820115541E+03  0.50400001928E-02 0. -1.
       -1   -1    0    0    0  501  0.00000000000E+00  0.00000000000E+00 -0.68868331834E+03  0.68868331836E+03  0.50400001928E-02 0.  1.
    10030    2    1    2    0    0  0.00000000000E+00  0.00000000000E+00 -0.20482162952E+02  0.13568844738E+04  0.13567298759E+04 0.  0.
        2    1    3    3  502    0 -0.39708858480E+03 -0.47851557968E+03 -0.28142227813E+03  0.68253571541E+03  0.25500000920E-02 0.  1.
       -2    1    3    3    0  502  0.39708858480E+03  0.47851557968E+03  0.26094011518E+03  0.67434875835E+03  0.25500000920E-02 0. -1.
</event>
<event>
 5   0  0.5875298E-04  0.1453998E+04  0.7818609E-02  0.8915633E-01
       -1   -1    0    0    0  501  0.00000000000E+00  0.00000000000E+00  0.39757422683E+03  0.39757422686E+03  0.50400001928E-02 0.  1.
        1   -1    0    0  501    0  0.00000000000E+00  0.00000000000E+00 -0.13293813452E+04  0.13293813452E+04  0.50400001928E-02 0. -1.
    10030    2    1    2    0    0  0.00000000000E+00  0.00000000000E+00 -0.93180711833E+03  0.17269555720E+04  0.14539982950E+04 0.  0.
        1    1    3    3  502    0  0.55703679139E+02 -0.40580222087E+03 -0.11792821758E+04  0.12483928839E+04  0.50400001928E-02 0. -1.
       -1    1    3    3    0  502 -0.55703679139E+02  0.40580222087E+03  0.24747505752E+03  0.47856268811E+03  0.50400001928E-02 0.  1.
</event>
<event>
 5   0  0.6097538E-04  0.1402595E+04  0.7818609E-02  0.8951942E-01
        1   -1    0    0  501    0  0.00000000000E+00  0.00000000000E+00  0.85036941281E+03  0.85036941282E+03  0.50400001928E-02 0.  1.
       -1   -1    0    0    0  501  0.00000000000E+00  0.00000000000E+00 -0.57835852985E+03  0.57835852988E+03  0.50400001928E-02 0. -1.
    10030    2    1    2    0    0  0.00000000000E+00  0.00000000000E+00  0.27201088295E+03  0.14287279427E+04  0.14025953136E+04 0.  0.
        2    1    3    3  502    0  0.16642347305E+02  0.68383156086E+03 -0.21523336121E+02  0.68437257788E+03  0.25500000920E-02 0. -1.
       -2    1    3    3    0  502 -0.16642347305E+02 -0.68383156086E+03  0.29353421907E+03  0.74435536481E+03  0.25500000920E-02 0.  1.
</event>
<event>
 5   0  0.1098949E-03  0.1389125E+04  0.7818609E-02  0.8961728E-01
        2   -1    0    0  501    0  0.00000000000E+00  0.00000000000E+00  0.48561088782E+03  0.48561088783E+03  0.25500000920E-02 0. -1.
       -2   -1    0    0    0  501  0.00000000000E+00  0.00000000000E+00 -0.99342265027E+03  0.99342265027E+03  0.25500000920E-02 0.  1.
    10030    2    1    2    0    0  0.00000000000E+00  0.00000000000E+00 -0.50781176245E+03  0.14790335381E+04  0.13891246959E+04 0.  0.
        4    1    3    3  502    0 -0.97872340267E+02 -0.19864611930E+03 -0.95482709024E+03  0.98017124058E+03  0.12699999809E+01 0.  1.
       -4    1    3    3    0  502  0.97872340267E+02  0.19864611930E+03  0.44701532780E+03  0.49886229752E+03  0.12699999809E+01 0. -1.
</event>
<event>
 5   0  0.1098949E-03  0.1393892E+04  0.7818609E-02  0.8958251E-01
        2   -1    0    0  501    0  0.00000000000E+00  0.00000000000E+00  0.78294654368E+03  0.78294654368E+03  0.25500000920E-02 0.  1.
       -2   -1    0    0    0  501  0.00000000000E+00  0.00000000000E+00 -0.62039235633E+03  0.62039235634E+03  0.25500000920E-02 0. -1.
    10030    2    1    2    0    0  0.00000000000E+00  0.00000000000E+00  0.16255418734E+03  0.14033389000E+04  0.13938924652E+04 0.  0.
        4    1    3    3  502    0 -0.13139141240E+03 -0.35285366021E+03  0.67173531786E+03  0.77006451608E+03  0.12699999809E+01 0.  1.
       -4    1    3    3    0  502  0.13139141240E+03  0.35285366021E+03 -0.50918113051E+03  0.63327438394E+03  0.12699999809E+01 0. -1.
</event>
<event>
 5   0  0.1095119E-03  0.1390658E+04  0.7818609E-02  0.8960609E-01
       -2   -1    0    0    0  501  0.00000000000E+00  0.00000000000E+00  0.62251592519E+03  0.62251592520E+03  0.25500000920E-02 0.  1.
        2   -1    0    0  501    0  0.00000000000E+00  0.00000000000E+00 -0.77665826595E+03  0.77665826595E+03  0.25500000920E-02 0. -1.
    10030    2    1    2    0    0  0.00000000000E+00  0.00000000000E+00 -0.15414234076E+03  0.13991741911E+04  0.13906575984E+04 0.  0.
        5    1    3    3  502    0 -0.42376134010E+03 -0.14892043533E+03 -0.61108437362E+03  0.75841754404E+03  0.46999998093E+01 0. -1.
       -5    1    3    3    0  502  0.42376134010E+03  0.14892043533E+03  0.45694203287E+03  0.64075664711E+03  0.46999998093E+01 0.  1.
</event>
<event>
 5   0  0.6114266E-04  0.1408218E+04  0.7818609E-02  0.8947892E-01
       -1   -1    0    0    0  501  0.00000000000E+00  0.00000000000E+00  0.37767661588E+03  0.37767661592E+03  0.50400001928E-02 0.  1.
        1   -1    0    0  501    0  0.00000000000E+00  0.00000000000E+00 -0.13126820039E+04  0.13126820039E+04  0.50400001928E-02 0. -1.
    10030    2    1    2    0    0  0.00000000000E+00  0.00000000000E+00 -0.93500538797E+03  0.16903586198E+04  0.14082177346E+04 0.  0.
        3    1    3    3  502    0  0.49027770304E+02 -0.63328599033E+02 -0.13071967556E+04  0.13096478923E+04  0.10100000352E+00 0. -1.
       -3    1    3    3    0  502 -0.49027770304E+02  0.63328599033E+02  0.37219136761E+03  0.38071072751E+03  0.10100000352E+00 0.  1.
</event>
<event>
 5   0  0.6097538E-04  0.1395117E+04  0.7818609E-02  0.8957361E-01
       -1   -1    0    0    0  501  0.00000000000E+00  0.00000000000E+00  0.67601330990E+03  0.67601330992E+03  0.50400001928E-02 0.  1.
        1   -1    0    0  501    0  0.00000000000E+00  0.00000000000E+00 -0.71978992088E+03  0.71978992090E+03  0.50400001928E-02 0. -1.
    10030    2    1    2    0    0  0.00000000000E+00  0.00000000000E+00 -0.43776610977E+02  0.13958032308E+04  0.13951165785E+04 0.  0.
        2    1    3    3  502    0 -0.14176221326E+03 -0.13217147033E+03 -0.69230896038E+03  0.71892803486E+03  0.25500000920E-02 0. -1.
       -2    1    3    3    0  502  0.14176221326E+03  0.13217147033E+03  0.64853234941E+03  0.67687519596E+03  0.25500000920E-02 0.  1.
</event>
<event>
 5   0  0.1175146E-03  0.1325809E+04  0.7818609E-02  0.9009345E-01
       -2   -1    0    0    0  501  0.00000000000E+00  0.00000000000E+00  0.34084203282E+03  0.34084203283E+03  0.25500000920E-02 0. -1.
        2   -1    0    0  501    0  0.00000000000E+00  0.00000000000E+00 -0.12892838487E+04  0.12892838487E+04  0.25500000920E-02 0.  1.
    10030    2    1    2    0    0  0.00000000000E+00  0.00000000000E+00 -0.94844181585E+03  0.16301258815E+04  0.13258086255E+04 0.  0.
        1    1    3    3  502    0  0.10390088361E+03  0.63504724782E+03 -0.27841323023E+03  0.70113788042E+03  0.50400001928E-02 0. -1.
       -1    1    3    3    0  502 -0.10390088361E+03 -0.63504724782E+03 -0.67002858562E+03  0.92898800108E+03  0.50400001928E-02 0.  1.
</event>
<event>
 5   0  0.6194742E-04  0.1393671E+04  0.7818609E-02  0.8958412E-01
       -1   -1    0    0    0  501  0.00000000000E+00  0.00000000000E+00  0.73088330423E+03  0.73088330425E+03  0.50400001928E-02 0.  1.
        1   -1    0    0  501    0  0.00000000000E+00  0.00000000000E+00 -0.66437393207E+03  0.66437393209E+03  0.50400001928E-02 0. -1.
    10030    2    1    2    0    0  0.00000000000E+00  0.00000000000E+00  0.66509372164E+02  0.13952572363E+04  0.13936711445E+04 0.  0.
        4    1    3    3  502    0  0.60396246901E+03  0.77832244345E+02  0.37238742410E+03  0.71379445834E+03  0.12699999809E+01 0.  1.
       -4    1    3    3    0  502 -0.60396246901E+03 -0.77832244345E+02 -0.30587805194E+03  0.68146277799E+03  0.12699999809E+01 0. -1.
</event>
<event>
 5   0  0.1098949E-03  0.1382698E+04  0.7818609E-02  0.8966438E-01
       -2   -1    0    0    0  501  0.00000000000E+00  0.00000000000E+00  0.39308757974E+03  0.39308757975E+03  0.25500000920E-02 0.  1.
        2   -1    0    0  501    0  0.00000000000E+00  0.00000000000E+00 -0.12159214989E+04  0.12159214989E+04  0.25500000920E-02 0. -1.
    10030    2    1    2    0    0  0.00000000000E+00  0.00000000000E+00 -0.82283391917E+03  0.16090090787E+04  0.13826982884E+04 0.  0.
        4    1    3    3  502    0 -0.35787387701E+03  0.41848678467E+03 -0.89787850549E+03  0.10532769457E+04  0.12699999809E+01 0. -1.
       -4    1    3    3    0  502  0.35787387701E+03 -0.41848678467E+03  0.75044586320E+02  0.55573213297E+03  0.12699999809E+01 0.  1.
</event>
<event>
 5   0  0.4176125E-04  0.1402064E+04  0.7818609E-02  0.8952326E-01
        3   -1    0    0  501    0  0.00000000000E+00  0.00000000000E+00  0.64734344385E+03  0.64734345172E+03  0.10100000352E+00 0.  1.
       -3   -1    0    0    0  501  0.00000000000E+00  0.00000000000E+00 -0.75917284343E+03  0.75917285015E+03  0.10100000352E+00 0. -1.
    10030    2    1    2    0    0  0.00000000000E+00  0.00000000000E+00 -0.11182939959E+03  0.14065163019E+04  0.14020635837E+04 0.  0.
        3    1    3    3  502    0 -0.52942369525E+03 -0.16738472205E+02 -0.51658538191E+03  0.73988518876E+03  0.10100000352E+00 0. -1.
       -3    1    3    3    0  502  0.52942369525E+03  0.16738472205E+02  0.40475598232E+03  0.66663111311E+03  0.10100000352E+00 0.  1.
</event>
<event>
 5   0  0.1120053E-03  0.1386690E+04  0.7818609E-02  0.8963510E-01
        2   -1    0    0  501    0  0.00000000000E+00  0.00000000000E+00  0.35637402398E+03  0.35637402399E+03  0.25500000920E-02 0.  1.
       -2   -1    0    0    0  501  0.00000000000E+00  0.00000000000E+00 -0.13489401896E+04  0.13489401896E+04  0.25500000920E-02 0. -1.
    10030    2    1    2    0    0  0.00000000000E+00  0.00000000000E+00 -0.99256616566E+03  0.17053142136E+04  0.13866899343E+04 0.  0.
        2    1    3    3  502    0  0.18150508953E+03  0.66914281074E+03 -0.50313511655E+03  0.85664528493E+03  0.25500000920E-02 0. -1.
       -2    1    3    3    0  502 -0.18150508953E+03 -0.66914281074E+03 -0.48943104911E+03  0.84866892869E+03  0.25500000920E-02 0.  1.
</event>
<event>
 5   0  0.6194742E-04  0.1388424E+04  0.7818609E-02  0.8962240E-01
       -1   -1    0    0    0  501  0.00000000000E+00  0.00000000000E+00  0.21785029207E+03  0.21785029213E+03  0.50400001928E-02 0. -1.
        1   -1    0    0  501    0  0.00000000000E+00  0.00000000000E+00 -0.22122101180E+04  0.22122101180E+04  0.50400001928E-02 0.  1.
    10030    2    1    2    0    0  0.00000000000E+00  0.00000000000E+00 -0.19943598259E+04  0.24300604101E+04  0.13884244602E+04 0.  0.
        4    1    3    3  502    0  0.50345678077E+03 -0.91201649564E+01 -0.18335935228E+04  0.19014780375E+04  0.12699999809E+01 0.  1.
       -4    1    3    3    0  502 -0.50345678077E+03  0.91201649564E+01 -0.16076630316E+03  0.52858237262E+03  0.12699999809E+01 0. -1.
</event>
<event>
 5   0  0.1098949E-03  0.1384386E+04  0.7818609E-02  0.8965199E-01
        2   -1    0    0  501    0  0.00000000000E+00  0.00000000000E+00  0.16572111078E+04  0.16572111078E+04  0.25500000920E-02 0.  1.
       -2   -1    0    0    0  501  0.00000000000E+00  0.00000000000E+00 -0.28911891166E+03  0.28911891167E+03  0.25500000920E-02 0. -1.
    10030    2    1    2    0    0  0.00000000000E+00  0.00000000000E+00  0.13680921961E+04  0.19463300194E+04  0.13843858882E+04 0.  0.
        4    1    3    3  502    0 -0.12737423333E+03 -0.59950574310E+03  0.23174716420E+03  0.65524017913E+03  0.12699999809E+01 0. -1.
       -4    1    3    3    0  502  0.12737423333E+03  0.59950574310E+03  0.11363450319E+04  0.12910898403E+04  0.12699999809E+01 0.  1.
</event>
<event>
 5   0  0.6114266E-04  0.1404380E+04  0.7818609E-02  0.8950654E-01
        1   -1    0    0  501    0  0.00000000000E+00  0.00000000000E+00  0.82611520388E+03  0.82611520389E+03  0.50400001928E-02 0. -1.
       -1   -1    0    0    0  501  0.00000000000E+00  0.00000000000E+00 -0.59685514396E+03  0.59685514399E+03  0.50400001928E-02 0.  1.
    10030    2    1    2    0    0  0.00000000000E+00  0.00000000000E+00  0.22926005991E+03  0.14229703479E+04  0.14043804456E+04 0.  0.
        3    1    3    3  502    0 -0.33606449687E+03 -0.35881245411E+03 -0.39339028670E+03  0.62963612599E+03  0.10100000352E+00 0.  1.
       -3    1    3    3    0  502  0.33606449687E+03  0.35881245411E+03  0.62265034662E+03  0.79333422189E+03  0.10100000352E+00 0. -1.
</event>
<event>
 5   0  0.1095119E-03  0.1400057E+04  0.7818609E-02  0.8953777E-01
       -2   -1    0    0    0  501  0.00000000000E+00  0.00000000000E+00  0.68562841976E+03  0.68562841977E+03  0.25500000920E-02 0.  1.
        2   -1    0    0  501    0  0.00000000000E+00  0.00000000000E+00 -0.71473143340E+03  0.71473143340E+03  0.25500000920E-02 0. -1.
    10030    2    1    2    0    0  0.00000000000E+00  0.00000000000E+00 -0.29103013635E+02  0.14003598532E+04  0.14000574035E+04 0.  0.
        5    1    3    3  502    0 -0.55554476908E+03 -0.35238316274E+03 -0.25379809857E+03  0.70515207486E+03  0.46999998093E+01 0. -1.
       -5    1    3    3    0  502  0.55554476908E+03  0.35238316274E+03  0.22469508494E+03  0.69520777831E+03  0.46999998093E+01 0.  1.
</event>
<event>
 5   0  0.1095119E-03  0.1429904E+04  0.7818609E-02  0.8932453E-01
        2   -1    0    0  501    0  0.00000000000E+00  0.00000000000E+00  0.14827968542E+04  0.14827968542E+04  0.25500000920E-02 0. -1.
       -2   -1    0    0    0  501  0.00000000000E+00  0.00000000000E+00 -0.34472427179E+03  0.34472427180E+03  0.25500000920E-02 0.  1.
    10030    2    1    2    0    0  0.00000000000E+00  0.00000000000E+00  0.11380725824E+04  0.18275211260E+04  0.14299035853E+04 0.  0.
        5    1    3    3  502    0 -0.56008924731E+02 -0.56161968471E+03  0.81670968925E+01  0.56448424369E+03  0.46999998093E+01 0.  1.
       -5    1    3    3    0  502  0.56008924731E+02  0.56161968471E+03  0.11299054855E+04  0.12630368823E+04  0.46999998093E+01 0. -1.
</event>
<event>
 5   0  0.1175146E-03  0.1408483E+04  0.7818609E-02  0.8947701E-01
        2   -1    0    0  501    0  0.00000000000E+00  0.00000000000E+00  0.76482759735E+03  0.76482759735E+03  0.25500000920E-02 0.  1.
       -2   -1    0    0    0  501  0.00000000000E+00  0.00000000000E+00 -0.64845502890E+03  0.64845502890E+03  0.25500000920E-02 0. -1.
    10030    2    1    2    0    0  0.00000000000E+00  0.00000000000E+00  0.11637256845E+03  0.14132826263E+04  0.14084833002E+04 0.  0.
        1    1    3    3  502    0 -0.18089927491E+03 -0.17878965440E+03 -0.60075988142E+03  0.65238234444E+03  0.50400001928E-02 0. -1.
       -1    1    3    3    0  502  0.18089927491E+03  0.17878965440E+03  0.71713244987E+03  0.76090028182E+03  0.50400001928E-02 0.  1.
</event>
<event>
 5   0  0.6097538E-04  0.1393261E+04  0.7818609E-02  0.8958711E-01
        1   -1    0    0  501    0  0.00000000000E+00  0.00000000000E+00  0.11115919274E+04  0.11115919274E+04  0.50400001928E-02 0.  1.
       -1   -1    0    0    0  501  0.00000000000E+00  0.00000000000E+00 -0.43657554839E+03  0.43657554842E+03  0.50400001928E-02 0. -1.
    10030    2    1    2    0    0  0.00000000000E+00  0.00000000000E+00  0.67501637902E+03  0.15481674758E+04  0.13932607155E+04 0.  0.
        2    1    3    3  502    0 -0.53665728546E+03  0.39142987095E+03  0.57079168858E+03  0.87579765794E+03  0.25500000920E-02 0.  1.
       -2    1    3    3    0  502  0.53665728546E+03 -0.39142987095E+03  0.10422469044E+03  0.67236981789E+03  0.25500000920E-02 0. -1.
</event>
<event>
 5   0  0.6114266E-04  0.1415001E+04  0.7818609E-02  0.8943031E-01
        1   -1    0    0  501    0  0.00000000000E+00  0.00000000000E+00  0.60057357471E+03  0.60057357473E+03  0.50400001928E-02 0. -1.
       -1   -1    0    0    0  501  0.00000000000E+00  0.00000000000E+00 -0.83346532009E+03  0.83346532010E+03  0.50400001928E-02 0.  1.
    10030    2    1    2    0    0  0.00000000000E+00  0.00000000000E+00 -0.23289174538E+03  0.14340388948E+04  0.14150014088E+04 0.  0.
        3    1    3    3  502    0 -0.45044570691E+03  0.10875066286E+03  0.42537702115E+03  0.62902596280E+03  0.10100000352E+00 0. -1.
       -3    1    3    3    0  502  0.45044570691E+03 -0.10875066286E+03 -0.65826876653E+03  0.80501293203E+03  0.10100000352E+00 0.  1.
</event>
<event>
 5   0  0.6114266E-04  0.1212559E+04  0.7818609E-02  0.9101934E-01
        1   -1    0    0  501    0  0.00000000000E+00  0.00000000000E+00  0.88034728978E+03  0.88034728979E+03  0.50400001928E-02 0.  1.
       -1   -1    0    0    0  501  0.00000000000E+00  0.00000000000E+00 -0.41753401676E+03  0.41753401679E+03  0.50400001928E-02 0. -1.
    10030    2    1    2    0    0  0.00000000000E+00  0.00000000000E+00  0.46281327301E+03  0.12978813066E+04  0.12125591781E+04 0.  0.
        3    1    3    3  502    0 -0.19374397222E+03  0.54933482031E+03  0.51440506625E+02  0.58476628451E+03  0.10100000352E+00 0.  1.
       -3    1    3    3    0  502  0.19374397222E+03 -0.54933482031E+03  0.41137276639E+03  0.71311502207E+03  0.10100000352E+00 0. -1.
</event>
<event>
 5   0  0.1098949E-03  0.1430326E+04  0.7818609E-02  0.8932155E-01
        2   -1    0    0  501    0  0.00000000000E+00  0.00000000000E+00  0.12313369359E+04  0.12313369359E+04  0.25500000920E-02 0. -1.
       -2   -1    0    0    0  501  0.00000000000E+00  0.00000000000E+00 -0.41536802834E+03  0.41536802835E+03  0.25500000920E-02 0.  1.
    10030    2    1    2    0    0  0.00000000000E+00  0.00000000000E+00  0.81596890758E+03  0.16467049643E+04  0.14303258304E+04 0.  0.
        4    1    3    3  502    0  0.18794153956E+03  0.34569804860E+03 -0.27953985279E+03  0.48267308325E+03  0.12699999809E+01 0.  1.
       -4    1    3    3    0  502 -0.18794153956E+03 -0.34569804860E+03  0.10955087604E+04  0.11640318810E+04  0.12699999809E+01 0. -1.
</event>
<event>
 5   0  0.6153318E-04  0.1409539E+04  0.7818609E-02  0.8946942E-01
       -1   -1    0    0    0  501  0.00000000000E+00  0.00000000000E+00  0.13554939969E+04  0.13554939969E+04  0.50400001928E-02 0.  1.
        1   -1    0    0  501    0  0.00000000000E+00  0.00000000000E+00 -0.36643488663E+03  0.36643488666E+03  0.50400001928E-02 0. -1.
    10030    2    1    2    0    0  0.00000000000E+00  0.00000000000E+00  0.98905911026E+03  0.17219288836E+04  0.14095393419E+04 0.  0.
        5    1    3    3  502    0 -0.24392939008E+03 -0.61362349845E+03  0.79536418295E+03  0.10337609098E+04  0.46999998093E+01 0. -1.
       -5    1    3    3    0  502  0.24392939008E+03  0.61362349845E+03  0.19369492732E+03  0.68816797373E+03  0.46999998093E+01 0.  1.
</event>
<event>
 5   0  0.6194742E-04  0.1444540E+04  0.7818609E-02  0.8922195E-01
       -1   -1    0    0    0  501  0.00000000000E+00  0.00000000000E+00  0.43474963935E+03  0.43474963938E+03  0.50400001928E-02 0. -1.
        1   -1    0    0  501    0  0.00000000000E+00  0.00000000000E+00 -0.11999404712E+04  0.11999404713E+04  0.50400001928E-02 0.  1.
    10030    2    1    2    0    0  0.00000000000E+00  0.00000000000E+00 -0.76519083190E+03  0.16346901106E+04  0.14445396321E+04 0.  0.
        4    1    3    3  502    0  0.42552279167E+03 -0.15999486362E+03  0.25253667614E+03  0.52004267932E+03  0.12699999809E+01 0. -1.
       -4    1    3    3    0  502 -0.42552279167E+03  0.15999486362E+03 -0.10177275080E+04  0.11146474313E+04  0.12699999809E+01 0.  1.
</event>
<event>
 5   0  0.6097538E-04  0.1391846E+04  0.7818609E-02  0.8959742E-01
       -1   -1    0    0    0  501  0.00000000000E+00  0.00000000000E+00  0.89152926686E+03  0.89152926687E+03  0.50400001928E-02 0. -1.
        1   -1    0    0  501    0  0.00000000000E+00  0.00000000000E+00 -0.54323416075E+03  0.54323416077E+03  0.50400001928E-02 0.  1.
    10030    2    1    2    0    0  0.00000000000E+00  0.00000000000E+00  0.34829510611E+03  0.14347634276E+04  0.13918464759E+04 0.  0.
        2    1    3    3  502    0  0.42476176922E+03  0.28371913469E+03 -0.31306769500E+03  0.59910807843E+03  0.25500000920E-02 0.  1.
       -2    1    3    3    0  502 -0.42476176922E+03 -0.28371913469E+03  0.66136280111E+03  0.83565534922E+03  0.25500000920E-02 0. -1.
</event>
<event>
 5   0  0.1108819E-03  0.1402232E+04  0.7818609E-02  0.8952204E-01
        2   -1    0    0  501    0  0.00000000000E+00  0.00000000000E+00  0.72478346128E+03  0.72478346129E+03  0.25500000920E-02 0. -1.
       -2   -1    0    0    0  501  0.00000000000E+00  0.00000000000E+00 -0.67822154416E+03  0.67822154417E+03  0.25500000920E-02 0.  1.
    10030    2    1    2    0    0  0.00000000000E+00  0.00000000000E+00  0.46561917123E+02  0.14030050055E+04  0.14022321609E+04 0.  0.
        3    1    3    3  502    0  0.89757539023E+02  0.40850674153E+03  0.58628956711E+03  0.72018722592E+03  0.10100000352E+00 0. -1.
       -3    1    3    3    0  502 -0.89757539023E+02 -0.40850674153E+03 -0.53972764998E+03  0.68281777953E+03  0.10100000352E+00 0.  1.
</event>
<event>
 5   0  0.1098949E-03  0.1392453E+04  0.7818609E-02  0.8959300E-01
        2   -1    0    0  501    0  0.00000000000E+00  0.00000000000E+00  0.10096523178E+04  0.10096523178E+04  0.25500000920E-02 0.  1.
       -2   -1    0    0    0  501  0.00000000000E+00  0.00000000000E+00 -0.48009719019E+03  0.48009719020E+03  0.25500000920E-02 0. -1.
    10030    2    1    2    0    0  0.00000000000E+00  0.00000000000E+00  0.52955512759E+03  0.14897495080E+04  0.13924528586E+04 0.  0.
        4    1    3    3  502    0  0.54683720168E+03  0.42932498055E+03  0.22505130228E+03  0.73075342327E+03  0.12699999809E+01 0.  1.
       -4    1    3    3    0  502 -0.54683720168E+03 -0.42932498055E+03  0.30450382531E+03  0.75899608470E+03  0.12699999809E+01 0. -1.
</event>
<event>
 5   0  0.1108819E-03  0.1396962E+04  0.7818609E-02  0.8956021E-01
        2   -1    0    0  501    0  0.00000000000E+00  0.00000000000E+00  0.66127048324E+03  0.66127048325E+03  0.25500000920E-02 0. -1.
       -2   -1    0    0    0  501  0.00000000000E+00  0.00000000000E+00 -0.73778513761E+03  0.73778513761E+03  0.25500000920E-02 0.  1.
    10030    2    1    2    0    0  0.00000000000E+00  0.00000000000E+00 -0.76514654368E+02  0.13990556209E+04  0.13969617525E+04 0.  0.
        3    1    3    3  502    0  0.47462669228E+03  0.34862945909E+03 -0.41440319526E+03  0.72009930927E+03  0.10100000352E+00 0. -1.
       -3    1    3    3    0  502 -0.47462669228E+03 -0.34862945909E+03  0.33788854089E+03  0.67895631159E+03  0.10100000352E+00 0.  1.
</event>
<event>
 5   0  0.1108819E-03  0.1398781E+04  0.7818609E-02  0.8954702E-01
       -2   -1    0    0    0  501  0.00000000000E+00  0.00000000000E+00  0.23967577073E+03  0.23967577074E+03  0.25500000920E-02 0. -1.
        2   -1    0    0  501    0  0.00000000000E+00  0.00000000000E+00 -0.20408692405E+04  0.20408692405E+04  0.25500000920E-02 0.  1.
    10030    2    1    2    0    0  0.00000000000E+00  0.00000000000E+00 -0.18011934698E+04  0.22805450112E+04  0.13987807665E+04 0.  0.
        3    1    3    3  502    0  0.39841566674E+03 -0.26932802444E+03 -0.17285255574E+04  0.17941775946E+04  0.10100000352E+00 0.  1.
       -3    1    3    3    0  502 -0.39841566674E+03  0.26932802444E+03 -0.72667912373E+02  0.48636741662E+03  0.10100000352E+00 0. -1.
</event>
<event>
 5   0  0.6153318E-04  0.1414443E+04  0.7818609E-02  0.8943430E-01
        1   -1    0    0  501    0  0.00000000000E+00  0.00000000000E+00  0.12761347589E+04  0.12761347589E+04  0.50400001928E-02 0.  1.
       -1   -1    0    0    0  501  0.00000000000E+00  0.00000000000E+00 -0.39193550398E+03  0.39193550401E+03  0.50400001928E-02 0. -1.
    10030    2    1    2    0    0  0.00000000000E+00  0.00000000000E+00  0.88419925490E+03  0.16680702629E+04  0.14144433815E+04 0.  0.
        5    1    3    3  502    0  0.20338461963E+03  0.67719442464E+03  0.45804598750E+03  0.84248786872E+03  0.46999998093E+01 0. -1.
       -5    1    3    3    0  502 -0.20338461963E+03 -0.67719442464E+03  0.42615326740E+03  0.82558239418E+03  0.46999998093E+01 0.  1.
</event>
<event>
 5   0  0.6194742E-04  0.1383690E+04  0.7818609E-02  0.8965710E-01
       -1   -1    0    0    0  501  0.00000000000E+00  0.00000000000E+00  0.98434162890E+03  0.98434162891E+03  0.50400001928E-02 0. -1.
        1   -1    0    0  501    0  0.00000000000E+00  0.00000000000E+00 -0.48626344590E+03  0.48626344593E+03  0.50400001928E-02 0.  1.
    10030    2    1    2    0    0  0.00000000000E+00  0.00000000000E+00  0.49807818299E+03  0.14706050748E+04  0.13836897809E+04 0.  0.
        4    1    3    3  502    0  0.19651134666E+03 -0.58187628138E+03 -0.89481852200E+02  0.62064912066E+03  0.12699999809E+01 0.  1.
       -4    1    3    3    0  502 -0.19651134666E+03  0.58187628138E+03  0.58756003519E+03  0.84995595418E+03  0.12699999809E+01 0. -1.
</event>
<event>
 5   0  0.6153318E-04  0.1410686E+04  0.7818609E-02  0.8946120E-01
       -1   -1    0    0    0  501  0.00000000000E+00  0.00000000000E+00  0.37479091046E+03  0.37479091049E+03  0.50400001928E-02 0. -1.
        1   -1    0    0  501    0  0.00000000000E+00  0.00000000000E+00 -0.13274298309E+04  0.13274298309E+04  0.50400001928E-02 0.  1.
    10030    2    1    2    0    0  0.00000000000E+00  0.00000000000E+00 -0.95263892046E+03  0.17022207414E+04  0.14106858402E+04 0.  0.
        5    1    3    3  502    0 -0.45904894764E+03 -0.52531807734E+03 -0.35091062531E+03  0.78092597323E+03  0.46999998093E+01 0.  1.
       -5    1    3    3    0  502  0.45904894764E+03  0.52531807734E+03 -0.60172829515E+03  0.92129476819E+03  0.46999998093E+01 0. -1.
</event>
<event>
 5   0  0.5875298E-04  0.1403447E+04  0.7818609E-02  0.8951327E-01
        1   -1    0    0  501    0  0.00000000000E+00  0.00000000000E+00  0.35603733233E+03  0.35603733236E+03  0.50400001928E-02 0. -1.
       -1   -1    0    0    0  501  0.00000000000E+00  0.00000000000E+00 -0.13830461530E+04  0.13830461530E+04  0.50400001928E-02 0.  1.
    10030    2    1    2    0    0  0.00000000000E+00  0.00000000000E+00 -0.10270088207E+04  0.17390834854E+04  0.14034472742E+04 0.  0.
        1    1    3    3  502    0 -0.16924862877E+03  0.27202737090E+03  0.26011915373E+03  0.41268143043E+03  0.50400001928E-02 0. -1.
       -1    1    3    3    0  502  0.16924862877E+03 -0.27202737090E+03 -0.12871279744E+04  0.13264020550E+04  0.50400001928E-02 0.  1.
</event>
<event>
 5   0  0.1098949E-03  0.1401218E+04  0.7818609E-02  0.8952937E-01
       -2   -1    0    0    0  501  0.00000000000E+00  0.00000000000E+00  0.50381593390E+03  0.50381593391E+03  0.25500000920E-02 0.  1.
        2   -1    0    0  501    0  0.00000000000E+00  0.00000000000E+00 -0.97427039505E+03  0.97427039505E+03  0.25500000920E-02 0. -1.
    10030    2    1    2    0    0  0.00000000000E+00  0.00000000000E+00 -0.47045446115E+03  0.14780863290E+04  0.14012179687E+04 0.  0.
        4    1    3    3  502    0  0.67817366480E+03  0.39827751054E+02 -0.41593022632E+03  0.79655843191E+03  0.12699999809E+01 0. -1.
       -4    1    3    3    0  502 -0.67817366480E+03 -0.39827751054E+02 -0.54524234828E+02  0.68152789705E+03  0.12699999809E+01 0.  1.
</event>
<event>
 5   0  0.1175146E-03  0.1389261E+04  0.7818609E-02  0.8961629E-01
       -2   -1    0    0    0  501  0.00000000000E+00  0.00000000000E+00  0.56257732253E+03  0.56257732254E+03  0.25500000920E-02 0. -1.
        2   -1    0    0  501    0  0.00000000000E+00  0.00000000000E+00 -0.85768043987E+03  0.85768043988E+03  0.25500000920E-02 0.  1.
    10030    2    1    2    0    0  0.00000000000E+00  0.00000000000E+00 -0.29510311734E+03  0.14202577624E+04  0.13892610488E+04 0.  0.
        1    1    3    3  502    0  0.57621552927E+03 -0.29647247616E+03 -0.40331607875E+03  0.76327198606E+03  0.50400001928E-02 0. -1.
       -1    1    3    3    0  502 -0.57621552927E+03  0.29647247616E+03  0.10821296141E+03  0.65698577636E+03  0.50400001928E-02 0.  1.
</event>
<event>
 5   0  0.1120053E-03  0.1398405E+04  0.7818609E-02  0.8954974E-01
        2   -1    0    0  501    0  0.00000000000E+00  0.00000000000E+00  0.65557697656E+03  0.65557697657E+03  0.25500000920E-02 0.  1.
       -2   -1    0    0    0  501  0.00000000000E+00  0.00000000000E+00 -0.74573090194E+03  0.74573090194E+03  0.25500000920E-02 0. -1.
    10030    2    1    2    0    0  0.00000000000E+00  0.00000000000E+00 -0.90153925375E+02  0.14013078785E+04  0.13984048198E+04 0.  0.
        2    1    3    3  502    0 -0.16076833996E+03 -0.57481155754E+03  0.31986202769E+03  0.67717538539E+03  0.25500000920E-02 0.  1.
       -2    1    3    3    0  502  0.16076833996E+03  0.57481155754E+03 -0.41001595306E+03  0.72413249312E+03  0.25500000920E-02 0. -1.
</event>
<event>
 5   0  0.6114266E-04  0.1341081E+04  0.7818609E-02  0.8997607E-01
        1   -1    0    0  501    0  0.00000000000E+00  0.00000000000E+00  0.11607550396E+04  0.11607550397E+04  0.50400001928E-02 0. -1.
       -1   -1    0    0    0  501  0.00000000000E+00  0.00000000000E+00 -0.38735540547E+03  0.38735540550E+03  0.50400001928E-02 0.  1.
    10030    2    1    2    0    0  0.00000000000E+00  0.00000000000E+00  0.77339963418E+03  0.15481104452E+04  0.13410812639E+04 0.  0.
        3    1    3    3  502    0 -0.36464979827E+03  0.26493719799E+03  0.95979028113E+03  0.10603577643E+04  0.10100000352E+00 0. -1.
       -3    1    3    3    0  502  0.36464979827E+03 -0.26493719799E+03 -0.18639064695E+03  0.48775268090E+03  0.10100000352E+00 0.  1.
</event>
<event>
 5   0  0.1108819E-03  0.1393023E+04  0.7818609E-02  0.8958885E-01
       -2   -1    0    0    0  501  0.00000000000E+00  0.00000000000E+00  0.34273212153E+03  0.34273212154E+03  0.25500000920E-02 0.  1.
        2   -1    0    0  501    0  0.00000000000E+00  0.00000000000E+00 -0.14154730226E+04  0.14154730226E+04  0.25500000920E-02 0. -1.
    10030    2    1    2    0    0  0.00000000000E+00  0.00000000000E+00 -0.10727409011E+04  0.17582051442E+04  0.13930227163E+04 0.  0.
        3    1    3    3  502    0 -0.41548554660E+03  0.47569156103E+02  0.16663410981E+03  0.45017552221E+03  0.10100000352E+00 0.  1.
       -3    1    3    3    0  502  0.41548554660E+03 -0.47569156103E+02 -0.12393750109E+04  0.13080296220E+04  0.10100000352E+00 0. -1.
</event>
<event>
 5   0  0.1095119E-03  0.1411381E+04  0.7818609E-02  0.8945621E-01
        2   -1    0    0  501    0  0.00000000000E+00  0.00000000000E+00  0.14151130876E+04  0.14151130876E+04  0.25500000920E-02 0. -1.
       -2   -1    0    0    0  501  0.00000000000E+00  0.00000000000E+00 -0.35191464540E+03  0.35191464540E+03  0.25500000920E-02 0.  1.
    10030    2    1    2    0    0  0.00000000000E+00  0.00000000000E+00  0.10631984422E+04  0.17670277330E+04  0.14113809130E+04 0.  0.
        5    1    3    3  502    0 -0.13125037421E+03  0.17729415264E+03 -0.30762029862E+03  0.37856599875E+03  0.46999998093E+01 0.  1.
       -5    1    3    3    0  502  0.13125037421E+03 -0.17729415264E+03  0.13708187408E+04  0.13884617342E+04  0.46999998093E+01 0. -1.
</event>
<event>
 5   0  0.1175146E-03  0.1391039E+04  0.7818609E-02  0.8960331E-01
        2   -1    0    0  501    0  0.00000000000E+00  0.00000000000E+00  0.65306043483E+03  0.65306043483E+03  0.25500000920E-02 0. -1.
       -2   -1    0    0    0  501  0.00000000000E+00  0.00000000000E+00 -0.74073918354E+03  0.74073918354E+03  0.25500000920E-02 0.  1.
    10030    2    1    2    0    0  0.00000000000E+00  0.00000000000E+00 -0.87678748708E+02  0.13937996184E+04  0.13910391127E+04 0.  0.
        1    1    3    3  502    0 -0.44531617458E+03  0.47886164379E+02  0.48933301570E+03  0.66335991766E+03  0.50400001928E-02 0. -1.
       -1    1    3    3    0  502  0.44531617458E+03 -0.47886164379E+02 -0.57701176441E+03  0.73043970071E+03  0.50400001928E-02 0.  1.
</event>
<event>
 5   0  0.6114266E-04  0.1393274E+04  0.7818609E-02  0.8958701E-01
       -1   -1    0    0    0  501  0.00000000000E+00  0.00000000000E+00  0.41785329167E+03  0.41785329171E+03  0.50400001928E-02 0. -1.
        1   -1    0    0  501    0  0.00000000000E+00  0.00000000000E+00 -0.11614204638E+04  0.11614204638E+04  0.50400001928E-02 0.  1.
    10030    2    1    2    0    0  0.00000000000E+00  0.00000000000E+00 -0.74356717208E+03  0.15792737555E+04  0.13932743647E+04 0.  0.
        3    1    3    3  502    0 -0.41461681823E+03 -0.11658266711E+03  0.24885677027E+03  0.49742167880E+03  0.10100000352E+00 0. -1.
       -3    1    3    3    0  502  0.41461681823E+03  0.11658266711E+03 -0.99242394236E+03  0.10818520767E+04  0.10100000352E+00 0.  1.
</event>
<event>
 5   0  0.6194742E-04  0.1403500E+04  0.7818609E-02  0.8951289E-01
        1   -1    0    0  501    0  0.00000000000E+00  0.00000000000E+00  0.61208475267E+03  0.61208475270E+03  0.50400001928E-02 0. -1.
       -1   -1    0    0    0  501  0.00000000000E+00  0.00000000000E+00 -0.80455101787E+03  0.80455101789E+03  0.50400001928E-02 0.  1.
    10030    2    1    2    0    0  0.00000000000E+00  0.00000000000E+00 -0.19246626520E+03  0.14166357706E+04  0.14035004964E+04 0.  0.
        4    1    3    3  502    0  0.53608257330E+03  0.36490425052E+03 -0.36690729493E+03  0.74509208385E+03  0.12699999809E+01 0. -1.
       -4    1    3    3    0  502 -0.53608257330E+03 -0.36490425052E+03  0.17444102973E+03  0.67154368674E+03  0.12699999809E+01 0.  1.
</event>
<event>
 5   0  0.6114266E-04  0.1380377E+04  0.7818609E-02  0.8968146E-01
        1   -1    0    0  501    0  0.00000000000E+00  0.00000000000E+00  0.16771951561E+04  0.16771951561E+04  0.50400001928E-02 0. -1.
       -1   -1    0    0    0  501  0.00000000000E+00  0.00000000000E+00 -0.28402196906E+03  0.28402196910E+03  0.50400001928E-02 0.  1.
    10030    2    1    2    0    0  0.00000000000E+00  0.00000000000E+00  0.13931731870E+04  0.19612171252E+04  0.13803771525E+04 0.  0.
        3    1    3    3  502    0 -0.45740792643E+03  0.43081086602E+03  0.11022949248E+04  0.12688081513E+04  0.10100000352E+00 0. -1.
       -3    1    3    3    0  502  0.45740792643E+03 -0.43081086602E+03  0.29087826220E+03  0.69240897384E+03  0.10100000352E+00 0.  1.
</event>
<event>
 5   0  0.1098949E-03  0.1439425E+04  0.7818609E-02  0.8925765E-01
        2   -1    0    0  501    0  0.00000000000E+00  0.00000000000E+00  0.94519631372E+03  0.94519631372E+03  0.25500000920E-02 0.  1.
       -2   -1    0    0    0  501  0.00000000000E+00  0.00000000000E+00 -0.54801941461E+03  0.54801941462E+03  0.25500000920E-02 0. -1.
    10030    2    1    2    0    0  0.00000000000E+00  0.00000000000E+00  0.39717689911E+03  0.14932157283E+04  0.14394247886E+04 0.  0.
        4    1    3    3  502    0  0.26466805375E+03  0.66603956697E+03  0.13035479547E+03  0.72845855685E+03  0.12699999809E+01 0.  1.
       -4    1    3    3    0  502 -0.26466805375E+03 -0.66603956697E+03  0.26682210365E+03  0.76475717149E+03  0.12699999809E+01 0. -1.
</event>
<event>
 5   0  0.1095119E-03  0.1401882E+04  0.7818609E-02  0.8952457E-01
       -2   -1    0    0    0  501  0.00000000000E+00  0.00000000000E+00  0.54111738070E+03  0.54111738070E+03  0.25500000920E-02 0.  1.
        2   -1    0    0  501    0  0.00000000000E+00  0.00000000000E+00 -0.90796982898E+03  0.90796982899E+03  0.25500000920E-02 0. -1.
    10030    2    1    2    0    0  0.00000000000E+00  0.00000000000E+00 -0.36685244828E+03  0.14490872097E+04  0.14018819574E+04 0.  0.
        5    1    3    3  502    0 -0.46986458746E+02 -0.69792767409E+03 -0.13736801035E+03  0.71288345880E+03  0.46999998093E+01 0. -1.
       -5    1    3    3    0  502  0.46986458746E+02  0.69792767409E+03 -0.22948443794E+03  0.73620375089E+03  0.46999998093E+01 0.  1.
</event>
<event>
 5   0  0.1120053E-03  0.1350554E+04  0.7818609E-02  0.8990409E-01
        2   -1    0    0  501    0  0.00000000000E+00  0.00000000000E+00  0.14554228331E+04  0.14554228331E+04  0.25500000920E-02 0. -1.
       -2   -1    0    0    0  501  0.00000000000E+00  0.00000000000E+00 -0.31331033571E+03  0.31331033572E+03  0.25500000920E-02 0.  1.
    10030    2    1    2    0    0  0.00000000000E+00  0.00000000000E+00  0.11421124974E+04  0.17687331688E+04  0.13505539848E+04 0.  0.
        2    1    3    3  502    0  0.85579143655E+02  0.50801008577E+03 -0.70265381047E+00  0.51516844896E+03  0.25500000920E-02 0.  1.
       -2    1    3    3    0  502 -0.85579143655E+02 -0.50801008577E+03  0.11428151512E+04  0.12535647199E+04  0.25500000920E-02 0. -1.
</event>
<event>
 5   0  0.1108819E-03  0.1400838E+04  0.7818609E-02  0.8953212E-01
       -2   -1    0    0    0  501  0.00000000000E+00  0.00000000000E+00  0.37625719062E+03  0.37625719063E+03  0.25500000920E-02 0. -1.
        2   -1    0    0  501    0  0.00000000000E+00  0.00000000000E+00 -0.13038607715E+04  0.13038607715E+04  0.25500000920E-02 0.  1.
    10030    2    1    2    0    0  0.00000000000E+00  0.00000000000E+00 -0.92760358090E+03  0.16801179622E+04  0.14008383074E+04 0.  0.
        3    1    3    3  502    0  0.25662637112E+03  0.22872993286E+03 -0.11957222590E+04  0.12441568259E+04  0.10100000352E+00 0.  1.
       -3    1    3    3    0  502 -0.25662637112E+03 -0.22872993286E+03  0.26811867813E+03  0.43596113624E+03  0.10100000352E+00 0. -1.
</event>
<event>
 5   0  0.1120053E-03  0.1373621E+04  0.7818609E-02  0.8973137E-01
       -2   -1    0    0    0  501  0.00000000000E+00  0.00000000000E+00  0.45199281282E+03  0.45199281282E+03  0.25500000920E-02 0.  1.
        2   -1    0    0  501    0  0.00000000000E+00  0.00000000000E+00 -0.10436205562E+04  0.10436205562E+04  0.25500000920E-02 0. -1.
    10030    2    1    2    0    0  0.00000000000E+00  0.00000000000E+00 -0.59162774336E+03  0.14956133690E+04  0.13736214773E+04 0.  0.
        2    1    3    3  502    0 -0.18676952435E+03  0.47791620654E+03 -0.79289158328E+03  0.94443836144E+03  0.25500000920E-02 0. -1.
       -2    1    3    3    0  502  0.18676952435E+03 -0.47791620654E+03  0.20126383992E+03  0.55117500757E+03  0.25500000920E-02 0.  1.
</event>
<event>
 5   0  0.1108819E-03  0.1402993E+04  0.7818609E-02  0.8951655E-01
       -2   -1    0    0    0  501  0.00000000000E+00  0.00000000000E+00  0.13320748312E+04  0.13320748312E+04  0.25500000920E-02 0.  1.
        2   -1    0    0  501    0  0.00000000000E+00  0.00000000000E+00 -0.36942158683E+03  0.36942158684E+03  0.25500000920E-02 0. -1.
    10030    2    1    2    0    0  0.00000000000E+00  0.00000000000E+00  0.96265324432E+03  0.17014964180E+04  0.14029927982E+04 0.  0.
        3    1    3    3  502    0 -0.32644165447E+03  0.58953563798E+03  0.24497561664E+03  0.71702823177E+03  0.10100000352E+00 0.  1.
       -3    1    3    3    0  502  0.32644165447E+03 -0.58953563798E+03  0.71767762769E+03  0.98446818623E+03  0.10100000352E+00 0. -1.
</event>
<event>
 5   0  0.1108819E-03  0.1391488E+04  0.7818609E-02  0.8960003E-01
        2   -1    0    0  501    0  0.00000000000E+00  0.00000000000E+00  0.54468238112E+03  0.54468238112E+03  0.25500000920E-02 0.  1.
       -2   -1    0    0    0  501  0.00000000000E+00  0.00000000000E+00 -0.88870149132E+03  0.88870149132E+03  0.25500000920E-02 0. -1.
    10030    2    1    2    0    0  0.00000000000E+00  0.00000000000E+00 -0.34401911020E+03  0.14333838724E+04  0.13914884756E+04 0.  0.
        3    1    3    3  502    0 -0.19095983623E+03 -0.66863804271E+03 -0.14857503233E+03  0.71106753663E+03  0.10100000352E+00 0. -1.
       -3    1    3    3    0  502  0.19095983623E+03  0.66863804271E+03 -0.19544407787E+03  0.72231633582E+03  0.10100000352E+00 0.  1.
</event>
<event>
 5   0  0.1098949E-03  0.1408630E+04  0.7818609E-02  0.8947595E-01
        2   -1    0    0  501    0  0.00000000000E+00  0.00000000000E+00  0.79582501092E+03  0.79582501092E+03  0.25500000920E-02 0. -1.
       -2   -1    0    0    0  501  0.00000000000E+00  0.00000000000E+00 -0.62332737149E+03  0.62332737149E+03  0.25500000920E-02 0.  1.
    10030    2    1    2    0    0  0.00000000000E+00  0.00000000000E+00  0.17249763943E+03  0.14191523824E+04  0.14086298481E+04 0.  0.
        4    1    3    3  502    0  0.40186851075E+03 -0.39751576531E+03  0.50955509673E+03  0.76102896995E+03  0.12699999809E+01 0. -1.
       -4    1    3    3    0  502 -0.40186851075E+03  0.39751576531E+03 -0.33705745730E+03  0.65812341246E+03  0.12699999809E+01 0.  1.
</event>
<event>
 5   0  0.6153318E-04  0.1352591E+04  0.7818609E-02  0.8988869E-01
       -1   -1    0    0    0  501  0.00000000000E+00  0.00000000000E+00  0.40170659354E+03  0.40170659357E+03  0.50400001928E-02 0.  1.
        1   -1    0    0  501    0  0.00000000000E+00  0.00000000000E+00 -0.11385817974E+04  0.11385817974E+04  0.50400001928E-02 0. -1.
    10030    2    1    2    0    0  0.00000000000E+00  0.00000000000E+00 -0.73687520386E+03  0.15402883910E+04  0.13525913135E+04 0.  0.
        5    1    3    3  502    0 -0.39631497734E+03  0.50957044004E+02 -0.98976241421E+03  0.10673864849E+04  0.46999998093E+01 0. -1.
       -5    1    3    3    0  502  0.39631497734E+03 -0.50957044004E+02  0.25288721035E+03  0.47290190606E+03  0.46999998093E+01 0.  1.
</event>
<event>
 5   0  0.6097538E-04  0.1410115E+04  0.7818609E-02  0.8946529E-01
       -1   -1    0    0    0  501  0.00000000000E+00  0.00000000000E+00  0.38288464831E+03  0.38288464834E+03  0.50400001928E-02 0.  1.
        1   -1    0    0  501    0  0.00000000000E+00  0.00000000000E+00 -0.12983179076E+04  0.12983179076E+04  0.50400001928E-02 0. -1.
    10030    2    1    2    0    0  0.00000000000E+00  0.00000000000E+00 -0.91543325931E+03  0.16812025560E+04  0.14101148825E+04 0.  0.
        2    1    3    3  502    0  0.48662346839E+03 -0.31637345770E+03 -0.93492966132E+03  0.11004490158E+04  0.25500000920E-02 0. -1.
       -2    1    3    3    0  502 -0.48662346839E+03  0.31637345770E+03  0.19496402008E+02  0.58075354018E+03  0.25500000920E-02 0.  1.
</event>
<event>
 5   0  0.6097538E-04  0.1384865E+04  0.7818609E-02  0.8964847E-01
        1   -1    0    0  501    0  0.00000000000E+00  0.00000000000E+00  0.14705311221E+04  0.14705311221E+04  0.50400001928E-02 0.  1.
       -1   -1    0    0    0  501  0.00000000000E+00  0.00000000000E+00 -0.32604754246E+03  0.32604754250E+03  0.50400001928E-02 0. -1.
    10030    2    1    2    0    0  0.00000000000E+00  0.00000000000E+00  0.11444835797E+04  0.17965786646E+04  0.13848654209E+04 0.  0.
        2    1    3    3  502    0  0.32006707456E+02  0.66809620546E+03  0.80462088769E+03  0.10463229626E+04  0.25500000920E-02 0. -1.
       -2    1    3    3    0  502 -0.32006707456E+02 -0.66809620546E+03  0.33986269198E+03  0.75025570207E+03  0.25500000920E-02 0.  1.
</event>
<event>
 5   0  0.6114266E-04  0.1396352E+04  0.7818609E-02  0.8956463E-01
        1   -1    0    0  501    0  0.00000000000E+00  0.00000000000E+00  0.13294413253E+04  0.13294413253E+04  0.50400001928E-02 0.  1.
       -1   -1    0    0    0  501  0.00000000000E+00  0.00000000000E+00 -0.36665766562E+03  0.36665766565E+03  0.50400001928E-02 0. -1.
    10030    2    1    2    0    0  0.00000000000E+00  0.00000000000E+00  0.96278365968E+03  0.16960989910E+04  0.13963521804E+04 0.  0.
        3    1    3    3  502    0  0.29458090316E+03 -0.51596982230E+03  0.92677305967E+03  0.11008683302E+04  0.10100000352E+00 0.  1.
       -3    1    3    3    0  502 -0.29458090316E+03  0.51596982230E+03  0.36010600010E+02  0.59523066079E+03  0.10100000352E+00 0. -1.
</event>
<event>
 5   0  0.1175146E-03  0.1420233E+04  0.7818609E-02  0.8939302E-01
       -2   -1    0    0    0  501  0.00000000000E+00  0.00000000000E+00  0.43995235209E+03  0.43995235210E+03  0.25500000920E-02 0. -1.
        2   -1    0    0  501    0  0.00000000000E+00  0.00000000000E+00 -0.11461818707E+04  0.11461818707E+04  0.25500000920E-02 0.  1.
    10030    2    1    2    0    0  0.00000000000E+00  0.00000000000E+00 -0.70622951864E+03  0.15861342228E+04  0.14202329527E+04 0.  0.
        1    1    3    3  502    0 -0.13777203419E+03 -0.69608363628E+03 -0.32249192910E+03  0.77943223340E+03  0.50400001928E-02 0.  1.
       -1    1    3    3    0  502  0.13777203419E+03  0.69608363628E+03 -0.38373758954E+03  0.80670198943E+03  0.50400001928E-02 0. -1.
</event>
<event>
 5   0  0.6114266E-04  0.1382820E+04  0.7818609E-02  0.8966349E-01
       -1   -1    0    0    0  501  0.00000000000E+00  0.00000000000E+00  0.74852752959E+03  0.74852752961E+03  0.50400001928E-02 0. -1.
        1   -1    0    0  501    0  0.00000000000E+00  0.00000000000E+00 -0.63865127949E+03  0.63865127951E+03  0.50400001928E-02 0.  1.
    10030    2    1    2    0    0  0.00000000000E+00  0.00000000000E+00  0.10987625010E+03  0.13871788091E+04  0.13828203998E+04 0.  0.
        3    1    3    3  502    0 -0.31389690637E+03 -0.16954689477E+03  0.64906374945E+03  0.74064916013E+03  0.10100000352E+00 0. -1.
       -3    1    3    3    0  502  0.31389690637E+03  0.16954689477E+03 -0.53918749935E+03  0.64652964898E+03  0.10100000352E+00 0.  1.
</event>
<event>
 5   0  0.1108819E-03  0.1379600E+04  0.7818609E-02  0.8968719E-01
        2   -1    0    0  501    0  0.00000000000E+00  0.00000000000E+00  0.33529380662E+03  0.33529380663E+03  0.25500000920E-02 0.  1.
       -2   -1    0    0    0  501  0.00000000000E+00  0.00000000000E+00 -0.14191256504E+04  0.14191256504E+04  0.25500000920E-02 0. -1.
    10030    2    1    2    0    0  0.00000000000E+00  0.00000000000E+00 -0.10838318438E+04  0.17544194570E+04  0.13796000020E+04 0.  0.
        3    1    3    3  502    0  0.41720754429E+03 -0.19222592398E+03  0.11249167684E+03  0.47293480357E+03  0.10100000352E+00 0.  1.
       -3    1    3    3    0  502 -0.41720754429E+03  0.19222592398E+03 -0.11963235206E+04  0.12814846535E+04  0.10100000352E+00 0. -1.
</event>
<event>
 5   0  0.5875298E-04  0.1403781E+04  0.7818609E-02  0.8951086E-01
       -1   -1    0    0    0  501  0.00000000000E+00  0.00000000000E+00  0.72405067200E+03  0.72405067202E+03  0.50400001928E-02 0.  1.
        1   -1    0    0  501    0  0.00000000000E+00  0.00000000000E+00 -0.68040834790E+03  0.68040834792E+03  0.50400001928E-02 0. -1.
    10030    2    1    2    0    0  0.00000000000E+00  0.00000000000E+00  0.43642324106E+02  0.14044590199E+04  0.14037807828E+04 0.  0.
        1    1    3    3  502    0 -0.22157603889E+03 -0.66484118291E+03  0.61087825537E+02  0.70344968687E+03  0.50400001928E-02 0.  1.
       -1    1    3    3    0  502  0.22157603889E+03  0.66484118291E+03 -0.17445501432E+02  0.70100933307E+03  0.50400001928E-02 0. -1.
</event>
<event>
 5   0  0.1098949E-03  0.1385574E+04  0.7818609E-02  0.8964328E-01
        2   -1    0    0  501    0  0.00000000000E+00  0.00000000000E+00  0.59486607074E+03  0.59486607074E+03  0.25500000920E-02 0. -1.
       -2   -1    0    0    0  501  0.00000000000E+00  0.00000000000E+00 -0.80682628446E+03  0.80682628447E+03  0.25500000920E-02 0.  1.
    10030    2    1    2    0    0  0.00000000000E+00  0.00000000000E+00 -0.21196021373E+03  0.14016923552E+04  0.13855736453E+04 0.  0.
        4    1    3    3  502    0 -0.11734625252E+03  0.66847333102E+03  0.34652310689E+02  0.67958011507E+03  0.12699999809E+01 0. -1.
       -4    1    3    3    0  502  0.11734625252E+03 -0.66847333102E+03 -0.24661252442E+03  0.72211224014E+03  0.12699999809E+01 0.  1.
</event>
<event>
 5   0  0.1098949E-03  0.1385762E+04  0.7818609E-02  0.8964189E-01
        2   -1    0    0  501    0  0.00000000000E+00  0.00000000000E+00  0.14578323073E+04  0.14578323073E+04  0.25500000920E-02 0. -1.
       -2   -1    0    0    0  501  0.00000000000E+00  0.00000000000E+00 -0.32931385224E+03  0.32931385225E+03  0.25500000920E-02 0.  1.
    10030    2    1    2    0    0  0.00000000000E+00  0.00000000000E+00  0.11285184550E+04  0.17871461595E+04  0.13857624227E+04 0.  0.
        4    1    3    3  502    0  0.57193268966E+03  0.46375145150E+02  0.63408730368E+02  0.57730402352E+03  0.12699999809E+01 0.  1.
       -4    1    3    3    0  502 -0.57193268966E+03 -0.46375145150E+02  0.10651097247E+04  0.12098421360E+04  0.12699999809E+01 0. -1.
</event>
<event>
 5   0  0.6153318E-04  0.1362620E+04  0.7818609E-02  0.8981330E-01
       -1   -1    0    0    0  501  0.00000000000E+00  0.00000000000E+00  0.31928894498E+03  0.31928894502E+03  0.50400001928E-02 0. -1.
        1   -1    0    0  501    0  0.00000000000E+00  0.00000000000E+00 -0.14538030865E+04  0.14538030866E+04  0.50400001928E-02 0.  1.
    10030    2    1    2    0    0  0.00000000000E+00  0.00000000000E+00 -0.11345141416E+04  0.17730920316E+04  0.13626199085E+04 0.  0.
        5    1    3    3  502    0  0.55097780738E+03 -0.16645897143E+03 -0.10415862815E+04  0.11900458837E+04  0.46999998093E+01 0. -1.
       -5    1    3    3    0  502 -0.55097780738E+03  0.16645897143E+03 -0.92927860021E+02  0.58304614789E+03  0.46999998093E+01 0.  1.
</event>
<event>
 5   0  0.6114266E-04  0.1396668E+04  0.7818609E-02  0.8956234E-01
       -1   -1    0    0    0  501  0.00000000000E+00  0.00000000000E+00  0.44214146624E+03  0.44214146626E+03  0.50400001928E-02 0.  1.
        1   -1    0    0  501    0  0.00000000000E+00  0.00000000000E+00 -0.11029729484E+04  0.11029729484E+04  0.50400001928E-02 0. -1.
    10030    2    1    2    0    0  0.00000000000E+00  0.00000000000E+00 -0.66083148217E+03  0.15451144147E+04  0.13966675720E+04 0.  0.
        3    1    3    3  502    0  0.56942882754E+03  0.22827387674E+03  0.38679477914E+02  0.61469851525E+03  0.10100000352E+00 0.  1.
       -3    1    3    3    0  502 -0.56942882754E+03 -0.22827387674E+03 -0.69951096008E+03  0.93041589943E+03  0.10100000352E+00 0. -1.
</event>
<event>
 5   0  0.6097538E-04  0.1500100E+04  0.7818609E-02  0.8884386E-01
        1   -1    0    0  501    0  0.00000000000E+00  0.00000000000E+00  0.28881098055E+04  0.28881098055E+04  0.50400001928E-02 0. -1.
       -1   -1    0    0    0  501  0.00000000000E+00  0.00000000000E+00 -0.19479011100E+03  0.19479011106E+03  0.50400001928E-02 0.  1.
    10030    2    1    2    0    0  0.00000000000E+00  0.00000000000E+00  0.26933196945E+04  0.30828999165E+04  0.15001003029E+04 0.  0.
        2    1    3    3  502    0 -0.65661259829E+03 -0.11153070514E+03  0.63772657664E+03  0.92210324205E+03  0.25500000920E-02 0.  1.
       -2    1    3    3    0  502  0.65661259829E+03  0.11153070514E+03  0.20555931178E+04  0.21607966745E+04  0.25500000920E-02 0. -1.
</event>
<event>
 5   0  0.1098949E-03  0.1394992E+04  0.7818609E-02  0.8957452E-01
       -2   -1    0    0    0  501  0.00000000000E+00  0.00000000000E+00  0.96778337514E+03  0.96778337514E+03  0.25500000920E-02 0. -1.
        2   -1    0    0  501    0  0.00000000000E+00  0.00000000000E+00 -0.50269573927E+03  0.50269573928E+03  0.25500000920E-02 0.  1.
    10030    2    1    2    0    0  0.00000000000E+00  0.00000000000E+00  0.46508763587E+03  0.14704791144E+04  0.13949918698E+04 0.  0.
        4    1    3    3  502    0  0.28027095397E+03  0.82605069738E+02  0.90015910119E+03  0.94639496276E+03  0.12699999809E+01 0. -1.
       -4    1    3    3    0  502 -0.28027095397E+03 -0.82605069738E+02 -0.43507146532E+03  0.52408415166E+03  0.12699999809E+01 0.  1.
</event>
<event>
 5   0  0.6114266E-04  0.1384592E+04  0.7818609E-02  0.8965048E-01
        1   -1    0    0  501    0  0.00000000000E+00  0.00000000000E+00  0.75639471263E+03  0.75639471265E+03  0.50400001928E-02 0. -1.
       -1   -1    0    0    0  501  0.00000000000E+00  0.00000000000E+00 -0.63362944709E+03  0.63362944711E+03  0.50400001928E-02 0.  1.
    10030    2    1    2    0    0  0.00000000000E+00  0.00000000000E+00  0.12276526555E+03  0.13900241598E+04  0.13845923062E+04 0.  0.
        3    1    3    3  502    0 -0.59081162823E+02  0.60054831020E+03 -0.27924936267E+03  0.66492787085E+03  0.10100000352E+00 0.  1.
       -3    1    3    3    0  502  0.59081162823E+02 -0.60054831020E+03  0.40201462821E+03  0.72509628890E+03  0.10100000352E+00 0. -1.
</event>
<event>
 5   0  0.1120053E-03  0.1402386E+04  0.7818609E-02  0.8952093E-01
       -2   -1    0    0    0  501  0.00000000000E+00  0.00000000000E+00  0.51961178571E+03  0.51961178571E+03  0.25500000920E-02 0. -1.
        2   -1    0    0  501    0  0.00000000000E+00  0.00000000000E+00 -0.94622887450E+03  0.94622887450E+03  0.25500000920E-02 0.  1.
    10030    2    1    2    0    0  0.00000000000E+00  0.00000000000E+00 -0.42661708879E+03  0.14658406602E+04  0.14023860740E+04 0.  0.
        2    1    3    3  502    0  0.25569964647E+03  0.42392900724E+03  0.30572141744E+03  0.58186226676E+03  0.25500000920E-02 0. -1.
       -2    1    3    3    0  502 -0.25569964647E+03 -0.42392900724E+03 -0.73233850623E+03  0.88397839346E+03  0.25500000920E-02 0.  1.
</event>
<event>
 5   0  0.1098949E-03  0.1409606E+04  0.7818609E-02  0.8946894E-01
        2   -1    0    0  501    0  0.00000000000E+00  0.00000000000E+00  0.68554196685E+03  0.68554196685E+03  0.25500000920E-02 0. -1.
       -2   -1    0    0    0  501  0.00000000000E+00  0.00000000000E+00 -0.72460546399E+03  0.72460546400E+03  0.25500000920E-02 0.  1.
    10030    2    1    2    0    0  0.00000000000E+00  0.00000000000E+00 -0.39063497146E+02  0.14101474308E+04  0.14096062641E+04 0.  0.
        4    1    3    3  502    0  0.41128267766E+03 -0.32696978507E+03 -0.48948136263E+03  0.71809212400E+03  0.12699999809E+01 0.  1.
       -4    1    3    3    0  502 -0.41128267766E+03  0.32696978507E+03  0.45041786548E+03  0.69205530685E+03  0.12699999809E+01 0. -1.
</event>
<event>
 5   0  0.6153318E-04  0.1391653E+04  0.7818609E-02  0.8959883E-01
       -1   -1    0    0    0  501  0.00000000000E+00  0.00000000000E+00  0.56081835590E+03  0.56081835592E+03  0.50400001928E-02 0. -1.
        1   -1    0    0  501    0  0.00000000000E+00  0.00000000000E+00 -0.86333595321E+03  0.86333595323E+03  0.50400001928E-02 0.  1.
    10030    2    1    2    0    0  0.00000000000E+00  0.00000000000E+00 -0.30251759732E+03  0.14241543091E+04  0.13916531894E+04 0.  0.
        5    1    3    3  502    0 -0.59646916083E+03  0.20804656492E+03 -0.44977973940E+03  0.77548870848E+03  0.46999998093E+01 0.  1.
       -5    1    3    3    0  502  0.59646916083E+03 -0.20804656492E+03  0.14726214209E+03  0.64866560067E+03  0.46999998093E+01 0. -1.
</event>
<event>
 5   0  0.6097538E-04  0.1367372E+04  0.7818609E-02  0.8977781E-01
       -1   -1    0    0    0  501  0.00000000000E+00  0.00000000000E+00  0.63438476765E+03  0.63438476767E+03  0.50400001928E-02 0.  1.
        1   -1    0    0  501    0  0.00000000000E+00  0.00000000000E+00 -0.73681883896E+03  0.73681883897E+03  0.50400001928E-02 0. -1.
    10030    2    1    2    0    0  0.00000000000E+00  0.00000000000E+00 -0.10243407130E+03  0.13712036066E+04  0.13673721483E+04 0.  0.
        2    1    3    3  502    0 -0.28706812697E+03  0.62011825724E+03 -0.73000829941E+02  0.68722913476E+03  0.25500000920E-02 0.  1.
       -2    1    3    3    0  502  0.28706812697E+03 -0.62011825724E+03 -0.29433241361E+02  0.68397447188E+03  0.25500000920E-02 0. -1.
</event>
<event>
 5   0  0.1120053E-03  0.1455262E+04  0.7818609E-02  0.8914761E-01
       -2   -1    0    0    0  501  0.00000000000E+00  0.00000000000E+00  0.80950251206E+03  0.80950251206E+03  0.25500000920E-02 0. -1.
        2   -1    0    0  501    0  0.00000000000E+00  0.00000000000E+00 -0.65403992502E+03  0.65403992502E+03  0.25500000920E-02 0.  1.
    10030    2    1    2    0    0  0.00000000000E+00  0.00000000000E+00  0.15546258704E+03  0.14635424371E+04  0.14552621239E+04 0.  0.
        2    1    3    3  502    0 -0.13803957416E+02  0.62124454966E+03  0.45845051196E+03  0.77221254305E+03  0.25500000920E-02 0. -1.
       -2    1    3    3    0  502  0.13803957416E+02 -0.62124454966E+03 -0.30298792492E+03  0.69132989403E+03  0.25500000920E-02 0.  1.
</event>
<event>
 5   0  0.1108819E-03  0.1389501E+04  0.7818609E-02  0.8961453E-01
        2   -1    0    0  501    0  0.00000000000E+00  0.00000000000E+00  0.12072305936E+04  0.12072305936E+04  0.25500000920E-02 0.  1.
       -2   -1    0    0    0  501  0.00000000000E+00  0.00000000000E+00 -0.39982294328E+03  0.39982294329E+03  0.25500000920E-02 0. -1.
    10030    2    1    2    0    0  0.00000000000E+00  0.00000000000E+00  0.80740765035E+03  0.16070535369E+04  0.13895013338E+04 0.  0.
        3    1    3    3  502    0 -0.19519273010E+03  0.89455119614E+02 -0.36048614763E+03  0.41958633575E+03  0.10100000352E+00 0. -1.
       -3    1    3    3    0  502  0.19519273010E+03 -0.89455119614E+02  0.11678937980E+04  0.11874672012E+04  0.10100000352E+00 0.  1.
</event>
<event>
 5   0  0.1095119E-03  0.1443415E+04  0.7818609E-02  0.8922978E-01
        2   -1    0    0  501    0  0.00000000000E+00  0.00000000000E+00  0.58439756122E+03  0.58439756123E+03  0.25500000920E-02 0. -1.
       -2   -1    0    0    0  501  0.00000000000E+00  0.00000000000E+00 -0.89128023316E+03  0.89128023317E+03  0.25500000920E-02 0.  1.
    10030    2    1    2    0    0  0.00000000000E+00  0.00000000000E+00 -0.30688267194E+03  0.14756777944E+04  0.14434153867E+04 0.  0.
        5    1    3    3  502    0  0.61526784004E+03  0.35238338191E+03 -0.15854930358E+02  0.70922636136E+03  0.46999998093E+01 0.  1.
       -5    1    3    3    0  502 -0.61526784004E+03 -0.35238338191E+03 -0.29102774158E+03  0.76645143304E+03  0.46999998093E+01 0. -1.
</event>
<event>
 5   0  0.6097538E-04  0.1401051E+04  0.7818609E-02  0.8953058E-01
        1   -1    0    0  501    0  0.00000000000E+00  0.00000000000E+00  0.69766919968E+03  0.69766919970E+03  0.50400001928E-02 0.  1.
       -1   -1    0    0    0  501  0.00000000000E+00  0.00000000000E+00 -0.70339361626E+03  0.70339361627E+03  0.50400001928E-02 0. -1.
    10030    2    1    2    0    0  0.00000000000E+00  0.00000000000E+00 -0.57244165780E+01  0.14010628160E+04  0.14010511216E+04 0.  0.
        2    1    3    3  502    0 -0.13314267862E+03 -0.31483980705E+03 -0.61432866355E+03  0.70302971761E+03  0.25500000920E-02 0. -1.
       -2    1    3    3    0  502  0.13314267862E+03  0.31483980705E+03  0.60860424697E+03  0.69803309836E+03  0.25500000920E-02 0.  1.
</event>
<event>
 5   0  0.1120053E-03  0.1429517E+04  0.7818609E-02  0.8932725E-01
        2   -1    0    0  501    0  0.00000000000E+00  0.00000000000E+00  0.10262896112E+04  0.10262896112E+04  0.25500000920E-02 0.  1.
       -2   -1    0    0    0  501  0.00000000000E+00  0.00000000000E+00 -0.49779294938E+03  0.49779294939E+03  0.25500000920E-02 0. -1.
    10030    2    1    2    0    0  0.00000000000E+00  0.00000000000E+00  0.52849666178E+03  0.15240825606E+04  0.14295170268E+04 0.  0.
        2    1    3    3  502    0 -0.15009446829E+03  0.33134886011E+03  0.92022158181E+03  0.98950905814E+03  0.25500000920E-02 0.  1.
       -2    1    3    3    0  502  0.15009446829E+03 -0.33134886011E+03 -0.39172492003E+03  0.53457350242E+03  0.25500000920E-02 0. -1.
</event>
<event>
 5   0  0.6097538E-04  0.1399916E+04  0.7818609E-02  0.8953879E-01
       -1   -1    0    0    0  501  0.00000000000E+00  0.00000000000E+00  0.75340616879E+03  0.75340616881E+03  0.50400001928E-02 0. -1.
        1   -1    0    0  501    0  0.00000000000E+00  0.00000000000E+00 -0.65030176571E+03  0.65030176573E+03  0.50400001928E-02 0.  1.
    10030    2    1    2    0    0  0.00000000000E+00  0.00000000000E+00  0.10310440308E+03  0.14037079345E+04  0.13999162288E+04 0.  0.
        2    1    3    3  502    0  0.31168086995E+03  0.57150625396E+03 -0.20639346763E+03  0.68290748019E+03  0.25500000920E-02 0.  1.
       -2    1    3    3    0  502 -0.31168086995E+03 -0.57150625396E+03  0.30949787070E+03  0.72080045435E+03  0.25500000920E-02 0. -1.
</event>
<event>
 5   0  0.1095119E-03  0.1371750E+04  0.7818609E-02  0.8974525E-01
        2   -1    0    0  501    0  0.00000000000E+00  0.00000000000E+00  0.13872858650E+04  0.13872858650E+04  0.25500000920E-02 0. -1.
       -2   -1    0    0    0  501  0.00000000000E+00  0.00000000000E+00 -0.33909720509E+03  0.33909720509E+03  0.25500000920E-02 0.  1.
    10030    2    1    2    0    0  0.00000000000E+00  0.00000000000E+00  0.10481886599E+04  0.17263830701E+04  0.13717503555E+04 0.  0.
        5    1    3    3  502    0  0.56521311455E+03  0.38547579756E+03  0.58504147085E+03  0.90019612750E+03  0.46999998093E+01 0.  1.
       -5    1    3    3    0  502 -0.56521311455E+03 -0.38547579756E+03  0.46314718904E+03  0.82618694257E+03  0.46999998093E+01 0. -1.
</event>
<event>
 5   0  0.5875298E-04  0.1438943E+04  0.7818609E-02  0.8926102E-01
        1   -1    0    0  501    0  0.00000000000E+00  0.00000000000E+00  0.17063043387E+04  0.17063043387E+04  0.50400001928E-02 0. -1.
       -1   -1    0    0    0  501  0.00000000000E+00  0.00000000000E+00 -0.30336869787E+03  0.30336869791E+03  0.50400001928E-02 0.  1.
    10030    2    1    2    0    0  0.00000000000E+00  0.00000000000E+00  0.14029356409E+04  0.20096730367E+04  0.14389431197E+04 0.  0.
        1    1    3    3  502    0 -0.41392467252E+03 -0.34050293592E+03  0.31137972438E+02  0.53688495718E+03  0.50400001928E-02 0.  1.
       -1    1    3    3    0  502  0.41392467252E+03  0.34050293592E+03  0.13717976684E+04  0.14727880795E+04  0.50400001928E-02 0. -1.
</event>
<event>
 5   0  0.6097538E-04  0.1355279E+04  0.7818609E-02  0.8986842E-01
       -1   -1    0    0    0  501  0.00000000000E+00  0.00000000000E+00  0.56496878671E+03  0.56496878673E+03  0.50400001928E-02 0. -1.
        1   -1    0    0  501    0  0.00000000000E+00  0.00000000000E+00 -0.81277956813E+03  0.81277956814E+03  0.50400001928E-02 0.  1.
    10030    2    1    2    0    0  0.00000000000E+00  0.00000000000E+00 -0.24781078142E+03  0.13777483549E+04  0.13552786968E+04 0.  0.
        2    1    3    3  502    0  0.21223689111E+03  0.28079102627E+03 -0.71256276860E+03  0.79475392266E+03  0.25500000920E-02 0.  1.
       -2    1    3    3    0  502 -0.21223689111E+03 -0.28079102627E+03  0.46475198718E+03  0.58299443220E+03  0.25500000920E-02 0. -1.
</event>
<event>
 5   0  0.5875298E-04  0.1407536E+04  0.7818609E-02  0.8948382E-01
       -1   -1    0    0    0  501  0.00000000000E+00  0.00000000000E+00  0.28484835199E+03  0.28484835203E+03  0.50400001928E-02 0. -1.
        1   -1    0    0  501    0  0.00000000000E+00  0.00000000000E+00 -0.17387828322E+04  0.17387828322E+04  0.50400001928E-02 0.  1.
    10030    2    1    2    0    0  0.00000000000E+00  0.00000000000E+00 -0.14539344802E+04  0.20236311842E+04  0.14075360376E+04 0.  0.
        1    1    3    3  502    0  0.29502411293E+03  0.19905356617E+03 -0.15998701203E+04  0.16389771052E+04  0.50400001928E-02 0.  1.
       -1    1    3    3    0  502 -0.29502411293E+03 -0.19905356617E+03  0.14593564015E+03  0.38465407902E+03  0.50400001928E-02 0. -1.
</event>
<event>
 5   0  0.1095119E-03  0.1396202E+04  0.7818609E-02  0.8956572E-01
        2   -1    0    0  501    0  0.00000000000E+00  0.00000000000E+00  0.67895439051E+03  0.67895439052E+03  0.25500000920E-02 0.  1.
       -2   -1    0    0    0  501  0.00000000000E+00  0.00000000000E+00 -0.71778777689E+03  0.71778777689E+03  0.25500000920E-02 0. -1.
    10030    2    1    2    0    0  0.00000000000E+00  0.00000000000E+00 -0.38833386380E+02  0.13967421674E+04  0.13962022240E+04 0.  0.
        5    1    3    3  502    0 -0.50642234458E+02 -0.44564995587E+02  0.67567025701E+03  0.67904569872E+03  0.46999998093E+01 0.  1.
       -5    1    3    3    0  502  0.50642234458E+02  0.44564995587E+02 -0.71450364339E+03  0.71769646869E+03  0.46999998093E+01 0. -1.
</event>
<event>
 5   0  0.6153318E-04  0.1343623E+04  0.7818609E-02  0.8995670E-01
        1   -1    0    0  501    0  0.00000000000E+00  0.00000000000E+00  0.25359197894E+04  0.25359197894E+04  0.50400001928E-02 0. -1.
       -1   -1    0    0    0  501  0.00000000000E+00  0.00000000000E+00 -0.17797512421E+03  0.17797512428E+03  0.50400001928E-02 0.  1.
    10030    2    1    2    0    0  0.00000000000E+00  0.00000000000E+00  0.23579446652E+04  0.27138949137E+04  0.13436229227E+04 0.  0.
        5    1    3    3  502    0 -0.17787442717E+03 -0.24731705895E+03  0.23883510697E+04  0.24077059542E+04  0.46999998093E+01 0. -1.
       -5    1    3    3    0  502  0.17787442717E+03  0.24731705895E+03 -0.30406404541E+02  0.30618895951E+03  0.46999998093E+01 0.  1.
</event>
<event>
 5   0  0.6114266E-04  0.1398673E+04  0.7818609E-02  0.8954780E-01
        1   -1    0    0  501    0  0.00000000000E+00  0.00000000000E+00  0.57498808366E+03  0.57498808368E+03  0.50400001928E-02 0.  1.
       -1   -1    0    0    0  501  0.00000000000E+00  0.00000000000E+00 -0.85057628535E+03  0.85057628536E+03  0.50400001928E-02 0. -1.
    10030    2    1    2    0    0  0.00000000000E+00  0.00000000000E+00 -0.27558820169E+03  0.14255643690E+04  0.13986725540E+04 0.  0.
        3    1    3    3  502    0  0.64272109937E+03 -0.63264985013E+01 -0.41866601341E+03  0.76707996789E+03  0.10100000352E+00 0. -1.
       -3    1    3    3    0  502 -0.64272109937E+03  0.63264985013E+01  0.14307781172E+03  0.65848440115E+03  0.10100000352E+00 0.  1.
</event>
<event>
 5   0  0.1175146E-03  0.1639516E+04  0.7818609E-02  0.8796633E-01
       -2   -1    0    0    0  501  0.00000000000E+00  0.00000000000E+00  0.10365899934E+04  0.10365899934E+04  0.25500000920E-02 0.  1.
        2   -1    0    0  501    0  0.00000000000E+00  0.00000000000E+00 -0.64828249860E+03  0.64828249860E+03  0.25500000920E-02 0. -1.
    10030    2    1    2    0    0  0.00000000000E+00  0.00000000000E+00  0.38830749480E+03  0.16848724920E+04  0.16395159663E+04 0.  0.
        1    1    3    3  502    0  0.11271404809E+03 -0.39228488123E+03 -0.53643646344E+03  0.67405931787E+03  0.50400001928E-02 0. -1.
       -1    1    3    3    0  502 -0.11271404809E+03  0.39228488123E+03  0.92474395824E+03  0.10108131741E+04  0.50400001928E-02 0.  1.
</event>
<event>
 5   0  0.5875298E-04  0.1374417E+04  0.7818609E-02  0.8972548E-01
        1   -1    0    0  501    0  0.00000000000E+00  0.00000000000E+00  0.12100090382E+04  0.12100090382E+04  0.50400001928E-02 0.  1.
       -1   -1    0    0    0  501  0.00000000000E+00  0.00000000000E+00 -0.39029104777E+03  0.39029104780E+03  0.50400001928E-02 0. -1.
    10030    2    1    2    0    0  0.00000000000E+00  0.00000000000E+00  0.81971799042E+03  0.16003000860E+04  0.13744172516E+04 0.  0.
        1    1    3    3  502    0 -0.36220908817E+03 -0.26511530746E+03 -0.19602074125E+03  0.48980167500E+03  0.50400001928E-02 0. -1.
       -1    1    3    3    0  502  0.36220908817E+03  0.26511530746E+03  0.10157387317E+04  0.11104984110E+04  0.50400001928E-02 0.  1.
</event>
<event>
 5   0  0.1108819E-03  0.1374214E+04  0.7818609E-02  0.8972699E-01
        2   -1    0    0  501    0  0.00000000000E+00  0.00000000000E+00  0.91378192704E+03  0.91378192705E+03  0.25500000920E-02 0.  1.
       -2   -1    0    0    0  501  0.00000000000E+00  0.00000000000E+00 -0.51666125949E+03  0.51666125950E+03  0.25500000920E-02 0. -1.
    10030    2    1    2    0    0  0.00000000000E+00  0.00000000000E+00  0.39712066755E+03  0.14304431865E+04  0.13742135516E+04 0.  0.
        3    1    3    3  502    0  0.68116139097E+03  0.37277221960E+02  0.28405053816E+03  0.73895544538E+03  0.10100000352E+00 0.  1.
       -3    1    3    3    0  502 -0.68116139097E+03 -0.37277221960E+02  0.11307012939E+03  0.69148774117E+03  0.10100000352E+00 0. -1.
</event>
<event>
 5   0  0.5875298E-04  0.1396999E+04  0.7818609E-02  0.8955994E-01
       -1   -1    0    0    0  501  0.00000000000E+00  0.00000000000E+00  0.53707156073E+03  0.53707156076E+03  0.50400001928E-02 0.  1.
        1   -1    0    0  501    0  0.00000000000E+00  0.00000000000E+00 -0.90844823043E+03  0.90844823045E+03  0.50400001928E-02 0. -1.
    10030    2    1    2    0    0  0.00000000000E+00  0.00000000000E+00 -0.37137666970E+03  0.14455197912E+04  0.13969992255E+04 0.  0.
        1    1    3    3  502    0 -0.37269410724E+03 -0.69778962796E+02  0.42131380439E+03  0.56681154100E+03  0.50400001928E-02 0.  1.
       -1    1    3    3    0  502  0.37269410724E+03  0.69778962796E+02 -0.79269047410E+03  0.87870825020E+03  0.50400001928E-02 0. -1.
</event>
<event>
 5   0  0.5875298E-04  0.1395228E+04  0.7818609E-02  0.8957280E-01
        1   -1    0    0  501    0  0.00000000000E+00  0.00000000000E+00  0.78156300390E+03  0.78156300392E+03  0.50400001928E-02 0. -1.
       -1   -1    0    0    0  501  0.00000000000E+00  0.00000000000E+00 -0.62268202849E+03  0.62268202851E+03  0.50400001928E-02 0.  1.
    10030    2    1    2    0    0  0.00000000000E+00  0.00000000000E+00  0.15888097541E+03  0.14042450324E+04  0.13952279193E+04 0.  0.
        1    1    3    3  502    0  0.23275757941E+03 -0.52649200297E+02  0.73920524111E+03  0.77677050509E+03  0.50400001928E-02 0. -1.
       -1    1    3    3    0  502 -0.23275757941E+03  0.52649200297E+02 -0.58032426571E+03  0.62747452734E+03  0.50400001928E-02 0.  1.
</event>
<event>
 5   0  0.1175146E-03  0.1376214E+04  0.7818609E-02  0.8971218E-01
        2   -1    0    0  501    0  0.00000000000E+00  0.00000000000E+00  0.37787479592E+03  0.37787479593E+03  0.25500000920E-02 0.  1.
       -2   -1    0    0    0  501  0.00000000000E+00  0.00000000000E+00 -0.12530382316E+04  0.12530382316E+04  0.25500000920E-02 0. -1.
    10030    2    1    2    0    0  0.00000000000E+00  0.00000000000E+00 -0.87516343570E+03  0.16309130275E+04  0.13762144688E+04 0.  0.
        1    1    3    3  502    0  0.60594843502E+03 -0.27988322302E+03 -0.63582352379E+03  0.92183495153E+03  0.50400001928E-02 0. -1.
       -1    1    3    3    0  502 -0.60594843502E+03  0.27988322302E+03 -0.23933991190E+03  0.70907807601E+03  0.50400001928E-02 0.  1.
</event>
<event>
 5   0  0.5875298E-04  0.1384962E+04  0.7818609E-02  0.8964776E-01
        1   -1    0    0  501    0  0.00000000000E+00  0.00000000000E+00  0.12452438602E+04  0.12452438602E+04  0.50400001928E-02 0. -1.
       -1   -1    0    0    0  501  0.00000000000E+00  0.00000000000E+00 -0.38508907160E+03  0.38508907163E+03  0.50400001928E-02 0.  1.
    10030    2    1    2    0    0  0.00000000000E+00  0.00000000000E+00  0.86015478864E+03  0.16303329319E+04  0.13849618075E+04 0.  0.
        1    1    3    3  502    0  0.38195385445E+03  0.56925314095E+03  0.54536727831E+03  0.87599278175E+03  0.50400001928E-02 0. -1.
       -1    1    3    3    0  502 -0.38195385445E+03 -0.56925314095E+03  0.31478751033E+03  0.75434015013E+03  0.50400001928E-02 0.  1.
</event>
<event>
 5   0  0.5875298E-04  0.1395194E+04  0.7818609E-02  0.8957305E-01
        1   -1    0    0  501    0  0.00000000000E+00  0.00000000000E+00  0.51163472762E+03  0.51163472764E+03  0.50400001928E-02 0. -1.
       -1   -1    0    0    0  501  0.00000000000E+00  0.00000000000E+00 -0.95115000669E+03  0.95115000671E+03  0.50400001928E-02 0.  1.
    10030    2    1    2    0    0  0.00000000000E+00  0.00000000000E+00 -0.43951527907E+03  0.14627847343E+04  0.13951937136E+04 0.  0.
        1    1    3    3  502    0  0.30348224694E+02  0.50116258808E+03 -0.72753060065E+03  0.88396025325E+03  0.50400001928E-02 0.  1.
       -1    1    3    3    0  502 -0.30348224694E+02 -0.50116258808E+03  0.28801532157E+03  0.57882448110E+03  0.50400001928E-02 0. -1.
</event>
<event>
 5   0  0.1108819E-03  0.1389956E+04  0.7818609E-02  0.8961121E-01
        2   -1    0    0  501    0  0.00000000000E+00  0.00000000000E+00  0.19080869050E+04  0.19080869050E+04  0.25500000920E-02 0. -1.
       -2   -1    0    0    0  501  0.00000000000E+00  0.00000000000E+00 -0.25313021172E+03  0.25313021173E+03  0.25500000920E-02 0.  1.
    10030    2    1    2    0    0  0.00000000000E+00  0.00000000000E+00  0.16549566933E+04  0.21612171167E+04  0.13899560313E+04 0.  0.
        3    1    3    3  502    0  0.20220878773E+02  0.28282728382E+03 -0.15909898794E+03  0.32513482523E+03  0.10100000352E+00 0.  1.
       -3    1    3    3    0  502 -0.20220878773E+02 -0.28282728382E+03  0.18140556812E+04  0.18360822915E+04  0.10100000352E+00 0. -1.
</event>
<event>
 5   0  0.1095119E-03  0.1421352E+04  0.7818609E-02  0.8938507E-01
        2   -1    0    0  501    0  0.00000000000E+00  0.00000000000E+00  0.70713496722E+03  0.70713496722E+03  0.25500000920E-02 0. -1.
       -2   -1    0    0    0  501  0.00000000000E+00  0.00000000000E+00 -0.71423440412E+03  0.71423440412E+03  0.25500000920E-02 0.  1.
    10030    2    1    2    0    0  0.00000000000E+00  0.00000000000E+00 -0.70994369025E+01  0.14213693713E+04  0.14213516411E+04 0.  0.
        5    1    3    3  502    0  0.29211622660E+03  0.31158034262E+03 -0.57155665607E+03  0.71352175920E+03  0.46999998093E+01 0.  1.
       -5    1    3    3    0  502 -0.29211622660E+03 -0.31158034262E+03  0.56445721917E+03  0.70784761215E+03  0.46999998093E+01 0. -1.
</event>
<event>
 5   0  0.1120053E-03  0.1410818E+04  0.7818609E-02  0.8946025E-01
        2   -1    0    0  501    0  0.00000000000E+00  0.00000000000E+00  0.19826384430E+04  0.19826384430E+04  0.25500000920E-02 0.  1.
       -2   -1    0    0    0  501  0.00000000000E+00  0.00000000000E+00 -0.25097956127E+03  0.25097956128E+03  0.25500000920E-02 0. -1.
    10030    2    1    2    0    0  0.00000000000E+00  0.00000000000E+00  0.17316588817E+04  0.22336180043E+04  0.14108178147E+04 0.  0.
        2    1    3    3  502    0 -0.43548186817E+03 -0.55490220446E+03  0.85571516281E+03  0.11089676974E+04  0.25500000920E-02 0.  1.
       -2    1    3    3    0  502  0.43548186817E+03  0.55490220446E+03  0.87594371890E+03  0.11246503069E+04  0.25500000920E-02 0. -1.
</event>
<event>
 5   0  0.1120053E-03  0.1392847E+04  0.7818609E-02  0.8959013E-01
        2   -1    0    0  501    0  0.00000000000E+00  0.00000000000E+00  0.13913858712E+04  0.13913858712E+04  0.25500000920E-02 0.  1.
       -2   -1    0    0    0  501  0.00000000000E+00  0.00000000000E+00 -0.34857720943E+03  0.34857720944E+03  0.25500000920E-02 0. -1.
    10030    2    1    2    0    0  0.00000000000E+00  0.00000000000E+00  0.10428086618E+04  0.17399630806E+04  0.13928465877E+04 0.  0.
        2    1    3    3  502    0 -0.28120150071E+03  0.34083694204E+03 -0.15104093251E+03  0.46696623900E+03  0.25500000920E-02 0. -1.
       -2    1    3    3    0  502  0.28120150071E+03 -0.34083694204E+03  0.11938495943E+04  0.12729968416E+04  0.25500000920E-02 0.  1.
</event>
<event>
 5   0  0.1108819E-03  0.1409769E+04  0.7818609E-02  0.8946777E-01
        2   -1    0    0  501    0  0.00000000000E+00  0.00000000000E+00  0.58196118568E+03  0.58196118569E+03  0.25500000920E-02 0.  1.
       -2   -1    0    0    0  501  0.00000000000E+00  0.00000000000E+00 -0.85377258563E+03  0.85377258563E+03  0.25500000920E-02 0. -1.
    10030    2    1    2    0    0  0.00000000000E+00  0.00000000000E+00 -0.27181139995E+03  0.14357337713E+04  0.14097694936E+04 0.  0.
        3    1    3    3  502    0 -0.30940350725E+03 -0.54576921268E+03 -0.46317747202E+03  0.77982558601E+03  0.10100000352E+00 0. -1.
       -3    1    3    3    0  502  0.30940350725E+03  0.54576921268E+03  0.19136607208E+03  0.65590818531E+03  0.10100000352E+00 0.  1.
</event>
<event>
 5   0  0.6097538E-04  0.1398986E+04  0.7818609E-02  0.8954553E-01
        1   -1    0    0  501    0  0.00000000000E+00  0.00000000000E+00  0.70633434977E+03  0.70633434979E+03  0.50400001928E-02 0.  1.
       -1   -1    0    0    0  501  0.00000000000E+00  0.00000000000E+00 -0.69271797240E+03  0.69271797242E+03  0.50400001928E-02 0. -1.
    10030    2    1    2    0    0  0.00000000000E+00  0.00000000000E+00  0.13616377372E+02  0.13990523222E+04  0.13989860595E+04 0.  0.
        2    1    3    3  502    0  0.67114673486E+03 -0.14897325022E+03 -0.12226972511E+03  0.69826990102E+03  0.25500000920E-02 0. -1.
       -2    1    3    3    0  502 -0.67114673486E+03  0.14897325022E+03  0.13588610248E+03  0.70078242119E+03  0.25500000920E-02 0.  1.
</event>
<event>
 5   0  0.1175146E-03  0.1395673E+04  0.7818609E-02  0.8956956E-01
        2   -1    0    0  501    0  0.00000000000E+00  0.00000000000E+00  0.51474716431E+03  0.51474716432E+03  0.25500000920E-02 0.  1.
       -2   -1    0    0    0  501  0.00000000000E+00  0.00000000000E+00 -0.94604888398E+03  0.94604888398E+03  0.25500000920E-02 0. -1.
    10030    2    1    2    0    0  0.00000000000E+00  0.00000000000E+00 -0.43130171966E+03  0.14607960483E+04  0.13956732860E+04 0.  0.
        1    1    3    3  502    0 -0.43675251461E+03  0.32378152611E+03  0.24224215280E+03  0.59520458356E+03  0.50400001928E-02 0.  1.
       -1    1    3    3    0  502  0.43675251461E+03 -0.32378152611E+03 -0.67354387247E+03  0.86559146474E+03  0.50400001928E-02 0. -1.
</event>
<event>
 5   0  0.6114266E-04  0.1380271E+04  0.7818609E-02  0.8968224E-01
       -1   -1    0    0    0  501  0.00000000000E+00  0.00000000000E+00  0.50797205426E+03  0.50797205428E+03  0.50400001928E-02 0. -1.
        1   -1    0    0  501    0  0.00000000000E+00  0.00000000000E+00 -0.93762450807E+03  0.93762450809E+03  0.50400001928E-02 0.  1.
    10030    2    1    2    0    0  0.00000000000E+00  0.00000000000E+00 -0.42965245382E+03  0.14455965624E+04  0.13802710567E+04 0.  0.
        3    1    3    3  502    0 -0.13176848079E+03 -0.25806137499E+02  0.49416004070E+03  0.51207718684E+03  0.10100000352E+00 0. -1.
       -3    1    3    3    0  502  0.13176848079E+03  0.25806137499E+02 -0.92381249452E+03  0.93351937553E+03  0.10100000352E+00 0.  1.
</event>
<event>
 5   0  0.6114266E-04  0.1403264E+04  0.7818609E-02  0.8951459E-01
       -1   -1    0    0    0  501  0.00000000000E+00  0.00000000000E+00  0.44277697004E+03  0.44277697007E+03  0.50400001928E-02 0. -1.
        1   -1    0    0  501    0  0.00000000000E+00  0.00000000000E+00 -0.11118178536E+04  0.11118178536E+04  0.50400001928E-02 0.  1.
    10030    2    1    2    0    0  0.00000000000E+00  0.00000000000E+00 -0.66904088360E+03  0.15545948237E+04  0.14032638248E+04 0.  0.
        3    1    3    3  502    0  0.24492390624E+03 -0.24785545127E+03  0.34014295829E+03  0.48694690352E+03  0.10100000352E+00 0. -1.
       -3    1    3    3    0  502 -0.24492390624E+03  0.24785545127E+03 -0.10091838419E+04  0.10676479202E+04  0.10100000352E+00 0.  1.
</event>
<event>
 5   0  0.6194742E-04  0.1401716E+04  0.7818609E-02  0.8952577E-01
       -1   -1    0    0    0  501  0.00000000000E+00  0.00000000000E+00  0.53305010651E+03  0.53305010654E+03  0.50400001928E-02 0. -1.
        1   -1    0    0  501    0  0.00000000000E+00  0.00000000000E+00 -0.92149326998E+03  0.92149326999E+03  0.50400001928E-02 0.  1.
    10030    2    1    2    0    0  0.00000000000E+00  0.00000000000E+00 -0.38844316347E+03  0.14545433765E+04  0.14017162134E+04 0.  0.
        4    1    3    3  502    0 -0.69646921177E+03  0.15136003211E+02 -0.27394145482E+03  0.74856128347E+03  0.12699999809E+01 0.  1.
       -4    1    3    3    0  502  0.69646921177E+03 -0.15136003211E+02 -0.11450170865E+03  0.70598209306E+03  0.12699999809E+01 0. -1.
</event>
<event>
 5   0  0.1098949E-03  0.1407223E+04  0.7818609E-02  0.8948606E-01
       -2   -1    0    0    0  501  0.00000000000E+00  0.00000000000E+00  0.27675252274E+03  0.27675252275E+03  0.25500000920E-02 0.  1.
        2   -1    0    0  501    0  0.00000000000E+00  0.00000000000E+00 -0.17888524334E+04  0.17888524334E+04  0.25500000920E-02 0. -1.
    10030    2    1    2    0    0  0.00000000000E+00  0.00000000000E+00 -0.15120999107E+04  0.20656049562E+04  0.14072233991E+04 0.  0.
        4    1    3    3  502    0  0.53968043507E+03  0.58100323462E+02 -0.98886547216E+02  0.55173433979E+03  0.12699999809E+01 0.  1.
       -4    1    3    3    0  502 -0.53968043507E+03 -0.58100323462E+02 -0.14132133635E+04  0.15138706164E+04  0.12699999809E+01 0. -1.
</event>
<event>
 5   0  0.6114266E-04  0.1402166E+04  0.7818609E-02  0.8952252E-01
        1   -1    0    0  501    0  0.00000000000E+00  0.00000000000E+00  0.89843734437E+03  0.89843734438E+03  0.50400001928E-02 0. -1.
       -1   -1    0    0    0  501  0.00000000000E+00  0.00000000000E+00 -0.54708063568E+03  0.54708063570E+03  0.50400001928E-02 0.  1.
    10030    2    1    2    0    0  0.00000000000E+00  0.00000000000E+00  0.35135670869E+03  0.14455179801E+04  0.14021664288E+04 0.  0.
        3    1    3    3  502    0 -0.29839695600E+02 -0.45024555482E+03 -0.37747995301E+03  0.58830484631E+03  0.10100000352E+00 0.  1.
       -3    1    3    3    0  502  0.29839695600E+02  0.45024555482E+03  0.72883666170E+03  0.85721313377E+03  0.10100000352E+00 0. -1.
</event>
<event>
 5   0  0.1095119E-03  0.1374947E+04  0.7818609E-02  0.8972156E-01
        2   -1    0    0  501    0  0.00000000000E+00  0.00000000000E+00  0.16673952005E+04  0.16673952005E+04  0.25500000920E-02 0. -1.
       -2   -1    0    0    0  501  0.00000000000E+00  0.00000000000E+00 -0.28344783026E+03  0.28344783027E+03  0.25500000920E-02 0.  1.
    10030    2    1    2    0    0  0.00000000000E+00  0.00000000000E+00  0.13839473702E+04  0.19508430308E+04  0.13749466197E+04 0.  0.
        5    1    3    3  502    0  0.11175434038E+02  0.54585930294E+03  0.99257361463E+02  0.55494268419E+03  0.46999998093E+01 0.  1.
       -5    1    3    3    0  502 -0.11175434038E+02 -0.54585930294E+03  0.12846900088E+04  0.13959003466E+04  0.46999998093E+01 0. -1.
</event>
<event>
 5   0  0.6114266E-04  0.1397528E+04  0.7818609E-02  0.8955610E-01
       -1   -1    0    0    0  501  0.00000000000E+00  0.00000000000E+00  0.29460957472E+03  0.29460957476E+03  0.50400001928E-02 0. -1.
        1   -1    0    0  501    0  0.00000000000E+00  0.00000000000E+00 -0.16573504551E+04  0.16573504551E+04  0.50400001928E-02 0.  1.
    10030    2    1    2    0    0  0.00000000000E+00  0.00000000000E+00 -0.13627408804E+04  0.19519600299E+04  0.13975282649E+04 0.  0.
        3    1    3    3  502    0 -0.38327575621E+03  0.52760326814E+03 -0.33077961509E+03  0.73121862518E+03  0.10100000352E+00 0. -1.
       -3    1    3    3    0  502  0.38327575621E+03 -0.52760326814E+03 -0.10319612653E+04  0.12207414047E+04  0.10100000352E+00 0.  1.
</event>
<event>
 5   0  0.1175146E-03  0.1402580E+04  0.7818609E-02  0.8951953E-01
        2   -1    0    0  501    0  0.00000000000E+00  0.00000000000E+00  0.81799157082E+03  0.81799157083E+03  0.25500000920E-02 0. -1.
       -2   -1    0    0    0  501  0.00000000000E+00  0.00000000000E+00 -0.60123824079E+03  0.60123824079E+03  0.25500000920E-02 0.  1.
    10030    2    1    2    0    0  0.00000000000E+00  0.00000000000E+00  0.21675333004E+03  0.14192298116E+04  0.14025802124E+04 0.  0.
        1    1    3    3  502    0  0.28983020149E+03  0.52734034324E+03  0.47281651477E+03  0.76527435602E+03  0.50400001928E-02 0. -1.
       -1    1    3    3    0  502 -0.28983020149E+03 -0.52734034324E+03 -0.25606318474E+03  0.65395545560E+03  0.50400001928E-02 0.  1.
</event>
<event>
 5   0  0.6114266E-04  0.1461067E+04  0.7818609E-02  0.8910764E-01
        1   -1    0    0  501    0  0.00000000000E+00  0.00000000000E+00  0.91107450425E+03  0.91107450427E+03  0.50400001928E-02 0.  1.
       -1   -1    0    0    0  501  0.00000000000E+00  0.00000000000E+00 -0.58576865797E+03  0.58576865799E+03  0.50400001928E-02 0. -1.
    10030    2    1    2    0    0  0.00000000000E+00  0.00000000000E+00  0.32530584629E+03  0.14968431623E+04  0.14610665826E+04 0.  0.
        3    1    3    3  502    0  0.59350771751E+03  0.25110509113E+03 -0.18982661028E+03  0.67181792898E+03  0.10100000352E+00 0. -1.
       -3    1    3    3    0  502 -0.59350771751E+03 -0.25110509113E+03  0.51513245657E+03  0.82502523327E+03  0.10100000352E+00 0.  1.
</event>
<event>
 5   0  0.1095119E-03  0.1408669E+04  0.7818609E-02  0.8947567E-01
        2   -1    0    0  501    0  0.00000000000E+00  0.00000000000E+00  0.97974138609E+03  0.97974138609E+03  0.25500000920E-02 0. -1.
       -2   -1    0    0    0  501  0.00000000000E+00  0.00000000000E+00 -0.50634527682E+03  0.50634527683E+03  0.25500000920E-02 0.  1.
    10030    2    1    2    0    0  0.00000000000E+00  0.00000000000E+00  0.47339610926E+03  0.14860866629E+04  0.14086694763E+04 0.  0.
        5    1    3    3  502    0  0.31836208449E+03  0.27548523382E+03  0.83236979293E+03  0.93279584748E+03  0.46999998093E+01 0. -1.
       -5    1    3    3    0  502 -0.31836208449E+03 -0.27548523382E+03 -0.35897368366E+03  0.55329081544E+03  0.46999998093E+01 0.  1.
</event>
<event>
 5   0  0.1108819E-03  0.1393563E+04  0.7818609E-02  0.8958492E-01
        2   -1    0    0  501    0  0.00000000000E+00  0.00000000000E+00  0.82739280086E+03  0.82739280087E+03  0.25500000920E-02 0. -1.
       -2   -1    0    0    0  501  0.00000000000E+00  0.00000000000E+00 -0.58678797313E+03  0.58678797313E+03  0.25500000920E-02 0.  1.
    10030    2    1    2    0    0  0.00000000000E+00  0.00000000000E+00  0.24060482773E+03  0.14141807740E+04  0.13935625492E+04 0.  0.
        3    1    3    3  502    0  0.16218198396E+03  0.39471349687E+02  0.80680463347E+03  0.82388998669E+03  0.10100000352E+00 0. -1.
       -3    1    3    3    0  502 -0.16218198396E+03 -0.39471349687E+02 -0.56619980574E+03  0.59029078731E+03  0.10100000352E+00 0.  1.
</event>
<event>
 5   0  0.1108819E-03  0.1400506E+04  0.7818609E-02  0.8953453E-01
        2   -1    0    0  501    0  0.00000000000E+00  0.00000000000E+00  0.74746898140E+03  0.74746898140E+03  0.25500000920E-02 0. -1.
       -2   -1    0    0    0  501  0.00000000000E+00  0.00000000000E+00 -0.65601908127E+03  0.65601908127E+03  0.25500000920E-02 0.  1.
    10030    2    1    2    0    0  0.00000000000E+00  0.00000000000E+00  0.91449900133E+02  0.14034880627E+04  0.14005055008E+04 0.  0.
        3    1    3    3  502    0 -0.18570447836E+03 -0.27961520388E+03 -0.57014309905E+03  0.66161467571E+03  0.10100000352E+00 0.  1.
       -3    1    3    3    0  502  0.18570447836E+03  0.27961520388E+03  0.66159299918E+03  0.74187338697E+03  0.10100000352E+00 0. -1.
</event>
<event>
 5   0  0.5875298E-04  0.1647787E+04  0.7818609E-02  0.8791717E-01
       -1   -1    0    0    0  501  0.00000000000E+00  0.00000000000E+00  0.62686575786E+03  0.62686575788E+03  0.50400001928E-02 0.  1.
        1   -1    0    0  501    0  0.00000000000E+00  0.00000000000E+00 -0.10828485789E+04  0.10828485789E+04  0.50400001928E-02 0. -1.
    10030    2    1    2    0    0  0.00000000000E+00  0.00000000000E+00 -0.45598282106E+03  0.17097143368E+04  0.16477872376E+04 0.  0.
        1    1    3    3  502    0 -0.75494378407E+03  0.32992786929E+03 -0.22502402870E+03  0.85406576419E+03  0.50400001928E-02 0. -1.
       -1    1    3    3    0  502  0.75494378407E+03 -0.32992786929E+03 -0.23095879236E+03  0.85564857263E+03  0.50400001928E-02 0.  1.
</event>
<event>
 5   0  0.6194742E-04  0.1394923E+04  0.7818609E-02  0.8957501E-01
       -1   -1    0    0    0  501  0.00000000000E+00  0.00000000000E+00  0.37182833746E+03  0.37182833749E+03  0.50400001928E-02 0.  1.
        1   -1    0    0  501    0  0.00000000000E+00  0.00000000000E+00 -0.13082725260E+04  0.13082725260E+04  0.50400001928E-02 0. -1.
    10030    2    1    2    0    0  0.00000000000E+00  0.00000000000E+00 -0.93644418857E+03  0.16801008635E+04  0.13949233647E+04 0.  0.
        4    1    3    3  502    0 -0.18862159215E+03  0.27934007180E+03  0.26721840179E+03  0.43013517398E+03  0.12699999809E+01 0.  1.
       -4    1    3    3    0  502  0.18862159215E+03 -0.27934007180E+03 -0.12036625904E+04  0.12499656896E+04  0.12699999809E+01 0. -1.
</event>
<event>
 5   0  0.5875298E-04  0.1401133E+04  0.7818609E-02  0.8952999E-01
       -1   -1    0    0    0  501  0.00000000000E+00  0.00000000000E+00  0.67941682631E+03  0.67941682633E+03  0.50400001928E-02 0.  1.
        1   -1    0    0  501    0  0.00000000000E+00  0.00000000000E+00 -0.72237489360E+03  0.72237489361E+03  0.50400001928E-02 0. -1.
    10030    2    1    2    0    0  0.00000000000E+00  0.00000000000E+00 -0.42958067289E+02  0.14017917199E+04  0.14011333379E+04 0.  0.
        1    1    3    3  502    0 -0.67945539365E+02 -0.11177599993E+03 -0.71004889363E+03  0.72199716194E+03  0.50400001928E-02 0. -1.
       -1    1    3    3    0  502  0.67945539365E+02  0.11177599993E+03  0.66709082634E+03  0.67979455800E+03  0.50400001928E-02 0.  1.
</event>
<event>
 5   0  0.4176125E-04  0.1401289E+04  0.7818609E-02  0.8952886E-01
        3   -1    0    0  501    0  0.00000000000E+00  0.00000000000E+00  0.67929683460E+03  0.67929684211E+03  0.10100000352E+00 0. -1.
       -3   -1    0    0    0  501  0.00000000000E+00  0.00000000000E+00 -0.72266340919E+03  0.72266341625E+03  0.10100000352E+00 0.  1.
    10030    2    1    2    0    0  0.00000000000E+00  0.00000000000E+00 -0.43366574591E+02  0.14019602584E+04  0.14012893728E+04 0.  0.
        2    1    3    3  502    0  0.30816141763E+03 -0.36390106613E+03 -0.53526669309E+03  0.71686670866E+03  0.25500000920E-02 0.  1.
       -2    1    3    3    0  502 -0.30816141763E+03  0.36390106613E+03  0.49190011850E+03  0.68509354969E+03  0.25500000920E-02 0. -1.
</event>
<event>
 5   0  0.6114266E-04  0.1429880E+04  0.7818609E-02  0.8932470E-01
       -1   -1    0    0    0  501  0.00000000000E+00  0.00000000000E+00  0.11369031528E+04  0.11369031528E+04  0.50400001928E-02 0.  1.
        1   -1    0    0  501    0  0.00000000000E+00  0.00000000000E+00 -0.44958892781E+03  0.44958892784E+03  0.50400001928E-02 0. -1.
    10030    2    1    2    0    0  0.00000000000E+00  0.00000000000E+00  0.68731422501E+03  0.15864920807E+04  0.14298798125E+04 0.  0.
        3    1    3    3  502    0 -0.44422444682E+03 -0.48020782089E+03  0.23612246216E+02  0.65459335375E+03  0.10100000352E+00 0.  1.
       -3    1    3    3    0  502  0.44422444682E+03  0.48020782089E+03  0.66370197880E+03  0.93189872693E+03  0.10100000352E+00 0. -1.
</event>
<event>
 5   0  0.6194742E-04  0.1408543E+04  0.7818609E-02  0.8947658E-01
        1   -1    0    0  501    0  0.00000000000E+00  0.00000000000E+00  0.14474007451E+04  0.14474007451E+04  0.50400001928E-02 0. -1.
       -1   -1    0    0    0  501  0.00000000000E+00  0.00000000000E+00 -0.34268202796E+03  0.34268202799E+03  0.50400001928E-02 0.  1.
    10030    2    1    2    0    0  0.00000000000E+00  0.00000000000E+00  0.11047187171E+04  0.17900827731E+04  0.14085428252E+04 0.  0.
        4    1    3    3  502    0  0.55708822917E+03 -0.35578365992E+03  0.24348872111E+03  0.70442719847E+03  0.12699999809E+01 0.  1.
       -4    1    3    3    0  502 -0.55708822917E+03  0.35578365992E+03  0.86122999601E+03  0.10856555746E+04  0.12699999809E+01 0. -1.
</event>
<event>
 5   0  0.6097538E-04  0.1405124E+04  0.7818609E-02  0.8950118E-01
        1   -1    0    0  501    0  0.00000000000E+00  0.00000000000E+00  0.54698196533E+03  0.54698196535E+03  0.50400001928E-02 0.  1.
       -1   -1    0    0    0  501  0.00000000000E+00  0.00000000000E+00 -0.90239420937E+03  0.90239420939E+03  0.50400001928E-02 0. -1.
    10030    2    1    2    0    0  0.00000000000E+00  0.00000000000E+00 -0.35541224405E+03  0.14493761747E+04  0.14051239919E+04 0.  0.
        2    1    3    3  502    0  0.42685144340E+03 -0.39636557423E+03 -0.58286846520E+03  0.82404094007E+03  0.25500000920E-02 0. -1.
       -2    1    3    3    0  502 -0.42685144340E+03  0.39636557423E+03  0.22745622116E+03  0.62533523467E+03  0.25500000920E-02 0.  1.
</event>
<event>
 5   0  0.1120053E-03  0.1371155E+04  0.7818609E-02  0.8974967E-01
       -2   -1    0    0    0  501  0.00000000000E+00  0.00000000000E+00  0.20980930686E+03  0.20980930687E+03  0.25500000920E-02 0.  1.
        2   -1    0    0  501    0  0.00000000000E+00  0.00000000000E+00 -0.22402076973E+04  0.22402076973E+04  0.25500000920E-02 0. -1.
    10030    2    1    2    0    0  0.00000000000E+00  0.00000000000E+00 -0.20303983904E+04  0.24500170042E+04  0.13711548770E+04 0.  0.
        2    1    3    3  502    0  0.30185818522E+03 -0.23635592217E+03 -0.20307617090E+04  0.20666338825E+04  0.25500000920E-02 0. -1.
       -2    1    3    3    0  502 -0.30185818522E+03  0.23635592217E+03  0.36331853036E+00  0.38338312161E+03  0.25500000920E-02 0.  1.
</event>
<event>
 5   0  0.6153318E-04  0.1407032E+04  0.7818609E-02  0.8948744E-01
       -1   -1    0    0    0  501  0.00000000000E+00  0.00000000000E+00  0.29968536861E+03  0.29968536865E+03  0.50400001928E-02 0. -1.
        1   -1    0    0  501    0  0.00000000000E+00  0.00000000000E+00 -0.16515143913E+04  0.16515143913E+04  0.50400001928E-02 0.  1.
    10030    2    1    2    0    0  0.00000000000E+00  0.00000000000E+00 -0.13518290227E+04  0.19511997600E+04  0.14070319103E+04 0.  0.
        5    1    3    3  502    0  0.35149252588E+03  0.20378687665E+03  0.12051465896E+03  0.42381830997E+03  0.46999998093E+01 0. -1.
       -5    1    3    3    0  502 -0.35149252588E+03 -0.20378687665E+03 -0.14723436817E+04  0.15273814500E+04  0.46999998093E+01 0.  1.
</event>
<event>
 5   0  0.6114266E-04  0.1402983E+04  0.7818609E-02  0.8951662E-01
        1   -1    0    0  501    0  0.00000000000E+00  0.00000000000E+00  0.88428565188E+03  0.88428565189E+03  0.50400001928E-02 0. -1.
       -1   -1    0    0    0  501  0.00000000000E+00  0.00000000000E+00 -0.55648309898E+03  0.55648309900E+03  0.50400001928E-02 0.  1.
    10030    2    1    2    0    0  0.00000000000E+00  0.00000000000E+00  0.32780255290E+03  0.14407687509E+04  0.14029825658E+04 0.  0.
        3    1    3    3  502    0  0.17802302449E+03 -0.49585218210E+03  0.63954791220E+03  0.82860311727E+03  0.10100000352E+00 0. -1.
       -3    1    3    3    0  502 -0.17802302449E+03  0.49585218210E+03 -0.31174535930E+03  0.61216563362E+03  0.10100000352E+00 0.  1.
</event>
<event>
 5   0  0.1120053E-03  0.1394455E+04  0.7818609E-02  0.8957842E-01
        2   -1    0    0  501    0  0.00000000000E+00  0.00000000000E+00  0.17559020627E+04  0.17559020627E+04  0.25500000920E-02 0.  1.
       -2   -1    0    0    0  501  0.00000000000E+00  0.00000000000E+00 -0.27685282878E+03  0.27685282879E+03  0.25500000920E-02 0. -1.
    10030    2    1    2    0    0  0.00000000000E+00  0.00000000000E+00  0.14790492339E+04  0.20327548915E+04  0.13944553820E+04 0.  0.
        2    1    3    3  502    0  0.42572185052E+03 -0.51639862392E+03  0.10245113957E+04  0.12237361777E+04  0.25500000920E-02 0.  1.
       -2    1    3    3    0  502 -0.42572185052E+03  0.51639862392E+03  0.45453783824E+03  0.80901871375E+03  0.25500000920E-02 0. -1.
</event>
<event>
 5   0  0.6097538E-04  0.1397795E+04  0.7818609E-02  0.8955416E-01
       -1   -1    0    0    0  501  0.00000000000E+00  0.00000000000E+00  0.41956920751E+03  0.41956920754E+03  0.50400001928E-02 0. -1.
        1   -1    0    0  501    0  0.00000000000E+00  0.00000000000E+00 -0.11641881270E+04  0.11641881270E+04  0.50400001928E-02 0.  1.
    10030    2    1    2    0    0  0.00000000000E+00  0.00000000000E+00 -0.74461891951E+03  0.15837573346E+04  0.13977946772E+04 0.  0.
        2    1    3    3  502    0 -0.19854729686E+03  0.57637271439E+03  0.14969782568E+02  0.60979556359E+03  0.25500000920E-02 0.  1.
       -2    1    3    3    0  502  0.19854729686E+03 -0.57637271439E+03 -0.75958870207E+03  0.97396177097E+03  0.25500000920E-02 0. -1.
</event>
<event>
 5   0  0.6153318E-04  0.1383771E+04  0.7818609E-02  0.8965650E-01
       -1   -1    0    0    0  501  0.00000000000E+00  0.00000000000E+00  0.13913977776E+04  0.13913977776E+04  0.50400001928E-02 0. -1.
        1   -1    0    0  501    0  0.00000000000E+00  0.00000000000E+00 -0.34404650894E+03  0.34404650897E+03  0.50400001928E-02 0.  1.
    10030    2    1    2    0    0  0.00000000000E+00  0.00000000000E+00  0.10473512686E+04  0.17354442865E+04  0.13837710041E+04 0.  0.
        5    1    3    3  502    0 -0.57738927181E+03 -0.35239334992E+03  0.34139746003E+03  0.75771614737E+03  0.46999998093E+01 0.  1.
       -5    1    3    3    0  502  0.57738927181E+03  0.35239334992E+03  0.70595380859E+03  0.97772813917E+03  0.46999998093E+01 0. -1.
</event>
<event>
 5   0  0.1175146E-03  0.1405395E+04  0.7818609E-02  0.8949923E-01
        2   -1    0    0  501    0  0.00000000000E+00  0.00000000000E+00  0.61298857200E+03  0.61298857201E+03  0.25500000920E-02 0. -1.
       -2   -1    0    0    0  501  0.00000000000E+00  0.00000000000E+00 -0.80553511061E+03  0.80553511062E+03  0.25500000920E-02 0.  1.
    10030    2    1    2    0    0  0.00000000000E+00  0.00000000000E+00 -0.19254653861E+03  0.14185236826E+04  0.14053950579E+04 0.  0.
        1    1    3    3  502    0  0.34424491497E+03 -0.59695928045E+03  0.42557522742E+02  0.69041732797E+03  0.50400001928E-02 0. -1.
       -1    1    3    3    0  502 -0.34424491497E+03  0.59695928045E+03 -0.23510406135E+03  0.72810635465E+03  0.50400001928E-02 0.  1.
</event>
<event>
 5   0  0.1120053E-03  0.1429930E+04  0.7818609E-02  0.8932434E-01
       -2   -1    0    0    0  501  0.00000000000E+00  0.00000000000E+00  0.12663365397E+04  0.12663365397E+04  0.25500000920E-02 0.  1.
        2   -1    0    0  501    0  0.00000000000E+00  0.00000000000E+00 -0.40366424703E+03  0.40366424704E+03  0.25500000920E-02 0. -1.
    10030    2    1    2    0    0  0.00000000000E+00  0.00000000000E+00  0.86267229269E+03  0.16700007868E+04  0.14299297686E+04 0.  0.
        2    1    3    3  502    0 -0.17540292848E+03  0.64587065154E+03  0.72507779774E+03  0.98673851583E+03  0.25500000920E-02 0.  1.
       -2    1    3    3    0  502  0.17540292848E+03 -0.64587065154E+03  0.13759449495E+03  0.68326227094E+03  0.25500000920E-02 0. -1.
</event>
<event>
 5   0  0.1098949E-03  0.1395012E+04  0.7818609E-02  0.8957437E-01
       -2   -1    0    0    0  501  0.00000000000E+00  0.00000000000E+00  0.14496567463E+03  0.14496567465E+03  0.25500000920E-02 0.  1.
        2   -1    0    0  501    0  0.00000000000E+00  0.00000000000E+00 -0.33560653323E+04  0.33560653323E+04  0.25500000920E-02 0. -1.
    10030    2    1    2    0    0  0.00000000000E+00  0.00000000000E+00 -0.32110996576E+04  0.35010310069E+04  0.13950115054E+04 0.  0.
        4    1    3    3  502    0  0.40749089333E+03  0.30061686690E+03 -0.28093937538E+04  0.28546653403E+04  0.12699999809E+01 0. -1.
       -4    1    3    3    0  502 -0.40749089333E+03 -0.30061686690E+03 -0.40170590389E+03  0.64636566658E+03  0.12699999809E+01 0.  1.
</event>
<event>
 5   0  0.1095119E-03  0.1428225E+04  0.7818609E-02  0.8933638E-01
        2   -1    0    0  501    0  0.00000000000E+00  0.00000000000E+00  0.94079531492E+03  0.94079531492E+03  0.25500000920E-02 0.  1.
       -2   -1    0    0    0  501  0.00000000000E+00  0.00000000000E+00 -0.54204840019E+03  0.54204840019E+03  0.25500000920E-02 0. -1.
    10030    2    1    2    0    0  0.00000000000E+00  0.00000000000E+00  0.39874691473E+03  0.14828437151E+04  0.14282249058E+04 0.  0.
        5    1    3    3  502    0  0.17533759007E+03  0.98010246429E+02 -0.51209555808E+03  0.55010292627E+03  0.46999998093E+01 0. -1.
       -5    1    3    3    0  502 -0.17533759007E+03 -0.98010246429E+02  0.91084247281E+03  0.93274078884E+03  0.46999998093E+01 0.  1.
</event>
<event>
 5   0  0.1098949E-03  0.1376915E+04  0.7818609E-02  0.8970701E-01
       -2   -1    0    0    0  501  0.00000000000E+00  0.00000000000E+00  0.42798665682E+03  0.42798665683E+03  0.25500000920E-02 0. -1.
        2   -1    0    0  501    0  0.00000000000E+00  0.00000000000E+00 -0.11074491889E+04  0.11074491889E+04  0.25500000920E-02 0.  1.
    10030    2    1    2    0    0  0.00000000000E+00  0.00000000000E+00 -0.67946253212E+03  0.15354358458E+04  0.13769146320E+04 0.  0.
        4    1    3    3  502    0 -0.66727707721E+02  0.13695160469E+03  0.40895358867E+03  0.43640918826E+03  0.12699999809E+01 0. -1.
       -4    1    3    3    0  502  0.66727707721E+02 -0.13695160469E+03 -0.10884161208E+04  0.10990266575E+04  0.12699999809E+01 0.  1.
</event>
<event>
 5   0  0.1175146E-03  0.1459839E+04  0.7818609E-02  0.8911608E-01
       -2   -1    0    0    0  501  0.00000000000E+00  0.00000000000E+00  0.60454473019E+03  0.60454473019E+03  0.25500000920E-02 0.  1.
        2   -1    0    0  501    0  0.00000000000E+00  0.00000000000E+00 -0.88129554631E+03  0.88129554632E+03  0.25500000920E-02 0. -1.
    10030    2    1    2    0    0  0.00000000000E+00  0.00000000000E+00 -0.27675081613E+03  0.14858402765E+04  0.14598391394E+04 0.  0.
        1    1    3    3  502    0 -0.38951501854E+03  0.61718730514E+03 -0.15043803290E+03  0.74516690819E+03  0.50400001928E-02 0. -1.
       -1    1    3    3    0  502  0.38951501854E+03 -0.61718730514E+03 -0.12631278323E+03  0.74067336831E+03  0.50400001928E-02 0.  1.
</event>
<event>
 5   0  0.6097538E-04  0.1402509E+04  0.7818609E-02  0.8952005E-01
        1   -1    0    0  501    0  0.00000000000E+00  0.00000000000E+00  0.91665636377E+03  0.91665636379E+03  0.50400001928E-02 0.  1.
       -1   -1    0    0    0  501  0.00000000000E+00  0.00000000000E+00 -0.53646903264E+03  0.53646903267E+03  0.50400001928E-02 0. -1.
    10030    2    1    2    0    0  0.00000000000E+00  0.00000000000E+00  0.38018733113E+03  0.14531253965E+04  0.14025088274E+04 0.  0.
        2    1    3    3  502    0 -0.24400978445E+03 -0.13130051699E+03  0.85752959606E+03  0.90118677798E+03  0.25500000920E-02 0.  1.
       -2    1    3    3    0  502  0.24400978445E+03  0.13130051699E+03 -0.47734226493E+03  0.55193861848E+03  0.25500000920E-02 0. -1.
</event>
<event>
 5   0  0.1120053E-03  0.1367756E+04  0.7818609E-02  0.8977495E-01
        2   -1    0    0  501    0  0.00000000000E+00  0.00000000000E+00  0.59515548108E+03  0.59515548108E+03  0.25500000920E-02 0. -1.
       -2   -1    0    0    0  501  0.00000000000E+00  0.00000000000E+00 -0.78582719356E+03  0.78582719356E+03  0.25500000920E-02 0.  1.
    10030    2    1    2    0    0  0.00000000000E+00  0.00000000000E+00 -0.19067171248E+03  0.13809826746E+04  0.13677563547E+04 0.  0.
        2    1    3    3  502    0  0.21856895354E+03 -0.16679810617E+03 -0.72756621117E+03  0.77778312358E+03  0.25500000920E-02 0.  1.
       -2    1    3    3    0  502 -0.21856895354E+03  0.16679810617E+03  0.53689449869E+03  0.60319955107E+03  0.25500000920E-02 0. -1.
</event>
<event>
 5   0  0.1108819E-03  0.1422607E+04  0.7818609E-02  0.8937615E-01
        2   -1    0    0  501    0  0.00000000000E+00  0.00000000000E+00  0.26599558791E+04  0.26599558791E+04  0.25500000920E-02 0. -1.
       -2   -1    0    0    0  501  0.00000000000E+00  0.00000000000E+00 -0.19021105773E+03  0.19021105775E+03  0.25500000920E-02 0.  1.
    10030    2    1    2    0    0  0.00000000000E+00  0.00000000000E+00  0.24697448214E+04  0.28501669368E+04  0.14226074951E+04 0.  0.
        3    1    3    3  502    0 -0.21321472710E+03  0.13971927382E+03 -0.95552070632E+02  0.27223556662E+03  0.10100000352E+00 0.  1.
       -3    1    3    3    0  502  0.21321472710E+03 -0.13971927382E+03  0.25652968920E+04  0.25779313702E+04  0.10100000352E+00 0. -1.
</event>
<event>
 5   0  0.4176125E-04  0.1315019E+04  0.7818609E-02  0.9017739E-01
       -4   -1    0    0    0  501  0.00000000000E+00  0.00000000000E+00  0.42339819397E+03  0.42340009868E+03  0.12699999809E+01 0.  1.
        4   -1    0    0  501    0  0.00000000000E+00  0.00000000000E+00 -0.10210646596E+04  0.10210654494E+04  0.12699999809E+01 0. -1.
    10030    2    1    2    0    0  0.00000000000E+00  0.00000000000E+00 -0.59766646566E+03  0.14444655481E+04  0.13150192073E+04 0.  0.
        4    1    3    3  502    0 -0.47899412867E+03  0.66371859023E+02  0.19052829218E+03  0.51975305866E+03  0.12699999809E+01 0.  1.
       -4    1    3    3    0  502  0.47899412867E+03 -0.66371859023E+02 -0.78819475784E+03  0.92471248946E+03  0.12699999809E+01 0. -1.
</event>
<event>
 5   0  0.1175146E-03  0.1401539E+04  0.7818609E-02  0.8952705E-01
        2   -1    0    0  501    0  0.00000000000E+00  0.00000000000E+00  0.12978038061E+04  0.12978038061E+04  0.25500000920E-02 0. -1.
       -2   -1    0    0    0  501  0.00000000000E+00  0.00000000000E+00 -0.37839156341E+03  0.37839156342E+03  0.25500000920E-02 0.  1.
    10030    2    1    2    0    0  0.00000000000E+00  0.00000000000E+00  0.91941224273E+03  0.16761953696E+04  0.14015391699E+04 0.  0.
        1    1    3    3  502    0  0.20769037905E+03 -0.36970273663E+03 -0.20753510219E+03  0.47210827750E+03  0.50400001928E-02 0.  1.
       -1    1    3    3    0  502 -0.20769037905E+03  0.36970273663E+03  0.11269473449E+04  0.12040870921E+04  0.50400001928E-02 0. -1.
</event>
<event>
 5   0  0.5875298E-04  0.1398138E+04  0.7818609E-02  0.8955167E-01
       -1   -1    0    0    0  501  0.00000000000E+00  0.00000000000E+00  0.64829077915E+03  0.64829077917E+03  0.50400001928E-02 0.  1.
        1   -1    0    0  501    0  0.00000000000E+00  0.00000000000E+00 -0.75382457077E+03  0.75382457078E+03  0.50400001928E-02 0. -1.
    10030    2    1    2    0    0  0.00000000000E+00  0.00000000000E+00 -0.10553379162E+03  0.14021153500E+04  0.13981380738E+04 0.  0.
        1    1    3    3  502    0 -0.20578041948E+03  0.62051835854E+02 -0.71986707667E+03  0.75126867329E+03  0.50400001928E-02 0. -1.
       -1    1    3    3    0  502  0.20578041948E+03 -0.62051835854E+02  0.61433328505E+03  0.65084667666E+03  0.50400001928E-02 0.  1.
</event>
<event>
 5   0  0.1120053E-03  0.1353009E+04  0.7818609E-02  0.8988554E-01
       -2   -1    0    0    0  501  0.00000000000E+00  0.00000000000E+00  0.44771397035E+03  0.44771397036E+03  0.25500000920E-02 0.  1.
        2   -1    0    0  501    0  0.00000000000E+00  0.00000000000E+00 -0.10222108798E+04  0.10222108798E+04  0.25500000920E-02 0. -1.
    10030    2    1    2    0    0  0.00000000000E+00  0.00000000000E+00 -0.57449690944E+03  0.14699248501E+04  0.13530086349E+04 0.  0.
        2    1    3    3  502    0 -0.18415015322E+03 -0.55428012933E+03  0.83599130579E+02  0.59002250410E+03  0.25500000920E-02 0.  1.
       -2    1    3    3    0  502  0.18415015322E+03  0.55428012933E+03 -0.65809604001E+03  0.87990234605E+03  0.25500000920E-02 0. -1.
</event>
<event>
 5   0  0.6114266E-04  0.1388400E+04  0.7818609E-02  0.8962258E-01
       -1   -1    0    0    0  501  0.00000000000E+00  0.00000000000E+00  0.98445923521E+03  0.98445923523E+03  0.50400001928E-02 0.  1.
        1   -1    0    0  501    0  0.00000000000E+00  0.00000000000E+00 -0.48952136975E+03  0.48952136978E+03  0.50400001928E-02 0. -1.
    10030    2    1    2    0    0  0.00000000000E+00  0.00000000000E+00  0.49493786546E+03  0.14739806050E+04  0.13884002785E+04 0.  0.
        3    1    3    3  502    0 -0.36683832938E+03 -0.41865701178E+03  0.68785073616E+03  0.88486309610E+03  0.10100000352E+00 0.  1.
       -3    1    3    3    0  502  0.36683832938E+03  0.41865701178E+03 -0.19291287069E+03  0.58911750890E+03  0.10100000352E+00 0. -1.
</event>
<event>
 5   0  0.1095119E-03  0.1397543E+04  0.7818609E-02  0.8955599E-01
        2   -1    0    0  501    0  0.00000000000E+00  0.00000000000E+00  0.94664495823E+03  0.94664495823E+03  0.25500000920E-02 0. -1.
       -2   -1    0    0    0  501  0.00000000000E+00  0.00000000000E+00 -0.51580200694E+03  0.51580200695E+03  0.25500000920E-02 0.  1.
    10030    2    1    2    0    0  0.00000000000E+00  0.00000000000E+00  0.43084295128E+03  0.14624469652E+04  0.13975426567E+04 0.  0.
        5    1    3    3  502    0  0.11235603942E+03 -0.21443120433E+03  0.90134360664E+03  0.93329899186E+03  0.46999998093E+01 0. -1.
       -5    1    3    3    0  502 -0.11235603942E+03  0.21443120433E+03 -0.47050065535E+03  0.52914797332E+03  0.46999998093E+01 0.  1.
</event>
<event>
 5   0  0.6194742E-04  0.1303071E+04  0.7818609E-02  0.9027134E-01
        1   -1    0    0  501    0  0.00000000000E+00  0.00000000000E+00  0.60991547817E+03  0.60991547819E+03  0.50400001928E-02 0. -1.
       -1   -1    0    0    0  501  0.00000000000E+00  0.00000000000E+00 -0.69599510399E+03  0.69599510400E+03  0.50400001928E-02 0.  1.
    10030    2    1    2    0    0  0.00000000000E+00  0.00000000000E+00 -0.86079625814E+02  0.13059105822E+04  0.13030705072E+04 0.  0.
        4    1    3    3  502    0 -0.75954056141E+02 -0.59388191583E+03  0.21448683603E+03  0.63598031756E+03  0.12699999809E+01 0. -1.
       -4    1    3    3    0  502  0.75954056141E+02  0.59388191583E+03 -0.30056646184E+03  0.66993026464E+03  0.12699999809E+01 0.  1.
</event>
<event>
 5   0  0.1098949E-03  0.1406321E+04  0.7818609E-02  0.8949256E-01
       -2   -1    0    0    0  501  0.00000000000E+00  0.00000000000E+00  0.66494645906E+03  0.66494645907E+03  0.25500000920E-02 0. -1.
        2   -1    0    0  501    0  0.00000000000E+00  0.00000000000E+00 -0.74357041328E+03  0.74357041329E+03  0.25500000920E-02 0.  1.
    10030    2    1    2    0    0  0.00000000000E+00  0.00000000000E+00 -0.78623954219E+02  0.14085168724E+04  0.14063207506E+04 0.  0.
        4    1    3    3  502    0  0.32467525824E+03 -0.20881775385E+03 -0.62794910455E+03  0.73711638731E+03  0.12699999809E+01 0.  1.
       -4    1    3    3    0  502 -0.32467525824E+03  0.20881775385E+03  0.54932515033E+03  0.67140048505E+03  0.12699999809E+01 0. -1.
</event>
<event>
 5   0  0.5875298E-04  0.1393260E+04  0.7818609E-02  0.8958712E-01
       -1   -1    0    0    0  501  0.00000000000E+00  0.00000000000E+00  0.37964266214E+03  0.37964266217E+03  0.50400001928E-02 0.  1.
        1   -1    0    0  501    0  0.00000000000E+00  0.00000000000E+00 -0.12782900236E+04  0.12782900236E+04  0.50400001928E-02 0. -1.
    10030    2    1    2    0    0  0.00000000000E+00  0.00000000000E+00 -0.89864736141E+03  0.16579326857E+04  0.13932601014E+04 0.  0.
        1    1    3    3  502    0 -0.42333747732E+03  0.26475523677E+03  0.12873973780E+03  0.51563928789E+03  0.50400001928E-02 0.  1.
       -1    1    3    3    0  502  0.42333747732E+03 -0.26475523677E+03 -0.10273870992E+04  0.11422933978E+04  0.50400001928E-02 0. -1.
</event>
<event>
 5   0  0.1175146E-03  0.1387746E+04  0.7818609E-02  0.8962737E-01
       -2   -1    0    0    0  501  0.00000000000E+00  0.00000000000E+00  0.49379800556E+03  0.49379800557E+03  0.25500000920E-02 0.  1.
        2   -1    0    0  501    0  0.00000000000E+00  0.00000000000E+00 -0.97501386654E+03  0.97501386654E+03  0.25500000920E-02 0. -1.
    10030    2    1    2    0    0  0.00000000000E+00  0.00000000000E+00 -0.48121586098E+03  0.14688118721E+04  0.13877462343E+04 0.  0.
        1    1    3    3  502    0 -0.32887594801E+02 -0.84688839195E+02 -0.96869159653E+03  0.97294254845E+03  0.50400001928E-02 0. -1.
       -1    1    3    3    0  502  0.32887594801E+02  0.84688839195E+02  0.48747573555E+03  0.49586932366E+03  0.50400001928E-02 0.  1.
</event>
<event>
 5   0  0.6194742E-04  0.1401436E+04  0.7818609E-02  0.8952780E-01
       -1   -1    0    0    0  501  0.00000000000E+00  0.00000000000E+00  0.25338966455E+03  0.25338966460E+03  0.50400001928E-02 0. -1.
        1   -1    0    0  501    0  0.00000000000E+00  0.00000000000E+00 -0.19377494838E+04  0.19377494838E+04  0.50400001928E-02 0.  1.
    10030    2    1    2    0    0  0.00000000000E+00  0.00000000000E+00 -0.16843598193E+04  0.21911391484E+04  0.14014359661E+04 0.  0.
        4    1    3    3  502    0  0.93343722152E+02 -0.64665011612E+03 -0.12381324040E+04  0.13999438867E+04  0.12699999809E+01 0.  1.
       -4    1    3    3    0  502 -0.93343722152E+02  0.64665011612E+03 -0.44622741526E+03  0.79119526172E+03  0.12699999809E+01 0. -1.
</event>
<event>
 5   0  0.4176125E-04  0.1401453E+04  0.7818609E-02  0.8952767E-01
        3   -1    0    0  501    0  0.00000000000E+00  0.00000000000E+00  0.37044415532E+03  0.37044416909E+03  0.10100000352E+00 0.  1.
       -3   -1    0    0    0  501  0.00000000000E+00  0.00000000000E+00 -0.13254838875E+04  0.13254838914E+04  0.10100000352E+00 0. -1.
    10030    2    1    2    0    0  0.00000000000E+00  0.00000000000E+00 -0.95503973222E+03  0.16959280605E+04  0.14014532087E+04 0.  0.
        5    1    3    3  502    0  0.12816151954E+03 -0.19752367904E+03 -0.12761582487E+04  0.12977068022E+04  0.46999998093E+01 0. -1.
       -5    1    3    3    0  502 -0.12816151954E+03  0.19752367904E+03  0.32111851648E+03  0.39822125822E+03  0.46999998093E+01 0.  1.
</event>
<event>
 5   0  0.1108819E-03  0.1395216E+04  0.7818609E-02  0.8957289E-01
       -2   -1    0    0    0  501  0.00000000000E+00  0.00000000000E+00  0.42085862610E+03  0.42085862610E+03  0.25500000920E-02 0.  1.
        2   -1    0    0  501    0  0.00000000000E+00  0.00000000000E+00 -0.11563422266E+04  0.11563422266E+04  0.25500000920E-02 0. -1.
    10030    2    1    2    0    0  0.00000000000E+00  0.00000000000E+00 -0.73548360047E+03  0.15772008527E+04  0.13952155400E+04 0.  0.
        3    1    3    3  502    0 -0.33381146064E+03  0.80891758617E+02 -0.10541338872E+04  0.11086802200E+04  0.10100000352E+00 0. -1.
       -3    1    3    3    0  502  0.33381146064E+03 -0.80891758617E+02  0.31865028669E+03  0.46852063271E+03  0.10100000352E+00 0.  1.
</event>
<event>
 5   0  0.6114266E-04  0.1348570E+04  0.7818609E-02  0.8991911E-01
       -1   -1    0    0    0  501  0.00000000000E+00  0.00000000000E+00  0.22064414797E+03  0.22064414802E+03  0.50400001928E-02 0. -1.
        1   -1    0    0  501    0  0.00000000000E+00  0.00000000000E+00 -0.20606035860E+04  0.20606035860E+04  0.50400001928E-02 0.  1.
    10030    2    1    2    0    0  0.00000000000E+00  0.00000000000E+00 -0.18399594381E+04  0.22812477341E+04  0.13485697944E+04 0.  0.
        3    1    3    3  502    0 -0.24233415035E+03  0.41560523193E+03 -0.17191742488E+04  0.17852208987E+04  0.10100000352E+00 0.  1.
       -3    1    3    3    0  502  0.24233415035E+03 -0.41560523193E+03 -0.12078518924E+03  0.49602683534E+03  0.10100000352E+00 0. -1.
</event>
<event>
 5   0  0.1175146E-03  0.1411439E+04  0.7818609E-02  0.8945579E-01
        2   -1    0    0  501    0  0.00000000000E+00  0.00000000000E+00  0.97971532617E+03  0.97971532617E+03  0.25500000920E-02 0. -1.
       -2   -1    0    0    0  501  0.00000000000E+00  0.00000000000E+00 -0.50835207161E+03  0.50835207162E+03  0.25500000920E-02 0.  1.
    10030    2    1    2    0    0  0.00000000000E+00  0.00000000000E+00  0.47136325455E+03  0.14880673978E+04  0.14114394293E+04 0.  0.
        1    1    3    3  502    0 -0.16740615141E+03  0.32979789626E+03 -0.39798901825E+03  0.54331089680E+03  0.50400001928E-02 0.  1.
       -1    1    3    3    0  502  0.16740615141E+03 -0.32979789626E+03  0.86935227280E+03  0.94475650099E+03  0.50400001928E-02 0. -1.
</event>
<event>
 5   0  0.6194742E-04  0.1399938E+04  0.7818609E-02  0.8953863E-01
       -1   -1    0    0    0  501  0.00000000000E+00  0.00000000000E+00  0.67415208807E+03  0.67415208809E+03  0.50400001928E-02 0.  1.
        1   -1    0    0  501    0  0.00000000000E+00  0.00000000000E+00 -0.72677485548E+03  0.72677485549E+03  0.50400001928E-02 0. -1.
    10030    2    1    2    0    0  0.00000000000E+00  0.00000000000E+00 -0.52622767409E+02  0.14009269436E+04  0.13999382649E+04 0.  0.
        4    1    3    3  502    0 -0.62453369524E+03  0.30470224003E+03 -0.11045037990E+03  0.70362396981E+03  0.12699999809E+01 0.  1.
       -4    1    3    3    0  502  0.62453369524E+03 -0.30470224003E+03  0.57827612493E+02  0.69730297377E+03  0.12699999809E+01 0. -1.
</event>
<event>
 5   0  0.1108819E-03  0.1278571E+04  0.7818609E-02  0.9046733E-01
        2   -1    0    0  501    0  0.00000000000E+00  0.00000000000E+00  0.15553122797E+04  0.15553122797E+04  0.25500000920E-02 0.  1.
       -2   -1    0    0    0  501  0.00000000000E+00  0.00000000000E+00 -0.26276779386E+03  0.26276779388E+03  0.25500000920E-02 0. -1.
    10030    2    1    2    0    0  0.00000000000E+00  0.00000000000E+00  0.12925444859E+04  0.18180800736E+04  0.12785710407E+04 0.  0.
        3    1    3    3  502    0 -0.51602703405E+03 -0.10252368761E+02  0.11826687577E+04  0.12903853733E+04  0.10100000352E+00 0.  1.
       -3    1    3    3    0  502  0.51602703405E+03  0.10252368761E+02  0.10987572819E+03  0.52769470035E+03  0.10100000352E+00 0. -1.
</event>
<event>
 5   0  0.6194742E-04  0.1420521E+04  0.7818609E-02  0.8939097E-01
        1   -1    0    0  501    0  0.00000000000E+00  0.00000000000E+00  0.91895868184E+03  0.91895868186E+03  0.50400001928E-02 0. -1.
       -1   -1    0    0    0  501  0.00000000000E+00  0.00000000000E+00 -0.54895849397E+03  0.54895849399E+03  0.50400001928E-02 0.  1.
    10030    2    1    2    0    0  0.00000000000E+00  0.00000000000E+00  0.37000018788E+03  0.14679171758E+04  0.14205212762E+04 0.  0.
        4    1    3    3  502    0  0.28116426416E+03 -0.35746121672E+03  0.74876371356E+03  0.87605968777E+03  0.12699999809E+01 0. -1.
       -4    1    3    3    0  502 -0.28116426416E+03  0.35746121672E+03 -0.37876352568E+03  0.59185748807E+03  0.12699999809E+01 0.  1.
</event>
<event>
 5   0  0.4176125E-04  0.1399951E+04  0.7818609E-02  0.8953854E-01
        3   -1    0    0  501    0  0.00000000000E+00  0.00000000000E+00  0.18806292969E+04  0.18806292996E+04  0.10100000352E+00 0.  1.
       -3   -1    0    0    0  501  0.00000000000E+00  0.00000000000E+00 -0.26053284592E+03  0.26053286550E+03  0.10100000352E+00 0. -1.
    10030    2    1    2    0    0  0.00000000000E+00  0.00000000000E+00  0.16200964509E+04  0.21411621651E+04  0.13999510373E+04 0.  0.
        2    1    3    3  502    0  0.40962988688E+03  0.18872660067E+03 -0.86765738527E+01  0.45109827861E+03  0.25500000920E-02 0. -1.
       -2    1    3    3    0  502 -0.40962988688E+03 -0.18872660067E+03  0.16287730248E+04  0.16900638865E+04  0.25500000920E-02 0.  1.
</event>
<event>
 5   0  0.6194742E-04  0.1471052E+04  0.7818609E-02  0.8903935E-01
        1   -1    0    0  501    0  0.00000000000E+00  0.00000000000E+00  0.11892766568E+04  0.11892766568E+04  0.50400001928E-02 0. -1.
       -1   -1    0    0    0  501  0.00000000000E+00  0.00000000000E+00 -0.45489690647E+03  0.45489690650E+03  0.50400001928E-02 0.  1.
    10030    2    1    2    0    0  0.00000000000E+00  0.00000000000E+00  0.73437975028E+03  0.16441735633E+04  0.14710516947E+04 0.  0.
        4    1    3    3  502    0  0.72953297364E+02 -0.74047574484E+02 -0.44664459197E+03  0.45858285110E+03  0.12699999809E+01 0.  1.
       -4    1    3    3    0  502 -0.72953297364E+02  0.74047574484E+02  0.11810243422E+04  0.11855907122E+04  0.12699999809E+01 0. -1.
</event>
<event>
 5   0  0.6153318E-04  0.1411807E+04  0.7818609E-02  0.8945316E-01
        1   -1    0    0  501    0  0.00000000000E+00  0.00000000000E+00  0.92436700140E+03  0.92436700142E+03  0.50400001928E-02 0.  1.
       -1   -1    0    0    0  501  0.00000000000E+00  0.00000000000E+00 -0.53907095490E+03  0.53907095492E+03  0.50400001928E-02 0. -1.
    10030    2    1    2    0    0  0.00000000000E+00  0.00000000000E+00  0.38529604651E+03  0.14634379563E+04  0.14118065054E+04 0.  0.
        5    1    3    3  502    0  0.24786728594E+03 -0.27020283539E+03 -0.43259394257E+03  0.56710437562E+03  0.46999998093E+01 0. -1.
       -5    1    3    3    0  502 -0.24786728594E+03  0.27020283539E+03  0.81788998908E+03  0.89633358072E+03  0.46999998093E+01 0.  1.
</event>
<event>
 5   0  0.1120053E-03  0.1394159E+04  0.7818609E-02  0.8958057E-01
        2   -1    0    0  501    0  0.00000000000E+00  0.00000000000E+00  0.19777807926E+04  0.19777807926E+04  0.25500000920E-02 0. -1.
       -2   -1    0    0    0  501  0.00000000000E+00  0.00000000000E+00 -0.24568944802E+03  0.24568944803E+03  0.25500000920E-02 0.  1.
    10030    2    1    2    0    0  0.00000000000E+00  0.00000000000E+00  0.17320913446E+04  0.22234702406E+04  0.13941590601E+04 0.  0.
        2    1    3    3  502    0 -0.30476119171E+03 -0.42421956437E+03  0.12985797618E+03  0.53824224727E+03  0.25500000920E-02 0.  1.
       -2    1    3    3    0  502  0.30476119171E+03  0.42421956437E+03  0.16022333684E+04  0.16852279933E+04  0.25500000920E-02 0. -1.
</event>
<event>
 5   0  0.1098949E-03  0.1374027E+04  0.7818609E-02  0.8972836E-01
       -2   -1    0    0    0  501  0.00000000000E+00  0.00000000000E+00  0.35268354536E+03  0.35268354537E+03  0.25500000920E-02 0. -1.
        2   -1    0    0  501    0  0.00000000000E+00  0.00000000000E+00 -0.13382756849E+04  0.13382756849E+04  0.25500000920E-02 0.  1.
    10030    2    1    2    0    0  0.00000000000E+00  0.00000000000E+00 -0.98559213953E+03  0.16909592303E+04  0.13740273843E+04 0.  0.
        4    1    3    3  502    0 -0.12753907509E+03  0.57076761040E+03 -0.93642146380E+03  0.11040510185E+04  0.12699999809E+01 0.  1.
       -4    1    3    3    0  502  0.12753907509E+03 -0.57076761040E+03 -0.49170675734E+02  0.58690821174E+03  0.12699999809E+01 0. -1.
</event>
<event>
 5   0  0.1095119E-03  0.1388899E+04  0.7818609E-02  0.8961893E-01
        2   -1    0    0  501    0  0.00000000000E+00  0.00000000000E+00  0.26716898717E+04  0.26716898717E+04  0.25500000920E-02 0. -1.
       -2   -1    0    0    0  501  0.00000000000E+00  0.00000000000E+00 -0.18050759257E+03  0.18050759258E+03  0.25500000920E-02 0.  1.
    10030    2    1    2    0    0  0.00000000000E+00  0.00000000000E+00  0.24911822792E+04  0.28521974643E+04  0.13888992863E+04 0.  0.
        5    1    3    3  502    0  0.18697127108E+03 -0.35817371091E+03  0.24054320585E+04  0.24391334817E+04  0.46999998093E+01 0. -1.
       -5    1    3    3    0  502 -0.18697127108E+03  0.35817371091E+03  0.85750220651E+02  0.41306398262E+03  0.46999998093E+01 0.  1.
</event>
<event>
 5   0  0.4176125E-04  0.1399722E+04  0.7818609E-02  0.8954020E-01
        4   -1    0    0  501    0  0.00000000000E+00  0.00000000000E+00  0.11050087844E+04  0.11050095142E+04  0.12699999809E+01 0.  1.
       -4   -1    0    0    0  501  0.00000000000E+00  0.00000000000E+00 -0.44325725147E+03  0.44325907084E+03  0.12699999809E+01 0. -1.
    10030    2    1    2    0    0  0.00000000000E+00  0.00000000000E+00  0.66175153292E+03  0.15482685850E+04  0.13997215866E+04 0.  0.
        2    1    3    3  502    0  0.10344339127E+03 -0.69200691412E+03  0.34768836090E+03  0.78132022928E+03  0.25500000920E-02 0.  1.
       -2    1    3    3    0  502 -0.10344339127E+03  0.69200691412E+03  0.31406317203E+03  0.76694835576E+03  0.25500000920E-02 0. -1.
</event>
<event>
 5   0  0.6194742E-04  0.1416337E+04  0.7818609E-02  0.8942077E-01
       -1   -1    0    0    0  501  0.00000000000E+00  0.00000000000E+00  0.36755522681E+03  0.36755522684E+03  0.50400001928E-02 0. -1.
        1   -1    0    0  501    0  0.00000000000E+00  0.00000000000E+00 -0.13644285842E+04  0.13644285842E+04  0.50400001928E-02 0.  1.
    10030    2    1    2    0    0  0.00000000000E+00  0.00000000000E+00 -0.99687335742E+03  0.17319838111E+04  0.14163373296E+04 0.  0.
        4    1    3    3  502    0  0.86833204707E+02 -0.58456343768E+03 -0.21290718322E+02  0.59136226266E+03  0.12699999809E+01 0. -1.
       -4    1    3    3    0  502 -0.86833204707E+02  0.58456343768E+03 -0.97558263910E+03  0.11406215484E+04  0.12699999809E+01 0.  1.
</event>
<event>
 5   0  0.5875298E-04  0.1395622E+04  0.7818609E-02  0.8956994E-01
        1   -1    0    0  501    0  0.00000000000E+00  0.00000000000E+00  0.19310511244E+04  0.19310511244E+04  0.50400001928E-02 0.  1.
       -1   -1    0    0    0  501  0.00000000000E+00  0.00000000000E+00 -0.25216336546E+03  0.25216336551E+03  0.50400001928E-02 0. -1.
    10030    2    1    2    0    0  0.00000000000E+00  0.00000000000E+00  0.16788877590E+04  0.21832144899E+04  0.13956222275E+04 0.  0.
        1    1    3    3  502    0  0.31269216599E+03  0.62025143805E+03  0.94382251988E+03  0.11718742194E+04  0.50400001928E-02 0.  1.
       -1    1    3    3    0  502 -0.31269216599E+03 -0.62025143805E+03  0.73506523908E+03  0.10113402705E+04  0.50400001928E-02 0. -1.
</event>
<event>
 5   0  0.1108819E-03  0.1470673E+04  0.7818609E-02  0.8904193E-01
        2   -1    0    0  501    0  0.00000000000E+00  0.00000000000E+00  0.46899337186E+03  0.46899337186E+03  0.25500000920E-02 0. -1.
       -2   -1    0    0    0  501  0.00000000000E+00  0.00000000000E+00 -0.11529364647E+04  0.11529364647E+04  0.25500000920E-02 0.  1.
    10030    2    1    2    0    0  0.00000000000E+00  0.00000000000E+00 -0.68394309282E+03  0.16219298365E+04  0.14706727170E+04 0.  0.
        3    1    3    3  502    0  0.11113602509E+03  0.23033077090E+03 -0.11023105617E+04  0.11315882930E+04  0.10100000352E+00 0.  1.
       -3    1    3    3    0  502 -0.11113602509E+03 -0.23033077090E+03  0.41836746892E+03  0.49034154356E+03  0.10100000352E+00 0. -1.
</event>
<event>
 5   0  0.1175146E-03  0.1382990E+04  0.7818609E-02  0.8966224E-01
        2   -1    0    0  501    0  0.00000000000E+00  0.00000000000E+00  0.14537368991E+04  0.14537368991E+04  0.25500000920E-02 0. -1.
       -2   -1    0    0    0  501  0.00000000000E+00  0.00000000000E+00 -0.32892127561E+03  0.32892127562E+03  0.25500000920E-02 0.  1.
    10030    2    1    2    0    0  0.00000000000E+00  0.00000000000E+00  0.11248156234E+04  0.17826581747E+04  0.13829895086E+04 0.  0.
        1    1    3    3  502    0 -0.30902841807E+03  0.59598438397E+03  0.77604211012E+03  0.10261273341E+04  0.50400001928E-02 0. -1.
       -1    1    3    3    0  502  0.30902841807E+03 -0.59598438397E+03  0.34877351332E+03  0.75653084056E+03  0.50400001928E-02 0.  1.
</event>
<event>
 5   0  0.4176125E-04  0.1406184E+04  0.7818609E-02  0.8949354E-01
       -3   -1    0    0    0  501  0.00000000000E+00  0.00000000000E+00  0.44132738903E+03  0.44132740059E+03  0.10100000352E+00 0. -1.
        3   -1    0    0  501    0  0.00000000000E+00  0.00000000000E+00 -0.11201178692E+04  0.11201178737E+04  0.10100000352E+00 0.  1.
    10030    2    1    2    0    0  0.00000000000E+00  0.00000000000E+00 -0.67879048014E+03  0.15614452743E+04  0.14061844931E+04 0.  0.
        5    1    3    3  502    0  0.33589934776E+03 -0.29067214439E+03 -0.94454266411E+03  0.10437919341E+04  0.46999998093E+01 0.  1.
       -5    1    3    3    0  502 -0.33589934776E+03  0.29067214439E+03  0.26575218398E+03  0.51765334022E+03  0.46999998093E+01 0. -1.
</event>
<event>
 5   0  0.1095119E-03  0.1367807E+04  0.7818609E-02  0.8977457E-01
        2   -1    0    0  501    0  0.00000000000E+00  0.00000000000E+00  0.91937535753E+03  0.91937535753E+03  0.25500000920E-02 0. -1.
       -2   -1    0    0    0  501  0.00000000000E+00  0.00000000000E+00 -0.50874107942E+03  0.50874107943E+03  0.25500000920E-02 0.  1.
    10030    2    1    2    0    0  0.00000000000E+00  0.00000000000E+00  0.41063427810E+03  0.14281164370E+04  0.13678070212E+04 0.  0.
        5    1    3    3  502    0 -0.14699867808E+03  0.15784986629E+03  0.88291335701E+03  0.90889123532E+03  0.46999998093E+01 0. -1.
       -5    1    3    3    0  502  0.14699867808E+03 -0.15784986629E+03 -0.47227907891E+03  0.51922520164E+03  0.46999998093E+01 0.  1.
</event>
<event>
 5   0  0.6114266E-04  0.1400330E+04  0.7818609E-02  0.8953579E-01
        1   -1    0    0  501    0  0.00000000000E+00  0.00000000000E+00  0.26614322889E+04  0.26614322889E+04  0.50400001928E-02 0.  1.
       -1   -1    0    0    0  501  0.00000000000E+00  0.00000000000E+00 -0.18419832649E+03  0.18419832656E+03  0.50400001928E-02 0. -1.
    10030    2    1    2    0    0  0.00000000000E+00  0.00000000000E+00  0.24772339624E+04  0.28456306155E+04  0.14003304950E+04 0.  0.
        3    1    3    3  502    0 -0.48776810704E+02  0.40975251824E+03  0.89160668765E+02  0.42216814010E+03  0.10100000352E+00 0.  1.
       -3    1    3    3    0  502  0.48776810704E+02 -0.40975251824E+03  0.23880732937E+04  0.24234624754E+04  0.10100000352E+00 0. -1.
</event>
<event>
 5   0  0.1120053E-03  0.1429484E+04  0.7818609E-02  0.8932749E-01
       -2   -1    0    0    0  501  0.00000000000E+00  0.00000000000E+00  0.74647568876E+03  0.74647568877E+03  0.25500000920E-02 0.  1.
        2   -1    0    0  501    0  0.00000000000E+00  0.00000000000E+00 -0.68435753082E+03  0.68435753083E+03  0.25500000920E-02 0. -1.
    10030    2    1    2    0    0  0.00000000000E+00  0.00000000000E+00  0.62118157943E+02  0.14308332196E+04  0.14294841856E+04 0.  0.
        2    1    3    3  502    0  0.48214734179E+03  0.36188926218E+03  0.41538283814E+03  0.73210163195E+03  0.25500000920E-02 0.  1.
       -2    1    3    3    0  502 -0.48214734179E+03 -0.36188926218E+03 -0.35326468020E+03  0.69873158764E+03  0.25500000920E-02 0. -1.
</event>
<event>
 5   0  0.5875298E-04  0.1398415E+04  0.7818609E-02  0.8954967E-01
        1   -1    0    0  501    0  0.00000000000E+00  0.00000000000E+00  0.62429243461E+03  0.62429243464E+03  0.50400001928E-02 0. -1.
       -1   -1    0    0    0  501  0.00000000000E+00  0.00000000000E+00 -0.78311258576E+03  0.78311258578E+03  0.50400001928E-02 0.  1.
    10030    2    1    2    0    0  0.00000000000E+00  0.00000000000E+00 -0.15882015115E+03  0.14074050204E+04  0.13984151927E+04 0.  0.
        1    1    3    3  502    0 -0.10574897023E+03 -0.61099172522E+03 -0.40459325544E+03  0.74039816002E+03  0.50400001928E-02 0.  1.
       -1    1    3    3    0  502  0.10574897023E+03  0.61099172522E+03  0.24577310430E+03  0.66700686039E+03  0.50400001928E-02 0. -1.
</event>
<event>
 5   0  0.1108819E-03  0.1385422E+04  0.7818609E-02  0.8964439E-01
        2   -1    0    0  501    0  0.00000000000E+00  0.00000000000E+00  0.11711703255E+04  0.11711703255E+04  0.25500000920E-02 0. -1.
       -2   -1    0    0    0  501  0.00000000000E+00  0.00000000000E+00 -0.40971708106E+03  0.40971708106E+03  0.25500000920E-02 0.  1.
    10030    2    1    2    0    0  0.00000000000E+00  0.00000000000E+00  0.76145324447E+03  0.15808874066E+04  0.13854219389E+04 0.  0.
        3    1    3    3  502    0  0.72466636559E+02 -0.44463908856E+03 -0.21972079474E+03  0.50123105483E+03  0.10100000352E+00 0.  1.
       -3    1    3    3    0  502 -0.72466636559E+02  0.44463908856E+03  0.98117403920E+03  0.10796563518E+04  0.10100000352E+00 0. -1.
</event>
<event>
 5   0  0.1120053E-03  0.1397531E+04  0.7818609E-02  0.8955608E-01
       -2   -1    0    0    0  501  0.00000000000E+00  0.00000000000E+00  0.24621552015E+03  0.24621552016E+03  0.25500000920E-02 0. -1.
        2   -1    0    0  501    0  0.00000000000E+00  0.00000000000E+00 -0.19831117155E+04  0.19831117155E+04  0.25500000920E-02 0.  1.
    10030    2    1    2    0    0  0.00000000000E+00  0.00000000000E+00 -0.17368961954E+04  0.22293272357E+04  0.13975305114E+04 0.  0.
        2    1    3    3  502    0  0.66680523906E+03  0.20427023310E+03 -0.93829717675E+03  0.11690838921E+04  0.25500000920E-02 0.  1.
       -2    1    3    3    0  502 -0.66680523906E+03 -0.20427023310E+03 -0.79859901861E+03  0.10602433435E+04  0.25500000920E-02 0. -1.
</event>
<event>
 5   0  0.5875298E-04  0.1402388E+04  0.7818609E-02  0.8952092E-01
        1   -1    0    0  501    0  0.00000000000E+00  0.00000000000E+00  0.13984694886E+04  0.13984694886E+04  0.50400001928E-02 0. -1.
       -1   -1    0    0    0  501  0.00000000000E+00  0.00000000000E+00 -0.35157939185E+03  0.35157939189E+03  0.50400001928E-02 0.  1.
    10030    2    1    2    0    0  0.00000000000E+00  0.00000000000E+00  0.10468900968E+04  0.17500488805E+04  0.14023880381E+04 0.  0.
        1    1    3    3  502    0 -0.44207340977E+02 -0.47564196575E+03  0.11640033720E+04  0.12582104031E+04  0.50400001928E-02 0. -1.
       -1    1    3    3    0  502  0.44207340977E+02  0.47564196575E+03 -0.11711327520E+03  0.49183847738E+03  0.50400001928E-02 0.  1.
</event>
<event>
 5   0  0.1095119E-03  0.1392622E+04  0.7818609E-02  0.8959176E-01
       -2   -1    0    0    0  501  0.00000000000E+00  0.00000000000E+00  0.60747554583E+03  0.60747554583E+03  0.25500000920E-02 0.  1.
        2   -1    0    0  501    0  0.00000000000E+00  0.00000000000E+00 -0.79813802800E+03  0.79813802801E+03  0.25500000920E-02 0. -1.
    10030    2    1    2    0    0  0.00000000000E+00  0.00000000000E+00 -0.19066248217E+03  0.14056135738E+04  0.13926224675E+04 0.  0.
        5    1    3    3  502    0  0.28140379229E+03 -0.48937574709E+03  0.31608687192E+03  0.64700055390E+03  0.46999998093E+01 0.  1.
       -5    1    3    3    0  502 -0.28140379229E+03  0.48937574709E+03 -0.50674935409E+03  0.75861301994E+03  0.46999998093E+01 0. -1.
</event>
<event>
 5   0  0.1120053E-03  0.1393903E+04  0.7818609E-02  0.8958243E-01
        2   -1    0    0  501    0  0.00000000000E+00  0.00000000000E+00  0.88056038762E+03  0.88056038762E+03  0.25500000920E-02 0. -1.
       -2   -1    0    0    0  501  0.00000000000E+00  0.00000000000E+00 -0.55162795263E+03  0.55162795263E+03  0.25500000920E-02 0.  1.
    10030    2    1    2    0    0  0.00000000000E+00  0.00000000000E+00  0.32893243499E+03  0.14321883403E+04  0.13939034741E+04 0.  0.
        2    1    3    3  502    0  0.27406463863E+03 -0.57689409257E+03  0.45109699557E+03  0.78192500894E+03  0.25500000920E-02 0. -1.
       -2    1    3    3    0  502 -0.27406463863E+03  0.57689409257E+03 -0.12216456058E+03  0.65026333132E+03  0.25500000920E-02 0.  1.
</event>
<event>
 5   0  0.1095119E-03  0.1405595E+04  0.7818609E-02  0.8949778E-01
        2   -1    0    0  501    0  0.00000000000E+00  0.00000000000E+00  0.16475838929E+04  0.16475838929E+04  0.25500000920E-02 0.  1.
       -2   -1    0    0    0  501  0.00000000000E+00  0.00000000000E+00 -0.29978707938E+03  0.29978707939E+03  0.25500000920E-02 0. -1.
    10030    2    1    2    0    0  0.00000000000E+00  0.00000000000E+00  0.13477968135E+04  0.19473709723E+04  0.14055950531E+04 0.  0.
        5    1    3    3  502    0 -0.60417356930E+02  0.46505451512E+03 -0.51280196463E+02  0.47178141930E+03  0.46999998093E+01 0. -1.
       -5    1    3    3    0  502  0.60417356930E+02 -0.46505451512E+03  0.13990770100E+04  0.14755895530E+04  0.46999998093E+01 0.  1.
</event>
<event>
 5   0  0.5875298E-04  0.1360666E+04  0.7818609E-02  0.8982793E-01
       -1   -1    0    0    0  501  0.00000000000E+00  0.00000000000E+00  0.85500915462E+03  0.85500915464E+03  0.50400001928E-02 0. -1.
        1   -1    0    0  501    0  0.00000000000E+00  0.00000000000E+00 -0.54134256946E+03  0.54134256949E+03  0.50400001928E-02 0.  1.
    10030    2    1    2    0    0  0.00000000000E+00  0.00000000000E+00  0.31366658516E+03  0.13963517241E+04  0.13606657969E+04 0.  0.
        1    1    3    3  502    0 -0.11891647171E+03  0.27963090702E+03  0.78149973793E+03  0.83849651866E+03  0.50400001928E-02 0. -1.
       -1    1    3    3    0  502  0.11891647171E+03 -0.27963090702E+03 -0.46783315277E+03  0.55785520546E+03  0.50400001928E-02 0.  1.
</event>
<event>
 5   0  0.1098949E-03  0.1414306E+04  0.7818609E-02  0.8943528E-01
        2   -1    0    0  501    0  0.00000000000E+00  0.00000000000E+00  0.15837183197E+04  0.15837183197E+04  0.25500000920E-02 0.  1.
       -2   -1    0    0    0  501  0.00000000000E+00  0.00000000000E+00 -0.31575412414E+03  0.31575412415E+03  0.25500000920E-02 0. -1.
    10030    2    1    2    0    0  0.00000000000E+00  0.00000000000E+00  0.12679641955E+04  0.18994724438E+04  0.14143063189E+04 0.  0.
        4    1    3    3  502    0  0.63313444935E+02  0.39422896600E+03 -0.14987454255E+03  0.42648453823E+03  0.12699999809E+01 0. -1.
       -4    1    3    3    0  502 -0.63313444935E+02 -0.39422896600E+03  0.14178387381E+04  0.14729879056E+04  0.12699999809E+01 0.  1.
</event>
<event>
 5   0  0.1108819E-03  0.1383126E+04  0.7818609E-02  0.8966124E-01
       -2   -1    0    0    0  501  0.00000000000E+00  0.00000000000E+00  0.71010026811E+03  0.71010026812E+03  0.25500000920E-02 0.  1.
        2   -1    0    0  501    0  0.00000000000E+00  0.00000000000E+00 -0.67350937586E+03  0.67350937586E+03  0.25500000920E-02 0. -1.
    10030    2    1    2    0    0  0.00000000000E+00  0.00000000000E+00  0.36590892253E+02  0.13836096440E+04  0.13831257186E+04 0.  0.
        3    1    3    3  502    0 -0.18061555320E+03 -0.59300541310E+03  0.32496718591E+03  0.69991505210E+03  0.10100000352E+00 0.  1.
       -3    1    3    3    0  502  0.18061555320E+03  0.59300541310E+03 -0.28837629366E+03  0.68369459189E+03  0.10100000352E+00 0. -1.
</event>
<event>
 5   0  0.4176125E-04  0.1398993E+04  0.7818609E-02  0.8954548E-01
        4   -1    0    0  501    0  0.00000000000E+00  0.00000000000E+00  0.90352620314E+03  0.90352709570E+03  0.12699999809E+01 0. -1.
       -4   -1    0    0    0  501  0.00000000000E+00  0.00000000000E+00 -0.54153798068E+03  0.54153946987E+03  0.12699999809E+01 0.  1.
    10030    2    1    2    0    0  0.00000000000E+00  0.00000000000E+00  0.36198822245E+03  0.14450665656E+04  0.13989931757E+04 0.  0.
        2    1    3    3  502    0  0.19108524999E+03 -0.39964425916E+03  0.74017877157E+03  0.86260867172E+03  0.25500000920E-02 0. -1.
       -2    1    3    3    0  502 -0.19108524999E+03  0.39964425916E+03 -0.37819054911E+03  0.58245789384E+03  0.25500000920E-02 0.  1.
</event>
<event>
 5   0  0.1108819E-03  0.1394325E+04  0.7818609E-02  0.8957937E-01
        2   -1    0    0  501    0  0.00000000000E+00  0.00000000000E+00  0.37479209117E+03  0.37479209118E+03  0.25500000920E-02 0.  1.
       -2   -1    0    0    0  501  0.00000000000E+00  0.00000000000E+00 -0.12968137016E+04  0.12968137016E+04  0.25500000920E-02 0. -1.
    10030    2    1    2    0    0  0.00000000000E+00  0.00000000000E+00 -0.92202161044E+03  0.16716057928E+04  0.13943249536E+04 0.  0.
        3    1    3    3  502    0 -0.15671120316E+03 -0.48657345865E+03  0.10731057430E+03  0.52232911217E+03  0.10100000352E+00 0.  1.
       -3    1    3    3    0  502  0.15671120316E+03  0.48657345865E+03 -0.10293321847E+04  0.11492766806E+04  0.10100000352E+00 0. -1.
</event>
<event>
 5   0  0.6114266E-04  0.1402140E+04  0.7818609E-02  0.8952271E-01
        1   -1    0    0  501    0  0.00000000000E+00  0.00000000000E+00  0.18499232021E+04  0.18499232021E+04  0.50400001928E-02 0.  1.
       -1   -1    0    0    0  501  0.00000000000E+00  0.00000000000E+00 -0.26568606161E+03  0.26568606165E+03  0.50400001928E-02 0. -1.
    10030    2    1    2    0    0  0.00000000000E+00  0.00000000000E+00  0.15842371405E+04  0.21156092638E+04  0.14021395222E+04 0.  0.
        3    1    3    3  502    0  0.23214779493E+03  0.62311270770E+03  0.11272610800E+04  0.13087702617E+04  0.10100000352E+00 0.  1.
       -3    1    3    3    0  502 -0.23214779493E+03 -0.62311270770E+03  0.45697606047E+03  0.80683900205E+03  0.10100000352E+00 0. -1.
</event>
<event>
 5   0  0.6114266E-04  0.1326792E+04  0.7818609E-02  0.9008585E-01
       -1   -1    0    0    0  501  0.00000000000E+00  0.00000000000E+00  0.37879103926E+03  0.37879103930E+03  0.50400001928E-02 0. -1.
        1   -1    0    0  501    0  0.00000000000E+00  0.00000000000E+00 -0.11618385865E+04  0.11618385865E+04  0.50400001928E-02 0.  1.
    10030    2    1    2    0    0  0.00000000000E+00  0.00000000000E+00 -0.78304754724E+03  0.15406296258E+04  0.13267916878E+04 0.  0.
        3    1    3    3  502    0 -0.24081370389E+03  0.55506036752E+03 -0.75628589562E+02  0.60975646396E+03  0.10100000352E+00 0.  1.
       -3    1    3    3    0  502  0.24081370389E+03 -0.55506036752E+03 -0.70741895768E+03  0.93087316186E+03  0.10100000352E+00 0. -1.
</event>
<event>
 5   0  0.1098949E-03  0.1419014E+04  0.7818609E-02  0.8940169E-01
        2   -1    0    0  501    0  0.00000000000E+00  0.00000000000E+00  0.61977052438E+03  0.61977052438E+03  0.25500000920E-02 0. -1.
       -2   -1    0    0    0  501  0.00000000000E+00  0.00000000000E+00 -0.81223680527E+03  0.81223680528E+03  0.25500000920E-02 0.  1.
    10030    2    1    2    0    0  0.00000000000E+00  0.00000000000E+00 -0.19246628089E+03  0.14320073297E+04  0.14190143491E+04 0.  0.
        4    1    3    3  502    0  0.46291502451E+03 -0.39554733441E+03  0.27131429547E+03  0.66660413553E+03  0.12699999809E+01 0. -1.
       -4    1    3    3    0  502 -0.46291502451E+03  0.39554733441E+03 -0.46378057637E+03  0.76540319413E+03  0.12699999809E+01 0.  1.
</event>
<event>
 5   0  0.6153318E-04  0.1352091E+04  0.7818609E-02  0.8989247E-01
        1   -1    0    0  501    0  0.00000000000E+00  0.00000000000E+00  0.60135584994E+03  0.60135584996E+03  0.50400001928E-02 0. -1.
       -1   -1    0    0    0  501  0.00000000000E+00  0.00000000000E+00 -0.76001206408E+03  0.76001206410E+03  0.50400001928E-02 0.  1.
    10030    2    1    2    0    0  0.00000000000E+00  0.00000000000E+00 -0.15865621415E+03  0.13613679141E+04  0.13520912703E+04 0.  0.
        5    1    3    3  502    0 -0.24615443379E+03  0.27665480842E+03 -0.64879296686E+03  0.74705039465E+03  0.46999998093E+01 0.  1.
       -5    1    3    3    0  502  0.24615443379E+03 -0.27665480842E+03  0.49013675271E+03  0.61431751941E+03  0.46999998093E+01 0. -1.
</event>
<event>
 5   0  0.4176125E-04  0.1387877E+04  0.7818609E-02  0.8962641E-01
       -3   -1    0    0    0  501  0.00000000000E+00  0.00000000000E+00  0.11940499597E+04  0.11940499639E+04  0.10100000352E+00 0.  1.
        3   -1    0    0  501    0  0.00000000000E+00  0.00000000000E+00 -0.40329194928E+03  0.40329196192E+03  0.10100000352E+00 0. -1.
    10030    2    1    2    0    0  0.00000000000E+00  0.00000000000E+00  0.79075801040E+03  0.15973419259E+04  0.13878771549E+04 0.  0.
        3    1    3    3  502    0 -0.30658182809E+02  0.69307557727E+03  0.41383185136E+03  0.80780597384E+03  0.10100000352E+00 0. -1.
       -3    1    3    3    0  502  0.30658182809E+02 -0.69307557727E+03  0.37692615904E+03  0.78953595203E+03  0.10100000352E+00 0.  1.
</event>
<event>
 5   0  0.6114266E-04  0.1439224E+04  0.7818609E-02  0.8925906E-01
       -1   -1    0    0    0  501  0.00000000000E+00  0.00000000000E+00  0.30198524948E+03  0.30198524952E+03  0.50400001928E-02 0.  1.
        1   -1    0    0  501    0  0.00000000000E+00  0.00000000000E+00 -0.17147898664E+04  0.17147898664E+04  0.50400001928E-02 0. -1.
    10030    2    1    2    0    0  0.00000000000E+00  0.00000000000E+00 -0.14128046170E+04  0.20167751160E+04  0.14392237431E+04 0.  0.
        3    1    3    3  502    0 -0.79849990680E+02  0.32471403365E+03 -0.15993090198E+04  0.16338924615E+04  0.10100000352E+00 0. -1.
       -3    1    3    3    0  502  0.79849990680E+02 -0.32471403365E+03  0.18650440281E+03  0.38288265452E+03  0.10100000352E+00 0.  1.
</event>
<event>
 5   0  0.4176125E-04  0.1389460E+04  0.7818609E-02  0.8961484E-01
        3   -1    0    0  501    0  0.00000000000E+00  0.00000000000E+00  0.21162898184E+03  0.21162900594E+03  0.10100000352E+00 0.  1.
       -3   -1    0    0    0  501  0.00000000000E+00  0.00000000000E+00 -0.22806399932E+04  0.22806399955E+04  0.10100000352E+00 0. -1.
    10030    2    1    2    0    0  0.00000000000E+00  0.00000000000E+00 -0.20690110114E+04  0.24922690014E+04  0.13894596828E+04 0.  0.
        4    1    3    3  502    0  0.41282088162E+03  0.51720617002E+03 -0.14138400367E+04  0.15610472654E+04  0.12699999809E+01 0. -1.
       -4    1    3    3    0  502 -0.41282088162E+03 -0.51720617002E+03 -0.65517097470E+03  0.93122173600E+03  0.12699999809E+01 0.  1.
</event>
<event>
 5   0  0.6114266E-04  0.1389435E+04  0.7818609E-02  0.8961502E-01
       -1   -1    0    0    0  501  0.00000000000E+00  0.00000000000E+00  0.66596266733E+03  0.66596266735E+03  0.50400001928E-02 0. -1.
        1   -1    0    0  501    0  0.00000000000E+00  0.00000000000E+00 -0.72471418142E+03  0.72471418144E+03  0.50400001928E-02 0.  1.
    10030    2    1    2    0    0  0.00000000000E+00  0.00000000000E+00 -0.58751514091E+02  0.13906768488E+04  0.13894352656E+04 0.  0.
        3    1    3    3  502    0  0.43815168994E+03 -0.53909173828E+03 -0.35362193334E+02  0.69559133160E+03  0.10100000352E+00 0. -1.
       -3    1    3    3    0  502 -0.43815168994E+03  0.53909173828E+03 -0.23389320757E+02  0.69508551719E+03  0.10100000352E+00 0.  1.
</event>
<event>
 5   0  0.1175146E-03  0.1385825E+04  0.7818609E-02  0.8964144E-01
       -2   -1    0    0    0  501  0.00000000000E+00  0.00000000000E+00  0.59295241903E+03  0.59295241904E+03  0.25500000920E-02 0.  1.
        2   -1    0    0  501    0  0.00000000000E+00  0.00000000000E+00 -0.80972381407E+03  0.80972381407E+03  0.25500000920E-02 0. -1.
    10030    2    1    2    0    0  0.00000000000E+00  0.00000000000E+00 -0.21677139503E+03  0.14026762331E+04  0.13858249447E+04 0.  0.
        1    1    3    3  502    0 -0.56283966668E+02 -0.26908190380E+03 -0.75216603799E+03  0.80082876108E+03  0.50400001928E-02 0. -1.
       -1    1    3    3    0  502  0.56283966668E+02  0.26908190380E+03  0.53539464295E+03  0.60184747202E+03  0.50400001928E-02 0.  1.
</event>
<event>
 5   0  0.6097538E-04  0.1413618E+04  0.7818609E-02  0.8944019E-01
       -1   -1    0    0    0  501  0.00000000000E+00  0.00000000000E+00  0.44450356450E+03  0.44450356453E+03  0.50400001928E-02 0. -1.
        1   -1    0    0  501    0  0.00000000000E+00  0.00000000000E+00 -0.11239039007E+04  0.11239039007E+04  0.50400001928E-02 0.  1.
    10030    2    1    2    0    0  0.00000000000E+00  0.00000000000E+00 -0.67940033618E+03  0.15684074652E+04  0.14136184634E+04 0.  0.
        2    1    3    3  502    0  0.44337563807E+02 -0.69418308082E+03 -0.47882313444E+03  0.84446880543E+03  0.25500000920E-02 0. -1.
       -2    1    3    3    0  502 -0.44337563807E+02  0.69418308082E+03 -0.20057720174E+03  0.72393865978E+03  0.25500000920E-02 0.  1.
</event>
<event>
 5   0  0.6114266E-04  0.1386666E+04  0.7818609E-02  0.8963527E-01
       -1   -1    0    0    0  501  0.00000000000E+00  0.00000000000E+00  0.91284683865E+03  0.91284683866E+03  0.50400001928E-02 0. -1.
        1   -1    0    0  501    0  0.00000000000E+00  0.00000000000E+00 -0.52660585457E+03  0.52660585460E+03  0.50400001928E-02 0.  1.
    10030    2    1    2    0    0  0.00000000000E+00  0.00000000000E+00  0.38624098408E+03  0.14394526933E+04  0.13866657702E+04 0.  0.
        3    1    3    3  502    0 -0.45715547883E+03 -0.52096396852E+03  0.21157040300E+03  0.72467691694E+03  0.10100000352E+00 0.  1.
       -3    1    3    3    0  502  0.45715547883E+03  0.52096396852E+03  0.17467058107E+03  0.71477577632E+03  0.10100000352E+00 0. -1.
</event>
<event>
 5   0  0.6097538E-04  0.1393966E+04  0.7818609E-02  0.8958198E-01
        1   -1    0    0  501    0  0.00000000000E+00  0.00000000000E+00  0.61803969862E+03  0.61803969864E+03  0.50400001928E-02 0.  1.
       -1   -1    0    0    0  501  0.00000000000E+00  0.00000000000E+00 -0.78601030213E+03  0.78601030214E+03  0.50400001928E-02 0. -1.
    10030    2    1    2    0    0  0.00000000000E+00  0.00000000000E+00 -0.16797060351E+03  0.14040500008E+04  0.13939663845E+04 0.  0.
        2    1    3    3  502    0 -0.57046502909E+03  0.14645887360E+03 -0.45938095765E+03  0.74693467942E+03  0.25500000920E-02 0. -1.
       -2    1    3    3    0  502  0.57046502909E+03 -0.14645887360E+03  0.29141035414E+03  0.65711532136E+03  0.25500000920E-02 0.  1.
</event>
<event>
 5   0  0.6114266E-04  0.1397711E+04  0.7818609E-02  0.8955477E-01
       -1   -1    0    0    0  501  0.00000000000E+00  0.00000000000E+00  0.45355589258E+03  0.45355589260E+03  0.50400001928E-02 0.  1.
        1   -1    0    0  501    0  0.00000000000E+00  0.00000000000E+00 -0.10768216860E+04  0.10768216860E+04  0.50400001928E-02 0. -1.
    10030    2    1    2    0    0  0.00000000000E+00  0.00000000000E+00 -0.62326579339E+03  0.15303775786E+04  0.13977107297E+04 0.  0.
        3    1    3    3  502    0 -0.69911400680E+00 -0.63729204864E+03  0.23949552313E+01  0.63729694024E+03  0.10100000352E+00 0.  1.
       -3    1    3    3    0  502  0.69911400680E+00  0.63729204864E+03 -0.62566074862E+03  0.89308063835E+03  0.10100000352E+00 0. -1.
</event>
<event>
 5   0  0.1095119E-03  0.1370970E+04  0.7818609E-02  0.8975104E-01
        2   -1    0    0  501    0  0.00000000000E+00  0.00000000000E+00  0.11924593215E+04  0.11924593215E+04  0.25500000920E-02 0. -1.
       -2   -1    0    0    0  501  0.00000000000E+00  0.00000000000E+00 -0.39405096834E+03  0.39405096835E+03  0.25500000920E-02 0.  1.
    10030    2    1    2    0    0  0.00000000000E+00  0.00000000000E+00  0.79840835320E+03  0.15865102899E+04  0.13709700950E+04 0.  0.
        5    1    3    3  502    0 -0.50846607601E+02  0.61020307567E+03  0.75575949667E+03  0.97269094673E+03  0.46999998093E+01 0. -1.
       -5    1    3    3    0  502  0.50846607601E+02 -0.61020307567E+03  0.42648856533E+02  0.61381934315E+03  0.46999998093E+01 0.  1.
</event>
<event>
 5   0  0.1175146E-03  0.1398893E+04  0.7818609E-02  0.8954620E-01
       -2   -1    0    0    0  501  0.00000000000E+00  0.00000000000E+00  0.36040478750E+03  0.36040478751E+03  0.25500000920E-02 0. -1.
        2   -1    0    0  501    0  0.00000000000E+00  0.00000000000E+00 -0.13574338202E+04  0.13574338202E+04  0.25500000920E-02 0.  1.
    10030    2    1    2    0    0  0.00000000000E+00  0.00000000000E+00 -0.99702903269E+03  0.17178386077E+04  0.13988933448E+04 0.  0.
        1    1    3    3  502    0 -0.59228461786E+03 -0.36771325538E+03 -0.56810574036E+03  0.89930986817E+03  0.50400001928E-02 0.  1.
       -1    1    3    3    0  502  0.59228461786E+03  0.36771325538E+03 -0.42892329234E+03  0.81852873955E+03  0.50400001928E-02 0. -1.
</event>
<event>
 5   0  0.5875298E-04  0.1411885E+04  0.7818609E-02  0.8945260E-01
       -1   -1    0    0    0  501  0.00000000000E+00  0.00000000000E+00  0.10531284598E+04  0.10531284598E+04  0.50400001928E-02 0.  1.
        1   -1    0    0  501    0  0.00000000000E+00  0.00000000000E+00 -0.47321398725E+03  0.47321398727E+03  0.50400001928E-02 0. -1.
    10030    2    1    2    0    0  0.00000000000E+00  0.00000000000E+00  0.57991447259E+03  0.15263424471E+04  0.14118854310E+04 0.  0.
        1    1    3    3  502    0 -0.11291305972E+03  0.37998738109E+03  0.92144771146E+03  0.10030980280E+04  0.50400001928E-02 0.  1.
       -1    1    3    3    0  502  0.11291305972E+03 -0.37998738109E+03 -0.34153323887E+03  0.52324441910E+03  0.50400001928E-02 0. -1.
</event>
<event>
 5   0  0.1120053E-03  0.1390382E+04  0.7818609E-02  0.8960810E-01
        2   -1    0    0  501    0  0.00000000000E+00  0.00000000000E+00  0.24868346754E+04  0.24868346754E+04  0.25500000920E-02 0. -1.
       -2   -1    0    0    0  501  0.00000000000E+00  0.00000000000E+00 -0.19433950893E+03  0.19433950895E+03  0.25500000920E-02 0.  1.
    10030    2    1    2    0    0  0.00000000000E+00  0.00000000000E+00  0.22924951665E+04  0.26811741844E+04  0.13903815730E+04 0.  0.
        2    1    3    3  502    0  0.20273130198E+03  0.17084660136E+03 -0.93025277229E+02  0.28096662472E+03  0.25500000920E-02 0.  1.
       -2    1    3    3    0  502 -0.20273130198E+03 -0.17084660136E+03  0.23855204437E+04  0.24002075596E+04  0.25500000920E-02 0. -1.
</event>
<event>
 5   0  0.1095119E-03  0.1389817E+04  0.7818609E-02  0.8961223E-01
        2   -1    0    0  501    0  0.00000000000E+00  0.00000000000E+00  0.13195544139E+04  0.13195544139E+04  0.25500000920E-02 0.  1.
       -2   -1    0    0    0  501  0.00000000000E+00  0.00000000000E+00 -0.36595523469E+03  0.36595523470E+03  0.25500000920E-02 0. -1.
    10030    2    1    2    0    0  0.00000000000E+00  0.00000000000E+00  0.95359917919E+03  0.16855096486E+04  0.13898170315E+04 0.  0.
        5    1    3    3  502    0 -0.33868271701E+03  0.11498559453E+03  0.11993298367E+04  0.12515357833E+04  0.46999998093E+01 0.  1.
       -5    1    3    3    0  502  0.33868271701E+03 -0.11498559453E+03 -0.24573065746E+03  0.43397386530E+03  0.46999998093E+01 0. -1.
</event>
<event>
 5   0  0.6097538E-04  0.1400860E+04  0.7818609E-02  0.8953196E-01
        1   -1    0    0  501    0  0.00000000000E+00  0.00000000000E+00  0.16561160576E+04  0.16561160576E+04  0.50400001928E-02 0.  1.
       -1   -1    0    0    0  501  0.00000000000E+00  0.00000000000E+00 -0.29623664806E+03  0.29623664810E+03  0.50400001928E-02 0. -1.
    10030    2    1    2    0    0  0.00000000000E+00  0.00000000000E+00  0.13598794095E+04  0.19523527057E+04  0.14008601211E+04 0.  0.
        2    1    3    3  502    0  0.37561138960E+03 -0.40100784407E+03  0.12853672645E+04  0.13978770374E+04  0.25500000920E-02 0.  1.
       -2    1    3    3    0  502 -0.37561138960E+03  0.40100784407E+03  0.74512145050E+02  0.55447566833E+03  0.25500000920E-02 0. -1.
</event>
<event>
 5   0  0.1120053E-03  0.1396135E+04  0.7818609E-02  0.8956621E-01
        2   -1    0    0  501    0  0.00000000000E+00  0.00000000000E+00  0.81363593571E+03  0.81363593571E+03  0.25500000920E-02 0. -1.
       -2   -1    0    0    0  501  0.00000000000E+00  0.00000000000E+00 -0.59891467000E+03  0.59891467000E+03  0.25500000920E-02 0.  1.
    10030    2    1    2    0    0  0.00000000000E+00  0.00000000000E+00  0.21472126571E+03  0.14125506057E+04  0.13961353773E+04 0.  0.
        2    1    3    3  502    0 -0.21376311778E+03  0.35890245399E+03 -0.45849402660E+03  0.62025995715E+03  0.25500000920E-02 0.  1.
       -2    1    3    3    0  502  0.21376311778E+03 -0.35890245399E+03  0.67321529231E+03  0.79229064857E+03  0.25500000920E-02 0. -1.
</event>
<event>
 5   0  0.1108819E-03  0.1390363E+04  0.7818609E-02  0.8960824E-01
       -2   -1    0    0    0  501  0.00000000000E+00  0.00000000000E+00  0.68082544584E+03  0.68082544584E+03  0.25500000920E-02 0.  1.
        2   -1    0    0  501    0  0.00000000000E+00  0.00000000000E+00 -0.70984071232E+03  0.70984071233E+03  0.25500000920E-02 0. -1.
    10030    2    1    2    0    0  0.00000000000E+00  0.00000000000E+00 -0.29015266483E+02  0.13906661582E+04  0.13903634337E+04 0.  0.
        3    1    3    3  502    0  0.51560689977E+03 -0.16599566266E+03 -0.45034621027E+03  0.70442654295E+03  0.10100000352E+00 0. -1.
       -3    1    3    3    0  502 -0.51560689977E+03  0.16599566266E+03  0.42133094379E+03  0.68623961522E+03  0.10100000352E+00 0.  1.
</event>
<event>
 5   0  0.4176125E-04  0.1405596E+04  0.7818609E-02  0.8949778E-01
        3   -1    0    0  501    0  0.00000000000E+00  0.00000000000E+00  0.31750383335E+03  0.31750384942E+03  0.10100000352E+00 0. -1.
       -3   -1    0    0    0  501  0.00000000000E+00  0.00000000000E+00 -0.15556514490E+04  0.15556514522E+04  0.10100000352E+00 0.  1.
    10030    2    1    2    0    0  0.00000000000E+00  0.00000000000E+00 -0.12381476156E+04  0.18731553017E+04  0.14055964094E+04 0.  0.
        2    1    3    3  502    0 -0.61561717234E+03 -0.91089077505E+02 -0.18388217949E+03  0.64891785217E+03  0.25500000920E-02 0. -1.
       -2    1    3    3    0  502  0.61561717234E+03  0.91089077505E+02 -0.10542654361E+04  0.12242374495E+04  0.25500000920E-02 0.  1.
</event>
<event>
 5   0  0.6153318E-04  0.1397488E+04  0.7818609E-02  0.8955639E-01
       -1   -1    0    0    0  501  0.00000000000E+00  0.00000000000E+00  0.12118293621E+04  0.12118293621E+04  0.50400001928E-02 0. -1.
        1   -1    0    0  501    0  0.00000000000E+00  0.00000000000E+00 -0.40289759217E+03  0.40289759220E+03  0.50400001928E-02 0.  1.
    10030    2    1    2    0    0  0.00000000000E+00  0.00000000000E+00  0.80893176991E+03  0.16147269543E+04  0.13974879350E+04 0.  0.
        5    1    3    3  502    0 -0.35407848074E+03 -0.58524718081E+03  0.23969694503E+03  0.72481897646E+03  0.46999998093E+01 0.  1.
       -5    1    3    3    0  502  0.35407848074E+03  0.58524718081E+03  0.56923482488E+03  0.88990797784E+03  0.46999998093E+01 0. -1.
</event>
<event>
 5   0  0.1175146E-03  0.1381065E+04  0.7818609E-02  0.8967640E-01
        2   -1    0    0  501    0  0.00000000000E+00  0.00000000000E+00  0.10374950375E+04  0.10374950375E+04  0.25500000920E-02 0.  1.
       -2   -1    0    0    0  501  0.00000000000E+00  0.00000000000E+00 -0.45960242175E+03  0.45960242175E+03  0.25500000920E-02 0. -1.
    10030    2    1    2    0    0  0.00000000000E+00  0.00000000000E+00  0.57789261579E+03  0.14970974593E+04  0.13810651423E+04 0.  0.
        1    1    3    3  502    0 -0.27289670678E+03 -0.63073820265E+03  0.36192195148E+03  0.77671796158E+03  0.50400001928E-02 0.  1.
       -1    1    3    3    0  502  0.27289670678E+03  0.63073820265E+03  0.21597066431E+03  0.72037949771E+03  0.50400001928E-02 0. -1.
</event>
<event>
 5   0  0.6194742E-04  0.1401516E+04  0.7818609E-02  0.8952722E-01
       -1   -1    0    0    0  501  0.00000000000E+00  0.00000000000E+00  0.19840601341E+03  0.19840601348E+03  0.50400001928E-02 0. -1.
        1   -1    0    0  501    0  0.00000000000E+00  0.00000000000E+00 -0.24750343623E+04  0.24750343623E+04  0.50400001928E-02 0.  1.
    10030    2    1    2    0    0  0.00000000000E+00  0.00000000000E+00 -0.22766283488E+04  0.26734403757E+04  0.14015158950E+04 0.  0.
        4    1    3    3  502    0 -0.19088103651E+03  0.22556179531E+03 -0.23503816669E+04  0.23688835527E+04  0.12699999809E+01 0.  1.
       -4    1    3    3    0  502  0.19088103651E+03 -0.22556179531E+03  0.73753318033E+02  0.30455682298E+03  0.12699999809E+01 0. -1.
</event>
<event>
 5   0  0.6097538E-04  0.1392796E+04  0.7818609E-02  0.8959050E-01
       -1   -1    0    0    0  501  0.00000000000E+00  0.00000000000E+00  0.29654175006E+03  0.29654175010E+03  0.50400001928E-02 0.  1.
        1   -1    0    0  501    0  0.00000000000E+00  0.00000000000E+00 -0.16354200218E+04  0.16354200218E+04  0.50400001928E-02 0. -1.
    10030    2    1    2    0    0  0.00000000000E+00  0.00000000000E+00 -0.13388782718E+04  0.19319617719E+04  0.13927962025E+04 0.  0.
        2    1    3    3  502    0 -0.45021260784E+03  0.56764536185E+01  0.67489430594E+02  0.45527841771E+03  0.25500000920E-02 0.  1.
       -2    1    3    3    0  502  0.45021260784E+03 -0.56764536185E+01 -0.14063677024E+04  0.14766833542E+04  0.25500000920E-02 0. -1.
</event>
<event>
 5   0  0.1098949E-03  0.1344595E+04  0.7818609E-02  0.8994930E-01
        2   -1    0    0  501    0  0.00000000000E+00  0.00000000000E+00  0.17268936097E+04  0.17268936097E+04  0.25500000920E-02 0.  1.
       -2   -1    0    0    0  501  0.00000000000E+00  0.00000000000E+00 -0.26173219032E+03  0.26173219033E+03  0.25500000920E-02 0. -1.
    10030    2    1    2    0    0  0.00000000000E+00  0.00000000000E+00  0.14651614194E+04  0.19886258001E+04  0.13445945812E+04 0.  0.
        4    1    3    3  502    0 -0.12331702273E+03 -0.56068436640E+03  0.21513285436E+03  0.61307243026E+03  0.12699999809E+01 0. -1.
       -4    1    3    3    0  502  0.12331702273E+03  0.56068436640E+03  0.12500285651E+04  0.13755533698E+04  0.12699999809E+01 0.  1.
</event>
<event>
 5   0  0.1120053E-03  0.1414618E+04  0.7818609E-02  0.8943305E-01
       -2   -1    0    0    0  501  0.00000000000E+00  0.00000000000E+00  0.50197725823E+03  0.50197725824E+03  0.25500000920E-02 0. -1.
        2   -1    0    0  501    0  0.00000000000E+00  0.00000000000E+00 -0.99663094787E+03  0.99663094787E+03  0.25500000920E-02 0.  1.
    10030    2    1    2    0    0  0.00000000000E+00  0.00000000000E+00 -0.49465368964E+03  0.14986082061E+04  0.14146180696E+04 0.  0.
        2    1    3    3  502    0 -0.37148314976E+03 -0.16583257033E+03 -0.86028733751E+03  0.95162727737E+03  0.25500000920E-02 0.  1.
       -2    1    3    3    0  502  0.37148314976E+03  0.16583257033E+03  0.36563364788E+03  0.54698092874E+03  0.25500000920E-02 0. -1.
</event>
<event>
 5   0  0.1095119E-03  0.1389106E+04  0.7818609E-02  0.8961742E-01
        2   -1    0    0  501    0  0.00000000000E+00  0.00000000000E+00  0.17534575167E+04  0.17534575167E+04  0.25500000920E-02 0.  1.
       -2   -1    0    0    0  501  0.00000000000E+00  0.00000000000E+00 -0.27511576139E+03  0.27511576140E+03  0.25500000920E-02 0. -1.
    10030    2    1    2    0    0  0.00000000000E+00  0.00000000000E+00  0.14783417553E+04  0.20285732781E+04  0.13891058992E+04 0.  0.
        5    1    3    3  502    0 -0.45680883976E+03 -0.50329298028E+03  0.94776805270E+03  0.11663037820E+04  0.46999998093E+01 0.  1.
       -5    1    3    3    0  502  0.45680883976E+03  0.50329298028E+03  0.53057370260E+03  0.86226949614E+03  0.46999998093E+01 0. -1.
</event>
<event>
 5   0  0.4176125E-04  0.1403558E+04  0.7818609E-02  0.8951247E-01
        4   -1    0    0  501    0  0.00000000000E+00  0.00000000000E+00  0.13287568354E+04  0.13287574423E+04  0.12699999809E+01 0. -1.
       -4   -1    0    0    0  501  0.00000000000E+00  0.00000000000E+00 -0.37064048256E+03  0.37064265838E+03  0.12699999809E+01 0.  1.
    10030    2    1    2    0    0  0.00000000000E+00  0.00000000000E+00  0.95811635283E+03  0.16994001007E+04  0.14035575359E+04 0.  0.
        5    1    3    3  502    0 -0.93911772124E+02 -0.41561646897E+03  0.11541862574E+04  0.12303351076E+04  0.46999998093E+01 0. -1.
       -5    1    3    3    0  502  0.93911772124E+02  0.41561646897E+03 -0.19606990460E+03  0.46906499306E+03  0.46999998093E+01 0.  1.
</event>
<event>
 5   0  0.1098949E-03  0.1416117E+04  0.7818609E-02  0.8942234E-01
        2   -1    0    0  501    0  0.00000000000E+00  0.00000000000E+00  0.16507973942E+04  0.16507973942E+04  0.25500000920E-02 0. -1.
       -2   -1    0    0    0  501  0.00000000000E+00  0.00000000000E+00 -0.30369982032E+03  0.30369982033E+03  0.25500000920E-02 0.  1.
    10030    2    1    2    0    0  0.00000000000E+00  0.00000000000E+00  0.13470975739E+04  0.19544972146E+04  0.14161170460E+04 0.  0.
        4    1    3    3  502    0 -0.43292245186E+03  0.21062286128E+03  0.13901289363E+04  0.14711369451E+04  0.12699999809E+01 0. -1.
       -4    1    3    3    0  502  0.43292245186E+03 -0.21062286128E+03 -0.43031362350E+02  0.48336026943E+03  0.12699999809E+01 0.  1.
</event>
<event>
 5   0  0.1108819E-03  0.1628924E+04  0.7818609E-02  0.8802973E-01
        2   -1    0    0  501    0  0.00000000000E+00  0.00000000000E+00  0.11646035412E+04  0.11646035412E+04  0.25500000920E-02 0.  1.
       -2   -1    0    0    0  501  0.00000000000E+00  0.00000000000E+00 -0.56959155407E+03  0.56959155407E+03  0.25500000920E-02 0. -1.
    10030    2    1    2    0    0  0.00000000000E+00  0.00000000000E+00  0.59501198717E+03  0.17341950953E+04  0.16289239896E+04 0.  0.
        3    1    3    3  502    0  0.59896385932E+03 -0.52221548836E+03  0.10741249903E+03  0.80187541190E+03  0.10100000352E+00 0.  1.
       -3    1    3    3    0  502 -0.59896385932E+03  0.52221548836E+03  0.48759948814E+03  0.93231968342E+03  0.10100000352E+00 0. -1.
</event>
<event>
 5   0  0.6114266E-04  0.1394420E+04  0.7818609E-02  0.8957868E-01
        1   -1    0    0  501    0  0.00000000000E+00  0.00000000000E+00  0.11656211797E+04  0.11656211797E+04  0.50400001928E-02 0.  1.
       -1   -1    0    0    0  501  0.00000000000E+00  0.00000000000E+00 -0.41703215553E+03  0.41703215556E+03  0.50400001928E-02 0. -1.
    10030    2    1    2    0    0  0.00000000000E+00  0.00000000000E+00  0.74858902416E+03  0.15826533353E+04  0.13944196114E+04 0.  0.
        3    1    3    3  502    0  0.34777438569E+03 -0.19696163463E+03  0.10226917747E+04  0.10980161133E+04  0.10100000352E+00 0.  1.
       -3    1    3    3    0  502 -0.34777438569E+03  0.19696163463E+03 -0.27410275053E+03  0.48463722196E+03  0.10100000352E+00 0. -1.
</event>
<event>
 5   0  0.1108819E-03  0.1412495E+04  0.7818609E-02  0.8944823E-01
       -2   -1    0    0    0  501  0.00000000000E+00  0.00000000000E+00  0.42218077708E+03  0.42218077709E+03  0.25500000920E-02 0.  1.
        2   -1    0    0  501    0  0.00000000000E+00  0.00000000000E+00 -0.11814501744E+04  0.11814501744E+04  0.25500000920E-02 0. -1.
    10030    2    1    2    0    0  0.00000000000E+00  0.00000000000E+00 -0.75926939732E+03  0.16036309515E+04  0.14124950304E+04 0.  0.
        3    1    3    3  502    0 -0.39058483467E+03 -0.40349233091E+03 -0.86586761985E+03  0.10320316465E+04  0.10100000352E+00 0. -1.
       -3    1    3    3    0  502  0.39058483467E+03  0.40349233091E+03  0.10659822253E+03  0.57159930495E+03  0.10100000352E+00 0.  1.
</event>
<event>
 5   0  0.6097538E-04  0.1361257E+04  0.7818609E-02  0.8982350E-01
        1   -1    0    0  501    0  0.00000000000E+00  0.00000000000E+00  0.44595078977E+03  0.44595078980E+03  0.50400001928E-02 0.  1.
       -1   -1    0    0    0  501  0.00000000000E+00  0.00000000000E+00 -0.10388028526E+04  0.10388028526E+04  0.50400001928E-02 0. -1.
    10030    2    1    2    0    0  0.00000000000E+00  0.00000000000E+00 -0.59285206280E+03  0.14847536424E+04  0.13612567025E+04 0.  0.
        2    1    3    3  502    0  0.20684773150E+03 -0.43697308803E+02 -0.10020819315E+04  0.10241404378E+04  0.25500000920E-02 0. -1.
       -2    1    3    3    0  502 -0.20684773150E+03  0.43697308803E+02  0.40922986870E+03  0.46061320461E+03  0.25500000920E-02 0.  1.
</event>
<event>
 5   0  0.5875298E-04  0.1396676E+04  0.7818609E-02  0.8956228E-01
        1   -1    0    0  501    0  0.00000000000E+00  0.00000000000E+00  0.83488097855E+03  0.83488097857E+03  0.50400001928E-02 0. -1.
       -1   -1    0    0    0  501  0.00000000000E+00  0.00000000000E+00 -0.58412651913E+03  0.58412651915E+03  0.50400001928E-02 0.  1.
    10030    2    1    2    0    0  0.00000000000E+00  0.00000000000E+00  0.25075445942E+03  0.14190074977E+04  0.13966762258E+04 0.  0.
        1    1    3    3  502    0 -0.30095098885E+02 -0.11965908009E+02  0.83411756450E+03  0.83474607478E+03  0.50400001928E-02 0. -1.
       -1    1    3    3    0  502  0.30095098885E+02  0.11965908009E+02 -0.58336310508E+03  0.58426142293E+03  0.50400001928E-02 0.  1.
</event>
<event>
 5   0  0.1098949E-03  0.1394591E+04  0.7818609E-02  0.8957743E-01
        2   -1    0    0  501    0  0.00000000000E+00  0.00000000000E+00  0.85298486612E+03  0.85298486613E+03  0.25500000920E-02 0.  1.
       -2   -1    0    0    0  501  0.00000000000E+00  0.00000000000E+00 -0.57002305116E+03  0.57002305117E+03  0.25500000920E-02 0. -1.
    10030    2    1    2    0    0  0.00000000000E+00  0.00000000000E+00  0.28296181496E+03  0.14230079173E+04  0.13945910311E+04 0.  0.
        4    1    3    3  502    0  0.32452632184E+03  0.49779897549E+03  0.51374114755E+03  0.78552704165E+03  0.12699999809E+01 0.  1.
       -4    1    3    3    0  502 -0.32452632184E+03 -0.49779897549E+03 -0.23077933259E+03  0.63748087565E+03  0.12699999809E+01 0. -1.
</event>
<event>
 5   0  0.1098949E-03  0.1409046E+04  0.7818609E-02  0.8947296E-01
       -2   -1    0    0    0  501  0.00000000000E+00  0.00000000000E+00  0.59700858955E+03  0.59700858956E+03  0.25500000920E-02 0.  1.
        2   -1    0    0  501    0  0.00000000000E+00  0.00000000000E+00 -0.83140000150E+03  0.83140000150E+03  0.25500000920E-02 0. -1.
    10030    2    1    2    0    0  0.00000000000E+00  0.00000000000E+00 -0.23439141195E+03  0.14284085911E+04  0.14090464041E+04 0.  0.
        4    1    3    3  502    0 -0.60443903819E+03 -0.23720380041E+03 -0.39433696957E+03  0.75968115173E+03  0.12699999809E+01 0. -1.
       -4    1    3    3    0  502  0.60443903819E+03  0.23720380041E+03  0.15994555763E+03  0.66872743933E+03  0.12699999809E+01 0.  1.
</event>
<event>
 5   0  0.1098949E-03  0.1405569E+04  0.7818609E-02  0.8949797E-01
       -2   -1    0    0    0  501  0.00000000000E+00  0.00000000000E+00  0.51230596399E+03  0.51230596400E+03  0.25500000920E-02 0.  1.
        2   -1    0    0  501    0  0.00000000000E+00  0.00000000000E+00 -0.96408389418E+03  0.96408389418E+03  0.25500000920E-02 0. -1.
    10030    2    1    2    0    0  0.00000000000E+00  0.00000000000E+00 -0.45177793018E+03  0.14763898582E+04  0.14055688226E+04 0.  0.
        4    1    3    3  502    0  0.33705244328E+03 -0.94898793003E+02  0.41415235447E+03  0.54234114360E+03  0.12699999809E+01 0.  1.
       -4    1    3    3    0  502 -0.33705244328E+03  0.94898793003E+02 -0.86593028465E+03  0.93404871458E+03  0.12699999809E+01 0. -1.
</event>
<event>
 5   0  0.4176125E-04  0.1400011E+04  0.7818609E-02  0.8953811E-01
       -3   -1    0    0    0  501  0.00000000000E+00  0.00000000000E+00  0.11602569409E+04  0.11602569453E+04  0.10100000352E+00 0. -1.
        3   -1    0    0  501    0  0.00000000000E+00  0.00000000000E+00 -0.42232691983E+03  0.42232693191E+03  0.10100000352E+00 0.  1.
    10030    2    1    2    0    0  0.00000000000E+00  0.00000000000E+00  0.73793002109E+03  0.15825838772E+04  0.14000110758E+04 0.  0.
        3    1    3    3  502    0 -0.60906001461E+02 -0.62359989439E+03  0.72179247997E+03  0.95580895771E+03  0.10100000352E+00 0. -1.
       -3    1    3    3    0  502  0.60906001461E+02  0.62359989439E+03  0.16137541124E+02  0.62677491951E+03  0.10100000352E+00 0.  1.
</event>
<event>
 5   0  0.5875298E-04  0.1394250E+04  0.7818609E-02  0.8957991E-01
        1   -1    0    0  501    0  0.00000000000E+00  0.00000000000E+00  0.11966588101E+04  0.11966588101E+04  0.50400001928E-02 0. -1.
       -1   -1    0    0    0  501  0.00000000000E+00  0.00000000000E+00 -0.40611693285E+03  0.40611693288E+03  0.50400001928E-02 0.  1.
    10030    2    1    2    0    0  0.00000000000E+00  0.00000000000E+00  0.79054187728E+03  0.16027757430E+04  0.13942502009E+04 0.  0.
        1    1    3    3  502    0 -0.47990062218E+02  0.50527674138E+03  0.94463097308E+03  0.10723503657E+04  0.50400001928E-02 0. -1.
       -1    1    3    3    0  502  0.47990062218E+02 -0.50527674138E+03 -0.15408909580E+03  0.53042537733E+03  0.50400001928E-02 0.  1.
</event>
<event>
 5   0  0.4176125E-04  0.1391802E+04  0.7818609E-02  0.8959774E-01
       -3   -1    0    0    0  501  0.00000000000E+00  0.00000000000E+00  0.56212757824E+03  0.56212758732E+03  0.10100000352E+00 0.  1.
        3   -1    0    0  501    0  0.00000000000E+00  0.00000000000E+00 -0.86150906539E+03  0.86150907131E+03  0.10100000352E+00 0. -1.
    10030    2    1    2    0    0  0.00000000000E+00  0.00000000000E+00 -0.29938148715E+03  0.14236366586E+04  0.13918017319E+04 0.  0.
        5    1    3    3  502    0  0.26878660735E+03 -0.43750815117E+02  0.50534397436E+03  0.57406880818E+03  0.46999998093E+01 0.  1.
       -5    1    3    3    0  502 -0.26878660735E+03  0.43750815117E+02 -0.80472546150E+03  0.84956785044E+03  0.46999998093E+01 0. -1.
</event>
<event>
 5   0  0.1108819E-03  0.1391670E+04  0.7818609E-02  0.8959870E-01
       -2   -1    0    0    0  501  0.00000000000E+00  0.00000000000E+00  0.86053491583E+03  0.86053491583E+03  0.25500000920E-02 0. -1.
        2   -1    0    0  501    0  0.00000000000E+00  0.00000000000E+00 -0.56265766820E+03  0.56265766820E+03  0.25500000920E-02 0.  1.
    10030    2    1    2    0    0  0.00000000000E+00  0.00000000000E+00  0.29787724763E+03  0.14231925840E+04  0.13916703189E+04 0.  0.
        3    1    3    3  502    0  0.54799912482E+03  0.22700032869E+02  0.58685314813E+03  0.80325273730E+03  0.10100000352E+00 0.  1.
       -3    1    3    3    0  502 -0.54799912482E+03 -0.22700032869E+02 -0.28897590050E+03  0.61993984674E+03  0.10100000352E+00 0. -1.
</event>
<event>
 5   0  0.1108819E-03  0.1402530E+04  0.7818609E-02  0.8951990E-01
       -2   -1    0    0    0  501  0.00000000000E+00  0.00000000000E+00  0.74516412003E+03  0.74516412003E+03  0.25500000920E-02 0. -1.
        2   -1    0    0  501    0  0.00000000000E+00  0.00000000000E+00 -0.65995168530E+03  0.65995168530E+03  0.25500000920E-02 0.  1.
    10030    2    1    2    0    0  0.00000000000E+00  0.00000000000E+00  0.85212434730E+02  0.14051158053E+04  0.14025295959E+04 0.  0.
        3    1    3    3  502    0 -0.27285648372E+03 -0.44355609142E+03 -0.42791888301E+03  0.67402318030E+03  0.10100000352E+00 0.  1.
       -3    1    3    3    0  502  0.27285648372E+03  0.44355609142E+03  0.51313131774E+03  0.73109262504E+03  0.10100000352E+00 0. -1.
</event>
<event>
 5   0  0.6097538E-04  0.1415095E+04  0.7818609E-02  0.8942964E-01
       -1   -1    0    0    0  501  0.00000000000E+00  0.00000000000E+00  0.43892842257E+03  0.43892842260E+03  0.50400001928E-02 0.  1.
        1   -1    0    0  501    0  0.00000000000E+00  0.00000000000E+00 -0.11405589757E+04  0.11405589757E+04  0.50400001928E-02 0. -1.
    10030    2    1    2    0    0  0.00000000000E+00  0.00000000000E+00 -0.70163055309E+03  0.15794873983E+04  0.14150954061E+04 0.  0.
        2    1    3    3  502    0  0.25964986401E+03  0.30702089624E+03 -0.10006371648E+04  0.10784037362E+04  0.25500000920E-02 0. -1.
       -2    1    3    3    0  502 -0.25964986401E+03 -0.30702089624E+03  0.29900661168E+03  0.50108366212E+03  0.25500000920E-02 0.  1.
</event>
<event>
 5   0  0.5875298E-04  0.1403517E+04  0.7818609E-02  0.8951277E-01
       -1   -1    0    0    0  501  0.00000000000E+00  0.00000000000E+00  0.43644993813E+03  0.43644993816E+03  0.50400001928E-02 0.  1.
        1   -1    0    0  501    0  0.00000000000E+00  0.00000000000E+00 -0.11283423874E+04  0.11283423874E+04  0.50400001928E-02 0. -1.
    10030    2    1    2    0    0  0.00000000000E+00  0.00000000000E+00 -0.69189244923E+03  0.15647923255E+04  0.14035169613E+04 0.  0.
        1    1    3    3  502    0  0.67176879121E+03  0.83826352788E+01 -0.57203183579E+03  0.88236273641E+03  0.50400001928E-02 0. -1.
       -1    1    3    3    0  502 -0.67176879121E+03 -0.83826352788E+01 -0.11986061343E+03  0.68242958911E+03  0.50400001928E-02 0.  1.
</event>
<event>
 5   0  0.6097538E-04  0.1393960E+04  0.7818609E-02  0.8958202E-01
       -1   -1    0    0    0  501  0.00000000000E+00  0.00000000000E+00  0.54523991418E+03  0.54523991421E+03  0.50400001928E-02 0. -1.
        1   -1    0    0  501    0  0.00000000000E+00  0.00000000000E+00 -0.89094893307E+03  0.89094893309E+03  0.50400001928E-02 0.  1.
    10030    2    1    2    0    0  0.00000000000E+00  0.00000000000E+00 -0.34570901889E+03  0.14361888473E+04  0.13939597122E+04 0.  0.
        2    1    3    3  502    0  0.37474322980E+02  0.15375806234E+03  0.52648321383E+03  0.54975489181E+03  0.25500000920E-02 0. -1.
       -2    1    3    3    0  502 -0.37474322980E+02 -0.15375806234E+03 -0.87219223272E+03  0.88643395548E+03  0.25500000920E-02 0.  1.
</event>
<event>
 5   0  0.1108819E-03  0.1413366E+04  0.7818609E-02  0.8944200E-01
       -2   -1    0    0    0  501  0.00000000000E+00  0.00000000000E+00  0.31354005300E+03  0.31354005301E+03  0.25500000920E-02 0. -1.
        2   -1    0    0  501    0  0.00000000000E+00  0.00000000000E+00 -0.15927819369E+04  0.15927819369E+04  0.25500000920E-02 0.  1.
    10030    2    1    2    0    0  0.00000000000E+00  0.00000000000E+00 -0.12792418839E+04  0.19063219899E+04  0.14133660996E+04 0.  0.
        3    1    3    3  502    0  0.37480923016E+03  0.48311857530E+03 -0.11174693073E+04  0.12738222716E+04  0.10100000352E+00 0.  1.
       -3    1    3    3    0  502 -0.37480923016E+03 -0.48311857530E+03 -0.16177257658E+03  0.63249971822E+03  0.10100000352E+00 0. -1.
</event>
<event>
 5   0  0.6097538E-04  0.1404848E+04  0.7818609E-02  0.8950317E-01
        1   -1    0    0  501    0  0.00000000000E+00  0.00000000000E+00  0.69303389976E+03  0.69303389978E+03  0.50400001928E-02 0.  1.
       -1   -1    0    0    0  501  0.00000000000E+00  0.00000000000E+00 -0.71194098805E+03  0.71194098807E+03  0.50400001928E-02 0. -1.
    10030    2    1    2    0    0  0.00000000000E+00  0.00000000000E+00 -0.18907088286E+02  0.14049748879E+04  0.14048476635E+04 0.  0.
        2    1    3    3  502    0 -0.50010657499E+03 -0.19488406464E+03 -0.46260919370E+03  0.70858566956E+03  0.25500000920E-02 0. -1.
       -2    1    3    3    0  502  0.50010657499E+03  0.19488406464E+03  0.44370210541E+03  0.69638921829E+03  0.25500000920E-02 0.  1.
</event>
<event>
 5   0  0.1098949E-03  0.1407775E+04  0.7818609E-02  0.8948210E-01
       -2   -1    0    0    0  501  0.00000000000E+00  0.00000000000E+00  0.55668004055E+03  0.55668004056E+03  0.25500000920E-02 0. -1.
        2   -1    0    0  501    0  0.00000000000E+00  0.00000000000E+00 -0.89002247220E+03  0.89002247220E+03  0.25500000920E-02 0.  1.
    10030    2    1    2    0    0  0.00000000000E+00  0.00000000000E+00 -0.33334243164E+03  0.14467025128E+04  0.14077751893E+04 0.  0.
        4    1    3    3  502    0  0.39586646261E+03  0.26393222061E+03 -0.69974976333E+03  0.84618072389E+03  0.12699999809E+01 0.  1.
       -4    1    3    3    0  502 -0.39586646261E+03 -0.26393222061E+03  0.36640733169E+03  0.60052178887E+03  0.12699999809E+01 0. -1.
</event>
<event>
 5   0  0.6114266E-04  0.1400043E+04  0.7818609E-02  0.8953787E-01
        1   -1    0    0  501    0  0.00000000000E+00  0.00000000000E+00  0.99841452785E+03  0.99841452786E+03  0.50400001928E-02 0. -1.
       -1   -1    0    0    0  501  0.00000000000E+00  0.00000000000E+00 -0.49080849239E+03  0.49080849241E+03  0.50400001928E-02 0.  1.
    10030    2    1    2    0    0  0.00000000000E+00  0.00000000000E+00  0.50760603546E+03  0.14892230203E+04  0.14000433268E+04 0.  0.
        3    1    3    3  502    0  0.46439738380E+02  0.21656465275E+03  0.96016037307E+03  0.98537548698E+03  0.10100000352E+00 0. -1.
       -3    1    3    3    0  502 -0.46439738380E+02 -0.21656465275E+03 -0.45255433761E+03  0.50384753330E+03  0.10100000352E+00 0.  1.
</event>
<event>
 5   0  0.5875298E-04  0.1402518E+04  0.7818609E-02  0.8951998E-01
       -1   -1    0    0    0  501  0.00000000000E+00  0.00000000000E+00  0.78047869723E+03  0.78047869725E+03  0.50400001928E-02 0.  1.
        1   -1    0    0  501    0  0.00000000000E+00  0.00000000000E+00 -0.63008032990E+03  0.63008032992E+03  0.50400001928E-02 0. -1.
    10030    2    1    2    0    0  0.00000000000E+00  0.00000000000E+00  0.15039836733E+03  0.14105590272E+04  0.14025181283E+04 0.  0.
        1    1    3    3  502    0 -0.66735937143E+01  0.47792833935E+03 -0.44087449349E+03  0.65025406838E+03  0.50400001928E-02 0. -1.
       -1    1    3    3    0  502  0.66735937143E+01 -0.47792833935E+03  0.59127286082E+03  0.76030495880E+03  0.50400001928E-02 0.  1.
</event>
<event>
 5   0  0.1098949E-03  0.1410087E+04  0.7818609E-02  0.8946549E-01
       -2   -1    0    0    0  501  0.00000000000E+00  0.00000000000E+00  0.65190042124E+03  0.65190042124E+03  0.25500000920E-02 0.  1.
        2   -1    0    0  501    0  0.00000000000E+00  0.00000000000E+00 -0.76251876758E+03  0.76251876758E+03  0.25500000920E-02 0. -1.
    10030    2    1    2    0    0  0.00000000000E+00  0.00000000000E+00 -0.11061834634E+03  0.14144191888E+04  0.14100869559E+04 0.  0.
        4    1    3    3  502    0  0.10559960805E+03 -0.32298903935E+03  0.56433585468E+03  0.65874863684E+03  0.12699999809E+01 0.  1.
       -4    1    3    3    0  502 -0.10559960805E+03  0.32298903935E+03 -0.67495420102E+03  0.75567055198E+03  0.12699999809E+01 0. -1.
</event>
<event>
 5   0  0.1095119E-03  0.1405446E+04  0.7818609E-02  0.8949886E-01
        2   -1    0    0  501    0  0.00000000000E+00  0.00000000000E+00  0.53508308539E+03  0.53508308540E+03  0.25500000920E-02 0. -1.
       -2   -1    0    0    0  501  0.00000000000E+00  0.00000000000E+00 -0.92288462332E+03  0.92288462333E+03  0.25500000920E-02 0.  1.
    10030    2    1    2    0    0  0.00000000000E+00  0.00000000000E+00 -0.38780153793E+03  0.14579677087E+04  0.14054464795E+04 0.  0.
        5    1    3    3  502    0 -0.30669844542E+03 -0.49755781534E+03  0.21076672648E+03  0.62134726122E+03  0.46999998093E+01 0. -1.
       -5    1    3    3    0  502  0.30669844542E+03  0.49755781534E+03 -0.59856826441E+03  0.83662044751E+03  0.46999998093E+01 0.  1.
</event>
<event>
 5   0  0.6097538E-04  0.1397213E+04  0.7818609E-02  0.8955838E-01
       -1   -1    0    0    0  501  0.00000000000E+00  0.00000000000E+00  0.62429980916E+03  0.62429980918E+03  0.50400001928E-02 0. -1.
        1   -1    0    0  501    0  0.00000000000E+00  0.00000000000E+00 -0.78175764153E+03  0.78175764155E+03  0.50400001928E-02 0.  1.
    10030    2    1    2    0    0  0.00000000000E+00  0.00000000000E+00 -0.15745783237E+03  0.14060574507E+04  0.13972131497E+04 0.  0.
        2    1    3    3  502    0  0.21511485866E+03 -0.19784937273E+03  0.55982084287E+03  0.63152050863E+03  0.25500000920E-02 0. -1.
       -2    1    3    3    0  502 -0.21511485866E+03  0.19784937273E+03 -0.71727867524E+03  0.77453694209E+03  0.25500000920E-02 0.  1.
</event>
<event>
 5   0  0.6097538E-04  0.1401057E+04  0.7818609E-02  0.8953053E-01
        1   -1    0    0  501    0  0.00000000000E+00  0.00000000000E+00  0.19164529545E+04  0.19164529545E+04  0.50400001928E-02 0. -1.
       -1   -1    0    0    0  501  0.00000000000E+00  0.00000000000E+00 -0.25606708266E+03  0.25606708271E+03  0.50400001928E-02 0.  1.
    10030    2    1    2    0    0  0.00000000000E+00  0.00000000000E+00  0.16603858718E+04  0.21725200372E+04  0.14010574823E+04 0.  0.
        2    1    3    3  502    0 -0.10886631777E+03 -0.62253337068E+02  0.18989048711E+04  0.19030415294E+04  0.25500000920E-02 0. -1.
       -2    1    3    3    0  502  0.10886631777E+03  0.62253337068E+02 -0.23851899930E+03  0.26947850777E+03  0.25500000920E-02 0.  1.
</event>
<event>
 5   0  0.5875298E-04  0.1393484E+04  0.7818609E-02  0.8958548E-01
        1   -1    0    0  501    0  0.00000000000E+00  0.00000000000E+00  0.59645247215E+03  0.59645247217E+03  0.50400001928E-02 0. -1.
       -1   -1    0    0    0  501  0.00000000000E+00  0.00000000000E+00 -0.81389499832E+03  0.81389499834E+03  0.50400001928E-02 0.  1.
    10030    2    1    2    0    0  0.00000000000E+00  0.00000000000E+00 -0.21744252618E+03  0.14103474705E+04  0.13934843865E+04 0.  0.
        1    1    3    3  502    0  0.27949611768E+03  0.20558427589E+03 -0.72024051304E+03  0.79945567165E+03  0.50400001928E-02 0.  1.
       -1    1    3    3    0  502 -0.27949611768E+03 -0.20558427589E+03  0.50279798686E+03  0.61089179885E+03  0.50400001928E-02 0. -1.
</event>
<event>
 5   0  0.6153318E-04  0.1383374E+04  0.7818609E-02  0.8965942E-01
       -1   -1    0    0    0  501  0.00000000000E+00  0.00000000000E+00  0.50050830298E+03  0.50050830300E+03  0.50400001928E-02 0. -1.
        1   -1    0    0  501    0  0.00000000000E+00  0.00000000000E+00 -0.95589058940E+03  0.95589058942E+03  0.50400001928E-02 0.  1.
    10030    2    1    2    0    0  0.00000000000E+00  0.00000000000E+00 -0.45538228643E+03  0.14563988924E+04  0.13833743915E+04 0.  0.
        5    1    3    3  502    0 -0.60486780085E+03  0.32024504287E+03 -0.12248012165E+03  0.69530239046E+03  0.46999998093E+01 0. -1.
       -5    1    3    3    0  502  0.60486780085E+03 -0.32024504287E+03 -0.33290216478E+03  0.76109650196E+03  0.46999998093E+01 0.  1.
</event>
<event>
 5   0  0.6114266E-04  0.1411358E+04  0.7818609E-02  0.8945638E-01
       -1   -1    0    0    0  501  0.00000000000E+00  0.00000000000E+00  0.36939032402E+03  0.36939032406E+03  0.50400001928E-02 0.  1.
        1   -1    0    0  501    0  0.00000000000E+00  0.00000000000E+00 -0.13481211491E+04  0.13481211491E+04  0.50400001928E-02 0. -1.
    10030    2    1    2    0    0  0.00000000000E+00  0.00000000000E+00 -0.97873082507E+03  0.17175114732E+04  0.14113580809E+04 0.  0.
        3    1    3    3  502    0  0.22396358331E+03  0.28787860352E+03  0.24578904285E+03  0.43982501156E+03  0.10100000352E+00 0.  1.
       -3    1    3    3    0  502 -0.22396358331E+03 -0.28787860352E+03 -0.12245198679E+04  0.12776864616E+04  0.10100000352E+00 0. -1.
</event>
<event>
 5   0  0.1175146E-03  0.1362444E+04  0.7818609E-02  0.8981461E-01
       -2   -1    0    0    0  501  0.00000000000E+00  0.00000000000E+00  0.13379466465E+04  0.13379466465E+04  0.25500000920E-02 0. -1.
        2   -1    0    0  501    0  0.00000000000E+00  0.00000000000E+00 -0.34684766885E+03  0.34684766886E+03  0.25500000920E-02 0.  1.
    10030    2    1    2    0    0  0.00000000000E+00  0.00000000000E+00  0.99109897769E+03  0.16847943154E+04  0.13624443848E+04 0.  0.
        1    1    3    3  502    0 -0.16977440961E+03 -0.16740412963E+03 -0.29356609359E+03  0.37819114757E+03  0.50400001928E-02 0.  1.
       -1    1    3    3    0  502  0.16977440961E+03  0.16740412963E+03  0.12846650713E+04  0.13066031678E+04  0.50400001928E-02 0. -1.
</event>
<event>
 5   0  0.6153318E-04  0.1365273E+04  0.7818609E-02  0.8979346E-01
       -1   -1    0    0    0  501  0.00000000000E+00  0.00000000000E+00  0.48166083263E+03  0.48166083265E+03  0.50400001928E-02 0.  1.
        1   -1    0    0  501    0  0.00000000000E+00  0.00000000000E+00 -0.96747041189E+03  0.96747041191E+03  0.50400001928E-02 0. -1.
    10030    2    1    2    0    0  0.00000000000E+00  0.00000000000E+00 -0.48580957927E+03  0.14491312446E+04  0.13652730191E+04 0.  0.
        5    1    3    3  502    0 -0.58091628179E+03  0.35756971528E+03 -0.21582943916E+03  0.71548882908E+03  0.46999998093E+01 0.  1.
       -5    1    3    3    0  502  0.58091628179E+03 -0.35756971528E+03 -0.26998014011E+03  0.73364241548E+03  0.46999998093E+01 0. -1.
</event>
<event>
 5   0  0.5875298E-04  0.1401929E+04  0.7818609E-02  0.8952423E-01
       -1   -1    0    0    0  501  0.00000000000E+00  0.00000000000E+00  0.19644719067E+03  0.19644719074E+03  0.50400001928E-02 0. -1.
        1   -1    0    0  501    0  0.00000000000E+00  0.00000000000E+00 -0.25011873497E+04  0.25011873497E+04  0.50400001928E-02 0.  1.
    10030    2    1    2    0    0  0.00000000000E+00  0.00000000000E+00 -0.23047401590E+04  0.26976345404E+04  0.14019289972E+04 0.  0.
        1    1    3    3  502    0 -0.72515981944E+02 -0.76424731200E+02  0.18112571500E+03  0.20953718485E+03  0.50400001928E-02 0. -1.
       -1    1    3    3    0  502  0.72515981944E+02  0.76424731200E+02 -0.24858658740E+04  0.24880973556E+04  0.50400001928E-02 0.  1.
</event>
<event>
 5   0  0.5875298E-04  0.1388870E+04  0.7818609E-02  0.8961914E-01
       -1   -1    0    0    0  501  0.00000000000E+00  0.00000000000E+00  0.60895202736E+03  0.60895202738E+03  0.50400001928E-02 0.  1.
        1   -1    0    0  501    0  0.00000000000E+00  0.00000000000E+00 -0.79191823779E+03  0.79191823781E+03  0.50400001928E-02 0. -1.
    10030    2    1    2    0    0  0.00000000000E+00  0.00000000000E+00 -0.18296621043E+03  0.14008702652E+04  0.13888703560E+04 0.  0.
        1    1    3    3  502    0  0.61318301626E+03  0.12904679940E+03  0.21042516783E+03  0.66100320661E+03  0.50400001928E-02 0.  1.
       -1    1    3    3    0  502 -0.61318301626E+03 -0.12904679940E+03 -0.39339137826E+03  0.73986705858E+03  0.50400001928E-02 0. -1.
</event>
<event>
 5   0  0.6194742E-04  0.1450850E+04  0.7818609E-02  0.8917811E-01
        1   -1    0    0  501    0  0.00000000000E+00  0.00000000000E+00  0.82817336073E+03  0.82817336075E+03  0.50400001928E-02 0.  1.
       -1   -1    0    0    0  501  0.00000000000E+00  0.00000000000E+00 -0.63542451533E+03  0.63542451535E+03  0.50400001928E-02 0. -1.
    10030    2    1    2    0    0  0.00000000000E+00  0.00000000000E+00  0.19274884541E+03  0.14635978761E+04  0.14508503112E+04 0.  0.
        4    1    3    3  502    0  0.43271074262E+03 -0.16288070921E+03  0.66027722423E+03  0.80606224199E+03  0.12699999809E+01 0.  1.
       -4    1    3    3    0  502 -0.43271074262E+03  0.16288070921E+03 -0.46752837883E+03  0.65753563411E+03  0.12699999809E+01 0. -1.
</event>
<event>
 5   0  0.6114266E-04  0.1389658E+04  0.7818609E-02  0.8961339E-01
        1   -1    0    0  501    0  0.00000000000E+00  0.00000000000E+00  0.19037354171E+04  0.19037354171E+04  0.50400001928E-02 0.  1.
       -1   -1    0    0    0  501  0.00000000000E+00  0.00000000000E+00 -0.25359983917E+03  0.25359983922E+03  0.50400001928E-02 0. -1.
    10030    2    1    2    0    0  0.00000000000E+00  0.00000000000E+00  0.16501355779E+04  0.21573352563E+04  0.13896575055E+04 0.  0.
        3    1    3    3  502    0  0.50530705762E+03  0.13433021535E+02  0.84981807725E+02  0.51257934644E+03  0.10100000352E+00 0. -1.
       -3    1    3    3    0  502 -0.50530705762E+03 -0.13433021535E+02  0.15651537702E+04  0.16447559099E+04  0.10100000352E+00 0.  1.
</event>
<event>
 5   0  0.1175146E-03  0.1400443E+04  0.7818609E-02  0.8953498E-01
       -2   -1    0    0    0  501  0.00000000000E+00  0.00000000000E+00  0.38661699899E+03  0.38661699899E+03  0.25500000920E-02 0. -1.
        2   -1    0    0  501    0  0.00000000000E+00  0.00000000000E+00 -0.12682057574E+04  0.12682057574E+04  0.25500000920E-02 0.  1.
    10030    2    1    2    0    0  0.00000000000E+00  0.00000000000E+00 -0.88158875837E+03  0.16548227563E+04  0.14004426500E+04 0.  0.
        1    1    3    3  502    0 -0.49154485118E+03  0.48109011777E+03 -0.59597182789E+03  0.91008046996E+03  0.50400001928E-02 0.  1.
       -1    1    3    3    0  502  0.49154485118E+03 -0.48109011777E+03 -0.28561693048E+03  0.74474228639E+03  0.50400001928E-02 0. -1.
</event>
<event>
 5   0  0.1095119E-03  0.1373492E+04  0.7818609E-02  0.8973233E-01
        2   -1    0    0  501    0  0.00000000000E+00  0.00000000000E+00  0.50282131942E+03  0.50282131943E+03  0.25500000920E-02 0.  1.
       -2   -1    0    0    0  501  0.00000000000E+00  0.00000000000E+00 -0.93794753212E+03  0.93794753212E+03  0.25500000920E-02 0. -1.
    10030    2    1    2    0    0  0.00000000000E+00  0.00000000000E+00 -0.43512621270E+03  0.14407688516E+04  0.13734919230E+04 0.  0.
        5    1    3    3  502    0 -0.39114042045E+03 -0.53217543638E+03 -0.20208275895E+02  0.66078134660E+03  0.46999998093E+01 0.  1.
       -5    1    3    3    0  502  0.39114042045E+03  0.53217543638E+03 -0.41491793680E+03  0.77998750495E+03  0.46999998093E+01 0. -1.
</event>
<event>
 5   0  0.6114266E-04  0.1382067E+04  0.7818609E-02  0.8966902E-01
        1   -1    0    0  501    0  0.00000000000E+00  0.00000000000E+00  0.45642036841E+03  0.45642036843E+03  0.50400001928E-02 0.  1.
       -1   -1    0    0    0  501  0.00000000000E+00  0.00000000000E+00 -0.10462447806E+04  0.10462447806E+04  0.50400001928E-02 0. -1.
    10030    2    1    2    0    0  0.00000000000E+00  0.00000000000E+00 -0.58982441220E+03  0.15026651491E+04  0.13820671883E+04 0.  0.
        3    1    3    3  502    0 -0.43107766575E+03  0.53108680817E+03 -0.18812660870E+03  0.70941721351E+03  0.10100000352E+00 0. -1.
       -3    1    3    3    0  502  0.43107766575E+03 -0.53108680817E+03 -0.40169780350E+03  0.79324793555E+03  0.10100000352E+00 0.  1.
</event>
<event>
 5   0  0.4176125E-04  0.1414144E+04  0.7818609E-02  0.8943643E-01
       -4   -1    0    0    0  501  0.00000000000E+00  0.00000000000E+00  0.67707959734E+03  0.67708078841E+03  0.12699999809E+01 0. -1.
        4   -1    0    0  501    0  0.00000000000E+00  0.00000000000E+00 -0.73839098117E+03  0.73839207334E+03  0.12699999809E+01 0.  1.
    10030    2    1    2    0    0  0.00000000000E+00  0.00000000000E+00 -0.61311383821E+02  0.14154728618E+04  0.14141443832E+04 0.  0.
        4    1    3    3  502    0  0.13958672537E+03 -0.30267634392E+02  0.66248953713E+03  0.67771275870E+03  0.12699999809E+01 0. -1.
       -4    1    3    3    0  502 -0.13958672537E+03  0.30267634392E+02 -0.72380092095E+03  0.73776010306E+03  0.12699999809E+01 0.  1.
</event>
<event>
 5   0  0.6194742E-04  0.1393862E+04  0.7818609E-02  0.8958274E-01
       -1   -1    0    0    0  501  0.00000000000E+00  0.00000000000E+00  0.22563365651E+03  0.22563365656E+03  0.50400001928E-02 0. -1.
        1   -1    0    0  501    0  0.00000000000E+00  0.00000000000E+00 -0.21526611122E+04  0.21526611122E+04  0.50400001928E-02 0.  1.
    10030    2    1    2    0    0  0.00000000000E+00  0.00000000000E+00 -0.19270274557E+04  0.23782947688E+04  0.13938619703E+04 0.  0.
        4    1    3    3  502    0  0.36689405068E+03 -0.15438414205E+03  0.12590084389E+02  0.39825347565E+03  0.12699999809E+01 0. -1.
       -4    1    3    3    0  502 -0.36689405068E+03  0.15438414205E+03 -0.19396175401E+04  0.19800412931E+04  0.12699999809E+01 0.  1.
</event>
<event>
 5   0  0.6097538E-04  0.1401374E+04  0.7818609E-02  0.8952825E-01
        1   -1    0    0  501    0  0.00000000000E+00  0.00000000000E+00  0.12926055299E+04  0.12926055299E+04  0.50400001928E-02 0. -1.
       -1   -1    0    0    0  501  0.00000000000E+00  0.00000000000E+00 -0.37982372049E+03  0.37982372053E+03  0.50400001928E-02 0.  1.
    10030    2    1    2    0    0  0.00000000000E+00  0.00000000000E+00  0.91278180939E+03  0.16724292504E+04  0.14013739566E+04 0.  0.
        2    1    3    3  502    0 -0.51732746554E+03  0.33143997254E+03  0.85841988021E+03  0.10556348103E+04  0.25500000920E-02 0. -1.
       -2    1    3    3    0  502  0.51732746554E+03 -0.33143997254E+03  0.54361929189E+02  0.61679444011E+03  0.25500000920E-02 0.  1.
</event>
<event>
 5   0  0.5875298E-04  0.1403004E+04  0.7818609E-02  0.8951647E-01
        1   -1    0    0  501    0  0.00000000000E+00  0.00000000000E+00  0.11057119495E+04  0.11057119495E+04  0.50400001928E-02 0. -1.
       -1   -1    0    0    0  501  0.00000000000E+00  0.00000000000E+00 -0.44505712604E+03  0.44505712606E+03  0.50400001928E-02 0.  1.
    10030    2    1    2    0    0  0.00000000000E+00  0.00000000000E+00  0.66065482349E+03  0.15507690756E+04  0.14030038952E+04 0.  0.
        1    1    3    3  502    0  0.26823289087E+03  0.30869720722E+03  0.96032342473E+03  0.10437738882E+04  0.50400001928E-02 0. -1.
       -1    1    3    3    0  502 -0.26823289087E+03 -0.30869720722E+03 -0.29966860124E+03  0.50699518744E+03  0.50400001928E-02 0.  1.
</event>
<event>
 5   0  0.6153318E-04  0.1575429E+04  0.7818609E-02  0.8835787E-01
        1   -1    0    0  501    0  0.00000000000E+00  0.00000000000E+00  0.15368881217E+04  0.15368881217E+04  0.50400001928E-02 0.  1.
       -1   -1    0    0    0  501  0.00000000000E+00  0.00000000000E+00 -0.40373398589E+03  0.40373398592E+03  0.50400001928E-02 0. -1.
    10030    2    1    2    0    0  0.00000000000E+00  0.00000000000E+00  0.11331541358E+04  0.19406221076E+04  0.15754287890E+04 0.  0.
        5    1    3    3  502    0  0.87902798934E+02  0.66283620541E+03  0.10795071296E+04  0.12698174948E+04  0.46999998093E+01 0.  1.
       -5    1    3    3    0  502 -0.87902798934E+02 -0.66283620541E+03  0.53647006159E+02  0.67080461278E+03  0.46999998093E+01 0. -1.
</event>
<event>
 5   0  0.1095119E-03  0.1385467E+04  0.7818609E-02  0.8964406E-01
        2   -1    0    0  501    0  0.00000000000E+00  0.00000000000E+00  0.80426547861E+03  0.80426547861E+03  0.25500000920E-02 0.  1.
       -2   -1    0    0    0  501  0.00000000000E+00  0.00000000000E+00 -0.59666857376E+03  0.59666857376E+03  0.25500000920E-02 0. -1.
    10030    2    1    2    0    0  0.00000000000E+00  0.00000000000E+00  0.20759690485E+03  0.14009340524E+04  0.13854673378E+04 0.  0.
        5    1    3    3  502    0 -0.12857671322E+03  0.13378965382E+03  0.77865160488E+03  0.80046989602E+03  0.46999998093E+01 0.  1.
       -5    1    3    3    0  502  0.12857671322E+03 -0.13378965382E+03 -0.57105470003E+03  0.60046415636E+03  0.46999998093E+01 0. -1.
</event>
<event>
 5   0  0.1098949E-03  0.1412767E+04  0.7818609E-02  0.8944629E-01
        2   -1    0    0  501    0  0.00000000000E+00  0.00000000000E+00  0.23477738449E+04  0.23477738449E+04  0.25500000920E-02 0. -1.
       -2   -1    0    0    0  501  0.00000000000E+00  0.00000000000E+00 -0.21253230748E+03  0.21253230749E+03  0.25500000920E-02 0.  1.
    10030    2    1    2    0    0  0.00000000000E+00  0.00000000000E+00  0.21352415374E+04  0.25603061524E+04  0.14127672033E+04 0.  0.
        4    1    3    3  502    0  0.73188875368E+02  0.70039460456E+03  0.96725727011E+03  0.11964520271E+04  0.12699999809E+01 0. -1.
       -4    1    3    3    0  502 -0.73188875368E+02 -0.70039460456E+03  0.11679842673E+04  0.13638541253E+04  0.12699999809E+01 0.  1.
</event>
<event>
 5   0  0.6153318E-04  0.1425068E+04  0.7818609E-02  0.8935870E-01
        1   -1    0    0  501    0  0.00000000000E+00  0.00000000000E+00  0.83454394791E+03  0.83454394793E+03  0.50400001928E-02 0.  1.
       -1   -1    0    0    0  501  0.00000000000E+00  0.00000000000E+00 -0.60836185090E+03  0.60836185092E+03  0.50400001928E-02 0. -1.
    10030    2    1    2    0    0  0.00000000000E+00  0.00000000000E+00  0.22618209702E+03  0.14429057988E+04  0.14250679995E+04 0.  0.
        5    1    3    3  502    0  0.10213061145E+03 -0.19862410138E+03  0.79816977549E+03  0.82884212969E+03  0.46999998093E+01 0.  1.
       -5    1    3    3    0  502 -0.10213061145E+03  0.19862410138E+03 -0.57198767848E+03  0.61406366915E+03  0.46999998093E+01 0. -1.
</event>
<event>
 5   0  0.4176125E-04  0.1396999E+04  0.7818609E-02  0.8955994E-01
        3   -1    0    0  501    0  0.00000000000E+00  0.00000000000E+00  0.42022188736E+03  0.42022189950E+03  0.10100000352E+00 0. -1.
       -3   -1    0    0    0  501  0.00000000000E+00  0.00000000000E+00 -0.11610568326E+04  0.11610568369E+04  0.10100000352E+00 0.  1.
    10030    2    1    2    0    0  0.00000000000E+00  0.00000000000E+00 -0.74083494519E+03  0.15812787365E+04  0.13969989357E+04 0.  0.
        4    1    3    3  502    0 -0.14062421490E+03  0.67584122719E+03 -0.24975680356E+03  0.73410939785E+03  0.12699999809E+01 0. -1.
       -4    1    3    3    0  502  0.14062421490E+03 -0.67584122719E+03 -0.49107814163E+03  0.84716933860E+03  0.12699999809E+01 0.  1.
</event>
<event>
 5   0  0.1108819E-03  0.1371136E+04  0.7818609E-02  0.8974981E-01
        2   -1    0    0  501    0  0.00000000000E+00  0.00000000000E+00  0.45823357471E+03  0.45823357472E+03  0.25500000920E-02 0. -1.
       -2   -1    0    0    0  501  0.00000000000E+00  0.00000000000E+00 -0.10256852409E+04  0.10256852409E+04  0.25500000920E-02 0.  1.
    10030    2    1    2    0    0  0.00000000000E+00  0.00000000000E+00 -0.56745166621E+03  0.14839188156E+04  0.13711359006E+04 0.  0.
        3    1    3    3  502    0 -0.12648452669E+03 -0.24062042359E+02  0.44503142098E+03  0.46328208819E+03  0.10100000352E+00 0. -1.
       -3    1    3    3    0  502  0.12648452669E+03  0.24062042359E+02 -0.10124830872E+04  0.10206367275E+04  0.10100000352E+00 0.  1.
</event>
<event>
 5   0  0.1098949E-03  0.1431803E+04  0.7818609E-02  0.8931114E-01
       -2   -1    0    0    0  501  0.00000000000E+00  0.00000000000E+00  0.65925371159E+03  0.65925371159E+03  0.25500000920E-02 0. -1.
        2   -1    0    0  501    0  0.00000000000E+00  0.00000000000E+00 -0.77741705430E+03  0.77741705431E+03  0.25500000920E-02 0.  1.
    10030    2    1    2    0    0  0.00000000000E+00  0.00000000000E+00 -0.11816334271E+03  0.14366707659E+04  0.14318031687E+04 0.  0.
        4    1    3    3  502    0 -0.32348518790E+03 -0.40935770212E+03  0.43278588066E+03  0.67788024493E+03  0.12699999809E+01 0.  1.
       -4    1    3    3    0  502  0.32348518790E+03  0.40935770212E+03 -0.55094922337E+03  0.75879052097E+03  0.12699999809E+01 0. -1.
</event>
<event>
 5   0  0.1098949E-03  0.1411912E+04  0.7818609E-02  0.8945241E-01
       -2   -1    0    0    0  501  0.00000000000E+00  0.00000000000E+00  0.31837441763E+03  0.31837441764E+03  0.25500000920E-02 0.  1.
        2   -1    0    0  501    0  0.00000000000E+00  0.00000000000E+00 -0.15653700405E+04  0.15653700405E+04  0.25500000920E-02 0. -1.
    10030    2    1    2    0    0  0.00000000000E+00  0.00000000000E+00 -0.12469956228E+04  0.18837444581E+04  0.14119118599E+04 0.  0.
        4    1    3    3  502    0  0.11216575009E+02  0.62366358098E+03 -0.10645650391E+04  0.12338486168E+04  0.12699999809E+01 0. -1.
       -4    1    3    3    0  502 -0.11216575009E+02 -0.62366358098E+03 -0.18243058375E+03  0.64989584133E+03  0.12699999809E+01 0.  1.
</event>
<event>
 5   0  0.6194742E-04  0.1398821E+04  0.7818609E-02  0.8954672E-01
       -1   -1    0    0    0  501  0.00000000000E+00  0.00000000000E+00  0.47176233183E+03  0.47176233186E+03  0.50400001928E-02 0.  1.
        1   -1    0    0  501    0  0.00000000000E+00  0.00000000000E+00 -0.10369100185E+04  0.10369100185E+04  0.50400001928E-02 0. -1.
    10030    2    1    2    0    0  0.00000000000E+00  0.00000000000E+00 -0.56514768668E+03  0.15086723504E+04  0.13988210583E+04 0.  0.
        4    1    3    3  502    0  0.28821370584E+03  0.61932614384E+03 -0.44450253842E+03  0.81499455963E+03  0.12699999809E+01 0. -1.
       -4    1    3    3    0  502 -0.28821370584E+03 -0.61932614384E+03 -0.12064514827E+03  0.69367779075E+03  0.12699999809E+01 0.  1.
</event>
<event>
 5   0  0.6114266E-04  0.1317063E+04  0.7818609E-02  0.9016142E-01
        1   -1    0    0  501    0  0.00000000000E+00  0.00000000000E+00  0.97751334462E+03  0.97751334463E+03  0.50400001928E-02 0. -1.
       -1   -1    0    0    0  501  0.00000000000E+00  0.00000000000E+00 -0.44363993594E+03  0.44363993597E+03  0.50400001928E-02 0.  1.
    10030    2    1    2    0    0  0.00000000000E+00  0.00000000000E+00  0.53387340868E+03  0.14211532806E+04  0.13170633358E+04 0.  0.
        3    1    3    3  502    0  0.57547280992E+03 -0.32014803984E+03  0.26744858931E+03  0.71076893608E+03  0.10100000352E+00 0.  1.
       -3    1    3    3    0  502 -0.57547280992E+03  0.32014803984E+03  0.26642481937E+03  0.71038434453E+03  0.10100000352E+00 0. -1.
</event>
<event>
 5   0  0.6114266E-04  0.1400383E+04  0.7818609E-02  0.8953542E-01
        1   -1    0    0  501    0  0.00000000000E+00  0.00000000000E+00  0.27903096455E+04  0.27903096455E+04  0.50400001928E-02 0.  1.
       -1   -1    0    0    0  501  0.00000000000E+00  0.00000000000E+00 -0.17570377415E+03  0.17570377422E+03  0.50400001928E-02 0. -1.
    10030    2    1    2    0    0  0.00000000000E+00  0.00000000000E+00  0.26146058714E+04  0.29660134198E+04  0.14003827132E+04 0.  0.
        3    1    3    3  502    0 -0.32778418746E+03 -0.49485224720E+03  0.20939538236E+04  0.21764567181E+04  0.10100000352E+00 0.  1.
       -3    1    3    3    0  502  0.32778418746E+03  0.49485224720E+03  0.52065204779E+03  0.78955670168E+03  0.10100000352E+00 0. -1.
</event>
<event>
 5   0  0.1098949E-03  0.1373818E+04  0.7818609E-02  0.8972991E-01
        2   -1    0    0  501    0  0.00000000000E+00  0.00000000000E+00  0.20382597777E+04  0.20382597777E+04  0.25500000920E-02 0. -1.
       -2   -1    0    0    0  501  0.00000000000E+00  0.00000000000E+00 -0.23149365304E+03  0.23149365305E+03  0.25500000920E-02 0.  1.
    10030    2    1    2    0    0  0.00000000000E+00  0.00000000000E+00  0.18067661247E+04  0.22697534308E+04  0.13738183312E+04 0.  0.
        4    1    3    3  502    0 -0.25176103928E+03 -0.43696810412E+03  0.13284016926E+03  0.52151018052E+03  0.12699999809E+01 0.  1.
       -4    1    3    3    0  502  0.25176103928E+03  0.43696810412E+03  0.16739259554E+04  0.17482432503E+04  0.12699999809E+01 0. -1.
</event>
<event>
 5   0  0.6194742E-04  0.1414640E+04  0.7818609E-02  0.8943289E-01
        1   -1    0    0  501    0  0.00000000000E+00  0.00000000000E+00  0.32064172913E+03  0.32064172917E+03  0.50400001928E-02 0. -1.
       -1   -1    0    0    0  501  0.00000000000E+00  0.00000000000E+00 -0.15603136027E+04  0.15603136028E+04  0.50400001928E-02 0.  1.
    10030    2    1    2    0    0  0.00000000000E+00  0.00000000000E+00 -0.12396718736E+04  0.18809553319E+04  0.14146400978E+04 0.  0.
        4    1    3    3  502    0 -0.46181912145E+03 -0.20772572513E+03 -0.12764565645E+04  0.13732333566E+04  0.12699999809E+01 0.  1.
       -4    1    3    3    0  502  0.46181912145E+03  0.20772572513E+03  0.36784690865E+02  0.50772197530E+03  0.12699999809E+01 0. -1.
</event>
<event>
 5   0  0.1108819E-03  0.1399669E+04  0.7818609E-02  0.8954058E-01
       -2   -1    0    0    0  501  0.00000000000E+00  0.00000000000E+00  0.26418344983E+03  0.26418344984E+03  0.25500000920E-02 0.  1.
        2   -1    0    0  501    0  0.00000000000E+00  0.00000000000E+00 -0.18538961104E+04  0.18538961104E+04  0.25500000920E-02 0. -1.
    10030    2    1    2    0    0  0.00000000000E+00  0.00000000000E+00 -0.15897126606E+04  0.21180795603E+04  0.13996694897E+04 0.  0.
        3    1    3    3  502    0  0.20277645742E+03 -0.64475936668E+03 -0.52022479651E+03  0.85291663233E+03  0.10100000352E+00 0.  1.
       -3    1    3    3    0  502 -0.20277645742E+03  0.64475936668E+03 -0.10694878641E+04  0.12651629280E+04  0.10100000352E+00 0. -1.
</event>
<event>
 5   0  0.6153318E-04  0.1404106E+04  0.7818609E-02  0.8950852E-01
       -1   -1    0    0    0  501  0.00000000000E+00  0.00000000000E+00  0.96089294550E+03  0.96089294551E+03  0.50400001928E-02 0. -1.
        1   -1    0    0  501    0  0.00000000000E+00  0.00000000000E+00 -0.51293801763E+03  0.51293801765E+03  0.50400001928E-02 0.  1.
    10030    2    1    2    0    0  0.00000000000E+00  0.00000000000E+00  0.44795492787E+03  0.14738309632E+04  0.14041061536E+04 0.  0.
        5    1    3    3  502    0  0.28761874375E+03  0.32661795441E+03  0.80219754059E+03  0.91265919928E+03  0.46999998093E+01 0. -1.
       -5    1    3    3    0  502 -0.28761874375E+03 -0.32661795441E+03 -0.35424261273E+03  0.56117176388E+03  0.46999998093E+01 0.  1.
</event>
<event>
 5   0  0.1108819E-03  0.1403116E+04  0.7818609E-02  0.8951566E-01
       -2   -1    0    0    0  501  0.00000000000E+00  0.00000000000E+00  0.64979001598E+03  0.64979001599E+03  0.25500000920E-02 0. -1.
        2   -1    0    0  501    0  0.00000000000E+00  0.00000000000E+00 -0.75744997059E+03  0.75744997059E+03  0.25500000920E-02 0.  1.
    10030    2    1    2    0    0  0.00000000000E+00  0.00000000000E+00 -0.10765995461E+03  0.14072399866E+04  0.14031157165E+04 0.  0.
        3    1    3    3  502    0 -0.50851874428E+03  0.48171627872E+03 -0.93207729898E+02  0.70663256193E+03  0.10100000352E+00 0.  1.
       -3    1    3    3    0  502  0.50851874428E+03 -0.48171627872E+03 -0.14452224707E+02  0.70060742465E+03  0.10100000352E+00 0. -1.
</event>
<event>
 5   0  0.1175146E-03  0.1405848E+04  0.7818609E-02  0.8949596E-01
       -2   -1    0    0    0  501  0.00000000000E+00  0.00000000000E+00  0.42182997618E+03  0.42182997619E+03  0.25500000920E-02 0. -1.
        2   -1    0    0  501    0  0.00000000000E+00  0.00000000000E+00 -0.11713301044E+04  0.11713301044E+04  0.25500000920E-02 0.  1.
    10030    2    1    2    0    0  0.00000000000E+00  0.00000000000E+00 -0.74950012821E+03  0.15931600806E+04  0.14058480004E+04 0.  0.
        1    1    3    3  502    0  0.58128502507E+03  0.25086349665E+03 -0.28644000613E+02  0.63375488410E+03  0.50400001928E-02 0. -1.
       -1    1    3    3    0  502 -0.58128502507E+03 -0.25086349665E+03 -0.72085612760E+03  0.95940519649E+03  0.50400001928E-02 0.  1.
</event>
<event>
 5   0  0.6153318E-04  0.1400370E+04  0.7818609E-02  0.8953551E-01
        1   -1    0    0  501    0  0.00000000000E+00  0.00000000000E+00  0.45547931442E+03  0.45547931445E+03  0.50400001928E-02 0. -1.
       -1   -1    0    0    0  501  0.00000000000E+00  0.00000000000E+00 -0.10763578698E+04  0.10763578698E+04  0.50400001928E-02 0.  1.
    10030    2    1    2    0    0  0.00000000000E+00  0.00000000000E+00 -0.62087855535E+03  0.15318371842E+04  0.14003695864E+04 0.  0.
        5    1    3    3  502    0 -0.52716891109E+03 -0.44586933990E+03 -0.43767845446E+03  0.81749070244E+03  0.46999998093E+01 0.  1.
       -5    1    3    3    0  502  0.52716891109E+03  0.44586933990E+03 -0.18320010088E+03  0.71434648179E+03  0.46999998093E+01 0. -1.
</event>
<event>
 5   0  0.6097538E-04  0.1452905E+04  0.7818609E-02  0.8916389E-01
       -1   -1    0    0    0  501  0.00000000000E+00  0.00000000000E+00  0.97115731055E+03  0.97115731057E+03  0.50400001928E-02 0.  1.
        1   -1    0    0  501    0  0.00000000000E+00  0.00000000000E+00 -0.54340665773E+03  0.54340665775E+03  0.50400001928E-02 0. -1.
    10030    2    1    2    0    0  0.00000000000E+00  0.00000000000E+00  0.42775065282E+03  0.15145639683E+04  0.14529051563E+04 0.  0.
        2    1    3    3  502    0 -0.26459964029E+03  0.24463691315E+03 -0.44366542996E+03  0.57157606901E+03  0.25500000920E-02 0. -1.
       -2    1    3    3    0  502  0.26459964029E+03 -0.24463691315E+03  0.87141608278E+03  0.94298789931E+03  0.25500000920E-02 0.  1.
</event>
<event>
 5   0  0.1120053E-03  0.1416312E+04  0.7818609E-02  0.8942095E-01
       -2   -1    0    0    0  501  0.00000000000E+00  0.00000000000E+00  0.11694946418E+04  0.11694946418E+04  0.25500000920E-02 0. -1.
        2   -1    0    0  501    0  0.00000000000E+00  0.00000000000E+00 -0.42880505719E+03  0.42880505720E+03  0.25500000920E-02 0.  1.
    10030    2    1    2    0    0  0.00000000000E+00  0.00000000000E+00  0.74068958462E+03  0.15982996990E+04  0.14163124186E+04 0.  0.
        2    1    3    3  502    0 -0.20378415590E+03  0.36951813866E+03  0.10121131201E+04  0.10965603517E+04  0.25500000920E-02 0. -1.
       -2    1    3    3    0  502  0.20378415590E+03 -0.36951813866E+03 -0.27142353551E+03  0.50173934731E+03  0.25500000920E-02 0.  1.
</event>
<event>
 5   0  0.1120053E-03  0.1219472E+04  0.7818609E-02  0.9095981E-01
        2   -1    0    0  501    0  0.00000000000E+00  0.00000000000E+00  0.40530064647E+03  0.40530064648E+03  0.25500000920E-02 0. -1.
       -2   -1    0    0    0  501  0.00000000000E+00  0.00000000000E+00 -0.91728989806E+03  0.91728989807E+03  0.25500000920E-02 0.  1.
    10030    2    1    2    0    0  0.00000000000E+00  0.00000000000E+00 -0.51198925159E+03  0.13225905445E+04  0.12194723264E+04 0.  0.
        2    1    3    3  502    0  0.26642465668E+03  0.30445972505E+03  0.23876002704E+03  0.46977034004E+03  0.25500000920E-02 0. -1.
       -2    1    3    3    0  502 -0.26642465668E+03 -0.30445972505E+03 -0.75074927862E+03  0.85282020451E+03  0.25500000920E-02 0.  1.
</event>
<event>
 5   0  0.6114266E-04  0.1403971E+04  0.7818609E-02  0.8950949E-01
        1   -1    0    0  501    0  0.00000000000E+00  0.00000000000E+00  0.14197565162E+04  0.14197565163E+04  0.50400001928E-02 0. -1.
       -1   -1    0    0    0  501  0.00000000000E+00  0.00000000000E+00 -0.34709000823E+03  0.34709000827E+03  0.50400001928E-02 0.  1.
    10030    2    1    2    0    0  0.00000000000E+00  0.00000000000E+00  0.10726665080E+04  0.17668465245E+04  0.14039705139E+04 0.  0.
        3    1    3    3  502    0  0.35707206897E+03  0.27905454428E+03  0.12110054721E+04  0.12930221053E+04  0.10100000352E+00 0. -1.
       -3    1    3    3    0  502 -0.35707206897E+03 -0.27905454428E+03 -0.13833896405E+03  0.47382441927E+03  0.10100000352E+00 0.  1.
</event>
<event>
 5   0  0.6097538E-04  0.1406497E+04  0.7818609E-02  0.8949129E-01
        1   -1    0    0  501    0  0.00000000000E+00  0.00000000000E+00  0.22737918161E+04  0.22737918161E+04  0.50400001928E-02 0. -1.
       -1   -1    0    0    0  501  0.00000000000E+00  0.00000000000E+00 -0.21750378763E+03  0.21750378768E+03  0.50400001928E-02 0.  1.
    10030    2    1    2    0    0  0.00000000000E+00  0.00000000000E+00  0.20562880285E+04  0.24912956038E+04  0.14064968288E+04 0.  0.
        2    1    3    3  502    0 -0.17725083118E+03 -0.28912954472E+03  0.21193780475E+04  0.21463403875E+04  0.25500000920E-02 0. -1.
       -2    1    3    3    0  502  0.17725083118E+03  0.28912954472E+03 -0.63090018976E+02  0.34495521634E+03  0.25500000920E-02 0.  1.
</event>
<event>
 5   0  0.1175146E-03  0.1347158E+04  0.7818609E-02  0.8992982E-01
       -2   -1    0    0    0  501  0.00000000000E+00  0.00000000000E+00  0.29019444034E+03  0.29019444035E+03  0.25500000920E-02 0.  1.
        2   -1    0    0  501    0  0.00000000000E+00  0.00000000000E+00 -0.15634637043E+04  0.15634637043E+04  0.25500000920E-02 0. -1.
    10030    2    1    2    0    0  0.00000000000E+00  0.00000000000E+00 -0.12732692639E+04  0.18536581446E+04  0.13471577111E+04 0.  0.
        1    1    3    3  502    0 -0.38839239939E+03  0.45925107274E+03 -0.10538717969E+04  0.12134273641E+04  0.50400001928E-02 0. -1.
       -1    1    3    3    0  502  0.38839239939E+03 -0.45925107274E+03 -0.21939746704E+03  0.64023078049E+03  0.50400001928E-02 0.  1.
</event>
<event>
 5   0  0.6194742E-04  0.1400962E+04  0.7818609E-02  0.8953123E-01
        1   -1    0    0  501    0  0.00000000000E+00  0.00000000000E+00  0.87176280529E+03  0.87176280531E+03  0.50400001928E-02 0.  1.
       -1   -1    0    0    0  501  0.00000000000E+00  0.00000000000E+00 -0.56285202228E+03  0.56285202231E+03  0.50400001928E-02 0. -1.
    10030    2    1    2    0    0  0.00000000000E+00  0.00000000000E+00  0.30891078301E+03  0.14346148276E+04  0.14009617524E+04 0.  0.
        4    1    3    3  502    0  0.62249169890E+03  0.29021927061E+03  0.13494446889E+02  0.68695476797E+03  0.12699999809E+01 0.  1.
       -4    1    3    3    0  502 -0.62249169890E+03 -0.29021927061E+03  0.29541633612E+03  0.74766005964E+03  0.12699999809E+01 0. -1.
</event>
<event>
 5   0  0.1175146E-03  0.1403779E+04  0.7818609E-02  0.8951088E-01
        2   -1    0    0  501    0  0.00000000000E+00  0.00000000000E+00  0.50394335720E+03  0.50394335720E+03  0.25500000920E-02 0.  1.
       -2   -1    0    0    0  501  0.00000000000E+00  0.00000000000E+00 -0.97758756071E+03  0.97758756071E+03  0.25500000920E-02 0. -1.
    10030    2    1    2    0    0  0.00000000000E+00  0.00000000000E+00 -0.47364420351E+03  0.14815309179E+04  0.14037788391E+04 0.  0.
        1    1    3    3  502    0  0.54218674237E+03  0.43183107462E+03 -0.12023057686E+03  0.70349124532E+03  0.50400001928E-02 0. -1.
       -1    1    3    3    0  502 -0.54218674237E+03 -0.43183107462E+03 -0.35341362665E+03  0.77803967259E+03  0.50400001928E-02 0.  1.
</event>
<event>
 5   0  0.5875298E-04  0.1375620E+04  0.7818609E-02  0.8971657E-01
        1   -1    0    0  501    0  0.00000000000E+00  0.00000000000E+00  0.56418299493E+03  0.56418299496E+03  0.50400001928E-02 0. -1.
       -1   -1    0    0    0  501  0.00000000000E+00  0.00000000000E+00 -0.83852713001E+03  0.83852713003E+03  0.50400001928E-02 0.  1.
    10030    2    1    2    0    0  0.00000000000E+00  0.00000000000E+00 -0.27434413508E+03  0.14027101250E+04  0.13756202202E+04 0.  0.
        1    1    3    3  502    0  0.11301671083E+03  0.16833999954E+03  0.53301645517E+03  0.57027859321E+03  0.50400001928E-02 0. -1.
       -1    1    3    3    0  502 -0.11301671083E+03 -0.16833999954E+03 -0.80736059025E+03  0.83243153177E+03  0.50400001928E-02 0.  1.
</event>
<event>
 5   0  0.1098949E-03  0.1397770E+04  0.7818609E-02  0.8955434E-01
        2   -1    0    0  501    0  0.00000000000E+00  0.00000000000E+00  0.55921418202E+03  0.55921418203E+03  0.25500000920E-02 0.  1.
       -2   -1    0    0    0  501  0.00000000000E+00  0.00000000000E+00 -0.87344029606E+03  0.87344029606E+03  0.25500000920E-02 0. -1.
    10030    2    1    2    0    0  0.00000000000E+00  0.00000000000E+00 -0.31422611403E+03  0.14326544781E+04  0.13977699392E+04 0.  0.
        4    1    3    3  502    0 -0.37034561435E+01 -0.15216670981E+03  0.54201763409E+03  0.56298592498E+03  0.12699999809E+01 0.  1.
       -4    1    3    3    0  502  0.37034561435E+01  0.15216670981E+03 -0.85624374812E+03  0.86966855311E+03  0.12699999809E+01 0. -1.
</event>
<event>
 5   0  0.4176125E-04  0.1398535E+04  0.7818609E-02  0.8954880E-01
       -3   -1    0    0    0  501  0.00000000000E+00  0.00000000000E+00  0.53183438659E+03  0.53183439618E+03  0.10100000352E+00 0.  1.
        3   -1    0    0  501    0  0.00000000000E+00  0.00000000000E+00 -0.91941162192E+03  0.91941162746E+03  0.10100000352E+00 0. -1.
    10030    2    1    2    0    0  0.00000000000E+00  0.00000000000E+00 -0.38757723532E+03  0.14512460236E+04  0.13985345572E+04 0.  0.
        4    1    3    3  502    0 -0.28605608606E+03  0.53300438595E+03 -0.55779671075E+03  0.82283688739E+03  0.12699999809E+01 0. -1.
       -4    1    3    3    0  502  0.28605608606E+03 -0.53300438595E+03  0.17021947542E+03  0.62840913626E+03  0.12699999809E+01 0.  1.
</event>
<event>
 5   0  0.1108819E-03  0.1399517E+04  0.7818609E-02  0.8954169E-01
        2   -1    0    0  501    0  0.00000000000E+00  0.00000000000E+00  0.10471809471E+04  0.10471809471E+04  0.25500000920E-02 0. -1.
       -2   -1    0    0    0  501  0.00000000000E+00  0.00000000000E+00 -0.46759985388E+03  0.46759985388E+03  0.25500000920E-02 0.  1.
    10030    2    1    2    0    0  0.00000000000E+00  0.00000000000E+00  0.57958109320E+03  0.15147808010E+04  0.13995165706E+04 0.  0.
        3    1    3    3  502    0  0.18595018505E+03  0.21638703147E+03 -0.40178655244E+03  0.49278115085E+03  0.10100000352E+00 0.  1.
       -3    1    3    3    0  502 -0.18595018505E+03 -0.21638703147E+03  0.98136764564E+03  0.10219996501E+04  0.10100000352E+00 0. -1.
</event>
<event>
 5   0  0.1120053E-03  0.1392448E+04  0.7818609E-02  0.8959303E-01
        2   -1    0    0  501    0  0.00000000000E+00  0.00000000000E+00  0.58736503842E+03  0.58736503842E+03  0.25500000920E-02 0. -1.
       -2   -1    0    0    0  501  0.00000000000E+00  0.00000000000E+00 -0.82525879358E+03  0.82525879359E+03  0.25500000920E-02 0.  1.
    10030    2    1    2    0    0  0.00000000000E+00  0.00000000000E+00 -0.23789375517E+03  0.14126238320E+04  0.13924484378E+04 0.  0.
        2    1    3    3  502    0 -0.19301504753E+03 -0.59973835515E+02 -0.79484070432E+03  0.82013621721E+03  0.25500000920E-02 0.  1.
       -2    1    3    3    0  502  0.19301504753E+03  0.59973835515E+02  0.55694694916E+03  0.59248761481E+03  0.25500000920E-02 0. -1.
</event>
<event>
 5   0  0.1175146E-03  0.1402758E+04  0.7818609E-02  0.8951824E-01
        2   -1    0    0  501    0  0.00000000000E+00  0.00000000000E+00  0.18224755108E+04  0.18224755108E+04  0.25500000920E-02 0.  1.
       -2   -1    0    0    0  501  0.00000000000E+00  0.00000000000E+00 -0.26992552589E+03  0.26992552590E+03  0.25500000920E-02 0. -1.
    10030    2    1    2    0    0  0.00000000000E+00  0.00000000000E+00  0.15525499849E+04  0.20924010367E+04  0.14027582268E+04 0.  0.
        1    1    3    3  502    0 -0.34650368381E+03  0.31558733006E+02 -0.13211861464E+03  0.37217749110E+03  0.50400001928E-02 0. -1.
       -1    1    3    3    0  502  0.34650368381E+03 -0.31558733006E+02  0.16846685996E+04  0.17202235456E+04  0.50400001928E-02 0.  1.
</event>
<event>
 5   0  0.6097538E-04  0.1398952E+04  0.7818609E-02  0.8954577E-01
        1   -1    0    0  501    0  0.00000000000E+00  0.00000000000E+00  0.61124206609E+03  0.61124206611E+03  0.50400001928E-02 0.  1.
       -1   -1    0    0    0  501  0.00000000000E+00  0.00000000000E+00 -0.80044669477E+03  0.80044669478E+03  0.50400001928E-02 0. -1.
    10030    2    1    2    0    0  0.00000000000E+00  0.00000000000E+00 -0.18920462868E+03  0.14116887609E+04  0.13989520242E+04 0.  0.
        2    1    3    3  502    0 -0.55546854676E+03 -0.38675970881E+03  0.83464780849E+02  0.68197855424E+03  0.25500000920E-02 0.  1.
       -2    1    3    3    0  502  0.55546854676E+03  0.38675970881E+03 -0.27266940953E+03  0.72971020665E+03  0.25500000920E-02 0. -1.
</event>
<event>
 5   0  0.1120053E-03  0.1403812E+04  0.7818609E-02  0.8951064E-01
       -2   -1    0    0    0  501  0.00000000000E+00  0.00000000000E+00  0.66677852560E+03  0.66677852561E+03  0.25500000920E-02 0.  1.
        2   -1    0    0  501    0  0.00000000000E+00  0.00000000000E+00 -0.73888375183E+03  0.73888375183E+03  0.25500000920E-02 0. -1.
    10030    2    1    2    0    0  0.00000000000E+00  0.00000000000E+00 -0.72105226222E+02  0.14056622774E+04  0.14038116948E+04 0.  0.
        2    1    3    3  502    0  0.26942199962E+03  0.64448721970E+03  0.32738959599E+02  0.69930238790E+03  0.25500000920E-02 0.  1.
       -2    1    3    3    0  502 -0.26942199962E+03 -0.64448721970E+03 -0.10484418582E+03  0.70635988954E+03  0.25500000920E-02 0. -1.
</event>
<event>
 5   0  0.6114266E-04  0.1406084E+04  0.7818609E-02  0.8949426E-01
        1   -1    0    0  501    0  0.00000000000E+00  0.00000000000E+00  0.35683846310E+03  0.35683846314E+03  0.50400001928E-02 0.  1.
       -1   -1    0    0    0  501  0.00000000000E+00  0.00000000000E+00 -0.13851312308E+04  0.13851312308E+04  0.50400001928E-02 0. -1.
    10030    2    1    2    0    0  0.00000000000E+00  0.00000000000E+00 -0.10282927677E+04  0.17419696939E+04  0.14060840652E+04 0.  0.
        3    1    3    3  502    0 -0.44338706682E+03 -0.21413943653E+03 -0.11358375225E+04  0.12379720017E+04  0.10100000352E+00 0. -1.
       -3    1    3    3    0  502  0.44338706682E+03  0.21413943653E+03  0.10754475479E+03  0.50399769225E+03  0.10100000352E+00 0.  1.
</event>
<event>
 5   0  0.6194742E-04  0.1406857E+04  0.7818609E-02  0.8948870E-01
        1   -1    0    0  501    0  0.00000000000E+00  0.00000000000E+00  0.48469899849E+03  0.48469899852E+03  0.50400001928E-02 0.  1.
       -1   -1    0    0    0  501  0.00000000000E+00  0.00000000000E+00 -0.10208634060E+04  0.10208634060E+04  0.50400001928E-02 0. -1.
    10030    2    1    2    0    0  0.00000000000E+00  0.00000000000E+00 -0.53616440749E+03  0.15055624045E+04  0.14068567383E+04 0.  0.
        4    1    3    3  502    0  0.37317074285E+03  0.75316805324E+02 -0.90108985933E+03  0.97820937021E+03  0.12699999809E+01 0. -1.
       -4    1    3    3    0  502 -0.37317074285E+03 -0.75316805324E+02  0.36492545184E+03  0.52735303430E+03  0.12699999809E+01 0.  1.
</event>
<event>
 5   0  0.6097538E-04  0.1403160E+04  0.7818609E-02  0.8951534E-01
       -1   -1    0    0    0  501  0.00000000000E+00  0.00000000000E+00  0.29988669147E+03  0.29988669152E+03  0.50400001928E-02 0. -1.
        1   -1    0    0  501    0  0.00000000000E+00  0.00000000000E+00 -0.16413352164E+04  0.16413352164E+04  0.50400001928E-02 0.  1.
    10030    2    1    2    0    0  0.00000000000E+00  0.00000000000E+00 -0.13414485249E+04  0.19412219079E+04  0.14031601301E+04 0.  0.
        2    1    3    3  502    0 -0.13588123072E+03  0.33467129102E+03 -0.15028133380E+04  0.15456120182E+04  0.25500000920E-02 0.  1.
       -2    1    3    3    0  502  0.13588123072E+03 -0.33467129102E+03  0.16136481312E+03  0.39560988969E+03  0.25500000920E-02 0. -1.
</event>
<event>
 5   0  0.6153318E-04  0.1391805E+04  0.7818609E-02  0.8959772E-01
        1   -1    0    0  501    0  0.00000000000E+00  0.00000000000E+00  0.11061417086E+04  0.11061417086E+04  0.50400001928E-02 0.  1.
       -1   -1    0    0    0  501  0.00000000000E+00  0.00000000000E+00 -0.43781055035E+03  0.43781055037E+03  0.50400001928E-02 0. -1.
    10030    2    1    2    0    0  0.00000000000E+00  0.00000000000E+00  0.66833115827E+03  0.15439522590E+04  0.13918053172E+04 0.  0.
        5    1    3    3  502    0 -0.31185349982E+03  0.20545441908E+03  0.98554706813E+03  0.10539398641E+04  0.46999998093E+01 0.  1.
       -5    1    3    3    0  502  0.31185349982E+03 -0.20545441908E+03 -0.31721590987E+03  0.49001239488E+03  0.46999998093E+01 0. -1.
</event>
<event>
 5   0  0.1108819E-03  0.1391830E+04  0.7818609E-02  0.8959754E-01
       -2   -1    0    0    0  501  0.00000000000E+00  0.00000000000E+00  0.24620378053E+03  0.24620378054E+03  0.25500000920E-02 0. -1.
        2   -1    0    0  501    0  0.00000000000E+00  0.00000000000E+00 -0.19670607547E+04  0.19670607547E+04  0.25500000920E-02 0.  1.
    10030    2    1    2    0    0  0.00000000000E+00  0.00000000000E+00 -0.17208569741E+04  0.22132645352E+04  0.13918301539E+04 0.  0.
        3    1    3    3  502    0  0.93381475185E+02  0.14636843824E+03 -0.19320678035E+04  0.19398530427E+04  0.10100000352E+00 0.  1.
       -3    1    3    3    0  502 -0.93381475185E+02 -0.14636843824E+03  0.21121082936E+03  0.27341149255E+03  0.10100000352E+00 0. -1.
</event>
<event>
 5   0  0.1098949E-03  0.1397369E+04  0.7818609E-02  0.8955725E-01
        2   -1    0    0  501    0  0.00000000000E+00  0.00000000000E+00  0.13273428882E+04  0.13273428882E+04  0.25500000920E-02 0. -1.
       -2   -1    0    0    0  501  0.00000000000E+00  0.00000000000E+00 -0.36777255464E+03  0.36777255465E+03  0.25500000920E-02 0.  1.
    10030    2    1    2    0    0  0.00000000000E+00  0.00000000000E+00  0.95957033356E+03  0.16951154429E+04  0.13973693640E+04 0.  0.
        4    1    3    3  502    0 -0.17686398873E+02 -0.48852090555E+03  0.10853437247E+04  0.11903520897E+04  0.12699999809E+01 0. -1.
       -4    1    3    3    0  502  0.17686398873E+02  0.48852090555E+03 -0.12577339113E+03  0.50476335314E+03  0.12699999809E+01 0.  1.
</event>
<event>
 5   0  0.1095119E-03  0.1394171E+04  0.7818609E-02  0.8958049E-01
       -2   -1    0    0    0  501  0.00000000000E+00  0.00000000000E+00  0.46786511773E+03  0.46786511774E+03  0.25500000920E-02 0.  1.
        2   -1    0    0  501    0  0.00000000000E+00  0.00000000000E+00 -0.10386075763E+04  0.10386075763E+04  0.25500000920E-02 0. -1.
    10030    2    1    2    0    0  0.00000000000E+00  0.00000000000E+00 -0.57074245852E+03  0.15064726940E+04  0.13941710884E+04 0.  0.
        5    1    3    3  502    0  0.57037354048E+03 -0.11887490292E+03  0.12814096346E+03  0.59657305901E+03  0.46999998093E+01 0.  1.
       -5    1    3    3    0  502 -0.57037354048E+03  0.11887490292E+03 -0.69888342197E+03  0.90989963498E+03  0.46999998093E+01 0. -1.
</event>
<event>
 5   0  0.6097538E-04  0.1366382E+04  0.7818609E-02  0.8978519E-01
       -1   -1    0    0    0  501  0.00000000000E+00  0.00000000000E+00  0.44868651056E+03  0.44868651059E+03  0.50400001928E-02 0.  1.
        1   -1    0    0  501    0  0.00000000000E+00  0.00000000000E+00 -0.10402585772E+04  0.10402585772E+04  0.50400001928E-02 0. -1.
    10030    2    1    2    0    0  0.00000000000E+00  0.00000000000E+00 -0.59157206661E+03  0.14889450878E+04  0.13663820712E+04 0.  0.
        2    1    3    3  502    0  0.14069520313E+03 -0.60084874783E+03  0.23656813093E+02  0.61755485810E+03  0.25500000920E-02 0. -1.
       -2    1    3    3    0  502 -0.14069520313E+03  0.60084874783E+03 -0.61522887970E+03  0.87139022968E+03  0.25500000920E-02 0.  1.
</event>
<event>
 5   0  0.6097538E-04  0.1406058E+04  0.7818609E-02  0.8949445E-01
       -1   -1    0    0    0  501  0.00000000000E+00  0.00000000000E+00  0.32163053954E+03  0.32163053958E+03  0.50400001928E-02 0. -1.
        1   -1    0    0  501    0  0.00000000000E+00  0.00000000000E+00 -0.15366997505E+04  0.15366997505E+04  0.50400001928E-02 0.  1.
    10030    2    1    2    0    0  0.00000000000E+00  0.00000000000E+00 -0.12150692109E+04  0.18583302900E+04  0.14060577085E+04 0.  0.
        2    1    3    3  502    0  0.55139997226E+03 -0.38977922839E+03 -0.86612033486E+03  0.10982414173E+04  0.25500000920E-02 0.  1.
       -2    1    3    3    0  502 -0.55139997226E+03  0.38977922839E+03 -0.34894887606E+03  0.76008887270E+03  0.25500000920E-02 0. -1.
</event>
<event>
 5   0  0.4176125E-04  0.1398688E+04  0.7818609E-02  0.8954768E-01
        3   -1    0    0  501    0  0.00000000000E+00  0.00000000000E+00  0.11926467420E+04  0.11926467463E+04  0.10100000352E+00 0.  1.
       -3   -1    0    0    0  501  0.00000000000E+00  0.00000000000E+00 -0.41008149268E+03  0.41008150512E+03  0.10100000352E+00 0. -1.
    10030    2    1    2    0    0  0.00000000000E+00  0.00000000000E+00  0.78256524935E+03  0.16027282514E+04  0.13986884851E+04 0.  0.
        1    1    3    3  502    0 -0.20976979961E+03 -0.60950739016E+03  0.80456135199E+02  0.64959665732E+03  0.50400001928E-02 0. -1.
       -1    1    3    3    0  502  0.20976979961E+03  0.60950739016E+03  0.70210911415E+03  0.95313159411E+03  0.50400001928E-02 0.  1.
</event>
<event>
 5   0  0.4176125E-04  0.1392814E+04  0.7818609E-02  0.8959036E-01
        3   -1    0    0  501    0  0.00000000000E+00  0.00000000000E+00  0.35882567991E+03  0.35882569412E+03  0.10100000352E+00 0. -1.
       -3   -1    0    0    0  501  0.00000000000E+00  0.00000000000E+00 -0.13515834332E+04  0.13515834370E+04  0.10100000352E+00 0.  1.
    10030    2    1    2    0    0  0.00000000000E+00  0.00000000000E+00 -0.99275775328E+03  0.17104091311E+04  0.13928142155E+04 0.  0.
        4    1    3    3  502    0 -0.86822462581E+02  0.62803827811E+03 -0.14256512226E+03  0.64984355483E+03  0.12699999809E+01 0. -1.
       -4    1    3    3    0  502  0.86822462581E+02 -0.62803827811E+03 -0.85019263102E+03  0.10605655762E+04  0.12699999809E+01 0.  1.
</event>
<event>
 5   0  0.6194742E-04  0.1416845E+04  0.7818609E-02  0.8941715E-01
       -1   -1    0    0    0  501  0.00000000000E+00  0.00000000000E+00  0.68208682880E+03  0.68208682882E+03  0.50400001928E-02 0.  1.
        1   -1    0    0  501    0  0.00000000000E+00  0.00000000000E+00 -0.73577507993E+03  0.73577507994E+03  0.50400001928E-02 0. -1.
    10030    2    1    2    0    0  0.00000000000E+00  0.00000000000E+00 -0.53688251123E+02  0.14178619088E+04  0.14168450741E+04 0.  0.
        4    1    3    3  502    0 -0.38374399470E+03 -0.31029515997E+02 -0.62194610947E+03  0.73146487292E+03  0.12699999809E+01 0. -1.
       -4    1    3    3    0  502  0.38374399470E+03  0.31029515997E+02  0.56825785835E+03  0.68639703584E+03  0.12699999809E+01 0.  1.
</event>
<event>
 5   0  0.5875298E-04  0.1385332E+04  0.7818609E-02  0.8964505E-01
       -1   -1    0    0    0  501  0.00000000000E+00  0.00000000000E+00  0.37152449765E+03  0.37152449769E+03  0.50400001928E-02 0.  1.
        1   -1    0    0  501    0  0.00000000000E+00  0.00000000000E+00 -0.12913985559E+04  0.12913985559E+04  0.50400001928E-02 0. -1.
    10030    2    1    2    0    0  0.00000000000E+00  0.00000000000E+00 -0.91987405823E+03  0.16629230536E+04  0.13853320177E+04 0.  0.
        1    1    3    3  502    0  0.57336073182E+03  0.10010946570E+02  0.64274032308E+01  0.57348414048E+03  0.50400001928E-02 0.  1.
       -1    1    3    3    0  502 -0.57336073182E+03 -0.10010946570E+02 -0.92630146146E+03  0.10894389131E+04  0.50400001928E-02 0. -1.
</event>
<event>
 5   0  0.1098949E-03  0.1417477E+04  0.7818609E-02  0.8941264E-01
        2   -1    0    0  501    0  0.00000000000E+00  0.00000000000E+00  0.16343133186E+04  0.16343133186E+04  0.25500000920E-02 0. -1.
       -2   -1    0    0    0  501  0.00000000000E+00  0.00000000000E+00 -0.30735254755E+03  0.30735254756E+03  0.25500000920E-02 0.  1.
    10030    2    1    2    0    0  0.00000000000E+00  0.00000000000E+00  0.13269607710E+04  0.19416658661E+04  0.14174771419E+04 0.  0.
        4    1    3    3  502    0  0.25865423735E+03 -0.22529775119E+01  0.15673451806E+04  0.15885463854E+04  0.12699999809E+01 0. -1.
       -4    1    3    3    0  502 -0.25865423735E+03  0.22529775119E+01 -0.24038440960E+03  0.35311948075E+03  0.12699999809E+01 0.  1.
</event>
<event>
 5   0  0.1095119E-03  0.1373977E+04  0.7818609E-02  0.8972874E-01
        2   -1    0    0  501    0  0.00000000000E+00  0.00000000000E+00  0.49486799772E+03  0.49486799773E+03  0.25500000920E-02 0. -1.
       -2   -1    0    0    0  501  0.00000000000E+00  0.00000000000E+00 -0.95369525246E+03  0.95369525246E+03  0.25500000920E-02 0.  1.
    10030    2    1    2    0    0  0.00000000000E+00  0.00000000000E+00 -0.45882725473E+03  0.14485632502E+04  0.13739770886E+04 0.  0.
        5    1    3    3  502    0 -0.42553058257E+03 -0.34573014882E+03 -0.66579785872E+03  0.86250477749E+03  0.46999998093E+01 0.  1.
       -5    1    3    3    0  502  0.42553058257E+03  0.34573014882E+03  0.20697060399E+03  0.58605847270E+03  0.46999998093E+01 0. -1.
</event>
<event>
 5   0  0.6153318E-04  0.1398962E+04  0.7818609E-02  0.8954570E-01
        1   -1    0    0  501    0  0.00000000000E+00  0.00000000000E+00  0.81641197899E+03  0.81641197900E+03  0.50400001928E-02 0. -1.
       -1   -1    0    0    0  501  0.00000000000E+00  0.00000000000E+00 -0.59929768437E+03  0.59929768439E+03  0.50400001928E-02 0.  1.
    10030    2    1    2    0    0  0.00000000000E+00  0.00000000000E+00  0.21711429461E+03  0.14157096634E+04  0.13989621990E+04 0.  0.
        5    1    3    3  502    0 -0.32014297062E+03 -0.82612237570E+02 -0.51521087336E+03  0.61219330073E+03  0.46999998093E+01 0.  1.
       -5    1    3    3    0  502  0.32014297062E+03  0.82612237570E+02  0.73232516797E+03  0.80351636267E+03  0.46999998093E+01 0. -1.
</event>
<event>
 5   0  0.1175146E-03  0.1407030E+04  0.7818609E-02  0.8948746E-01
       -2   -1    0    0    0  501  0.00000000000E+00  0.00000000000E+00  0.21419921278E+03  0.21419921279E+03  0.25500000920E-02 0.  1.
        2   -1    0    0  501    0  0.00000000000E+00  0.00000000000E+00 -0.23106218529E+04  0.23106218529E+04  0.25500000920E-02 0. -1.
    10030    2    1    2    0    0  0.00000000000E+00  0.00000000000E+00 -0.20964226401E+04  0.25248210657E+04  0.14070300380E+04 0.  0.
        1    1    3    3  502    0  0.36519722863E+02  0.60423810521E+03 -0.40497279568E+03  0.72831335509E+03  0.50400001928E-02 0.  1.
       -1    1    3    3    0  502 -0.36519722863E+02 -0.60423810521E+03 -0.16914498444E+04  0.17965077106E+04  0.50400001928E-02 0. -1.
</event>
<event>
 5   0  0.1120053E-03  0.1401395E+04  0.7818609E-02  0.8952809E-01
       -2   -1    0    0    0  501  0.00000000000E+00  0.00000000000E+00  0.34267754335E+03  0.34267754336E+03  0.25500000920E-02 0.  1.
        2   -1    0    0  501    0  0.00000000000E+00  0.00000000000E+00 -0.14327668912E+04  0.14327668912E+04  0.25500000920E-02 0. -1.
    10030    2    1    2    0    0  0.00000000000E+00  0.00000000000E+00 -0.10900893478E+04  0.17754444345E+04  0.14013950742E+04 0.  0.
        2    1    3    3  502    0  0.61919584271E+03  0.24600423337E+03 -0.27022265334E+03  0.71898668753E+03  0.25500000920E-02 0.  1.
       -2    1    3    3    0  502 -0.61919584271E+03 -0.24600423337E+03 -0.81986669450E+03  0.10564577470E+04  0.25500000920E-02 0. -1.
</event>
<event>
 5   0  0.1120053E-03  0.1401793E+04  0.7818609E-02  0.8952522E-01
        2   -1    0    0  501    0  0.00000000000E+00  0.00000000000E+00  0.50501543621E+03  0.50501543621E+03  0.25500000920E-02 0.  1.
       -2   -1    0    0    0  501  0.00000000000E+00  0.00000000000E+00 -0.97275396384E+03  0.97275396385E+03  0.25500000920E-02 0. -1.
    10030    2    1    2    0    0  0.00000000000E+00  0.00000000000E+00 -0.46773852764E+03  0.14777694001E+04  0.14017928055E+04 0.  0.
        2    1    3    3  502    0  0.15768318847E+03 -0.11004621568E+03 -0.94440417428E+03  0.96378078520E+03  0.25500000920E-02 0. -1.
       -2    1    3    3    0  502 -0.15768318847E+03  0.11004621568E+03  0.47666564664E+03  0.51398861486E+03  0.25500000920E-02 0.  1.
</event>
<event>
 5   0  0.6194742E-04  0.1368430E+04  0.7818609E-02  0.8976993E-01
        1   -1    0    0  501    0  0.00000000000E+00  0.00000000000E+00  0.97707056153E+03  0.97707056154E+03  0.50400001928E-02 0. -1.
       -1   -1    0    0    0  501  0.00000000000E+00  0.00000000000E+00 -0.47913661364E+03  0.47913661366E+03  0.50400001928E-02 0.  1.
    10030    2    1    2    0    0  0.00000000000E+00  0.00000000000E+00  0.49793394789E+03  0.14562071752E+04  0.13684301665E+04 0.  0.
        4    1    3    3  502    0  0.45553211052E+03 -0.24899076171E+03 -0.22531530945E+03  0.56592800311E+03  0.12699999809E+01 0.  1.
       -4    1    3    3    0  502 -0.45553211052E+03  0.24899076171E+03  0.72324925734E+03  0.89027917210E+03  0.12699999809E+01 0. -1.
</event>
<event>
 5   0  0.5875298E-04  0.1400791E+04  0.7818609E-02  0.8953246E-01
       -1   -1    0    0    0  501  0.00000000000E+00  0.00000000000E+00  0.38652696485E+03  0.38652696488E+03  0.50400001928E-02 0.  1.
        1   -1    0    0  501    0  0.00000000000E+00  0.00000000000E+00 -0.12691322602E+04  0.12691322602E+04  0.50400001928E-02 0. -1.
    10030    2    1    2    0    0  0.00000000000E+00  0.00000000000E+00 -0.88260529533E+03  0.16556592251E+04  0.14007909773E+04 0.  0.
        1    1    3    3  502    0  0.27960627176E+03 -0.36648072932E+03  0.18196071730E+03  0.49557794022E+03  0.50400001928E-02 0.  1.
       -1    1    3    3    0  502 -0.27960627176E+03  0.36648072932E+03 -0.10645660126E+04  0.11600812848E+04  0.50400001928E-02 0. -1.
</event>
<event>
 5   0  0.1095119E-03  0.1400354E+04  0.7818609E-02  0.8953562E-01
        2   -1    0    0  501    0  0.00000000000E+00  0.00000000000E+00  0.51021021978E+03  0.51021021979E+03  0.25500000920E-02 0. -1.
       -2   -1    0    0    0  501  0.00000000000E+00  0.00000000000E+00 -0.96087482212E+03  0.96087482213E+03  0.25500000920E-02 0.  1.
    10030    2    1    2    0    0  0.00000000000E+00  0.00000000000E+00 -0.45066460234E+03  0.14710850419E+04  0.14003544611E+04 0.  0.
        5    1    3    3  502    0 -0.53094123605E+03 -0.25625189891E+03  0.17145212022E+03  0.61398823389E+03  0.46999998093E+01 0.  1.
       -5    1    3    3    0  502  0.53094123605E+03  0.25625189891E+03 -0.62211672256E+03  0.85709680802E+03  0.46999998093E+01 0. -1.
</event>
<event>
 5   0  0.6153318E-04  0.1401341E+04  0.7818609E-02  0.8952848E-01
       -1   -1    0    0    0  501  0.00000000000E+00  0.00000000000E+00  0.35845682236E+03  0.35845682239E+03  0.50400001928E-02 0. -1.
        1   -1    0    0  501    0  0.00000000000E+00  0.00000000000E+00 -0.13695906862E+04  0.13695906862E+04  0.50400001928E-02 0.  1.
    10030    2    1    2    0    0  0.00000000000E+00  0.00000000000E+00 -0.10111338638E+04  0.17280475086E+04  0.14013409654E+04 0.  0.
        5    1    3    3  502    0 -0.49104116524E+02 -0.68215185429E+03 -0.69329042551E+03  0.97386655691E+03  0.46999998093E+01 0. -1.
       -5    1    3    3    0  502  0.49104116524E+02  0.68215185429E+03 -0.31784343829E+03  0.75418095165E+03  0.46999998093E+01 0.  1.
</event>
<event>
 5   0  0.1120053E-03  0.1414286E+04  0.7818609E-02  0.8943542E-01
       -2   -1    0    0    0  501  0.00000000000E+00  0.00000000000E+00  0.38568507007E+03  0.38568507008E+03  0.25500000920E-02 0. -1.
        2   -1    0    0  501    0  0.00000000000E+00  0.00000000000E+00 -0.12965278553E+04  0.12965278553E+04  0.25500000920E-02 0.  1.
    10030    2    1    2    0    0  0.00000000000E+00  0.00000000000E+00 -0.91084278525E+03  0.16822129254E+04  0.14142863030E+04 0.  0.
        2    1    3    3  502    0  0.56074950630E+03 -0.29048925747E+03 -0.76985158123E+02  0.63620022957E+03  0.25500000920E-02 0. -1.
       -2    1    3    3    0  502 -0.56074950630E+03  0.29048925747E+03 -0.83385762713E+03  0.10460126958E+04  0.25500000920E-02 0.  1.
</event>
<event>
 5   0  0.1098949E-03  0.1417852E+04  0.7818609E-02  0.8940997E-01
       -2   -1    0    0    0  501  0.00000000000E+00  0.00000000000E+00  0.67566138868E+03  0.67566138868E+03  0.25500000920E-02 0. -1.
        2   -1    0    0  501    0  0.00000000000E+00  0.00000000000E+00 -0.74382780366E+03  0.74382780367E+03  0.25500000920E-02 0.  1.
    10030    2    1    2    0    0  0.00000000000E+00  0.00000000000E+00 -0.68166414984E+02  0.14194891923E+04  0.14178515109E+04 0.  0.
        4    1    3    3  502    0 -0.65747993229E+03  0.16110760786E+03 -0.24489373005E+03  0.71986809528E+03  0.12699999809E+01 0.  1.
       -4    1    3    3    0  502  0.65747993229E+03 -0.16110760786E+03  0.17672731507E+03  0.69962109707E+03  0.12699999809E+01 0. -1.
</event>
<event>
 5   0  0.6194742E-04  0.1399218E+04  0.7818609E-02  0.8954385E-01
       -1   -1    0    0    0  501  0.00000000000E+00  0.00000000000E+00  0.39431179153E+03  0.39431179156E+03  0.50400001928E-02 0. -1.
        1   -1    0    0  501    0  0.00000000000E+00  0.00000000000E+00 -0.12412841799E+04  0.12412841799E+04  0.50400001928E-02 0.  1.
    10030    2    1    2    0    0  0.00000000000E+00  0.00000000000E+00 -0.84697238837E+03  0.16355959715E+04  0.13992183372E+04 0.  0.
        4    1    3    3  502    0  0.23110695729E+02 -0.42768458248E+02 -0.12393061371E+04  0.12402598758E+04  0.12699999809E+01 0.  1.
       -4    1    3    3    0  502 -0.23110695729E+02  0.42768458248E+02  0.39233374869E+03  0.39533609567E+03  0.12699999809E+01 0. -1.
</event>
<event>
 5   0  0.1095119E-03  0.1409118E+04  0.7818609E-02  0.8947245E-01
       -2   -1    0    0    0  501  0.00000000000E+00  0.00000000000E+00  0.33504981710E+03  0.33504981711E+03  0.25500000920E-02 0. -1.
        2   -1    0    0  501    0  0.00000000000E+00  0.00000000000E+00 -0.14815801887E+04  0.14815801887E+04  0.25500000920E-02 0.  1.
    10030    2    1    2    0    0  0.00000000000E+00  0.00000000000E+00 -0.11465303716E+04  0.18166300058E+04  0.14091176974E+04 0.  0.
        5    1    3    3  502    0 -0.46766428615E+03 -0.10548471946E+03 -0.12388506188E+04  0.13283861849E+04  0.46999998093E+01 0.  1.
       -5    1    3    3    0  502  0.46766428615E+03  0.10548471946E+03  0.92320247219E+02  0.48824382088E+03  0.46999998093E+01 0. -1.
</event>
<event>
 5   0  0.1108819E-03  0.1408516E+04  0.7818609E-02  0.8947677E-01
        2   -1    0    0  501    0  0.00000000000E+00  0.00000000000E+00  0.20916501724E+04  0.20916501724E+04  0.25500000920E-02 0. -1.
       -2   -1    0    0    0  501  0.00000000000E+00  0.00000000000E+00 -0.23712344877E+03  0.23712344878E+03  0.25500000920E-02 0.  1.
    10030    2    1    2    0    0  0.00000000000E+00  0.00000000000E+00  0.18545267236E+04  0.23287736212E+04  0.14085159602E+04 0.  0.
        3    1    3    3  502    0 -0.61267758371E+03  0.56943899521E+02  0.36085344513E+03  0.71332436404E+03  0.10100000352E+00 0.  1.
       -3    1    3    3    0  502  0.61267758371E+03 -0.56943899521E+02  0.14936732785E+04  0.16154492572E+04  0.10100000352E+00 0. -1.
</event>
<event>
 5   0  0.1098949E-03  0.1395447E+04  0.7818609E-02  0.8957121E-01
       -2   -1    0    0    0  501  0.00000000000E+00  0.00000000000E+00  0.35808971621E+03  0.35808971622E+03  0.25500000920E-02 0.  1.
        2   -1    0    0  501    0  0.00000000000E+00  0.00000000000E+00 -0.13594871262E+04  0.13594871262E+04  0.25500000920E-02 0. -1.
    10030    2    1    2    0    0  0.00000000000E+00  0.00000000000E+00 -0.10013974100E+04  0.17175768424E+04  0.13954473967E+04 0.  0.
        4    1    3    3  502    0 -0.13042993156E+03 -0.27438589484E+03 -0.12737986729E+04  0.13095282579E+04  0.12699999809E+01 0. -1.
       -4    1    3    3    0  502  0.13042993156E+03  0.27438589484E+03  0.27240126294E+03  0.40804858446E+03  0.12699999809E+01 0.  1.
</event>
<event>
 5   0  0.6097538E-04  0.1154683E+04  0.7818609E-02  0.9153474E-01
       -1   -1    0    0    0  501  0.00000000000E+00  0.00000000000E+00  0.78598856849E+03  0.78598856851E+03  0.50400001928E-02 0.  1.
        1   -1    0    0  501    0  0.00000000000E+00  0.00000000000E+00 -0.42408157247E+03  0.42408157250E+03  0.50400001928E-02 0. -1.
    10030    2    1    2    0    0  0.00000000000E+00  0.00000000000E+00  0.36190699602E+03  0.12100701410E+04  0.11546831048E+04 0.  0.
        2    1    3    3  502    0  0.56038191114E+02 -0.50636961634E+03 -0.10368646188E+03  0.51990513519E+03  0.25500000920E-02 0. -1.
       -2    1    3    3    0  502 -0.56038191114E+02  0.50636961634E+03  0.46559345789E+03  0.69016500582E+03  0.25500000920E-02 0.  1.
</event>
<event>
 5   0  0.1095119E-03  0.1382973E+04  0.7818609E-02  0.8966236E-01
        2   -1    0    0  501    0  0.00000000000E+00  0.00000000000E+00  0.43224291155E+03  0.43224291156E+03  0.25500000920E-02 0.  1.
       -2   -1    0    0    0  501  0.00000000000E+00  0.00000000000E+00 -0.11062156548E+04  0.11062156548E+04  0.25500000920E-02 0. -1.
    10030    2    1    2    0    0  0.00000000000E+00  0.00000000000E+00 -0.67397274330E+03  0.15384585664E+04  0.13829734277E+04 0.  0.
        5    1    3    3  502    0 -0.12523456243E+03  0.52059462141E+03  0.14973028409E+03  0.55600692751E+03  0.46999998093E+01 0.  1.
       -5    1    3    3    0  502  0.12523456243E+03 -0.52059462141E+03 -0.82370302738E+03  0.98245163890E+03  0.46999998093E+01 0. -1.
</event>
<event>
 5   0  0.6153318E-04  0.1398428E+04  0.7818609E-02  0.8954957E-01
       -1   -1    0    0    0  501  0.00000000000E+00  0.00000000000E+00  0.65314730887E+03  0.65314730889E+03  0.50400001928E-02 0.  1.
        1   -1    0    0  501    0  0.00000000000E+00  0.00000000000E+00 -0.74852997863E+03  0.74852997865E+03  0.50400001928E-02 0. -1.
    10030    2    1    2    0    0  0.00000000000E+00  0.00000000000E+00 -0.95382669763E+02  0.14016772875E+04  0.13984281765E+04 0.  0.
        5    1    3    3  502    0  0.54723575891E+03  0.22072528785E+03  0.32826896698E+03  0.67525493942E+03  0.46999998093E+01 0.  1.
       -5    1    3    3    0  502 -0.54723575891E+03 -0.22072528785E+03 -0.42365163675E+03  0.72642234812E+03  0.46999998093E+01 0. -1.
</event>
<event>
 5   0  0.1098949E-03  0.1369587E+04  0.7818609E-02  0.8976132E-01
       -2   -1    0    0    0  501  0.00000000000E+00  0.00000000000E+00  0.57925723450E+03  0.57925723451E+03  0.25500000920E-02 0.  1.
        2   -1    0    0  501    0  0.00000000000E+00  0.00000000000E+00 -0.80955744808E+03  0.80955744808E+03  0.25500000920E-02 0. -1.
    10030    2    1    2    0    0  0.00000000000E+00  0.00000000000E+00 -0.23030021358E+03  0.13888146826E+04  0.13695868115E+04 0.  0.
        4    1    3    3  502    0  0.32880035447E+03 -0.59144328324E+03 -0.22162694983E+03  0.71206386524E+03  0.12699999809E+01 0.  1.
       -4    1    3    3    0  502 -0.32880035447E+03  0.59144328324E+03 -0.86732637515E+01  0.67675081735E+03  0.12699999809E+01 0. -1.
</event>
<event>
 5   0  0.5875298E-04  0.1379897E+04  0.7818609E-02  0.8968500E-01
        1   -1    0    0  501    0  0.00000000000E+00  0.00000000000E+00  0.99468352914E+03  0.99468352916E+03  0.50400001928E-02 0. -1.
       -1   -1    0    0    0  501  0.00000000000E+00  0.00000000000E+00 -0.47857316620E+03  0.47857316622E+03  0.50400001928E-02 0.  1.
    10030    2    1    2    0    0  0.00000000000E+00  0.00000000000E+00  0.51611036295E+03  0.14732566954E+04  0.13798968743E+04 0.  0.
        1    1    3    3  502    0  0.39174179438E+03 -0.34570152736E+03  0.73916197342E+03  0.90516937777E+03  0.50400001928E-02 0. -1.
       -1    1    3    3    0  502 -0.39174179438E+03  0.34570152736E+03 -0.22305161047E+03  0.56808731761E+03  0.50400001928E-02 0.  1.
</event>
<event>
 5   0  0.1095119E-03  0.1397588E+04  0.7818609E-02  0.8955567E-01
       -2   -1    0    0    0  501  0.00000000000E+00  0.00000000000E+00  0.30427582201E+03  0.30427582202E+03  0.25500000920E-02 0. -1.
        2   -1    0    0  501    0  0.00000000000E+00  0.00000000000E+00 -0.16048358206E+04  0.16048358206E+04  0.25500000920E-02 0.  1.
    10030    2    1    2    0    0  0.00000000000E+00  0.00000000000E+00 -0.13005599986E+04  0.19091116426E+04  0.13975875479E+04 0.  0.
        5    1    3    3  502    0  0.64112307615E+03 -0.20673656654E+03 -0.39651228258E+03  0.78167952957E+03  0.46999998093E+01 0. -1.
       -5    1    3    3    0  502 -0.64112307615E+03  0.20673656654E+03 -0.90404771605E+03  0.11274321131E+04  0.46999998093E+01 0.  1.
</event>
<event>
 5   0  0.6153318E-04  0.1389248E+04  0.7818609E-02  0.8961639E-01
       -1   -1    0    0    0  501  0.00000000000E+00  0.00000000000E+00  0.34552910016E+03  0.34552910020E+03  0.50400001928E-02 0. -1.
        1   -1    0    0  501    0  0.00000000000E+00  0.00000000000E+00 -0.13964159873E+04  0.13964159873E+04  0.50400001928E-02 0.  1.
    10030    2    1    2    0    0  0.00000000000E+00  0.00000000000E+00 -0.10508868871E+04  0.17419450875E+04  0.13892477959E+04 0.  0.
        5    1    3    3  502    0 -0.18487388971E+02  0.43577183371E+03  0.15239408516E+03  0.46204428554E+03  0.46999998093E+01 0. -1.
       -5    1    3    3    0  502  0.18487388971E+02 -0.43577183371E+03 -0.12032809723E+04  0.12799008020E+04  0.46999998093E+01 0.  1.
</event>
<event>
 5   0  0.6153318E-04  0.1399360E+04  0.7818609E-02  0.8954282E-01
       -1   -1    0    0    0  501  0.00000000000E+00  0.00000000000E+00  0.35121148740E+03  0.35121148743E+03  0.50400001928E-02 0. -1.
        1   -1    0    0  501    0  0.00000000000E+00  0.00000000000E+00 -0.13938951290E+04  0.13938951290E+04  0.50400001928E-02 0.  1.
    10030    2    1    2    0    0  0.00000000000E+00  0.00000000000E+00 -0.10426836416E+04  0.17451066164E+04  0.13993598273E+04 0.  0.
        5    1    3    3  502    0  0.24461179445E+03 -0.56676175285E+03 -0.11060886688E+03  0.62714450162E+03  0.46999998093E+01 0. -1.
       -5    1    3    3    0  502 -0.24461179445E+03  0.56676175285E+03 -0.93207477468E+03  0.11179621148E+04  0.46999998093E+01 0.  1.
</event>
<event>
 5   0  0.1095119E-03  0.1400161E+04  0.7818609E-02  0.8953702E-01
       -2   -1    0    0    0  501  0.00000000000E+00  0.00000000000E+00  0.30506389995E+03  0.30506389996E+03  0.25500000920E-02 0. -1.
        2   -1    0    0  501    0  0.00000000000E+00  0.00000000000E+00 -0.16065893297E+04  0.16065893297E+04  0.25500000920E-02 0.  1.
    10030    2    1    2    0    0  0.00000000000E+00  0.00000000000E+00 -0.13015254298E+04  0.19116532297E+04  0.14001605716E+04 0.  0.
        5    1    3    3  502    0  0.29263018774E+03 -0.63341512774E+03 -0.72851547981E+03  0.10087636220E+04  0.46999998093E+01 0.  1.
       -5    1    3    3    0  502 -0.29263018774E+03  0.63341512774E+03 -0.57300994996E+03  0.90288960764E+03  0.46999998093E+01 0. -1.
</event>
<event>
 5   0  0.6194742E-04  0.1401444E+04  0.7818609E-02  0.8952774E-01
        1   -1    0    0  501    0  0.00000000000E+00  0.00000000000E+00  0.12607279873E+04  0.12607279874E+04  0.50400001928E-02 0.  1.
       -1   -1    0    0    0  501  0.00000000000E+00  0.00000000000E+00 -0.38946628291E+03  0.38946628294E+03  0.50400001928E-02 0. -1.
    10030    2    1    2    0    0  0.00000000000E+00  0.00000000000E+00  0.87126170444E+03  0.16501942703E+04  0.14014436029E+04 0.  0.
        4    1    3    3  502    0 -0.28577992468E+02  0.53791748081E+03 -0.92062795202E+02  0.54648795867E+03  0.12699999809E+01 0. -1.
       -4    1    3    3    0  502  0.28577992468E+02 -0.53791748081E+03  0.96332449964E+03  0.11037063116E+04  0.12699999809E+01 0.  1.
</event>
<event>
 5   0  0.6194742E-04  0.1423749E+04  0.7818609E-02  0.8936805E-01
        1   -1    0    0  501    0  0.00000000000E+00  0.00000000000E+00  0.67616571195E+03  0.67616571197E+03  0.50400001928E-02 0.  1.
       -1   -1    0    0    0  501  0.00000000000E+00  0.00000000000E+00 -0.74946859660E+03  0.74946859661E+03  0.50400001928E-02 0. -1.
    10030    2    1    2    0    0  0.00000000000E+00  0.00000000000E+00 -0.73302884642E+02  0.14256343086E+04  0.14237485273E+04 0.  0.
        4    1    3    3  502    0  0.50987235193E+02  0.70070064448E+03  0.78314667603E+02  0.70690585752E+03  0.12699999809E+01 0.  1.
       -4    1    3    3    0  502 -0.50987235193E+02 -0.70070064448E+03 -0.15161755225E+03  0.71872845107E+03  0.12699999809E+01 0. -1.
</event>
<event>
 5   0  0.6153318E-04  0.1431190E+04  0.7818609E-02  0.8931546E-01
       -1   -1    0    0    0  501  0.00000000000E+00  0.00000000000E+00  0.71042307495E+03  0.71042307497E+03  0.50400001928E-02 0. -1.
        1   -1    0    0  501    0  0.00000000000E+00  0.00000000000E+00 -0.72080467850E+03  0.72080467851E+03  0.50400001928E-02 0.  1.
    10030    2    1    2    0    0  0.00000000000E+00  0.00000000000E+00 -0.10381603548E+02  0.14312277535E+04  0.14311901008E+04 0.  0.
        5    1    3    3  502    0  0.69928241433E+03 -0.15522603395E+02  0.14586726838E+03  0.71451815665E+03  0.46999998093E+01 0. -1.
       -5    1    3    3    0  502 -0.69928241433E+03  0.15522603395E+02 -0.15624887193E+03  0.71670959683E+03  0.46999998093E+01 0.  1.
</event>
<event>
 5   0  0.6194742E-04  0.1397130E+04  0.7818609E-02  0.8955899E-01
        1   -1    0    0  501    0  0.00000000000E+00  0.00000000000E+00  0.60451638459E+03  0.60451638461E+03  0.50400001928E-02 0.  1.
       -1   -1    0    0    0  501  0.00000000000E+00  0.00000000000E+00 -0.80724524897E+03  0.80724524898E+03  0.50400001928E-02 0. -1.
    10030    2    1    2    0    0  0.00000000000E+00  0.00000000000E+00 -0.20272886438E+03  0.14117616336E+04  0.13971298857E+04 0.  0.
        4    1    3    3  502    0  0.52873529576E+03 -0.27545059452E+03  0.26653274521E+03  0.65305080980E+03  0.12699999809E+01 0.  1.
       -4    1    3    3    0  502 -0.52873529576E+03  0.27545059452E+03 -0.46926160959E+03  0.75871082379E+03  0.12699999809E+01 0. -1.
</event>
<event>
 5   0  0.6194742E-04  0.1273816E+04  0.7818609E-02  0.9050591E-01
        1   -1    0    0  501    0  0.00000000000E+00  0.00000000000E+00  0.71844611822E+03  0.71844611823E+03  0.50400001928E-02 0. -1.
       -1   -1    0    0    0  501  0.00000000000E+00  0.00000000000E+00 -0.56462368515E+03  0.56462368518E+03  0.50400001928E-02 0.  1.
    10030    2    1    2    0    0  0.00000000000E+00  0.00000000000E+00  0.15382243306E+03  0.12830698034E+04  0.12738158342E+04 0.  0.
        4    1    3    3  502    0  0.12766937028E+03  0.16927694274E+03 -0.52803151403E+03  0.56901058352E+03  0.12699999809E+01 0.  1.
       -4    1    3    3    0  502 -0.12766937028E+03 -0.16927694274E+03  0.68185394709E+03  0.71405921989E+03  0.12699999809E+01 0. -1.
</event>
<event>
 5   0  0.6194742E-04  0.1389098E+04  0.7818609E-02  0.8961748E-01
       -1   -1    0    0    0  501  0.00000000000E+00  0.00000000000E+00  0.48448437842E+03  0.48448437845E+03  0.50400001928E-02 0. -1.
        1   -1    0    0  501    0  0.00000000000E+00  0.00000000000E+00 -0.99569371941E+03  0.99569371942E+03  0.50400001928E-02 0.  1.
    10030    2    1    2    0    0  0.00000000000E+00  0.00000000000E+00 -0.51120934099E+03  0.14801780979E+04  0.13890976248E+04 0.  0.
        4    1    3    3  502    0 -0.65164854094E+03  0.23187780386E+03 -0.18835303055E+03  0.71686233954E+03  0.12699999809E+01 0. -1.
       -4    1    3    3    0  502  0.65164854094E+03 -0.23187780386E+03 -0.32285631044E+03  0.76331575833E+03  0.12699999809E+01 0.  1.
</event>
<event>
 5   0  0.5875298E-04  0.1406862E+04  0.7818609E-02  0.8948866E-01
       -1   -1    0    0    0  501  0.00000000000E+00  0.00000000000E+00  0.94566120914E+03  0.94566120915E+03  0.50400001928E-02 0. -1.
        1   -1    0    0  501    0  0.00000000000E+00  0.00000000000E+00 -0.52324811226E+03  0.52324811228E+03  0.50400001928E-02 0.  1.
    10030    2    1    2    0    0  0.00000000000E+00  0.00000000000E+00  0.42241309688E+03  0.14689093214E+04  0.14068623849E+04 0.  0.
        1    1    3    3  502    0 -0.60107989973E+03  0.36532265423E+03  0.20327171052E+03  0.73217284562E+03  0.50400001928E-02 0. -1.
       -1    1    3    3    0  502  0.60107989973E+03 -0.36532265423E+03  0.21914138636E+03  0.73673647581E+03  0.50400001928E-02 0.  1.
</event>
<event>
 5   0  0.1120053E-03  0.1393545E+04  0.7818609E-02  0.8958504E-01
       -2   -1    0    0    0  501  0.00000000000E+00  0.00000000000E+00  0.37226438153E+03  0.37226438154E+03  0.25500000920E-02 0. -1.
        2   -1    0    0  501    0  0.00000000000E+00  0.00000000000E+00 -0.13041593581E+04  0.13041593581E+04  0.25500000920E-02 0.  1.
    10030    2    1    2    0    0  0.00000000000E+00  0.00000000000E+00 -0.93189497660E+03  0.16764237397E+04  0.13935452298E+04 0.  0.
        2    1    3    3  502    0 -0.30483293537E+03 -0.15495324021E+03  0.26437709672E+03  0.43223705813E+03  0.25500000920E-02 0. -1.
       -2    1    3    3    0  502  0.30483293537E+03  0.15495324021E+03 -0.11962720733E+04  0.12441866816E+04  0.25500000920E-02 0.  1.
</event>
<event>
 5   0  0.5875298E-04  0.1307168E+04  0.7818609E-02  0.9023900E-01
       -1   -1    0    0    0  501  0.00000000000E+00  0.00000000000E+00  0.11195871628E+04  0.11195871628E+04  0.50400001928E-02 0.  1.
        1   -1    0    0  501    0  0.00000000000E+00  0.00000000000E+00 -0.38154425379E+03  0.38154425382E+03  0.50400001928E-02 0. -1.
    10030    2    1    2    0    0  0.00000000000E+00  0.00000000000E+00  0.73804290899E+03  0.15011314166E+04  0.13071680054E+04 0.  0.
        1    1    3    3  502    0 -0.16785504041E+03 -0.56723629068E+03  0.49862037602E+02  0.59364850448E+03  0.50400001928E-02 0. -1.
       -1    1    3    3    0  502  0.16785504041E+03  0.56723629068E+03  0.68818087139E+03  0.90748291214E+03  0.50400001928E-02 0.  1.
</event>
<event>
 5   0  0.5875298E-04  0.1394886E+04  0.7818609E-02  0.8957528E-01
        1   -1    0    0  501    0  0.00000000000E+00  0.00000000000E+00  0.53922251696E+03  0.53922251698E+03  0.50400001928E-02 0.  1.
       -1   -1    0    0    0  501  0.00000000000E+00  0.00000000000E+00 -0.90208943980E+03  0.90208943982E+03  0.50400001928E-02 0. -1.
    10030    2    1    2    0    0  0.00000000000E+00  0.00000000000E+00 -0.36286692284E+03  0.14413119568E+04  0.13948862868E+04 0.  0.
        1    1    3    3  502    0  0.12655602601E+03 -0.16193218214E+03  0.50722332191E+03  0.54727868372E+03  0.50400001928E-02 0.  1.
       -1    1    3    3    0  502 -0.12655602601E+03  0.16193218214E+03 -0.87009024476E+03  0.89403327308E+03  0.50400001928E-02 0. -1.
</event>
<event>
 5   0  0.1095119E-03  0.1403307E+04  0.7818609E-02  0.8951428E-01
        2   -1    0    0  501    0  0.00000000000E+00  0.00000000000E+00  0.12340810858E+04  0.12340810858E+04  0.25500000920E-02 0.  1.
       -2   -1    0    0    0  501  0.00000000000E+00  0.00000000000E+00 -0.39893441902E+03  0.39893441902E+03  0.25500000920E-02 0. -1.
    10030    2    1    2    0    0  0.00000000000E+00  0.00000000000E+00  0.83514666675E+03  0.16330155048E+04  0.14033066963E+04 0.  0.
        5    1    3    3  502    0  0.64551519976E+02 -0.34857551707E+03 -0.28703517731E+03  0.45616123558E+03  0.46999998093E+01 0. -1.
       -5    1    3    3    0  502 -0.64551519976E+02  0.34857551707E+03  0.11221818441E+04  0.11768542692E+04  0.46999998093E+01 0.  1.
</event>
<event>
 5   0  0.4176125E-04  0.1403353E+04  0.7818609E-02  0.8951395E-01
        4   -1    0    0  501    0  0.00000000000E+00  0.00000000000E+00  0.88345375363E+03  0.88345466647E+03  0.12699999809E+01 0.  1.
       -4   -1    0    0    0  501  0.00000000000E+00  0.00000000000E+00 -0.55729909748E+03  0.55730054455E+03  0.12699999809E+01 0. -1.
    10030    2    1    2    0    0  0.00000000000E+00  0.00000000000E+00  0.32615465614E+03  0.14407552110E+04  0.14033526707E+04 0.  0.
        1    1    3    3  502    0  0.24189629008E+03 -0.48039011078E+02 -0.51133876207E+03  0.56770493336E+03  0.50400001928E-02 0. -1.
       -1    1    3    3    0  502 -0.24189629008E+03  0.48039011078E+02  0.83749341821E+03  0.87305027766E+03  0.50400001928E-02 0.  1.
</event>
<event>
 5   0  0.6114266E-04  0.1389397E+04  0.7818609E-02  0.8961529E-01
        1   -1    0    0  501    0  0.00000000000E+00  0.00000000000E+00  0.10486339347E+04  0.10486339347E+04  0.50400001928E-02 0.  1.
       -1   -1    0    0    0  501  0.00000000000E+00  0.00000000000E+00 -0.46022383102E+03  0.46022383105E+03  0.50400001928E-02 0. -1.
    10030    2    1    2    0    0  0.00000000000E+00  0.00000000000E+00  0.58841010364E+03  0.15088577657E+04  0.13893974619E+04 0.  0.
        3    1    3    3  502    0 -0.17800627100E+03 -0.36407704124E+03 -0.31854943562E+03  0.51547267397E+03  0.10100000352E+00 0. -1.
       -3    1    3    3    0  502  0.17800627100E+03  0.36407704124E+03  0.90695953926E+03  0.99338509176E+03  0.10100000352E+00 0.  1.
</event>
<event>
 5   0  0.6194742E-04  0.1397664E+04  0.7818609E-02  0.8955511E-01
        1   -1    0    0  501    0  0.00000000000E+00  0.00000000000E+00  0.19043961488E+04  0.19043961488E+04  0.50400001928E-02 0. -1.
       -1   -1    0    0    0  501  0.00000000000E+00  0.00000000000E+00 -0.25644143394E+03  0.25644143399E+03  0.50400001928E-02 0.  1.
    10030    2    1    2    0    0  0.00000000000E+00  0.00000000000E+00  0.16479547148E+04  0.21608375828E+04  0.13976638784E+04 0.  0.
        4    1    3    3  502    0  0.27551702112E+03  0.59099465388E+03  0.43537115124E+03  0.78404971913E+03  0.12699999809E+01 0.  1.
       -4    1    3    3    0  502 -0.27551702112E+03 -0.59099465388E+03  0.12125835636E+04  0.13767878636E+04  0.12699999809E+01 0. -1.
</event>
<event>
 5   0  0.6194742E-04  0.1396017E+04  0.7818609E-02  0.8956706E-01
        1   -1    0    0  501    0  0.00000000000E+00  0.00000000000E+00  0.99154014751E+03  0.99154014752E+03  0.50400001928E-02 0.  1.
       -1   -1    0    0    0  501  0.00000000000E+00  0.00000000000E+00 -0.49137311803E+03  0.49137311806E+03  0.50400001928E-02 0. -1.
    10030    2    1    2    0    0  0.00000000000E+00  0.00000000000E+00  0.50016702948E+03  0.14829132656E+04  0.13960174411E+04 0.  0.
        4    1    3    3  502    0 -0.22622736200E+03  0.40211547642E+03  0.80645977491E+03  0.92911498596E+03  0.12699999809E+01 0.  1.
       -4    1    3    3    0  502  0.22622736200E+03 -0.40211547642E+03 -0.30629274543E+03  0.55379827961E+03  0.12699999809E+01 0. -1.
</event>
<event>
 5   0  0.1098949E-03  0.1394450E+04  0.7818609E-02  0.8957846E-01
       -2   -1    0    0    0  501  0.00000000000E+00  0.00000000000E+00  0.51285774360E+03  0.51285774361E+03  0.25500000920E-02 0. -1.
        2   -1    0    0  501    0  0.00000000000E+00  0.00000000000E+00 -0.94787080130E+03  0.94787080131E+03  0.25500000920E-02 0.  1.
    10030    2    1    2    0    0  0.00000000000E+00  0.00000000000E+00 -0.43501305770E+03  0.14607285449E+04  0.13944502578E+04 0.  0.
        4    1    3    3  502    0 -0.38427232972E+03  0.29883412863E+03  0.30537175142E+03  0.57464822221E+03  0.12699999809E+01 0. -1.
       -4    1    3    3    0  502  0.38427232972E+03 -0.29883412863E+03 -0.74038480912E+03  0.88608032271E+03  0.12699999809E+01 0.  1.
</event>
<event>
 5   0  0.4176125E-04  0.1481995E+04  0.7818609E-02  0.8896515E-01
       -3   -1    0    0    0  501  0.00000000000E+00  0.00000000000E+00  0.72663542690E+03  0.72663543392E+03  0.10100000352E+00 0. -1.
        3   -1    0    0  501    0  0.00000000000E+00  0.00000000000E+00 -0.75564308702E+03  0.75564309377E+03  0.10100000352E+00 0.  1.
    10030    2    1    2    0    0  0.00000000000E+00  0.00000000000E+00 -0.29007660121E+02  0.14822785277E+04  0.14819946657E+04 0.  0.
        4    1    3    3  502    0  0.67550739536E+03 -0.93541272083E+02  0.27540548570E+03  0.73546584232E+03  0.12699999809E+01 0. -1.
       -4    1    3    3    0  502 -0.67550739536E+03  0.93541272083E+02 -0.30441314582E+03  0.74681268536E+03  0.12699999809E+01 0.  1.
</event>
<event>
 5   0  0.6114266E-04  0.1391772E+04  0.7818609E-02  0.8959796E-01
       -1   -1    0    0    0  501  0.00000000000E+00  0.00000000000E+00  0.37445899409E+03  0.37445899412E+03  0.50400001928E-02 0.  1.
        1   -1    0    0  501    0  0.00000000000E+00  0.00000000000E+00 -0.12932189037E+04  0.12932189037E+04  0.50400001928E-02 0. -1.
    10030    2    1    2    0    0  0.00000000000E+00  0.00000000000E+00 -0.91875990958E+03  0.16676778978E+04  0.13917721794E+04 0.  0.
        3    1    3    3  502    0 -0.58372396344E+03  0.26685043428E+03 -0.78160335472E+03  0.10113588058E+04  0.10100000352E+00 0. -1.
       -3    1    3    3    0  502  0.58372396344E+03 -0.26685043428E+03 -0.13715655486E+03  0.65631909199E+03  0.10100000352E+00 0.  1.
</event>
<event>
 5   0  0.1120053E-03  0.1403214E+04  0.7818609E-02  0.8951496E-01
        2   -1    0    0  501    0  0.00000000000E+00  0.00000000000E+00  0.15434467880E+04  0.15434467880E+04  0.25500000920E-02 0.  1.
       -2   -1    0    0    0  501  0.00000000000E+00  0.00000000000E+00 -0.31893041873E+03  0.31893041874E+03  0.25500000920E-02 0. -1.
    10030    2    1    2    0    0  0.00000000000E+00  0.00000000000E+00  0.12245163693E+04  0.18623772067E+04  0.14032136407E+04 0.  0.
        2    1    3    3  502    0  0.16913423370E+03 -0.38898633733E+03  0.13540028550E+04  0.14188870607E+04  0.25500000920E-02 0.  1.
       -2    1    3    3    0  502 -0.16913423370E+03  0.38898633733E+03 -0.12948648575E+03  0.44349014604E+03  0.25500000920E-02 0. -1.
</event>
<event>
 5   0  0.1095119E-03  0.1354366E+04  0.7818609E-02  0.8987529E-01
        2   -1    0    0  501    0  0.00000000000E+00  0.00000000000E+00  0.10516508908E+04  0.10516508908E+04  0.25500000920E-02 0. -1.
       -2   -1    0    0    0  501  0.00000000000E+00  0.00000000000E+00 -0.43605438592E+03  0.43605438593E+03  0.25500000920E-02 0.  1.
    10030    2    1    2    0    0  0.00000000000E+00  0.00000000000E+00  0.61559650483E+03  0.14877052767E+04  0.13543662479E+04 0.  0.
        5    1    3    3  502    0 -0.62784959345E+03 -0.86014655157E+02  0.45635748255E+02  0.63537260282E+03  0.46999998093E+01 0.  1.
       -5    1    3    3    0  502  0.62784959345E+03  0.86014655157E+02  0.56996075658E+03  0.85233267386E+03  0.46999998093E+01 0. -1.
</event>
<event>
 5   0  0.1108819E-03  0.1410960E+04  0.7818609E-02  0.8945923E-01
       -2   -1    0    0    0  501  0.00000000000E+00  0.00000000000E+00  0.45197010083E+03  0.45197010083E+03  0.25500000920E-02 0.  1.
        2   -1    0    0  501    0  0.00000000000E+00  0.00000000000E+00 -0.11011832592E+04  0.11011832592E+04  0.25500000920E-02 0. -1.
    10030    2    1    2    0    0  0.00000000000E+00  0.00000000000E+00 -0.64921315838E+03  0.15531533600E+04  0.14109598275E+04 0.  0.
        3    1    3    3  502    0  0.23808117196E+03 -0.38436055383E+03  0.27152965515E+03  0.52739363250E+03  0.10100000352E+00 0.  1.
       -3    1    3    3    0  502 -0.23808117196E+03  0.38436055383E+03 -0.92074281352E+03  0.10257597275E+04  0.10100000352E+00 0. -1.
</event>
<event>
 5   0  0.6097538E-04  0.1369957E+04  0.7818609E-02  0.8975857E-01
       -1   -1    0    0    0  501  0.00000000000E+00  0.00000000000E+00  0.37978153020E+03  0.37978153024E+03  0.50400001928E-02 0. -1.
        1   -1    0    0  501    0  0.00000000000E+00  0.00000000000E+00 -0.12354351207E+04  0.12354351207E+04  0.50400001928E-02 0.  1.
    10030    2    1    2    0    0  0.00000000000E+00  0.00000000000E+00 -0.85565359054E+03  0.16152166510E+04  0.13699568470E+04 0.  0.
        2    1    3    3  502    0 -0.64201444526E+03  0.19970001415E+03 -0.58215241557E+03  0.88936161292E+03  0.25500000920E-02 0. -1.
       -2    1    3    3    0  502  0.64201444526E+03 -0.19970001415E+03 -0.27350117497E+03  0.72585503807E+03  0.25500000920E-02 0.  1.
</event>
<event>
 5   0  0.1108819E-03  0.1390899E+04  0.7818609E-02  0.8960433E-01
       -2   -1    0    0    0  501  0.00000000000E+00  0.00000000000E+00  0.78966414500E+03  0.78966414500E+03  0.25500000920E-02 0. -1.
        2   -1    0    0  501    0  0.00000000000E+00  0.00000000000E+00 -0.61247577472E+03  0.61247577473E+03  0.25500000920E-02 0.  1.
    10030    2    1    2    0    0  0.00000000000E+00  0.00000000000E+00  0.17718837027E+03  0.14021399197E+04  0.13908992185E+04 0.  0.
        3    1    3    3  502    0  0.33715153088E+03  0.45641146753E+03  0.49392268497E+03  0.75229130753E+03  0.10100000352E+00 0. -1.
       -3    1    3    3    0  502 -0.33715153088E+03 -0.45641146753E+03 -0.31673431470E+03  0.64984861219E+03  0.10100000352E+00 0.  1.
</event>
<event>
 5   0  0.6153318E-04  0.1408702E+04  0.7818609E-02  0.8947543E-01
       -1   -1    0    0    0  501  0.00000000000E+00  0.00000000000E+00  0.12906431192E+04  0.12906431192E+04  0.50400001928E-02 0. -1.
        1   -1    0    0  501    0  0.00000000000E+00  0.00000000000E+00 -0.38439012769E+03  0.38439012773E+03  0.50400001928E-02 0.  1.
    10030    2    1    2    0    0  0.00000000000E+00  0.00000000000E+00  0.90625299149E+03  0.16750332469E+04  0.14087022019E+04 0.  0.
        5    1    3    3  502    0  0.55948097573E+03 -0.24488178101E+03  0.35933140517E+02  0.61180007312E+03  0.46999998093E+01 0.  1.
       -5    1    3    3    0  502 -0.55948097573E+03  0.24488178101E+03  0.87031985098E+03  0.10632331738E+04  0.46999998093E+01 0. -1.
</event>
<event>
 5   0  0.6114266E-04  0.1386322E+04  0.7818609E-02  0.8963779E-01
        1   -1    0    0  501    0  0.00000000000E+00  0.00000000000E+00  0.76947378775E+03  0.76947378776E+03  0.50400001928E-02 0.  1.
       -1   -1    0    0    0  501  0.00000000000E+00  0.00000000000E+00 -0.62441689857E+03  0.62441689859E+03  0.50400001928E-02 0. -1.
    10030    2    1    2    0    0  0.00000000000E+00  0.00000000000E+00  0.14505688918E+03  0.13938906864E+04  0.13863223811E+04 0.  0.
        3    1    3    3  502    0 -0.69295741806E+03  0.16787938788E+02  0.71744591403E+02  0.69686377056E+03  0.10100000352E+00 0. -1.
       -3    1    3    3    0  502  0.69295741806E+03 -0.16787938788E+02  0.73312297777E+02  0.69702691579E+03  0.10100000352E+00 0.  1.
</event>
<event>
 5   0  0.6194742E-04  0.1470807E+04  0.7818609E-02  0.8904101E-01
        1   -1    0    0  501    0  0.00000000000E+00  0.00000000000E+00  0.88330739144E+03  0.88330739146E+03  0.50400001928E-02 0. -1.
       -1   -1    0    0    0  501  0.00000000000E+00  0.00000000000E+00 -0.61226540272E+03  0.61226540274E+03  0.50400001928E-02 0.  1.
    10030    2    1    2    0    0  0.00000000000E+00  0.00000000000E+00  0.27104198873E+03  0.14955727942E+04  0.14708073372E+04 0.  0.
        4    1    3    3  502    0 -0.27187352345E+03 -0.52009494959E+03 -0.31511491713E+03  0.66611785236E+03  0.12699999809E+01 0.  1.
       -4    1    3    3    0  502  0.27187352345E+03  0.52009494959E+03  0.58615690586E+03  0.82945494183E+03  0.12699999809E+01 0. -1.
</event>
<event>
 5   0  0.1098949E-03  0.1395735E+04  0.7818609E-02  0.8956912E-01
       -2   -1    0    0    0  501  0.00000000000E+00  0.00000000000E+00  0.45856478534E+03  0.45856478535E+03  0.25500000920E-02 0.  1.
        2   -1    0    0  501    0  0.00000000000E+00  0.00000000000E+00 -0.10620500217E+04  0.10620500217E+04  0.25500000920E-02 0. -1.
    10030    2    1    2    0    0  0.00000000000E+00  0.00000000000E+00 -0.60348523638E+03  0.15206148071E+04  0.13957345596E+04 0.  0.
        4    1    3    3  502    0  0.18993727504E+03 -0.31291127680E+03 -0.94906503440E+03  0.10172097562E+04  0.12699999809E+01 0. -1.
       -4    1    3    3    0  502 -0.18993727504E+03  0.31291127680E+03  0.34557979801E+03  0.50340505092E+03  0.12699999809E+01 0.  1.
</event>
<event>
 5   0  0.6194742E-04  0.1346341E+04  0.7818609E-02  0.8993602E-01
        1   -1    0    0  501    0  0.00000000000E+00  0.00000000000E+00  0.80872708418E+03  0.80872708419E+03  0.50400001928E-02 0. -1.
       -1   -1    0    0    0  501  0.00000000000E+00  0.00000000000E+00 -0.56033572688E+03  0.56033572690E+03  0.50400001928E-02 0.  1.
    10030    2    1    2    0    0  0.00000000000E+00  0.00000000000E+00  0.24839135730E+03  0.13690628111E+04  0.13463412325E+04 0.  0.
        4    1    3    3  502    0  0.33592746116E+03 -0.88051333874E+01  0.71733399806E+03  0.79214548361E+03  0.12699999809E+01 0. -1.
       -4    1    3    3    0  502 -0.33592746116E+03  0.88051333874E+01 -0.46894264076E+03  0.57691732749E+03  0.12699999809E+01 0.  1.
</event>
<event>
 5   0  0.4176125E-04  0.1413874E+04  0.7818609E-02  0.8943837E-01
        4   -1    0    0  501    0  0.00000000000E+00  0.00000000000E+00  0.41183945524E+03  0.41184141340E+03  0.12699999809E+01 0. -1.
       -4   -1    0    0    0  501  0.00000000000E+00  0.00000000000E+00 -0.12134773536E+04  0.12134780182E+04  0.12699999809E+01 0.  1.
    10030    2    1    2    0    0  0.00000000000E+00  0.00000000000E+00 -0.80163789835E+03  0.16253194316E+04  0.14138740872E+04 0.  0.
        4    1    3    3  502    0  0.66230464430E+03 -0.55994875617E+01 -0.11671583483E+03  0.67253475384E+03  0.12699999809E+01 0. -1.
       -4    1    3    3    0  502 -0.66230464430E+03  0.55994875617E+01 -0.68492206353E+03  0.95278467774E+03  0.12699999809E+01 0.  1.
</event>
<event>
 5   0  0.6114266E-04  0.1391840E+04  0.7818609E-02  0.8959746E-01
        1   -1    0    0  501    0  0.00000000000E+00  0.00000000000E+00  0.18848543598E+04  0.18848543598E+04  0.50400001928E-02 0. -1.
       -1   -1    0    0    0  501  0.00000000000E+00  0.00000000000E+00 -0.25694555221E+03  0.25694555226E+03  0.50400001928E-02 0.  1.
    10030    2    1    2    0    0  0.00000000000E+00  0.00000000000E+00  0.16279088076E+04  0.21417999121E+04  0.13918404282E+04 0.  0.
        3    1    3    3  502    0  0.23272360022E+03  0.39010708622E+03  0.16252544054E+04  0.16875413195E+04  0.10100000352E+00 0. -1.
       -3    1    3    3    0  502 -0.23272360022E+03 -0.39010708622E+03  0.26544022152E+01  0.45425859251E+03  0.10100000352E+00 0.  1.
</event>
<event>
 5   0  0.1120053E-03  0.1394361E+04  0.7818609E-02  0.8957910E-01
        2   -1    0    0  501    0  0.00000000000E+00  0.00000000000E+00  0.14897115334E+04  0.14897115334E+04  0.25500000920E-02 0.  1.
       -2   -1    0    0    0  501  0.00000000000E+00  0.00000000000E+00 -0.32627844969E+03  0.32627844970E+03  0.25500000920E-02 0. -1.
    10030    2    1    2    0    0  0.00000000000E+00  0.00000000000E+00  0.11634330837E+04  0.18159899831E+04  0.13943611722E+04 0.  0.
        2    1    3    3  502    0  0.10414426502E+03  0.41189632147E+03 -0.13820255019E+03  0.44677125295E+03  0.25500000920E-02 0. -1.
       -2    1    3    3    0  502 -0.10414426502E+03 -0.41189632147E+03  0.13016356339E+04  0.13692187302E+04  0.25500000920E-02 0.  1.
</event>
<event>
 5   0  0.1098949E-03  0.1403026E+04  0.7818609E-02  0.8951631E-01
        2   -1    0    0  501    0  0.00000000000E+00  0.00000000000E+00  0.12508912211E+04  0.12508912211E+04  0.25500000920E-02 0. -1.
       -2   -1    0    0    0  501  0.00000000000E+00  0.00000000000E+00 -0.39341567848E+03  0.39341567849E+03  0.25500000920E-02 0.  1.
    10030    2    1    2    0    0  0.00000000000E+00  0.00000000000E+00  0.85747554257E+03  0.16443068995E+04  0.14030256141E+04 0.  0.
        4    1    3    3  502    0 -0.23876343630E+02 -0.45153586076E+03  0.10573168984E+04  0.11499458030E+04  0.12699999809E+01 0. -1.
       -4    1    3    3    0  502  0.23876343630E+02  0.45153586076E+03 -0.19984135584E+03  0.49436109651E+03  0.12699999809E+01 0.  1.
</event>
<event>
 5   0  0.1120053E-03  0.1381989E+04  0.7818609E-02  0.8966960E-01
        2   -1    0    0  501    0  0.00000000000E+00  0.00000000000E+00  0.15269452619E+04  0.15269452619E+04  0.25500000920E-02 0.  1.
       -2   -1    0    0    0  501  0.00000000000E+00  0.00000000000E+00 -0.31269860161E+03  0.31269860162E+03  0.25500000920E-02 0. -1.
    10030    2    1    2    0    0  0.00000000000E+00  0.00000000000E+00  0.12142466603E+04  0.18396438635E+04  0.13819893605E+04 0.  0.
        2    1    3    3  502    0  0.37796601480E+02 -0.68370649801E+03  0.73050141247E+03  0.10012569461E+04  0.25500000920E-02 0.  1.
       -2    1    3    3    0  502 -0.37796601480E+02  0.68370649801E+03  0.48374524785E+03  0.83838691744E+03  0.25500000920E-02 0. -1.
</event>
<event>
 5   0  0.6194742E-04  0.1167983E+04  0.7818609E-02  0.9141352E-01
        1   -1    0    0  501    0  0.00000000000E+00  0.00000000000E+00  0.14664710105E+04  0.14664710105E+04  0.50400001928E-02 0. -1.
       -1   -1    0    0    0  501  0.00000000000E+00  0.00000000000E+00 -0.23256242253E+03  0.23256242259E+03  0.50400001928E-02 0.  1.
    10030    2    1    2    0    0  0.00000000000E+00  0.00000000000E+00  0.12339085880E+04  0.16990334331E+04  0.11679829636E+04 0.  0.
        4    1    3    3  502    0 -0.43564811389E+03 -0.23922618935E+03  0.10630102802E+04  0.11734610848E+04  0.12699999809E+01 0. -1.
       -4    1    3    3    0  502  0.43564811389E+03  0.23922618935E+03  0.17089830776E+03  0.52557234830E+03  0.12699999809E+01 0.  1.
</event>
<event>
 5   0  0.1095119E-03  0.1423842E+04  0.7818609E-02  0.8936739E-01
        2   -1    0    0  501    0  0.00000000000E+00  0.00000000000E+00  0.21452172678E+04  0.21452172678E+04  0.25500000920E-02 0.  1.
       -2   -1    0    0    0  501  0.00000000000E+00  0.00000000000E+00 -0.23626111335E+03  0.23626111337E+03  0.25500000920E-02 0. -1.
    10030    2    1    2    0    0  0.00000000000E+00  0.00000000000E+00  0.19089561544E+04  0.23814783811E+04  0.14238418734E+04 0.  0.
        5    1    3    3  502    0  0.23921437031E+03 -0.89958670530E+02 -0.15686185085E+03  0.29990633140E+03  0.46999998093E+01 0. -1.
       -5    1    3    3    0  502 -0.23921437031E+03  0.89958670530E+02  0.20658180053E+04  0.20815720497E+04  0.46999998093E+01 0.  1.
</event>
<event>
 5   0  0.6097538E-04  0.1392532E+04  0.7818609E-02  0.8959242E-01
       -1   -1    0    0    0  501  0.00000000000E+00  0.00000000000E+00  0.35844085605E+03  0.35844085608E+03  0.50400001928E-02 0. -1.
        1   -1    0    0  501    0  0.00000000000E+00  0.00000000000E+00 -0.13524859633E+04  0.13524859633E+04  0.50400001928E-02 0.  1.
    10030    2    1    2    0    0  0.00000000000E+00  0.00000000000E+00 -0.99404510721E+03  0.17109268194E+04  0.13925318330E+04 0.  0.
        2    1    3    3  502    0  0.33689117297E+02  0.66543463702E+03 -0.24870251109E+03  0.71118995479E+03  0.25500000920E-02 0. -1.
       -2    1    3    3    0  502 -0.33689117297E+02 -0.66543463702E+03 -0.74534259612E+03  0.99973686456E+03  0.25500000920E-02 0.  1.
</event>
<event>
 5   0  0.5875298E-04  0.1372477E+04  0.7818609E-02  0.8973986E-01
       -1   -1    0    0    0  501  0.00000000000E+00  0.00000000000E+00  0.73807304191E+03  0.73807304193E+03  0.50400001928E-02 0. -1.
        1   -1    0    0  501    0  0.00000000000E+00  0.00000000000E+00 -0.63804437332E+03  0.63804437334E+03  0.50400001928E-02 0.  1.
    10030    2    1    2    0    0  0.00000000000E+00  0.00000000000E+00  0.10002866858E+03  0.13761174153E+04  0.13724771058E+04 0.  0.
        1    1    3    3  502    0  0.27319052464E+03  0.99462414662E+02  0.67327188071E+03  0.73336270703E+03  0.50400001928E-02 0. -1.
       -1    1    3    3    0  502 -0.27319052464E+03 -0.99462414662E+02 -0.57324321213E+03  0.64275470824E+03  0.50400001928E-02 0.  1.
</event>
<event>
 5   0  0.6153318E-04  0.1446425E+04  0.7818609E-02  0.8920883E-01
       -1   -1    0    0    0  501  0.00000000000E+00  0.00000000000E+00  0.73020845938E+03  0.73020845940E+03  0.50400001928E-02 0.  1.
        1   -1    0    0  501    0  0.00000000000E+00  0.00000000000E+00 -0.71628314186E+03  0.71628314187E+03  0.50400001928E-02 0. -1.
    10030    2    1    2    0    0  0.00000000000E+00  0.00000000000E+00  0.13925317526E+02  0.14464916013E+04  0.14464245705E+04 0.  0.
        5    1    3    3  502    0  0.28070256698E+03 -0.66398208578E+03  0.64825327834E+02  0.72380284227E+03  0.46999998093E+01 0. -1.
       -5    1    3    3    0  502 -0.28070256698E+03  0.66398208578E+03 -0.50900010308E+02  0.72268875901E+03  0.46999998093E+01 0.  1.
</event>
<event>
 5   0  0.6194742E-04  0.1415515E+04  0.7818609E-02  0.8942664E-01
        1   -1    0    0  501    0  0.00000000000E+00  0.00000000000E+00  0.62631934562E+03  0.62631934564E+03  0.50400001928E-02 0. -1.
       -1   -1    0    0    0  501  0.00000000000E+00  0.00000000000E+00 -0.79978465613E+03  0.79978465614E+03  0.50400001928E-02 0.  1.
    10030    2    1    2    0    0  0.00000000000E+00  0.00000000000E+00 -0.17346531051E+03  0.14261040018E+04  0.14155148922E+04 0.  0.
        4    1    3    3  502    0 -0.19393497975E+03 -0.15687048068E+03 -0.75403170498E+03  0.79421945903E+03  0.12699999809E+01 0.  1.
       -4    1    3    3    0  502  0.19393497975E+03  0.15687048068E+03  0.58056639447E+03  0.63188454275E+03  0.12699999809E+01 0. -1.
</event>
<event>
 5   0  0.1175146E-03  0.1433502E+04  0.7818609E-02  0.8929919E-01
        2   -1    0    0  501    0  0.00000000000E+00  0.00000000000E+00  0.63096239889E+03  0.63096239889E+03  0.25500000920E-02 0. -1.
       -2   -1    0    0    0  501  0.00000000000E+00  0.00000000000E+00 -0.81420395556E+03  0.81420395556E+03  0.25500000920E-02 0.  1.
    10030    2    1    2    0    0  0.00000000000E+00  0.00000000000E+00 -0.18324155667E+03  0.14451663545E+04  0.14335021186E+04 0.  0.
        1    1    3    3  502    0  0.50233245943E+03 -0.13031549123E+03  0.40678241152E+03  0.65938756236E+03  0.50400001928E-02 0. -1.
       -1    1    3    3    0  502 -0.50233245943E+03  0.13031549123E+03 -0.59002396819E+03  0.78577879210E+03  0.50400001928E-02 0.  1.
</event>
<event>
 5   0  0.5875298E-04  0.1394960E+04  0.7818609E-02  0.8957475E-01
        1   -1    0    0  501    0  0.00000000000E+00  0.00000000000E+00  0.21537361970E+04  0.21537361971E+04  0.50400001928E-02 0. -1.
       -1   -1    0    0    0  501  0.00000000000E+00  0.00000000000E+00 -0.22587659376E+03  0.22587659382E+03  0.50400001928E-02 0.  1.
    10030    2    1    2    0    0  0.00000000000E+00  0.00000000000E+00  0.19278596033E+04  0.23796127909E+04  0.13949603523E+04 0.  0.
        1    1    3    3  502    0  0.67369670933E+03  0.25349797235E+02  0.65892469776E+03  0.94270442118E+03  0.50400001928E-02 0. -1.
       -1    1    3    3    0  502 -0.67369670933E+03 -0.25349797235E+02  0.12689349055E+04  0.14369083697E+04  0.50400001928E-02 0.  1.
</event>
<event>
 5   0  0.1108819E-03  0.1487038E+04  0.7818609E-02  0.8893119E-01
        2   -1    0    0  501    0  0.00000000000E+00  0.00000000000E+00  0.20795508605E+04  0.20795508605E+04  0.25500000920E-02 0.  1.
       -2   -1    0    0    0  501  0.00000000000E+00  0.00000000000E+00 -0.26583645593E+03  0.26583645594E+03  0.25500000920E-02 0. -1.
    10030    2    1    2    0    0  0.00000000000E+00  0.00000000000E+00  0.18137144045E+04  0.23453873164E+04  0.14870379023E+04 0.  0.
        3    1    3    3  502    0  0.11034847066E+03  0.58168046505E+03  0.19747331231E+03  0.62411911337E+03  0.10100000352E+00 0. -1.
       -3    1    3    3    0  502 -0.11034847066E+03 -0.58168046505E+03  0.16162410922E+04  0.17212682030E+04  0.10100000352E+00 0.  1.
</event>
<event>
 5   0  0.1175146E-03  0.1410574E+04  0.7818609E-02  0.8946200E-01
        2   -1    0    0  501    0  0.00000000000E+00  0.00000000000E+00  0.12328080609E+04  0.12328080609E+04  0.25500000920E-02 0.  1.
       -2   -1    0    0    0  501  0.00000000000E+00  0.00000000000E+00 -0.40349309701E+03  0.40349309702E+03  0.25500000920E-02 0. -1.
    10030    2    1    2    0    0  0.00000000000E+00  0.00000000000E+00  0.82931496392E+03  0.16363011580E+04  0.14105737025E+04 0.  0.
        1    1    3    3  502    0 -0.61369585213E+03  0.20136592230E+02  0.12141310149E+02  0.61414614930E+03  0.50400001928E-02 0. -1.
       -1    1    3    3    0  502  0.61369585213E+03 -0.20136592230E+02  0.81717365377E+03  0.10221550087E+04  0.50400001928E-02 0.  1.
</event>
<event>
 5   0  0.1175146E-03  0.1396164E+04  0.7818609E-02  0.8956600E-01
       -2   -1    0    0    0  501  0.00000000000E+00  0.00000000000E+00  0.15438059159E+04  0.15438059159E+04  0.25500000920E-02 0. -1.
        2   -1    0    0  501    0  0.00000000000E+00  0.00000000000E+00 -0.31566053864E+03  0.31566053865E+03  0.25500000920E-02 0.  1.
    10030    2    1    2    0    0  0.00000000000E+00  0.00000000000E+00  0.12281453773E+04  0.18594664546E+04  0.13961641837E+04 0.  0.
        1    1    3    3  502    0 -0.75476799400E+02 -0.39469751861E+03 -0.14616817065E+03  0.42760731118E+03  0.50400001928E-02 0.  1.
       -1    1    3    3    0  502  0.75476799400E+02  0.39469751861E+03  0.13743135479E+04  0.14318591434E+04  0.50400001928E-02 0. -1.
</event>
<event>
 5   0  0.1095119E-03  0.1392829E+04  0.7818609E-02  0.8959026E-01
        2   -1    0    0  501    0  0.00000000000E+00  0.00000000000E+00  0.69751617253E+03  0.69751617254E+03  0.25500000920E-02 0.  1.
       -2   -1    0    0    0  501  0.00000000000E+00  0.00000000000E+00 -0.69531466408E+03  0.69531466408E+03  0.25500000920E-02 0. -1.
    10030    2    1    2    0    0  0.00000000000E+00  0.00000000000E+00  0.22015084574E+01  0.13928308366E+04  0.13928290968E+04 0.  0.
        5    1    3    3  502    0 -0.10603690929E+03 -0.49104187704E+03 -0.48119144266E+03  0.69565310725E+03  0.46999998093E+01 0.  1.
       -5    1    3    3    0  502  0.10603690929E+03  0.49104187704E+03  0.48339295112E+03  0.69717772937E+03  0.46999998093E+01 0. -1.
</event>
<event>
 5   0  0.6153318E-04  0.1259301E+04  0.7818609E-02  0.9062478E-01
       -1   -1    0    0    0  501  0.00000000000E+00  0.00000000000E+00  0.31821437662E+03  0.31821437666E+03  0.50400001928E-02 0.  1.
        1   -1    0    0  501    0  0.00000000000E+00  0.00000000000E+00 -0.12458882392E+04  0.12458882392E+04  0.50400001928E-02 0. -1.
    10030    2    1    2    0    0  0.00000000000E+00  0.00000000000E+00 -0.92767386257E+03  0.15641026159E+04  0.12593006780E+04 0.  0.
        5    1    3    3  502    0  0.62217316298E+03 -0.20075829848E+01 -0.34384022156E+03  0.71088090640E+03  0.46999998093E+01 0. -1.
       -5    1    3    3    0  502 -0.62217316298E+03  0.20075829848E+01 -0.58383364101E+03  0.85322170946E+03  0.46999998093E+01 0.  1.
</event>
<event>
 5   0  0.1108819E-03  0.1393239E+04  0.7818609E-02  0.8958727E-01
        2   -1    0    0  501    0  0.00000000000E+00  0.00000000000E+00  0.87883998585E+03  0.87883998586E+03  0.25500000920E-02 0. -1.
       -2   -1    0    0    0  501  0.00000000000E+00  0.00000000000E+00 -0.55218088426E+03  0.55218088426E+03  0.25500000920E-02 0.  1.
    10030    2    1    2    0    0  0.00000000000E+00  0.00000000000E+00  0.32665910160E+03  0.14310208701E+04  0.13932388747E+04 0.  0.
        3    1    3    3  502    0 -0.10210873947E+03 -0.67963824288E+03  0.46471247701E+02  0.68883519286E+03  0.10100000352E+00 0.  1.
       -3    1    3    3    0  502  0.10210873947E+03  0.67963824288E+03  0.28018785390E+03  0.74218567726E+03  0.10100000352E+00 0. -1.
</event>
<event>
 5   0  0.6097538E-04  0.1385273E+04  0.7818609E-02  0.8964548E-01
       -1   -1    0    0    0  501  0.00000000000E+00  0.00000000000E+00  0.30226626858E+03  0.30226626862E+03  0.50400001928E-02 0. -1.
        1   -1    0    0  501    0  0.00000000000E+00  0.00000000000E+00 -0.15871613849E+04  0.15871613849E+04  0.50400001928E-02 0.  1.
    10030    2    1    2    0    0  0.00000000000E+00  0.00000000000E+00 -0.12848951164E+04  0.18894276536E+04  0.13852730410E+04 0.  0.
        2    1    3    3  502    0  0.19125104978E+03 -0.65786074957E+03 -0.78145975430E+03  0.10392483233E+04  0.25500000920E-02 0.  1.
       -2    1    3    3    0  502 -0.19125104978E+03  0.65786074957E+03 -0.50343536206E+03  0.85017933028E+03  0.25500000920E-02 0. -1.
</event>
<event>
 5   0  0.5875298E-04  0.1503096E+04  0.7818609E-02  0.8882397E-01
        1   -1    0    0  501    0  0.00000000000E+00  0.00000000000E+00  0.52124887336E+03  0.52124887339E+03  0.50400001928E-02 0. -1.
       -1   -1    0    0    0  501  0.00000000000E+00  0.00000000000E+00 -0.10835981071E+04  0.10835981071E+04  0.50400001928E-02 0.  1.
    10030    2    1    2    0    0  0.00000000000E+00  0.00000000000E+00 -0.56234923370E+03  0.16048469805E+04  0.15030958619E+04 0.  0.
        1    1    3    3  502    0  0.50107684082E+03  0.30553681151E+03  0.22006615420E+03  0.62678533474E+03  0.50400001928E-02 0. -1.
       -1    1    3    3    0  502 -0.50107684082E+03 -0.30553681151E+03 -0.78241538790E+03  0.97806164572E+03  0.50400001928E-02 0.  1.
</event>
<event>
 5   0  0.6114266E-04  0.1386678E+04  0.7818609E-02  0.8963518E-01
        1   -1    0    0  501    0  0.00000000000E+00  0.00000000000E+00  0.10528182805E+04  0.10528182806E+04  0.50400001928E-02 0.  1.
       -1   -1    0    0    0  501  0.00000000000E+00  0.00000000000E+00 -0.45660225817E+03  0.45660225820E+03  0.50400001928E-02 0. -1.
    10030    2    1    2    0    0  0.00000000000E+00  0.00000000000E+00  0.59621602238E+03  0.15094205388E+04  0.13866783396E+04 0.  0.
        3    1    3    3  502    0 -0.13206359068E+03 -0.59073017039E+03 -0.69926497656E+02  0.60933787956E+03  0.10100000352E+00 0.  1.
       -3    1    3    3    0  502  0.13206359068E+03  0.59073017039E+03  0.66614252003E+03  0.90008265920E+03  0.10100000352E+00 0. -1.
</event>
<event>
 5   0  0.6114266E-04  0.1385966E+04  0.7818609E-02  0.8964040E-01
       -1   -1    0    0    0  501  0.00000000000E+00  0.00000000000E+00  0.62332510421E+03  0.62332510423E+03  0.50400001928E-02 0.  1.
        1   -1    0    0  501    0  0.00000000000E+00  0.00000000000E+00 -0.77042512211E+03  0.77042512213E+03  0.50400001928E-02 0. -1.
    10030    2    1    2    0    0  0.00000000000E+00  0.00000000000E+00 -0.14710001790E+03  0.13937502264E+04  0.13859658287E+04 0.  0.
        3    1    3    3  502    0  0.60021729726E+03 -0.12266122384E+03 -0.39928089435E+03  0.73125359661E+03  0.10100000352E+00 0. -1.
       -3    1    3    3    0  502 -0.60021729726E+03  0.12266122384E+03  0.25218087645E+03  0.66249662974E+03  0.10100000352E+00 0.  1.
</event>
<event>
 5   0  0.1120053E-03  0.1397571E+04  0.7818609E-02  0.8955578E-01
       -2   -1    0    0    0  501  0.00000000000E+00  0.00000000000E+00  0.97918337880E+03  0.97918337881E+03  0.25500000920E-02 0.  1.
        2   -1    0    0  501    0  0.00000000000E+00  0.00000000000E+00 -0.49868236934E+03  0.49868236935E+03  0.25500000920E-02 0. -1.
    10030    2    1    2    0    0  0.00000000000E+00  0.00000000000E+00  0.48050100946E+03  0.14778657482E+04  0.13975714470E+04 0.  0.
        2    1    3    3  502    0  0.46308903540E+03  0.52327612236E+03  0.23425628407E+03  0.73698396290E+03  0.25500000920E-02 0. -1.
       -2    1    3    3    0  502 -0.46308903540E+03 -0.52327612236E+03  0.24624472539E+03  0.74088178526E+03  0.25500000920E-02 0.  1.
</event>
<event>
 5   0  0.6153318E-04  0.1373249E+04  0.7818609E-02  0.8973413E-01
        1   -1    0    0  501    0  0.00000000000E+00  0.00000000000E+00  0.15041769809E+04  0.15041769809E+04  0.50400001928E-02 0. -1.
       -1   -1    0    0    0  501  0.00000000000E+00  0.00000000000E+00 -0.31342918385E+03  0.31342918389E+03  0.50400001928E-02 0.  1.
    10030    2    1    2    0    0  0.00000000000E+00  0.00000000000E+00  0.11907477971E+04  0.18176061648E+04  0.13732486498E+04 0.  0.
        5    1    3    3  502    0  0.17374254104E+03 -0.22691992898E+03 -0.23093921040E+03  0.36746990847E+03  0.46999998093E+01 0.  1.
       -5    1    3    3    0  502 -0.17374254104E+03  0.22691992898E+03  0.14216870075E+04  0.14501362564E+04  0.46999998093E+01 0. -1.
</event>
<event>
 5   0  0.1095119E-03  0.1383620E+04  0.7818609E-02  0.8965761E-01
       -2   -1    0    0    0  501  0.00000000000E+00  0.00000000000E+00  0.42417554979E+03  0.42417554980E+03  0.25500000920E-02 0. -1.
        2   -1    0    0  501    0  0.00000000000E+00  0.00000000000E+00 -0.11283093501E+04  0.11283093501E+04  0.25500000920E-02 0.  1.
    10030    2    1    2    0    0  0.00000000000E+00  0.00000000000E+00 -0.70413380031E+03  0.15524848999E+04  0.13836202353E+04 0.  0.
        5    1    3    3  502    0  0.23644762523E+03 -0.55015148643E+03 -0.74076298941E+03  0.95253663130E+03  0.46999998093E+01 0.  1.
       -5    1    3    3    0  502 -0.23644762523E+03  0.55015148643E+03  0.36629189105E+02  0.59994826859E+03  0.46999998093E+01 0. -1.
</event>
<event>
 5   0  0.6097538E-04  0.1383456E+04  0.7818609E-02  0.8965882E-01
       -1   -1    0    0    0  501  0.00000000000E+00  0.00000000000E+00  0.42423233751E+03  0.42423233753E+03  0.50400001928E-02 0. -1.
        1   -1    0    0  501    0  0.00000000000E+00  0.00000000000E+00 -0.11278900156E+04  0.11278900156E+04  0.50400001928E-02 0.  1.
    10030    2    1    2    0    0  0.00000000000E+00  0.00000000000E+00 -0.70365767809E+03  0.15521223531E+04  0.13834556990E+04 0.  0.
        2    1    3    3  502    0  0.65330002981E+03 -0.21452392835E+03 -0.26737917093E+03  0.73777575580E+03  0.25500000920E-02 0. -1.
       -2    1    3    3    0  502 -0.65330002981E+03  0.21452392835E+03 -0.43627850716E+03  0.81434659734E+03  0.25500000920E-02 0.  1.
</event>
<event>
 5   0  0.4176125E-04  0.1405904E+04  0.7818609E-02  0.8949556E-01
        4   -1    0    0  501    0  0.00000000000E+00  0.00000000000E+00  0.60192810950E+03  0.60192944928E+03  0.12699999809E+01 0.  1.
       -4   -1    0    0    0  501  0.00000000000E+00  0.00000000000E+00 -0.82092827264E+03  0.82092925500E+03  0.12699999809E+01 0. -1.
    10030    2    1    2    0    0  0.00000000000E+00  0.00000000000E+00 -0.21900016314E+03  0.14228587043E+04  0.14059039160E+04 0.  0.
        3    1    3    3  502    0 -0.68275704861E+03 -0.16705035275E+03 -0.10053679496E+03  0.71004976243E+03  0.10100000352E+00 0. -1.
       -3    1    3    3    0  502  0.68275704861E+03  0.16705035275E+03 -0.11846336817E+03  0.71280894185E+03  0.10100000352E+00 0.  1.
</event>
<event>
 5   0  0.5875298E-04  0.1395434E+04  0.7818609E-02  0.8957130E-01
       -1   -1    0    0    0  501  0.00000000000E+00  0.00000000000E+00  0.10727164677E+04  0.10727164677E+04  0.50400001928E-02 0. -1.
        1   -1    0    0  501    0  0.00000000000E+00  0.00000000000E+00 -0.45380939583E+03  0.45380939586E+03  0.50400001928E-02 0.  1.
    10030    2    1    2    0    0  0.00000000000E+00  0.00000000000E+00  0.61890707182E+03  0.15265258635E+04  0.13954337134E+04 0.  0.
        1    1    3    3  502    0  0.40034817339E+02 -0.22932855887E+03  0.10289778267E+04  0.10549832901E+04  0.50400001928E-02 0. -1.
       -1    1    3    3    0  502 -0.40034817339E+02  0.22932855887E+03 -0.41007075488E+03  0.47154257342E+03  0.50400001928E-02 0.  1.
</event>
<event>
 5   0  0.6097538E-04  0.1329119E+04  0.7818609E-02  0.9006787E-01
       -1   -1    0    0    0  501  0.00000000000E+00  0.00000000000E+00  0.36099479531E+03  0.36099479535E+03  0.50400001928E-02 0.  1.
        1   -1    0    0  501    0  0.00000000000E+00  0.00000000000E+00 -0.12233950858E+04  0.12233950858E+04  0.50400001928E-02 0. -1.
    10030    2    1    2    0    0  0.00000000000E+00  0.00000000000E+00 -0.86240029053E+03  0.15843898812E+04  0.13291188941E+04 0.  0.
        2    1    3    3  502    0 -0.25609359662E+03  0.60619976230E+03 -0.54160048354E+03  0.85228702079E+03  0.25500000920E-02 0. -1.
       -2    1    3    3    0  502  0.25609359662E+03 -0.60619976230E+03 -0.32079980699E+03  0.73210286040E+03  0.25500000920E-02 0.  1.
</event>
<event>
 5   0  0.1175146E-03  0.1373105E+04  0.7818609E-02  0.8973520E-01
        2   -1    0    0  501    0  0.00000000000E+00  0.00000000000E+00  0.14676828166E+04  0.14676828166E+04  0.25500000920E-02 0.  1.
       -2   -1    0    0    0  501  0.00000000000E+00  0.00000000000E+00 -0.32115544389E+03  0.32115544390E+03  0.25500000920E-02 0. -1.
    10030    2    1    2    0    0  0.00000000000E+00  0.00000000000E+00  0.11465273727E+04  0.17888382605E+04  0.13731049872E+04 0.  0.
        1    1    3    3  502    0 -0.29872814858E+03  0.31850381925E+03  0.12634497847E+04  0.13367829099E+04  0.50400001928E-02 0.  1.
       -1    1    3    3    0  502  0.29872814858E+03 -0.31850381925E+03 -0.11692241195E+03  0.45205535067E+03  0.50400001928E-02 0. -1.
</event>
<event>
 5   0  0.1175146E-03  0.1406895E+04  0.7818609E-02  0.8948842E-01
       -2   -1    0    0    0  501  0.00000000000E+00  0.00000000000E+00  0.39224143379E+03  0.39224143380E+03  0.25500000920E-02 0. -1.
        2   -1    0    0  501    0  0.00000000000E+00  0.00000000000E+00 -0.12615665780E+04  0.12615665780E+04  0.25500000920E-02 0.  1.
    10030    2    1    2    0    0  0.00000000000E+00  0.00000000000E+00 -0.86932514424E+03  0.16538080118E+04  0.14068954238E+04 0.  0.
        1    1    3    3  502    0  0.11255235934E+03 -0.29309363807E+03 -0.11746376643E+04  0.12158723439E+04  0.50400001928E-02 0.  1.
       -1    1    3    3    0  502 -0.11255235934E+03  0.29309363807E+03  0.30531252008E+03  0.43793566789E+03  0.50400001928E-02 0. -1.
</event>
<event>
 5   0  0.4176125E-04  0.1392672E+04  0.7818609E-02  0.8959140E-01
        3   -1    0    0  501    0  0.00000000000E+00  0.00000000000E+00  0.45873592370E+03  0.45873593482E+03  0.10100000352E+00 0.  1.
       -3   -1    0    0    0  501  0.00000000000E+00  0.00000000000E+00 -0.10570005396E+04  0.10570005444E+04  0.10100000352E+00 0. -1.
    10030    2    1    2    0    0  0.00000000000E+00  0.00000000000E+00 -0.59826461586E+03  0.15157364792E+04  0.13926724395E+04 0.  0.
        1    1    3    3  502    0 -0.81532528032E+02  0.57055279651E+03 -0.72443966190E+03  0.92573801396E+03  0.50400001928E-02 0. -1.
       -1    1    3    3    0  502  0.81532528032E+02 -0.57055279651E+03  0.12617504603E+03  0.58999846525E+03  0.50400001928E-02 0.  1.
</event>
<event>
 5   0  0.6194742E-04  0.1393952E+04  0.7818609E-02  0.8958208E-01
        1   -1    0    0  501    0  0.00000000000E+00  0.00000000000E+00  0.86690371495E+03  0.86690371496E+03  0.50400001928E-02 0.  1.
       -1   -1    0    0    0  501  0.00000000000E+00  0.00000000000E+00 -0.56035709285E+03  0.56035709287E+03  0.50400001928E-02 0. -1.
    10030    2    1    2    0    0  0.00000000000E+00  0.00000000000E+00  0.30654662210E+03  0.14272608078E+04  0.13939521448E+04 0.  0.
        4    1    3    3  502    0 -0.21038564428E+03  0.49832911626E+03  0.60329823025E+03  0.81028661285E+03  0.12699999809E+01 0.  1.
       -4    1    3    3    0  502  0.21038564428E+03 -0.49832911626E+03 -0.29675160815E+03  0.61697419498E+03  0.12699999809E+01 0. -1.
</event>
<event>
 5   0  0.1095119E-03  0.1392246E+04  0.7818609E-02  0.8959451E-01
        2   -1    0    0  501    0  0.00000000000E+00  0.00000000000E+00  0.71183617688E+03  0.71183617688E+03  0.25500000920E-02 0. -1.
       -2   -1    0    0    0  501  0.00000000000E+00  0.00000000000E+00 -0.68075631435E+03  0.68075631436E+03  0.25500000920E-02 0.  1.
    10030    2    1    2    0    0  0.00000000000E+00  0.00000000000E+00  0.31079862522E+02  0.13925924912E+04  0.13922456280E+04 0.  0.
        5    1    3    3  502    0 -0.35041725054E+02  0.45139909943E+02 -0.67839032413E+03  0.68080911850E+03  0.46999998093E+01 0.  1.
       -5    1    3    3    0  502  0.35041725054E+02 -0.45139909943E+02  0.70947018665E+03  0.71178337274E+03  0.46999998093E+01 0. -1.
</event>
<event>
 5   0  0.6153318E-04  0.1419949E+04  0.7818609E-02  0.8939504E-01
        1   -1    0    0  501    0  0.00000000000E+00  0.00000000000E+00  0.86427306998E+03  0.86427306999E+03  0.50400001928E-02 0. -1.
       -1   -1    0    0    0  501  0.00000000000E+00  0.00000000000E+00 -0.58322268080E+03  0.58322268082E+03  0.50400001928E-02 0.  1.
    10030    2    1    2    0    0  0.00000000000E+00  0.00000000000E+00  0.28105038918E+03  0.14474957508E+04  0.14199488115E+04 0.  0.
        5    1    3    3  502    0 -0.37730029996E+02 -0.47637936041E+03  0.67576425975E+03  0.82767159849E+03  0.46999998093E+01 0. -1.
       -5    1    3    3    0  502  0.37730029996E+02  0.47637936041E+03 -0.39471387057E+03  0.61982415233E+03  0.46999998093E+01 0.  1.
</event>
<event>
 5   0  0.6097538E-04  0.1413131E+04  0.7818609E-02  0.8944368E-01
       -1   -1    0    0    0  501  0.00000000000E+00  0.00000000000E+00  0.20316437150E+03  0.20316437156E+03  0.50400001928E-02 0.  1.
        1   -1    0    0  501    0  0.00000000000E+00  0.00000000000E+00 -0.24572952994E+04  0.24572952994E+04  0.50400001928E-02 0. -1.
    10030    2    1    2    0    0  0.00000000000E+00  0.00000000000E+00 -0.22541309279E+04  0.26604596710E+04  0.14131310699E+04 0.  0.
        2    1    3    3  502    0  0.16760679456E+03  0.53112840666E+03 -0.30849262519E+03  0.63667662258E+03  0.25500000920E-02 0.  1.
       -2    1    3    3    0  502 -0.16760679456E+03 -0.53112840666E+03 -0.19456383027E+04  0.20237830484E+04  0.25500000920E-02 0. -1.
</event>
<event>
 5   0  0.1095119E-03  0.1451392E+04  0.7818609E-02  0.8917436E-01
        2   -1    0    0  501    0  0.00000000000E+00  0.00000000000E+00  0.11909378753E+04  0.11909378753E+04  0.25500000920E-02 0. -1.
       -2   -1    0    0    0  501  0.00000000000E+00  0.00000000000E+00 -0.44220156992E+03  0.44220156993E+03  0.25500000920E-02 0.  1.
    10030    2    1    2    0    0  0.00000000000E+00  0.00000000000E+00  0.74873630535E+03  0.16331394452E+04  0.14513918811E+04 0.  0.
        5    1    3    3  502    0  0.29089128992E+03 -0.66455176719E+03  0.39588653169E+03  0.82643513345E+03  0.46999998093E+01 0. -1.
       -5    1    3    3    0  502 -0.29089128992E+03  0.66455176719E+03  0.35284977366E+03  0.80670431176E+03  0.46999998093E+01 0.  1.
</event>
<event>
 5   0  0.1175146E-03  0.1407497E+04  0.7818609E-02  0.8948410E-01
       -2   -1    0    0    0  501  0.00000000000E+00  0.00000000000E+00  0.48002566607E+03  0.48002566607E+03  0.25500000920E-02 0. -1.
        2   -1    0    0  501    0  0.00000000000E+00  0.00000000000E+00 -0.10317399593E+04  0.10317399593E+04  0.25500000920E-02 0.  1.
    10030    2    1    2    0    0  0.00000000000E+00  0.00000000000E+00 -0.55171429321E+03  0.15117656253E+04  0.14074965878E+04 0.  0.
        1    1    3    3  502    0 -0.12652044496E+03 -0.66996140628E+03 -0.88566357288E+02  0.68753160550E+03  0.50400001928E-02 0. -1.
       -1    1    3    3    0  502  0.12652044496E+03  0.66996140628E+03 -0.46314793592E+03  0.82423401984E+03  0.50400001928E-02 0.  1.
</event>
<event>
 5   0  0.6097538E-04  0.1396436E+04  0.7818609E-02  0.8956402E-01
       -1   -1    0    0    0  501  0.00000000000E+00  0.00000000000E+00  0.37437092700E+03  0.37437092703E+03  0.50400001928E-02 0. -1.
        1   -1    0    0  501    0  0.00000000000E+00  0.00000000000E+00 -0.13022067702E+04  0.13022067702E+04  0.50400001928E-02 0.  1.
    10030    2    1    2    0    0  0.00000000000E+00  0.00000000000E+00 -0.92783584318E+03  0.16765776972E+04  0.13964359717E+04 0.  0.
        2    1    3    3  502    0  0.57269825635E+03  0.51284068225E+02 -0.93948000266E+03  0.11014699378E+04  0.25500000920E-02 0. -1.
       -2    1    3    3    0  502 -0.57269825635E+03 -0.51284068225E+02  0.11644159479E+02  0.57510775942E+03  0.25500000920E-02 0.  1.
</event>
<event>
 5   0  0.6153318E-04  0.1399595E+04  0.7818609E-02  0.8954112E-01
       -1   -1    0    0    0  501  0.00000000000E+00  0.00000000000E+00  0.49529465595E+03  0.49529465597E+03  0.50400001928E-02 0. -1.
        1   -1    0    0  501    0  0.00000000000E+00  0.00000000000E+00 -0.98873828022E+03  0.98873828024E+03  0.50400001928E-02 0.  1.
    10030    2    1    2    0    0  0.00000000000E+00  0.00000000000E+00 -0.49344362428E+03  0.14840329362E+04  0.13995953506E+04 0.  0.
        5    1    3    3  502    0 -0.60472011673E+03  0.15560207411E+03  0.88242243387E+02  0.63064031632E+03  0.46999998093E+01 0.  1.
       -5    1    3    3    0  502  0.60472011673E+03 -0.15560207411E+03 -0.58168586766E+03  0.85339261989E+03  0.46999998093E+01 0. -1.
</event>
<event>
 5   0  0.6114266E-04  0.1391856E+04  0.7818609E-02  0.8959735E-01
       -1   -1    0    0    0  501  0.00000000000E+00  0.00000000000E+00  0.12771471713E+04  0.12771471714E+04  0.50400001928E-02 0.  1.
        1   -1    0    0  501    0  0.00000000000E+00  0.00000000000E+00 -0.37921665963E+03  0.37921665967E+03  0.50400001928E-02 0. -1.
    10030    2    1    2    0    0  0.00000000000E+00  0.00000000000E+00  0.89793051171E+03  0.16563638310E+04  0.13918555733E+04 0.  0.
        3    1    3    3  502    0  0.65177272554E+03 -0.24230824023E+03  0.41542164000E+03  0.80999760384E+03  0.10100000352E+00 0. -1.
       -3    1    3    3    0  502 -0.65177272554E+03  0.24230824023E+03  0.48250887171E+03  0.84636622718E+03  0.10100000352E+00 0.  1.
</event>
<event>
 5   0  0.6114266E-04  0.1429271E+04  0.7818609E-02  0.8932899E-01
       -1   -1    0    0    0  501  0.00000000000E+00  0.00000000000E+00  0.60880931318E+03  0.60880931320E+03  0.50400001928E-02 0.  1.
        1   -1    0    0  501    0  0.00000000000E+00  0.00000000000E+00 -0.83885649582E+03  0.83885649584E+03  0.50400001928E-02 0. -1.
    10030    2    1    2    0    0  0.00000000000E+00  0.00000000000E+00 -0.23004718265E+03  0.14476658090E+04  0.14292706491E+04 0.  0.
        3    1    3    3  502    0  0.37819723327E+02  0.74912961754E+02  0.60380138083E+03  0.60960511891E+03  0.10100000352E+00 0.  1.
       -3    1    3    3    0  502 -0.37819723327E+02 -0.74912961754E+02 -0.83384856348E+03  0.83806069012E+03  0.10100000352E+00 0. -1.
</event>
<event>
 5   0  0.6153318E-04  0.1371758E+04  0.7818609E-02  0.8974519E-01
        1   -1    0    0  501    0  0.00000000000E+00  0.00000000000E+00  0.11816210389E+04  0.11816210389E+04  0.50400001928E-02 0.  1.
       -1   -1    0    0    0  501  0.00000000000E+00  0.00000000000E+00 -0.39812284442E+03  0.39812284445E+03  0.50400001928E-02 0. -1.
    10030    2    1    2    0    0  0.00000000000E+00  0.00000000000E+00  0.78349819443E+03  0.15797438833E+04  0.13717584759E+04 0.  0.
        5    1    3    3  502    0  0.15474599502E+03  0.16906585558E+03 -0.35269848364E+03  0.42065175247E+03  0.46999998093E+01 0. -1.
       -5    1    3    3    0  502 -0.15474599502E+03 -0.16906585558E+03  0.11361966781E+04  0.11590921308E+04  0.46999998093E+01 0.  1.
</event>
<event>
 5   0  0.6194742E-04  0.1435877E+04  0.7818609E-02  0.8928251E-01
        1   -1    0    0  501    0  0.00000000000E+00  0.00000000000E+00  0.62654533916E+03  0.62654533918E+03  0.50400001928E-02 0. -1.
       -1   -1    0    0    0  501  0.00000000000E+00  0.00000000000E+00 -0.82266260448E+03  0.82266260449E+03  0.50400001928E-02 0.  1.
    10030    2    1    2    0    0  0.00000000000E+00  0.00000000000E+00 -0.19611726531E+03  0.14492079437E+04  0.14358766250E+04 0.  0.
        4    1    3    3  502    0 -0.20913668887E+02  0.77588520711E+02 -0.81810824919E+03  0.82204627631E+03  0.12699999809E+01 0.  1.
       -4    1    3    3    0  502  0.20913668887E+02 -0.77588520711E+02  0.62199098388E+03  0.62716166737E+03  0.12699999809E+01 0. -1.
</event>
<event>
 5   0  0.6153318E-04  0.1409988E+04  0.7818609E-02  0.8946620E-01
       -1   -1    0    0    0  501  0.00000000000E+00  0.00000000000E+00  0.81149358146E+03  0.81149358147E+03  0.50400001928E-02 0.  1.
        1   -1    0    0  501    0  0.00000000000E+00  0.00000000000E+00 -0.61247140585E+03  0.61247140587E+03  0.50400001928E-02 0. -1.
    10030    2    1    2    0    0  0.00000000000E+00  0.00000000000E+00  0.19902217561E+03  0.14239649873E+04  0.14099881059E+04 0.  0.
        5    1    3    3  502    0  0.12951253438E+03 -0.39904917256E+03 -0.47265666823E+03  0.63201278049E+03  0.46999998093E+01 0. -1.
       -5    1    3    3    0  502 -0.12951253438E+03  0.39904917256E+03  0.67167884384E+03  0.79195220685E+03  0.46999998093E+01 0.  1.
</event>
<event>
 5   0  0.1098949E-03  0.1405754E+04  0.7818609E-02  0.8949664E-01
       -2   -1    0    0    0  501  0.00000000000E+00  0.00000000000E+00  0.35512615200E+03  0.35512615201E+03  0.25500000920E-02 0. -1.
        2   -1    0    0  501    0  0.00000000000E+00  0.00000000000E+00 -0.13911569844E+04  0.13911569844E+04  0.25500000920E-02 0.  1.
    10030    2    1    2    0    0  0.00000000000E+00  0.00000000000E+00 -0.10360308324E+04  0.17462831364E+04  0.14057542128E+04 0.  0.
        4    1    3    3  502    0 -0.70172271249E+02 -0.50495088263E+03  0.83073200271E+02  0.51652909988E+03  0.12699999809E+01 0. -1.
       -4    1    3    3    0  502  0.70172271249E+02  0.50495088263E+03 -0.11191040326E+04  0.12297540365E+04  0.12699999809E+01 0.  1.
</event>
<event>
 5   0  0.6153318E-04  0.1411276E+04  0.7818609E-02  0.8945696E-01
        1   -1    0    0  501    0  0.00000000000E+00  0.00000000000E+00  0.11070429261E+04  0.11070429261E+04  0.50400001928E-02 0.  1.
       -1   -1    0    0    0  501  0.00000000000E+00  0.00000000000E+00 -0.44977944239E+03  0.44977944242E+03  0.50400001928E-02 0. -1.
    10030    2    1    2    0    0  0.00000000000E+00  0.00000000000E+00  0.65726348373E+03  0.15568223685E+04  0.14112762310E+04 0.  0.
        5    1    3    3  502    0  0.25011683737E+03  0.61702868460E+03  0.58644413991E+03  0.88725512069E+03  0.46999998093E+01 0.  1.
       -5    1    3    3    0  502 -0.25011683737E+03 -0.61702868460E+03  0.70819343821E+02  0.66956724786E+03  0.46999998093E+01 0. -1.
</event>
<event>
 5   0  0.1108819E-03  0.1401451E+04  0.7818609E-02  0.8952769E-01
        2   -1    0    0  501    0  0.00000000000E+00  0.00000000000E+00  0.43327110804E+03  0.43327110805E+03  0.25500000920E-02 0. -1.
       -2   -1    0    0    0  501  0.00000000000E+00  0.00000000000E+00 -0.11332764748E+04  0.11332764748E+04  0.25500000920E-02 0.  1.
    10030    2    1    2    0    0  0.00000000000E+00  0.00000000000E+00 -0.70000536674E+03  0.15665475828E+04  0.14014506113E+04 0.  0.
        3    1    3    3  502    0  0.39135924576E+03  0.93162395914E+02 -0.99132888918E+03  0.10698477779E+04  0.10100000352E+00 0.  1.
       -3    1    3    3    0  502 -0.39135924576E+03 -0.93162395914E+02  0.29132352244E+03  0.49669980489E+03  0.10100000352E+00 0. -1.
</event>
<event>
 5   0  0.1108819E-03  0.1268022E+04  0.7818609E-02  0.9055315E-01
       -2   -1    0    0    0  501  0.00000000000E+00  0.00000000000E+00  0.92811107437E+03  0.92811107437E+03  0.25500000920E-02 0.  1.
        2   -1    0    0  501    0  0.00000000000E+00  0.00000000000E+00 -0.43310555544E+03  0.43310555544E+03  0.25500000920E-02 0. -1.
    10030    2    1    2    0    0  0.00000000000E+00  0.00000000000E+00  0.49500551893E+03  0.13612166298E+04  0.12680221802E+04 0.  0.
        3    1    3    3  502    0  0.33581208198E+03  0.18769588599E+03  0.78849629729E+03  0.87734025387E+03  0.10100000352E+00 0.  1.
       -3    1    3    3    0  502 -0.33581208198E+03 -0.18769588599E+03 -0.29349077836E+03  0.48387637595E+03  0.10100000352E+00 0. -1.
</event>
<event>
 5   0  0.4176125E-04  0.1393126E+04  0.7818609E-02  0.8958810E-01
        4   -1    0    0  501    0  0.00000000000E+00  0.00000000000E+00  0.60975892612E+03  0.60976024869E+03  0.12699999809E+01 0. -1.
       -4   -1    0    0    0  501  0.00000000000E+00  0.00000000000E+00 -0.79572127624E+03  0.79572228972E+03  0.12699999809E+01 0.  1.
    10030    2    1    2    0    0  0.00000000000E+00  0.00000000000E+00 -0.18596235012E+03  0.14054825384E+04  0.13931256835E+04 0.  0.
        5    1    3    3  502    0  0.33671742862E+03  0.12300798224E+03  0.50953303902E+03  0.62302134657E+03  0.46999998093E+01 0. -1.
       -5    1    3    3    0  502 -0.33671742862E+03 -0.12300798224E+03 -0.69549538914E+03  0.78246119185E+03  0.46999998093E+01 0.  1.
</event>
<event>
 5   0  0.1095119E-03  0.1401341E+04  0.7818609E-02  0.8952848E-01
        2   -1    0    0  501    0  0.00000000000E+00  0.00000000000E+00  0.18166242593E+04  0.18166242593E+04  0.25500000920E-02 0.  1.
       -2   -1    0    0    0  501  0.00000000000E+00  0.00000000000E+00 -0.27024812398E+03  0.27024812400E+03  0.25500000920E-02 0. -1.
    10030    2    1    2    0    0  0.00000000000E+00  0.00000000000E+00  0.15463761353E+04  0.20868723833E+04  0.14013412119E+04 0.  0.
        5    1    3    3  502    0  0.31635666166E+02 -0.14848270939E+03  0.17918129057E+04  0.17982390023E+04  0.46999998093E+01 0.  1.
       -5    1    3    3    0  502 -0.31635666166E+02  0.14848270939E+03 -0.24543677039E+03  0.28863338099E+03  0.46999998093E+01 0. -1.
</event>
<event>
 5   0  0.6153318E-04  0.1410429E+04  0.7818609E-02  0.8946304E-01
       -1   -1    0    0    0  501  0.00000000000E+00  0.00000000000E+00  0.69939424672E+03  0.69939424674E+03  0.50400001928E-02 0.  1.
        1   -1    0    0  501    0  0.00000000000E+00  0.00000000000E+00 -0.71108366960E+03  0.71108366962E+03  0.50400001928E-02 0. -1.
    10030    2    1    2    0    0  0.00000000000E+00  0.00000000000E+00 -0.11689422887E+02  0.14104779164E+04  0.14104294771E+04 0.  0.
        5    1    3    3  502    0 -0.39990742497E+02  0.47182629960E+03 -0.52843937164E+03  0.70956999372E+03  0.46999998093E+01 0. -1.
       -5    1    3    3    0  502  0.39990742497E+02 -0.47182629960E+03  0.51674994876E+03  0.70090792264E+03  0.46999998093E+01 0.  1.
</event>
<event>
 5   0  0.6097538E-04  0.1422625E+04  0.7818609E-02  0.8937602E-01
        1   -1    0    0  501    0  0.00000000000E+00  0.00000000000E+00  0.20795123959E+04  0.20795123959E+04  0.50400001928E-02 0. -1.
       -1   -1    0    0    0  501  0.00000000000E+00  0.00000000000E+00 -0.24330983543E+03  0.24330983549E+03  0.50400001928E-02 0.  1.
    10030    2    1    2    0    0  0.00000000000E+00  0.00000000000E+00  0.18362025605E+04  0.23228222314E+04  0.14226254868E+04 0.  0.
        2    1    3    3  502    0  0.60426962351E+03 -0.23239348979E+03  0.13991937330E+04  0.15417170994E+04  0.25500000920E-02 0. -1.
       -2    1    3    3    0  502 -0.60426962351E+03  0.23239348979E+03  0.43700882746E+03  0.78110513203E+03  0.25500000920E-02 0.  1.
</event>
<event>
 5   0  0.1095119E-03  0.1410628E+04  0.7818609E-02  0.8946162E-01
       -2   -1    0    0    0  501  0.00000000000E+00  0.00000000000E+00  0.48227959240E+03  0.48227959241E+03  0.25500000920E-02 0. -1.
        2   -1    0    0  501    0  0.00000000000E+00  0.00000000000E+00 -0.10314919283E+04  0.10314919283E+04  0.25500000920E-02 0.  1.
    10030    2    1    2    0    0  0.00000000000E+00  0.00000000000E+00 -0.54921233587E+03  0.15137715207E+04  0.14106275295E+04 0.  0.
        5    1    3    3  502    0  0.38398744605E+03 -0.31409033455E+03  0.26339626610E+03  0.56169278077E+03  0.46999998093E+01 0. -1.
       -5    1    3    3    0  502 -0.38398744605E+03  0.31409033455E+03 -0.81260860197E+03  0.95207873990E+03  0.46999998093E+01 0.  1.
</event>
<event>
 5   0  0.1175146E-03  0.1401039E+04  0.7818609E-02  0.8953067E-01
        2   -1    0    0  501    0  0.00000000000E+00  0.00000000000E+00  0.14425275353E+04  0.14425275353E+04  0.25500000920E-02 0. -1.
       -2   -1    0    0    0  501  0.00000000000E+00  0.00000000000E+00 -0.34018609705E+03  0.34018609706E+03  0.25500000920E-02 0.  1.
    10030    2    1    2    0    0  0.00000000000E+00  0.00000000000E+00  0.11023414382E+04  0.17827136323E+04  0.14010393458E+04 0.  0.
        1    1    3    3  502    0  0.61130752519E+03  0.14030424360E+03  0.15417163194E+03  0.64587232736E+03  0.50400001928E-02 0. -1.
       -1    1    3    3    0  502 -0.61130752519E+03 -0.14030424360E+03  0.94816980626E+03  0.11368413050E+04  0.50400001928E-02 0.  1.
</event>
<event>
 5   0  0.6097538E-04  0.1411375E+04  0.7818609E-02  0.8945626E-01
       -1   -1    0    0    0  501  0.00000000000E+00  0.00000000000E+00  0.28422698225E+03  0.28422698229E+03  0.50400001928E-02 0.  1.
        1   -1    0    0  501    0  0.00000000000E+00  0.00000000000E+00 -0.17521023457E+04  0.17521023457E+04  0.50400001928E-02 0. -1.
    10030    2    1    2    0    0  0.00000000000E+00  0.00000000000E+00 -0.14678753635E+04  0.20363293280E+04  0.14113748791E+04 0.  0.
        2    1    3    3  502    0  0.13159343628E+03  0.25878435645E+02 -0.17335462676E+04  0.17387263119E+04  0.25500000920E-02 0. -1.
       -2    1    3    3    0  502 -0.13159343628E+03 -0.25878435645E+02  0.26567090411E+03  0.29760301611E+03  0.25500000920E-02 0.  1.
</event>
<event>
 5   0  0.1175146E-03  0.1421217E+04  0.7818609E-02  0.8938602E-01
       -2   -1    0    0    0  501  0.00000000000E+00  0.00000000000E+00  0.47352011669E+03  0.47352011669E+03  0.25500000920E-02 0.  1.
        2   -1    0    0  501    0  0.00000000000E+00  0.00000000000E+00 -0.10664050322E+04  0.10664050322E+04  0.25500000920E-02 0. -1.
    10030    2    1    2    0    0  0.00000000000E+00  0.00000000000E+00 -0.59288491547E+03  0.15399251489E+04  0.14212167115E+04 0.  0.
        1    1    3    3  502    0  0.42858595612E+03  0.47976909637E+03  0.30595620454E+02  0.64404999778E+03  0.50400001928E-02 0.  1.
       -1    1    3    3    0  502 -0.42858595612E+03 -0.47976909637E+03 -0.62348053592E+03  0.89587515108E+03  0.50400001928E-02 0. -1.
</event>
<event>
 5   0  0.6194742E-04  0.1409100E+04  0.7818609E-02  0.8947257E-01
        1   -1    0    0  501    0  0.00000000000E+00  0.00000000000E+00  0.11103239460E+04  0.11103239460E+04  0.50400001928E-02 0.  1.
       -1   -1    0    0    0  501  0.00000000000E+00  0.00000000000E+00 -0.44706858748E+03  0.44706858751E+03  0.50400001928E-02 0. -1.
    10030    2    1    2    0    0  0.00000000000E+00  0.00000000000E+00  0.66325535851E+03  0.15573925335E+04  0.14091003630E+04 0.  0.
        4    1    3    3  502    0  0.54947075489E+03  0.27638531901E+03  0.71142223012E+03  0.94044146944E+03  0.12699999809E+01 0.  1.
       -4    1    3    3    0  502 -0.54947075489E+03 -0.27638531901E+03 -0.48166871603E+02  0.61695106408E+03  0.12699999809E+01 0. -1.
</event>
<event>
 5   0  0.1108819E-03  0.1394762E+04  0.7818609E-02  0.8957619E-01
       -2   -1    0    0    0  501  0.00000000000E+00  0.00000000000E+00  0.34002369357E+03  0.34002369358E+03  0.25500000920E-02 0. -1.
        2   -1    0    0  501    0  0.00000000000E+00  0.00000000000E+00 -0.14303119357E+04  0.14303119357E+04  0.25500000920E-02 0.  1.
    10030    2    1    2    0    0  0.00000000000E+00  0.00000000000E+00 -0.10902882421E+04  0.17703356292E+04  0.13947615529E+04 0.  0.
        3    1    3    3  502    0 -0.15038904274E+03  0.42244195465E+03  0.13277915948E+03  0.46765840591E+03  0.10100000352E+00 0. -1.
       -3    1    3    3    0  502  0.15038904274E+03 -0.42244195465E+03 -0.12230674016E+04  0.13026772233E+04  0.10100000352E+00 0.  1.
</event>
<event>
 5   0  0.6194742E-04  0.1386291E+04  0.7818609E-02  0.8963802E-01
       -1   -1    0    0    0  501  0.00000000000E+00  0.00000000000E+00  0.91787359931E+03  0.91787359932E+03  0.50400001928E-02 0. -1.
        1   -1    0    0  501    0  0.00000000000E+00  0.00000000000E+00 -0.52343861979E+03  0.52343861982E+03  0.50400001928E-02 0.  1.
    10030    2    1    2    0    0  0.00000000000E+00  0.00000000000E+00  0.39443497952E+03  0.14413122191E+04  0.13862907199E+04 0.  0.
        4    1    3    3  502    0  0.47665332952E+03  0.46573284691E+03 -0.98837684514E+00  0.66641433885E+03  0.12699999809E+01 0. -1.
       -4    1    3    3    0  502 -0.47665332952E+03 -0.46573284691E+03  0.39542335636E+03  0.77489788030E+03  0.12699999809E+01 0.  1.
</event>
<event>
 5   0  0.1108819E-03  0.1396778E+04  0.7818609E-02  0.8956154E-01
       -2   -1    0    0    0  501  0.00000000000E+00  0.00000000000E+00  0.61846792618E+03  0.61846792619E+03  0.25500000920E-02 0. -1.
        2   -1    0    0  501    0  0.00000000000E+00  0.00000000000E+00 -0.78863837619E+03  0.78863837620E+03  0.25500000920E-02 0.  1.
    10030    2    1    2    0    0  0.00000000000E+00  0.00000000000E+00 -0.17017045001E+03  0.14071063024E+04  0.13967784950E+04 0.  0.
        3    1    3    3  502    0  0.24428533303E+02 -0.59036976093E+03  0.28997708347E+03  0.65819444467E+03  0.10100000352E+00 0. -1.
       -3    1    3    3    0  502 -0.24428533303E+02  0.59036976093E+03 -0.46014753348E+03  0.74891185771E+03  0.10100000352E+00 0.  1.
</event>
<event>
 5   0  0.1098949E-03  0.1396660E+04  0.7818609E-02  0.8956240E-01
       -2   -1    0    0    0  501  0.00000000000E+00  0.00000000000E+00  0.65994724160E+03  0.65994724160E+03  0.25500000920E-02 0. -1.
        2   -1    0    0  501    0  0.00000000000E+00  0.00000000000E+00 -0.73894546475E+03  0.73894546476E+03  0.25500000920E-02 0.  1.
    10030    2    1    2    0    0  0.00000000000E+00  0.00000000000E+00 -0.78998223154E+02  0.13988927064E+04  0.13966603326E+04 0.  0.
        4    1    3    3  502    0 -0.35703542037E+03 -0.36650396059E+03 -0.51551021136E+03  0.72632763644E+03  0.12699999809E+01 0.  1.
       -4    1    3    3    0  502  0.35703542037E+03  0.36650396059E+03  0.43651198821E+03  0.67256506992E+03  0.12699999809E+01 0. -1.
</event>
<event>
 5   0  0.1120053E-03  0.1410056E+04  0.7818609E-02  0.8946571E-01
       -2   -1    0    0    0  501  0.00000000000E+00  0.00000000000E+00  0.22110236907E+03  0.22110236908E+03  0.25500000920E-02 0.  1.
        2   -1    0    0  501    0  0.00000000000E+00  0.00000000000E+00 -0.22481199700E+04  0.22481199700E+04  0.25500000920E-02 0. -1.
    10030    2    1    2    0    0  0.00000000000E+00  0.00000000000E+00 -0.20270176009E+04  0.24692223391E+04  0.14100562419E+04 0.  0.
        2    1    3    3  502    0 -0.15939678165E+03 -0.17184866215E+03 -0.21778934533E+04  0.21904700844E+04  0.25500000920E-02 0. -1.
       -2    1    3    3    0  502  0.15939678165E+03  0.17184866215E+03  0.15087585235E+03  0.27875225472E+03  0.25500000920E-02 0.  1.
</event>
<event>
 5   0  0.1120053E-03  0.1405241E+04  0.7818609E-02  0.8950033E-01
       -2   -1    0    0    0  501  0.00000000000E+00  0.00000000000E+00  0.10689963602E+04  0.10689963602E+04  0.25500000920E-02 0. -1.
        2   -1    0    0  501    0  0.00000000000E+00  0.00000000000E+00 -0.46181239584E+03  0.46181239585E+03  0.25500000920E-02 0.  1.
    10030    2    1    2    0    0  0.00000000000E+00  0.00000000000E+00  0.60718396437E+03  0.15308087561E+04  0.14052412893E+04 0.  0.
        2    1    3    3  502    0 -0.50097752025E+03  0.38974743772E+03  0.63183776785E+03  0.89560063974E+03  0.25500000920E-02 0. -1.
       -2    1    3    3    0  502  0.50097752025E+03 -0.38974743772E+03 -0.24653803485E+02  0.63520811632E+03  0.25500000920E-02 0.  1.
</event>
<event>
 5   0  0.6194742E-04  0.1401862E+04  0.7818609E-02  0.8952472E-01
        1   -1    0    0  501    0  0.00000000000E+00  0.00000000000E+00  0.59615387721E+03  0.59615387723E+03  0.50400001928E-02 0.  1.
       -1   -1    0    0    0  501  0.00000000000E+00  0.00000000000E+00 -0.82412278666E+03  0.82412278668E+03  0.50400001928E-02 0. -1.
    10030    2    1    2    0    0  0.00000000000E+00  0.00000000000E+00 -0.22796890946E+03  0.14202766639E+04  0.14018616117E+04 0.  0.
        4    1    3    3  502    0 -0.30001800275E+03 -0.42385961509E+02 -0.75434341025E+03  0.81292248413E+03  0.12699999809E+01 0. -1.
       -4    1    3    3    0  502  0.30001800275E+03  0.42385961509E+02  0.52637450079E+03  0.60735417978E+03  0.12699999809E+01 0.  1.
</event>
<event>
 5   0  0.1120053E-03  0.1404660E+04  0.7818609E-02  0.8950452E-01
       -2   -1    0    0    0  501  0.00000000000E+00  0.00000000000E+00  0.51493554875E+03  0.51493554876E+03  0.25500000920E-02 0.  1.
        2   -1    0    0  501    0  0.00000000000E+00  0.00000000000E+00 -0.95792092127E+03  0.95792092128E+03  0.25500000920E-02 0. -1.
    10030    2    1    2    0    0  0.00000000000E+00  0.00000000000E+00 -0.44298537252E+03  0.14728564700E+04  0.14046601514E+04 0.  0.
        2    1    3    3  502    0  0.59728332319E+03 -0.25857851859E+03  0.55247695355E+02  0.65319409542E+03  0.25500000920E-02 0. -1.
       -2    1    3    3    0  502 -0.59728332319E+03  0.25857851859E+03 -0.49823306787E+03  0.81966237462E+03  0.25500000920E-02 0.  1.
</event>
<event>
 5   0  0.1095119E-03  0.1396798E+04  0.7818609E-02  0.8956140E-01
        2   -1    0    0  501    0  0.00000000000E+00  0.00000000000E+00  0.13022722477E+04  0.13022722477E+04  0.25500000920E-02 0.  1.
       -2   -1    0    0    0  501  0.00000000000E+00  0.00000000000E+00 -0.37454597824E+03  0.37454597825E+03  0.25500000920E-02 0. -1.
    10030    2    1    2    0    0  0.00000000000E+00  0.00000000000E+00  0.92772626942E+03  0.16768182259E+04  0.13967975271E+04 0.  0.
        5    1    3    3  502    0 -0.66418079879E+03 -0.21465464702E+03  0.49139540887E+03  0.85364178016E+03  0.46999998093E+01 0. -1.
       -5    1    3    3    0  502  0.66418079879E+03  0.21465464702E+03  0.43633086055E+03  0.82317644575E+03  0.46999998093E+01 0.  1.
</event>
<event>
 5   0  0.1095119E-03  0.1410348E+04  0.7818609E-02  0.8946362E-01
        2   -1    0    0  501    0  0.00000000000E+00  0.00000000000E+00  0.78001855769E+03  0.78001855769E+03  0.25500000920E-02 0.  1.
       -2   -1    0    0    0  501  0.00000000000E+00  0.00000000000E+00 -0.63751102815E+03  0.63751102816E+03  0.25500000920E-02 0. -1.
    10030    2    1    2    0    0  0.00000000000E+00  0.00000000000E+00  0.14250752953E+03  0.14175295858E+04  0.14103480885E+04 0.  0.
        5    1    3    3  502    0  0.23370424082E+03 -0.66048385990E+03  0.15160922879E+03  0.71684311367E+03  0.46999998093E+01 0. -1.
       -5    1    3    3    0  502 -0.23370424082E+03  0.66048385990E+03 -0.91016992539E+01  0.70068647218E+03  0.46999998093E+01 0.  1.
</event>
<event>
 5   0  0.1108819E-03  0.1412000E+04  0.7818609E-02  0.8945178E-01
        2   -1    0    0  501    0  0.00000000000E+00  0.00000000000E+00  0.60632977467E+03  0.60632977467E+03  0.25500000920E-02 0. -1.
       -2   -1    0    0    0  501  0.00000000000E+00  0.00000000000E+00 -0.82205473458E+03  0.82205473458E+03  0.25500000920E-02 0.  1.
    10030    2    1    2    0    0  0.00000000000E+00  0.00000000000E+00 -0.21572495991E+03  0.14283845093E+04  0.14120003711E+04 0.  0.
        3    1    3    3  502    0 -0.10597017087E+03  0.26421463034E+03 -0.76142191466E+03  0.81289752757E+03  0.10100000352E+00 0.  1.
       -3    1    3    3    0  502  0.10597017087E+03 -0.26421463034E+03  0.54569695475E+03  0.61548698169E+03  0.10100000352E+00 0. -1.
</event>
<event>
 5   0  0.6153318E-04  0.1408432E+04  0.7818609E-02  0.8947738E-01
        1   -1    0    0  501    0  0.00000000000E+00  0.00000000000E+00  0.89768660229E+03  0.89768660230E+03  0.50400001928E-02 0.  1.
       -1   -1    0    0    0  501  0.00000000000E+00  0.00000000000E+00 -0.55244239207E+03  0.55244239209E+03  0.50400001928E-02 0. -1.
    10030    2    1    2    0    0  0.00000000000E+00  0.00000000000E+00  0.34524421022E+03  0.14501289944E+04  0.14084319422E+04 0.  0.
        5    1    3    3  502    0  0.23960197102E+03  0.18630149732E+03  0.82687182267E+03  0.88082714169E+03  0.46999998093E+01 0.  1.
       -5    1    3    3    0  502 -0.23960197102E+03 -0.18630149732E+03 -0.48162761245E+03  0.56930185270E+03  0.46999998093E+01 0. -1.
</event>
<event>
 5   0  0.5875298E-04  0.1401751E+04  0.7818609E-02  0.8952552E-01
        1   -1    0    0  501    0  0.00000000000E+00  0.00000000000E+00  0.71233046394E+03  0.71233046396E+03  0.50400001928E-02 0.  1.
       -1   -1    0    0    0  501  0.00000000000E+00  0.00000000000E+00 -0.68960499991E+03  0.68960499993E+03  0.50400001928E-02 0. -1.
    10030    2    1    2    0    0  0.00000000000E+00  0.00000000000E+00  0.22725464032E+02  0.14019354639E+04  0.14017512612E+04 0.  0.
        1    1    3    3  502    0 -0.41983744391E+03  0.11729247145E+03  0.56025690562E+03  0.70986534180E+03  0.50400001928E-02 0.  1.
       -1    1    3    3    0  502  0.41983744391E+03 -0.11729247145E+03 -0.53753144159E+03  0.69207012209E+03  0.50400001928E-02 0. -1.
</event>
<event>
 5   0  0.1108819E-03  0.1407436E+04  0.7818609E-02  0.8948453E-01
       -2   -1    0    0    0  501  0.00000000000E+00  0.00000000000E+00  0.93833617977E+03  0.93833617978E+03  0.25500000920E-02 0. -1.
        2   -1    0    0  501    0  0.00000000000E+00  0.00000000000E+00 -0.52776301825E+03  0.52776301826E+03  0.25500000920E-02 0.  1.
    10030    2    1    2    0    0  0.00000000000E+00  0.00000000000E+00  0.41057316152E+03  0.14660991980E+04  0.14074361575E+04 0.  0.
        3    1    3    3  502    0 -0.56195446021E+03 -0.37694194425E+03  0.40657930920E+03  0.78942054037E+03  0.10100000352E+00 0. -1.
       -3    1    3    3    0  502  0.56195446021E+03  0.37694194425E+03  0.39938523232E+01  0.67667865767E+03  0.10100000352E+00 0.  1.
</event>
<event>
 5   0  0.6097538E-04  0.1398369E+04  0.7818609E-02  0.8955000E-01
       -1   -1    0    0    0  501  0.00000000000E+00  0.00000000000E+00  0.39331891981E+03  0.39331891984E+03  0.50400001928E-02 0.  1.
        1   -1    0    0  501    0  0.00000000000E+00  0.00000000000E+00 -0.12429078711E+04  0.12429078711E+04  0.50400001928E-02 0. -1.
    10030    2    1    2    0    0  0.00000000000E+00  0.00000000000E+00 -0.84958895132E+03  0.16362267910E+04  0.13983693093E+04 0.  0.
        2    1    3    3  502    0 -0.50131786240E+03  0.36451228102E+03 -0.80335342210E+03  0.10146750825E+04  0.25500000920E-02 0. -1.
       -2    1    3    3    0  502  0.50131786240E+03 -0.36451228102E+03 -0.46235529216E+02  0.62155170851E+03  0.25500000920E-02 0.  1.
</event>
<event>
 5   0  0.1098949E-03  0.1394657E+04  0.7818609E-02  0.8957695E-01
       -2   -1    0    0    0  501  0.00000000000E+00  0.00000000000E+00  0.14688872442E+04  0.14688872442E+04  0.25500000920E-02 0. -1.
        2   -1    0    0  501    0  0.00000000000E+00  0.00000000000E+00 -0.33104450925E+03  0.33104450926E+03  0.25500000920E-02 0.  1.
    10030    2    1    2    0    0  0.00000000000E+00  0.00000000000E+00  0.11378427349E+04  0.17999317534E+04  0.13946570287E+04 0.  0.
        4    1    3    3  502    0  0.53694835374E+03  0.23598699371E+03  0.82140895633E+02  0.59224330762E+03  0.12699999809E+01 0.  1.
       -4    1    3    3    0  502 -0.53694835374E+03 -0.23598699371E+03  0.10557018393E+04  0.12076884458E+04  0.12699999809E+01 0. -1.
</event>
<event>
 5   0  0.6194742E-04  0.1389572E+04  0.7818609E-02  0.8961401E-01
       -1   -1    0    0    0  501  0.00000000000E+00  0.00000000000E+00  0.30526934508E+03  0.30526934512E+03  0.50400001928E-02 0.  1.
        1   -1    0    0  501    0  0.00000000000E+00  0.00000000000E+00 -0.15813176022E+04  0.15813176022E+04  0.50400001928E-02 0. -1.
    10030    2    1    2    0    0  0.00000000000E+00  0.00000000000E+00 -0.12760482571E+04  0.18865869473E+04  0.13895722922E+04 0.  0.
        4    1    3    3  502    0  0.30959946133E+03 -0.15083713562E+03  0.18123151598E+03  0.38916595845E+03  0.12699999809E+01 0.  1.
       -4    1    3    3    0  502 -0.30959946133E+03  0.15083713562E+03 -0.14572797731E+04  0.14974209888E+04  0.12699999809E+01 0. -1.
</event>
<event>
 5   0  0.1098949E-03  0.1444934E+04  0.7818609E-02  0.8921920E-01
        2   -1    0    0  501    0  0.00000000000E+00  0.00000000000E+00  0.11405621094E+04  0.11405621094E+04  0.25500000920E-02 0.  1.
       -2   -1    0    0    0  501  0.00000000000E+00  0.00000000000E+00 -0.45763255240E+03  0.45763255240E+03  0.25500000920E-02 0. -1.
    10030    2    1    2    0    0  0.00000000000E+00  0.00000000000E+00  0.68292955701E+03  0.15981946618E+04  0.14449336999E+04 0.  0.
        4    1    3    3  502    0  0.18133243333E+03  0.59523490629E+03 -0.64585192390E+02  0.62558684850E+03  0.12699999809E+01 0. -1.
       -4    1    3    3    0  502 -0.18133243333E+03 -0.59523490629E+03  0.74751474940E+03  0.97260781331E+03  0.12699999809E+01 0.  1.
</event>
<event>
 5   0  0.1175146E-03  0.1390795E+04  0.7818609E-02  0.8960509E-01
        2   -1    0    0  501    0  0.00000000000E+00  0.00000000000E+00  0.11599775267E+04  0.11599775267E+04  0.25500000920E-02 0.  1.
       -2   -1    0    0    0  501  0.00000000000E+00  0.00000000000E+00 -0.41688547673E+03  0.41688547674E+03  0.25500000920E-02 0. -1.
    10030    2    1    2    0    0  0.00000000000E+00  0.00000000000E+00  0.74309204996E+03  0.15768630034E+04  0.13907951455E+04 0.  0.
        1    1    3    3  502    0  0.14119113693E+03  0.80730928234E+02 -0.39501804152E+03  0.42719044123E+03  0.50400001928E-02 0. -1.
       -1    1    3    3    0  502 -0.14119113693E+03 -0.80730928234E+02  0.11381100915E+04  0.11496725622E+04  0.50400001928E-02 0.  1.
</event>
<event>
 5   0  0.1120053E-03  0.1385073E+04  0.7818609E-02  0.8964695E-01
        2   -1    0    0  501    0  0.00000000000E+00  0.00000000000E+00  0.13980705608E+04  0.13980705608E+04  0.25500000920E-02 0. -1.
       -2   -1    0    0    0  501  0.00000000000E+00  0.00000000000E+00 -0.34304910729E+03  0.34304910730E+03  0.25500000920E-02 0.  1.
    10030    2    1    2    0    0  0.00000000000E+00  0.00000000000E+00  0.10550214535E+04  0.17411196681E+04  0.13850730780E+04 0.  0.
        2    1    3    3  502    0  0.17285553957E+03 -0.49242062140E+03  0.10997833143E+04  0.12173251186E+04  0.25500000920E-02 0. -1.
       -2    1    3    3    0  502 -0.17285553957E+03  0.49242062140E+03 -0.44761860769E+02  0.52379454953E+03  0.25500000920E-02 0.  1.
</event>
<event>
 5   0  0.6114266E-04  0.1391284E+04  0.7818609E-02  0.8960152E-01
        1   -1    0    0  501    0  0.00000000000E+00  0.00000000000E+00  0.73726028901E+03  0.73726028903E+03  0.50400001928E-02 0. -1.
       -1   -1    0    0    0  501  0.00000000000E+00  0.00000000000E+00 -0.65637288920E+03  0.65637288922E+03  0.50400001928E-02 0.  1.
    10030    2    1    2    0    0  0.00000000000E+00  0.00000000000E+00  0.80887399813E+02  0.13936331782E+04  0.13912838187E+04 0.  0.
        3    1    3    3  502    0  0.42960401313E+02  0.85482324771E+01  0.73587751773E+03  0.73718003206E+03  0.10100000352E+00 0. -1.
       -3    1    3    3    0  502 -0.42960401313E+02 -0.85482324771E+01 -0.65499011792E+03  0.65645314618E+03  0.10100000352E+00 0.  1.
</event>
<event>
 5   0  0.4176125E-04  0.1427017E+04  0.7818609E-02  0.8934491E-01
        3   -1    0    0  501    0  0.00000000000E+00  0.00000000000E+00  0.46978447130E+03  0.46978448216E+03  0.10100000352E+00 0. -1.
       -3   -1    0    0    0  501  0.00000000000E+00  0.00000000000E+00 -0.10836771682E+04  0.10836771729E+04  0.10100000352E+00 0.  1.
    10030    2    1    2    0    0  0.00000000000E+00  0.00000000000E+00 -0.61389269688E+03  0.15534616550E+04  0.14270174738E+04 0.  0.
        5    1    3    3  502    0  0.36236466085E+03 -0.47988284236E+03 -0.72500123327E+03  0.94193660512E+03  0.46999998093E+01 0.  1.
       -5    1    3    3    0  502 -0.36236466085E+03  0.47988284236E+03  0.11110853639E+03  0.61152504992E+03  0.46999998093E+01 0. -1.
</event>
<event>
 5   0  0.5875298E-04  0.1404547E+04  0.7818609E-02  0.8950534E-01
        1   -1    0    0  501    0  0.00000000000E+00  0.00000000000E+00  0.26159242953E+04  0.26159242953E+04  0.50400001928E-02 0.  1.
       -1   -1    0    0    0  501  0.00000000000E+00  0.00000000000E+00 -0.18853307407E+03  0.18853307414E+03  0.50400001928E-02 0. -1.
    10030    2    1    2    0    0  0.00000000000E+00  0.00000000000E+00  0.24273912212E+04  0.28044573694E+04  0.14045472566E+04 0.  0.
        1    1    3    3  502    0  0.61628442024E+03  0.20449095338E+03  0.67954531998E+03  0.93989620628E+03  0.50400001928E-02 0. -1.
       -1    1    3    3    0  502 -0.61628442024E+03 -0.20449095338E+03  0.17478459012E+04  0.18645611632E+04  0.50400001928E-02 0.  1.
</event>
<event>
 5   0  0.6097538E-04  0.1393310E+04  0.7818609E-02  0.8958675E-01
       -1   -1    0    0    0  501  0.00000000000E+00  0.00000000000E+00  0.38551891854E+03  0.38551891858E+03  0.50400001928E-02 0. -1.
        1   -1    0    0  501    0  0.00000000000E+00  0.00000000000E+00 -0.12588959422E+04  0.12588959422E+04  0.50400001928E-02 0.  1.
    10030    2    1    2    0    0  0.00000000000E+00  0.00000000000E+00 -0.87337702362E+03  0.16444148608E+04  0.13933100189E+04 0.  0.
        2    1    3    3  502    0 -0.12907560493E+03  0.15537634666E+03  0.35019810448E+03  0.40427841060E+03  0.25500000920E-02 0. -1.
       -2    1    3    3    0  502  0.12907560493E+03 -0.15537634666E+03 -0.12235751281E+04  0.12401364502E+04  0.25500000920E-02 0.  1.
</event>
<event>
 5   0  0.1120053E-03  0.1401936E+04  0.7818609E-02  0.8952418E-01
       -2   -1    0    0    0  501  0.00000000000E+00  0.00000000000E+00  0.46121790966E+03  0.46121790967E+03  0.25500000920E-02 0. -1.
        2   -1    0    0  501    0  0.00000000000E+00  0.00000000000E+00 -0.10653447933E+04  0.10653447933E+04  0.25500000920E-02 0.  1.
    10030    2    1    2    0    0  0.00000000000E+00  0.00000000000E+00 -0.60412688361E+03  0.15265627030E+04  0.14019359452E+04 0.  0.
        2    1    3    3  502    0 -0.68303864235E+03 -0.15745054525E+03 -0.29676940242E+03  0.76118627113E+03  0.25500000920E-02 0. -1.
       -2    1    3    3    0  502  0.68303864235E+03  0.15745054525E+03 -0.30735748119E+03  0.76537643182E+03  0.25500000920E-02 0.  1.
</event>
<event>
 5   0  0.1095119E-03  0.1400503E+04  0.7818609E-02  0.8953454E-01
        2   -1    0    0  501    0  0.00000000000E+00  0.00000000000E+00  0.71028785862E+03  0.71028785862E+03  0.25500000920E-02 0.  1.
       -2   -1    0    0    0  501  0.00000000000E+00  0.00000000000E+00 -0.69035732988E+03  0.69035732988E+03  0.25500000920E-02 0. -1.
    10030    2    1    2    0    0  0.00000000000E+00  0.00000000000E+00  0.19930528739E+02  0.14006451885E+04  0.14005033803E+04 0.  0.
        5    1    3    3  502    0  0.17052583112E+03  0.41149869472E+03  0.55031628411E+03  0.70801153762E+03  0.46999998093E+01 0.  1.
       -5    1    3    3    0  502 -0.17052583112E+03 -0.41149869472E+03 -0.53038575538E+03  0.69263365089E+03  0.46999998093E+01 0. -1.
</event>
<event>
 5   0  0.5875298E-04  0.1393694E+04  0.7818609E-02  0.8958396E-01
       -1   -1    0    0    0  501  0.00000000000E+00  0.00000000000E+00  0.48810740568E+03  0.48810740571E+03  0.50400001928E-02 0. -1.
        1   -1    0    0  501    0  0.00000000000E+00  0.00000000000E+00 -0.99485424958E+03  0.99485424959E+03  0.50400001928E-02 0.  1.
    10030    2    1    2    0    0  0.00000000000E+00  0.00000000000E+00 -0.50674684389E+03  0.14829616553E+04  0.13936939791E+04 0.  0.
        1    1    3    3  502    0 -0.32894613939E+03 -0.28261117781E+03  0.32701851902E+03  0.54315352549E+03  0.50400001928E-02 0. -1.
       -1    1    3    3    0  502  0.32894613939E+03  0.28261117781E+03 -0.83376536291E+03  0.93980812981E+03  0.50400001928E-02 0.  1.
</event>
<event>
 5   0  0.1175146E-03  0.1363820E+04  0.7818609E-02  0.8980432E-01
        2   -1    0    0  501    0  0.00000000000E+00  0.00000000000E+00  0.14350085369E+04  0.14350085369E+04  0.25500000920E-02 0. -1.
       -2   -1    0    0    0  501  0.00000000000E+00  0.00000000000E+00 -0.32404081644E+03  0.32404081645E+03  0.25500000920E-02 0.  1.
    10030    2    1    2    0    0  0.00000000000E+00  0.00000000000E+00  0.11109677204E+04  0.17590493533E+04  0.13638201317E+04 0.  0.
        1    1    3    3  502    0  0.58613716782E+03  0.33889062822E+02  0.10813464158E+03  0.59699107934E+03  0.50400001928E-02 0.  1.
       -1    1    3    3    0  502 -0.58613716782E+03 -0.33889062822E+02  0.10028330789E+04  0.11620582740E+04  0.50400001928E-02 0. -1.
</event>
<event>
 5   0  0.5875298E-04  0.1398628E+04  0.7818609E-02  0.8954813E-01
       -1   -1    0    0    0  501  0.00000000000E+00  0.00000000000E+00  0.53328696957E+03  0.53328696959E+03  0.50400001928E-02 0. -1.
        1   -1    0    0  501    0  0.00000000000E+00  0.00000000000E+00 -0.91702936134E+03  0.91702936135E+03  0.50400001928E-02 0.  1.
    10030    2    1    2    0    0  0.00000000000E+00  0.00000000000E+00 -0.38374239177E+03  0.14503163309E+04  0.13986276261E+04 0.  0.
        1    1    3    3  502    0  0.13203896695E+03  0.21917059902E+03  0.48300345052E+03  0.54659159663E+03  0.50400001928E-02 0. -1.
       -1    1    3    3    0  502 -0.13203896695E+03 -0.21917059902E+03 -0.86674584229E+03  0.90372473431E+03  0.50400001928E-02 0.  1.
</event>
<event>
 5   0  0.1095119E-03  0.1463305E+04  0.7818609E-02  0.8909228E-01
       -2   -1    0    0    0  501  0.00000000000E+00  0.00000000000E+00  0.55318581020E+03  0.55318581020E+03  0.25500000920E-02 0. -1.
        2   -1    0    0  501    0  0.00000000000E+00  0.00000000000E+00 -0.96769582144E+03  0.96769582145E+03  0.25500000920E-02 0.  1.
    10030    2    1    2    0    0  0.00000000000E+00  0.00000000000E+00 -0.41451001125E+03  0.15208816316E+04  0.14633052956E+04 0.  0.
        5    1    3    3  502    0  0.19581309761E+03  0.69180405615E+02 -0.93640310703E+03  0.95916712129E+03  0.46999998093E+01 0.  1.
       -5    1    3    3    0  502 -0.19581309761E+03 -0.69180405615E+02  0.52189309578E+03  0.56171451035E+03  0.46999998093E+01 0. -1.
</event>
<event>
 5   0  0.1175146E-03  0.1204835E+04  0.7818609E-02  0.9108635E-01
        2   -1    0    0  501    0  0.00000000000E+00  0.00000000000E+00  0.40750028591E+03  0.40750028592E+03  0.25500000920E-02 0.  1.
       -2   -1    0    0    0  501  0.00000000000E+00  0.00000000000E+00 -0.89056804354E+03  0.89056804354E+03  0.25500000920E-02 0. -1.
    10030    2    1    2    0    0  0.00000000000E+00  0.00000000000E+00 -0.48306775762E+03  0.12980683295E+04  0.12048348142E+04 0.  0.
        1    1    3    3  502    0  0.20629714777E+03  0.20247969340E+02  0.36786706267E+03  0.42224953436E+03  0.50400001928E-02 0.  1.
       -1    1    3    3    0  502 -0.20629714777E+03 -0.20247969340E+02 -0.85093482030E+03  0.87581879511E+03  0.50400001928E-02 0. -1.
</event>
<event>
 5   0  0.1095119E-03  0.1393807E+04  0.7818609E-02  0.8958314E-01
       -2   -1    0    0    0  501  0.00000000000E+00  0.00000000000E+00  0.47895052929E+03  0.47895052929E+03  0.25500000920E-02 0. -1.
        2   -1    0    0  501    0  0.00000000000E+00  0.00000000000E+00 -0.10140386019E+04  0.10140386019E+04  0.25500000920E-02 0.  1.
    10030    2    1    2    0    0  0.00000000000E+00  0.00000000000E+00 -0.53508807263E+03  0.14929891312E+04  0.13938067658E+04 0.  0.
        5    1    3    3  502    0 -0.29798763770E+02 -0.59755418647E+03 -0.65031419327E+03  0.88367958676E+03  0.46999998093E+01 0.  1.
       -5    1    3    3    0  502  0.29798763770E+02  0.59755418647E+03  0.11522612065E+03  0.60930954445E+03  0.46999998093E+01 0. -1.
</event>
<event>
 5   0  0.1095119E-03  0.1429947E+04  0.7818609E-02  0.8932422E-01
       -2   -1    0    0    0  501  0.00000000000E+00  0.00000000000E+00  0.10277109383E+04  0.10277109383E+04  0.25500000920E-02 0. -1.
        2   -1    0    0  501    0  0.00000000000E+00  0.00000000000E+00 -0.49740377607E+03  0.49740377608E+03  0.25500000920E-02 0.  1.
    10030    2    1    2    0    0  0.00000000000E+00  0.00000000000E+00  0.53030716224E+03  0.15251147144E+04  0.14299472738E+04 0.  0.
        5    1    3    3  502    0  0.34341224579E+03 -0.49795833965E+03  0.67166387810E+03  0.90390759137E+03  0.46999998093E+01 0. -1.
       -5    1    3    3    0  502 -0.34341224579E+03  0.49795833965E+03 -0.14135671586E+03  0.62120712303E+03  0.46999998093E+01 0.  1.
</event>
<event>
 5   0  0.4176125E-04  0.1138553E+04  0.7818609E-02  0.9168409E-01
        4   -1    0    0  501    0  0.00000000000E+00  0.00000000000E+00  0.70038550644E+03  0.70038665788E+03  0.12699999809E+01 0. -1.
       -4   -1    0    0    0  501  0.00000000000E+00  0.00000000000E+00 -0.46270796226E+03  0.46270970515E+03  0.12699999809E+01 0.  1.
    10030    2    1    2    0    0  0.00000000000E+00  0.00000000000E+00  0.23767754418E+03  0.11630963630E+04  0.11385528247E+04 0.  0.
        5    1    3    3  502    0  0.15651332548E+03  0.14048588736E+02 -0.44009354817E+03  0.46733093738E+03  0.46999998093E+01 0.  1.
       -5    1    3    3    0  502 -0.15651332548E+03 -0.14048588736E+02  0.67777109235E+03  0.69576542564E+03  0.46999998093E+01 0. -1.
</event>
<event>
 5   0  0.1108819E-03  0.1417287E+04  0.7818609E-02  0.8941399E-01
       -2   -1    0    0    0  501  0.00000000000E+00  0.00000000000E+00  0.57135766225E+03  0.57135766226E+03  0.25500000920E-02 0.  1.
        2   -1    0    0  501    0  0.00000000000E+00  0.00000000000E+00 -0.87891678666E+03  0.87891678666E+03  0.25500000920E-02 0. -1.
    10030    2    1    2    0    0  0.00000000000E+00  0.00000000000E+00 -0.30755912440E+03  0.14502744489E+04  0.14172873252E+04 0.  0.
        3    1    3    3  502    0 -0.24875976832E+03 -0.65744666399E+03 -0.24563688704E+03  0.74461737073E+03  0.10100000352E+00 0. -1.
       -3    1    3    3    0  502  0.24875976832E+03  0.65744666399E+03 -0.61922237366E+02  0.70565707819E+03  0.10100000352E+00 0.  1.
</event>
<event>
 5   0  0.6097538E-04  0.1335304E+04  0.7818609E-02  0.9002028E-01
        1   -1    0    0  501    0  0.00000000000E+00  0.00000000000E+00  0.41150781070E+03  0.41150781073E+03  0.50400001928E-02 0. -1.
       -1   -1    0    0    0  501  0.00000000000E+00  0.00000000000E+00 -0.10832341214E+04  0.10832341214E+04  0.50400001928E-02 0.  1.
    10030    2    1    2    0    0  0.00000000000E+00  0.00000000000E+00 -0.67172631065E+03  0.14947419321E+04  0.13353041628E+04 0.  0.
        2    1    3    3  502    0  0.25095997416E+03  0.26641090657E+03  0.28920387598E+03  0.46647032238E+03  0.25500000920E-02 0. -1.
       -2    1    3    3    0  502 -0.25095997416E+03 -0.26641090657E+03 -0.96093018663E+03  0.10282716097E+04  0.25500000920E-02 0.  1.
</event>
<event>
 5   0  0.1098949E-03  0.1393702E+04  0.7818609E-02  0.8958390E-01
        2   -1    0    0  501    0  0.00000000000E+00  0.00000000000E+00  0.16062360387E+04  0.16062360387E+04  0.25500000920E-02 0. -1.
       -2   -1    0    0    0  501  0.00000000000E+00  0.00000000000E+00 -0.30232260031E+03  0.30232260032E+03  0.25500000920E-02 0.  1.
    10030    2    1    2    0    0  0.00000000000E+00  0.00000000000E+00  0.13039134384E+04  0.19085586390E+04  0.13937022005E+04 0.  0.
        4    1    3    3  502    0 -0.30566827310E+03 -0.37636700515E+03 -0.33455853574E+02  0.48601041428E+03  0.12699999809E+01 0.  1.
       -4    1    3    3    0  502  0.30566827310E+03  0.37636700515E+03  0.13373692920E+04  0.14225482248E+04  0.12699999809E+01 0. -1.
</event>
<event>
 5   0  0.6114266E-04  0.1398773E+04  0.7818609E-02  0.8954707E-01
       -1   -1    0    0    0  501  0.00000000000E+00  0.00000000000E+00  0.51710190973E+03  0.51710190976E+03  0.50400001928E-02 0. -1.
        1   -1    0    0  501    0  0.00000000000E+00  0.00000000000E+00 -0.94592900534E+03  0.94592900535E+03  0.50400001928E-02 0.  1.
    10030    2    1    2    0    0  0.00000000000E+00  0.00000000000E+00 -0.42882709561E+03  0.14630309151E+04  0.13987733128E+04 0.  0.
        3    1    3    3  502    0 -0.26417945068E+03 -0.37067181516E+03 -0.76979933650E+03  0.89430386636E+03  0.10100000352E+00 0.  1.
       -3    1    3    3    0  502  0.26417945068E+03  0.37067181516E+03  0.34097224089E+03  0.56872704874E+03  0.10100000352E+00 0. -1.
</event>
<event>
 5   0  0.1108819E-03  0.1262811E+04  0.7818609E-02  0.9059587E-01
       -2   -1    0    0    0  501  0.00000000000E+00  0.00000000000E+00  0.33369460348E+03  0.33369460349E+03  0.25500000920E-02 0.  1.
        2   -1    0    0  501    0  0.00000000000E+00  0.00000000000E+00 -0.11947246091E+04  0.11947246091E+04  0.25500000920E-02 0. -1.
    10030    2    1    2    0    0  0.00000000000E+00  0.00000000000E+00 -0.86103000557E+03  0.15284192125E+04  0.12628113948E+04 0.  0.
        3    1    3    3  502    0  0.98591881048E+02  0.20296729766E+03 -0.11442581885E+04  0.11662945148E+04  0.10100000352E+00 0. -1.
       -3    1    3    3    0  502 -0.98591881048E+02 -0.20296729766E+03  0.28322818296E+03  0.36212469779E+03  0.10100000352E+00 0.  1.
</event>
<event>
 5   0  0.6194742E-04  0.1392785E+04  0.7818609E-02  0.8959058E-01
        1   -1    0    0  501    0  0.00000000000E+00  0.00000000000E+00  0.94407358010E+03  0.94407358011E+03  0.50400001928E-02 0. -1.
       -1   -1    0    0    0  501  0.00000000000E+00  0.00000000000E+00 -0.51369143857E+03  0.51369143860E+03  0.50400001928E-02 0.  1.
    10030    2    1    2    0    0  0.00000000000E+00  0.00000000000E+00  0.43038214152E+03  0.14577650187E+04  0.13927850021E+04 0.  0.
        4    1    3    3  502    0  0.61748268413E+02  0.68187049078E+03  0.34841129761E+03  0.76821368124E+03  0.12699999809E+01 0. -1.
       -4    1    3    3    0  502 -0.61748268413E+02 -0.68187049078E+03  0.81970843914E+02  0.68955133747E+03  0.12699999809E+01 0.  1.
</event>
<event>
 5   0  0.1175146E-03  0.1387148E+04  0.7818609E-02  0.8963174E-01
        2   -1    0    0  501    0  0.00000000000E+00  0.00000000000E+00  0.17298776196E+04  0.17298776196E+04  0.25500000920E-02 0.  1.
       -2   -1    0    0    0  501  0.00000000000E+00  0.00000000000E+00 -0.27808047594E+03  0.27808047595E+03  0.25500000920E-02 0. -1.
    10030    2    1    2    0    0  0.00000000000E+00  0.00000000000E+00  0.14517971437E+04  0.20079580956E+04  0.13871484301E+04 0.  0.
        1    1    3    3  502    0 -0.90222359151E+02  0.11338608366E+03  0.17077225197E+04  0.17138590031E+04  0.50400001928E-02 0.  1.
       -1    1    3    3    0  502  0.90222359151E+02 -0.11338608366E+03 -0.25592537606E+03  0.29409909247E+03  0.50400001928E-02 0. -1.
</event>
<event>
 5   0  0.6153318E-04  0.1368979E+04  0.7818609E-02  0.8976584E-01
        1   -1    0    0  501    0  0.00000000000E+00  0.00000000000E+00  0.18624836569E+04  0.18624836569E+04  0.50400001928E-02 0. -1.
       -1   -1    0    0    0  501  0.00000000000E+00  0.00000000000E+00 -0.25155975232E+03  0.25155975237E+03  0.50400001928E-02 0.  1.
    10030    2    1    2    0    0  0.00000000000E+00  0.00000000000E+00  0.16109239045E+04  0.21140434092E+04  0.13689790758E+04 0.  0.
        5    1    3    3  502    0  0.16408460506E+03 -0.23579906964E+03  0.17648600667E+04  0.17880934271E+04  0.46999998093E+01 0. -1.
       -5    1    3    3    0  502 -0.16408460506E+03  0.23579906964E+03 -0.15393616217E+03  0.32594998217E+03  0.46999998093E+01 0.  1.
</event>
<event>
 5   0  0.6194742E-04  0.1395777E+04  0.7818609E-02  0.8956881E-01
        1   -1    0    0  501    0  0.00000000000E+00  0.00000000000E+00  0.14944194051E+04  0.14944194051E+04  0.50400001928E-02 0.  1.
       -1   -1    0    0    0  501  0.00000000000E+00  0.00000000000E+00 -0.32591143374E+03  0.32591143378E+03  0.50400001928E-02 0. -1.
    10030    2    1    2    0    0  0.00000000000E+00  0.00000000000E+00  0.11685079714E+04  0.18203308389E+04  0.13957770180E+04 0.  0.
        4    1    3    3  502    0  0.22885383771E+03  0.57153817762E+03  0.10128813741E+04  0.11853101950E+04  0.12699999809E+01 0.  1.
       -4    1    3    3    0  502 -0.22885383771E+03 -0.57153817762E+03  0.15562659732E+03  0.63502064392E+03  0.12699999809E+01 0. -1.
</event>
<event>
 5   0  0.1108819E-03  0.1414787E+04  0.7818609E-02  0.8943184E-01
        2   -1    0    0  501    0  0.00000000000E+00  0.00000000000E+00  0.71114405007E+03  0.71114405008E+03  0.25500000920E-02 0.  1.
       -2   -1    0    0    0  501  0.00000000000E+00  0.00000000000E+00 -0.70366287571E+03  0.70366287571E+03  0.25500000920E-02 0. -1.
    10030    2    1    2    0    0  0.00000000000E+00  0.00000000000E+00  0.74811743621E+01  0.14148069258E+04  0.14147871463E+04 0.  0.
        3    1    3    3  502    0 -0.15178721646E+03 -0.45625685413E+03  0.52258883877E+03  0.71014701339E+03  0.10100000352E+00 0.  1.
       -3    1    3    3    0  502  0.15178721646E+03  0.45625685413E+03 -0.51510766441E+03  0.70465991240E+03  0.10100000352E+00 0. -1.
</event>
<event>
 5   0  0.6153318E-04  0.1397699E+04  0.7818609E-02  0.8955486E-01
        1   -1    0    0  501    0  0.00000000000E+00  0.00000000000E+00  0.92007983112E+03  0.92007983113E+03  0.50400001928E-02 0.  1.
       -1   -1    0    0    0  501  0.00000000000E+00  0.00000000000E+00 -0.53081326794E+03  0.53081326797E+03  0.50400001928E-02 0. -1.
    10030    2    1    2    0    0  0.00000000000E+00  0.00000000000E+00  0.38926656317E+03  0.14508930991E+04  0.13976989403E+04 0.  0.
        5    1    3    3  502    0 -0.41029546793E+03  0.85703994053E+02 -0.38582697306E+03  0.56971228593E+03  0.46999998093E+01 0. -1.
       -5    1    3    3    0  502  0.41029546793E+03 -0.85703994053E+02  0.77509353623E+03  0.88118081317E+03  0.46999998093E+01 0.  1.
</event>
<event>
 5   0  0.6114266E-04  0.1407364E+04  0.7818609E-02  0.8948505E-01
        1   -1    0    0  501    0  0.00000000000E+00  0.00000000000E+00  0.51683041543E+03  0.51683041545E+03  0.50400001928E-02 0.  1.
       -1   -1    0    0    0  501  0.00000000000E+00  0.00000000000E+00 -0.95808635015E+03  0.95808635016E+03  0.50400001928E-02 0. -1.
    10030    2    1    2    0    0  0.00000000000E+00  0.00000000000E+00 -0.44125593472E+03  0.14749167656E+04  0.14073637289E+04 0.  0.
        3    1    3    3  502    0 -0.41052942854E+03 -0.51044590624E+03 -0.49002448246E+03  0.81805466719E+03  0.10100000352E+00 0. -1.
       -3    1    3    3    0  502  0.41052942854E+03  0.51044590624E+03  0.48768547740E+02  0.65686209842E+03  0.10100000352E+00 0.  1.
</event>
<event>
 5   0  0.6097538E-04  0.1396224E+04  0.7818609E-02  0.8956556E-01
        1   -1    0    0  501    0  0.00000000000E+00  0.00000000000E+00  0.10800644861E+04  0.10800644861E+04  0.50400001928E-02 0.  1.
       -1   -1    0    0    0  501  0.00000000000E+00  0.00000000000E+00 -0.45123281072E+03  0.45123281074E+03  0.50400001928E-02 0. -1.
    10030    2    1    2    0    0  0.00000000000E+00  0.00000000000E+00  0.62883167539E+03  0.15312972969E+04  0.13962242425E+04 0.  0.
        2    1    3    3  502    0  0.24863089170E+03 -0.42669204957E+03 -0.22675378333E+03  0.54341577428E+03  0.25500000920E-02 0. -1.
       -2    1    3    3    0  502 -0.24863089170E+03  0.42669204957E+03  0.85558545872E+03  0.98788152258E+03  0.25500000920E-02 0.  1.
</event>
<event>
 5   0  0.1120053E-03  0.1388389E+04  0.7818609E-02  0.8962267E-01
        2   -1    0    0  501    0  0.00000000000E+00  0.00000000000E+00  0.18038036597E+04  0.18038036597E+04  0.25500000920E-02 0. -1.
       -2   -1    0    0    0  501  0.00000000000E+00  0.00000000000E+00 -0.26716088582E+03  0.26716088584E+03  0.25500000920E-02 0.  1.
    10030    2    1    2    0    0  0.00000000000E+00  0.00000000000E+00  0.15366427739E+04  0.20709645455E+04  0.13883886827E+04 0.  0.
        2    1    3    3  502    0  0.13472703987E+03 -0.38288481090E+03  0.16083545705E+04  0.16587816547E+04  0.25500000920E-02 0. -1.
       -2    1    3    3    0  502 -0.13472703987E+03  0.38288481090E+03 -0.71711796610E+02  0.41218289080E+03  0.25500000920E-02 0.  1.
</event>
<event>
 5   0  0.6097538E-04  0.1403185E+04  0.7818609E-02  0.8951516E-01
       -1   -1    0    0    0  501  0.00000000000E+00  0.00000000000E+00  0.16157687180E+03  0.16157687188E+03  0.50400001928E-02 0.  1.
        1   -1    0    0  501    0  0.00000000000E+00  0.00000000000E+00 -0.30464251928E+04  0.30464251928E+04  0.50400001928E-02 0. -1.
    10030    2    1    2    0    0  0.00000000000E+00  0.00000000000E+00 -0.28848483210E+04  0.32080020647E+04  0.14031847390E+04 0.  0.
        2    1    3    3  502    0 -0.48189094419E+03  0.24905838376E+03 -0.42516029345E+03  0.68920986335E+03  0.25500000920E-02 0.  1.
       -2    1    3    3    0  502  0.48189094419E+03 -0.24905838376E+03 -0.24596880275E+04  0.25187922013E+04  0.25500000920E-02 0. -1.
</event>
<event>
 5   0  0.6097538E-04  0.1401887E+04  0.7818609E-02  0.8952454E-01
        1   -1    0    0  501    0  0.00000000000E+00  0.00000000000E+00  0.13518668375E+04  0.13518668375E+04  0.50400001928E-02 0. -1.
       -1   -1    0    0    0  501  0.00000000000E+00  0.00000000000E+00 -0.36343929094E+03  0.36343929098E+03  0.50400001928E-02 0.  1.
    10030    2    1    2    0    0  0.00000000000E+00  0.00000000000E+00  0.98842754654E+03  0.17153061285E+04  0.14018866215E+04 0.  0.
        2    1    3    3  502    0  0.12547943459E+03 -0.34871519883E+03  0.12221855123E+04  0.12771393052E+04  0.25500000920E-02 0. -1.
       -2    1    3    3    0  502 -0.12547943459E+03  0.34871519883E+03 -0.23375796580E+03  0.43816682324E+03  0.25500000920E-02 0.  1.
</event>
<event>
 5   0  0.6114266E-04  0.1436089E+04  0.7818609E-02  0.8928102E-01
        1   -1    0    0  501    0  0.00000000000E+00  0.00000000000E+00  0.46253151148E+03  0.46253151151E+03  0.50400001928E-02 0. -1.
       -1   -1    0    0    0  501  0.00000000000E+00  0.00000000000E+00 -0.11147084439E+04  0.11147084439E+04  0.50400001928E-02 0.  1.
    10030    2    1    2    0    0  0.00000000000E+00  0.00000000000E+00 -0.65217693244E+03  0.15772399554E+04  0.14360888294E+04 0.  0.
        3    1    3    3  502    0 -0.24690762909E+03 -0.58039780933E+03  0.50806628547E+02  0.63277667315E+03  0.10100000352E+00 0.  1.
       -3    1    3    3    0  502  0.24690762909E+03  0.58039780933E+03 -0.70298356099E+03  0.94446328229E+03  0.10100000352E+00 0. -1.
</event>
<event>
 5   0  0.1175146E-03  0.1349063E+04  0.7818609E-02  0.8991538E-01
       -2   -1    0    0    0  501  0.00000000000E+00  0.00000000000E+00  0.87533652930E+03  0.87533652930E+03  0.25500000920E-02 0.  1.
        2   -1    0    0  501    0  0.00000000000E+00  0.00000000000E+00 -0.51979163076E+03  0.51979163076E+03  0.25500000920E-02 0. -1.
    10030    2    1    2    0    0  0.00000000000E+00  0.00000000000E+00  0.35554489854E+03  0.13951281601E+04  0.13490627888E+04 0.  0.
        1    1    3    3  502    0 -0.29836524088E+02 -0.65167685860E+03  0.39404841896E+00  0.65235964123E+03  0.50400001928E-02 0. -1.
       -1    1    3    3    0  502  0.29836524088E+02  0.65167685860E+03  0.35515085012E+03  0.74276851883E+03  0.50400001928E-02 0.  1.
</event>
<event>
 5   0  0.1098949E-03  0.1389508E+04  0.7818609E-02  0.8961449E-01
       -2   -1    0    0    0  501  0.00000000000E+00  0.00000000000E+00  0.80387720032E+03  0.80387720032E+03  0.25500000920E-02 0.  1.
        2   -1    0    0  501    0  0.00000000000E+00  0.00000000000E+00 -0.60044349497E+03  0.60044349497E+03  0.25500000920E-02 0. -1.
    10030    2    1    2    0    0  0.00000000000E+00  0.00000000000E+00  0.20343370535E+03  0.14043206953E+04  0.13895075900E+04 0.  0.
        4    1    3    3  502    0 -0.66228524563E+02  0.17783643482E+03  0.77717489942E+03  0.80000903258E+03  0.12699999809E+01 0.  1.
       -4    1    3    3    0  502  0.66228524563E+02 -0.17783643482E+03 -0.57374119407E+03  0.60431166271E+03  0.12699999809E+01 0. -1.
</event>
<event>
 5   0  0.5875298E-04  0.1420573E+04  0.7818609E-02  0.8939060E-01
        1   -1    0    0  501    0  0.00000000000E+00  0.00000000000E+00  0.10179143452E+04  0.10179143452E+04  0.50400001928E-02 0.  1.
       -1   -1    0    0    0  501  0.00000000000E+00  0.00000000000E+00 -0.49562805272E+03  0.49562805275E+03  0.50400001928E-02 0. -1.
    10030    2    1    2    0    0  0.00000000000E+00  0.00000000000E+00  0.52228629250E+03  0.15135423980E+04  0.14205729897E+04 0.  0.
        1    1    3    3  502    0  0.35725614526E+03  0.34243739499E+03  0.80400968073E+03  0.94410110134E+03  0.50400001928E-02 0.  1.
       -1    1    3    3    0  502 -0.35725614526E+03 -0.34243739499E+03 -0.28172338823E+03  0.56944129664E+03  0.50400001928E-02 0. -1.
</event>
<event>
 5   0  0.1175146E-03  0.1350112E+04  0.7818609E-02  0.8990743E-01
        2   -1    0    0  501    0  0.00000000000E+00  0.00000000000E+00  0.68736532699E+03  0.68736532700E+03  0.25500000920E-02 0.  1.
       -2   -1    0    0    0  501  0.00000000000E+00  0.00000000000E+00 -0.66296755487E+03  0.66296755488E+03  0.25500000920E-02 0. -1.
    10030    2    1    2    0    0  0.00000000000E+00  0.00000000000E+00  0.24397772120E+02  0.13503328819E+04  0.13501124548E+04 0.  0.
        1    1    3    3  502    0 -0.11388702017E+03  0.35579107997E+03 -0.55015918790E+03  0.66500577291E+03  0.50400001928E-02 0. -1.
       -1    1    3    3    0  502  0.11388702017E+03 -0.35579107997E+03  0.57455696002E+03  0.68532710896E+03  0.50400001928E-02 0.  1.
</event>
<event>
 5   0  0.1098949E-03  0.1394370E+04  0.7818609E-02  0.8957904E-01
        2   -1    0    0  501    0  0.00000000000E+00  0.00000000000E+00  0.72713170817E+03  0.72713170817E+03  0.25500000920E-02 0. -1.
       -2   -1    0    0    0  501  0.00000000000E+00  0.00000000000E+00 -0.66847211231E+03  0.66847211231E+03  0.25500000920E-02 0.  1.
    10030    2    1    2    0    0  0.00000000000E+00  0.00000000000E+00  0.58659595862E+02  0.13956038205E+04  0.13943704944E+04 0.  0.
        4    1    3    3  502    0 -0.68924569817E+03 -0.66918737396E+02 -0.51537124573E+02  0.69440293632E+03  0.12699999809E+01 0.  1.
       -4    1    3    3    0  502  0.68924569817E+03  0.66918737396E+02  0.11019672043E+03  0.70120088416E+03  0.12699999809E+01 0. -1.
</event>
<event>
 5   0  0.1095119E-03  0.1405838E+04  0.7818609E-02  0.8949604E-01
        2   -1    0    0  501    0  0.00000000000E+00  0.00000000000E+00  0.10931767039E+04  0.10931767039E+04  0.25500000920E-02 0.  1.
       -2   -1    0    0    0  501  0.00000000000E+00  0.00000000000E+00 -0.45198084198E+03  0.45198084199E+03  0.25500000920E-02 0. -1.
    10030    2    1    2    0    0  0.00000000000E+00  0.00000000000E+00  0.64119586192E+03  0.15451575459E+04  0.14058377247E+04 0.  0.
        5    1    3    3  502    0 -0.69456321284E+03  0.10789557112E+03  0.31658565883E+03  0.77091379562E+03  0.46999998093E+01 0. -1.
       -5    1    3    3    0  502  0.69456321284E+03 -0.10789557112E+03  0.32461020309E+03  0.77424375028E+03  0.46999998093E+01 0.  1.
</event>
<event>
 5   0  0.1175146E-03  0.1396764E+04  0.7818609E-02  0.8956164E-01
       -2   -1    0    0    0  501  0.00000000000E+00  0.00000000000E+00  0.56156836308E+03  0.56156836308E+03  0.25500000920E-02 0.  1.
        2   -1    0    0  501    0  0.00000000000E+00  0.00000000000E+00 -0.86852733002E+03  0.86852733003E+03  0.25500000920E-02 0. -1.
    10030    2    1    2    0    0  0.00000000000E+00  0.00000000000E+00 -0.30695896695E+03  0.14300956931E+04  0.13967640760E+04 0.  0.
        1    1    3    3  502    0  0.49993422257E+03  0.13882178373E+03  0.32514985968E+03  0.61231376419E+03  0.50400001928E-02 0.  1.
       -1    1    3    3    0  502 -0.49993422257E+03 -0.13882178373E+03 -0.63210882663E+03  0.81778192892E+03  0.50400001928E-02 0. -1.
</event>
<event>
 5   0  0.1095119E-03  0.1433016E+04  0.7818609E-02  0.8930260E-01
       -2   -1    0    0    0  501  0.00000000000E+00  0.00000000000E+00  0.64930314430E+03  0.64930314430E+03  0.25500000920E-02 0. -1.
        2   -1    0    0  501    0  0.00000000000E+00  0.00000000000E+00 -0.79066910007E+03  0.79066910007E+03  0.25500000920E-02 0.  1.
    10030    2    1    2    0    0  0.00000000000E+00  0.00000000000E+00 -0.14136595577E+03  0.14399722444E+04  0.14330163053E+04 0.  0.
        5    1    3    3  502    0 -0.55198083495E+02 -0.36578057314E+03 -0.68727340215E+03  0.78051846577E+03  0.46999998093E+01 0.  1.
       -5    1    3    3    0  502  0.55198083495E+02  0.36578057314E+03  0.54590744638E+03  0.65945377861E+03  0.46999998093E+01 0. -1.
</event>
<event>
 5   0  0.1175146E-03  0.1359423E+04  0.7818609E-02  0.8983725E-01
        2   -1    0    0  501    0  0.00000000000E+00  0.00000000000E+00  0.85479410262E+03  0.85479410263E+03  0.25500000920E-02 0. -1.
       -2   -1    0    0    0  501  0.00000000000E+00  0.00000000000E+00 -0.54049012741E+03  0.54049012742E+03  0.25500000920E-02 0.  1.
    10030    2    1    2    0    0  0.00000000000E+00  0.00000000000E+00  0.31430397521E+03  0.13952842300E+04  0.13594230739E+04 0.  0.
        1    1    3    3  502    0  0.28521619727E+03  0.17068170841E+03  0.76568976812E+03  0.83472231658E+03  0.50400001928E-02 0. -1.
       -1    1    3    3    0  502 -0.28521619727E+03 -0.17068170841E+03 -0.45138579290E+03  0.56056191347E+03  0.50400001928E-02 0.  1.
</event>
<event>
 5   0  0.6194742E-04  0.1396478E+04  0.7818609E-02  0.8956372E-01
        1   -1    0    0  501    0  0.00000000000E+00  0.00000000000E+00  0.49068138865E+03  0.49068138867E+03  0.50400001928E-02 0. -1.
       -1   -1    0    0    0  501  0.00000000000E+00  0.00000000000E+00 -0.99359387172E+03  0.99359387173E+03  0.50400001928E-02 0.  1.
    10030    2    1    2    0    0  0.00000000000E+00  0.00000000000E+00 -0.50291248307E+03  0.14842752604E+04  0.13964784578E+04 0.  0.
        4    1    3    3  502    0  0.34621121110E+03 -0.60143457692E+03 -0.33344656294E+03  0.76991816204E+03  0.12699999809E+01 0. -1.
       -4    1    3    3    0  502 -0.34621121110E+03  0.60143457692E+03 -0.16946592013E+03  0.71435709837E+03  0.12699999809E+01 0.  1.
</event>
<event>
 5   0  0.6114266E-04  0.1395789E+04  0.7818609E-02  0.8956872E-01
       -1   -1    0    0    0  501  0.00000000000E+00  0.00000000000E+00  0.79026872307E+03  0.79026872308E+03  0.50400001928E-02 0. -1.
        1   -1    0    0  501    0  0.00000000000E+00  0.00000000000E+00 -0.61631769422E+03  0.61631769424E+03  0.50400001928E-02 0.  1.
    10030    2    1    2    0    0  0.00000000000E+00  0.00000000000E+00  0.17395102885E+03  0.14065864173E+04  0.13957888053E+04 0.  0.
        3    1    3    3  502    0  0.11851786097E+03 -0.19506981289E+03 -0.57763974144E+03  0.62110095505E+03  0.10100000352E+00 0.  1.
       -3    1    3    3    0  502 -0.11851786097E+03  0.19506981289E+03  0.75159077028E+03  0.78548546228E+03  0.10100000352E+00 0. -1.
</event>
<event>
 5   0  0.1175146E-03  0.1407418E+04  0.7818609E-02  0.8948466E-01
        2   -1    0    0  501    0  0.00000000000E+00  0.00000000000E+00  0.12436729948E+04  0.12436729948E+04  0.25500000920E-02 0.  1.
       -2   -1    0    0    0  501  0.00000000000E+00  0.00000000000E+00 -0.39818058281E+03  0.39818058281E+03  0.25500000920E-02 0. -1.
    10030    2    1    2    0    0  0.00000000000E+00  0.00000000000E+00  0.84549241199E+03  0.16418535776E+04  0.14074181154E+04 0.  0.
        1    1    3    3  502    0 -0.31548360728E+03 -0.46270412678E+03 -0.74357492002E+02  0.56493721071E+03  0.50400001928E-02 0. -1.
       -1    1    3    3    0  502  0.31548360728E+03  0.46270412678E+03  0.91984990399E+03  0.10769163669E+04  0.50400001928E-02 0.  1.
</event>
<event>
 5   0  0.6097538E-04  0.1378155E+04  0.7818609E-02  0.8969784E-01
       -1   -1    0    0    0  501  0.00000000000E+00  0.00000000000E+00  0.48380374786E+03  0.48380374788E+03  0.50400001928E-02 0.  1.
        1   -1    0    0  501    0  0.00000000000E+00  0.00000000000E+00 -0.98144752510E+03  0.98144752511E+03  0.50400001928E-02 0. -1.
    10030    2    1    2    0    0  0.00000000000E+00  0.00000000000E+00 -0.49764377725E+03  0.14652512730E+04  0.13781552757E+04 0.  0.
        2    1    3    3  502    0  0.55005842089E+03  0.59936581543E+02 -0.68547302137E+03  0.88092560596E+03  0.25500000920E-02 0. -1.
       -2    1    3    3    0  502 -0.55005842089E+03 -0.59936581543E+02  0.18782924413E+03  0.58432566704E+03  0.25500000920E-02 0.  1.
</event>
<event>
 5   0  0.1120053E-03  0.1406155E+04  0.7818609E-02  0.8949375E-01
        2   -1    0    0  501    0  0.00000000000E+00  0.00000000000E+00  0.60583801824E+03  0.60583801825E+03  0.25500000920E-02 0.  1.
       -2   -1    0    0    0  501  0.00000000000E+00  0.00000000000E+00 -0.81592475830E+03  0.81592475830E+03  0.25500000920E-02 0. -1.
    10030    2    1    2    0    0  0.00000000000E+00  0.00000000000E+00 -0.21008674006E+03  0.14217627766E+04  0.14061553806E+04 0.  0.
        2    1    3    3  502    0  0.17928314598E+03 -0.67935945408E+03 -0.13075243387E+03  0.71468028743E+03  0.25500000920E-02 0. -1.
       -2    1    3    3    0  502 -0.17928314598E+03  0.67935945408E+03 -0.79334306183E+02  0.70708248912E+03  0.25500000920E-02 0.  1.
</event>
<event>
 5   0  0.6194742E-04  0.1402661E+04  0.7818609E-02  0.8951894E-01
       -1   -1    0    0    0  501  0.00000000000E+00  0.00000000000E+00  0.27313844260E+03  0.27313844265E+03  0.50400001928E-02 0.  1.
        1   -1    0    0  501    0  0.00000000000E+00  0.00000000000E+00 -0.18007887479E+04  0.18007887479E+04  0.50400001928E-02 0. -1.
    10030    2    1    2    0    0  0.00000000000E+00  0.00000000000E+00 -0.15276503053E+04  0.20739271905E+04  0.14026612337E+04 0.  0.
        4    1    3    3  502    0  0.27780754576E+03  0.64003126174E+03 -0.86885510300E+03  0.11143284307E+04  0.12699999809E+01 0. -1.
       -4    1    3    3    0  502 -0.27780754576E+03 -0.64003126174E+03 -0.65879520226E+03  0.95959875985E+03  0.12699999809E+01 0.  1.
</event>
<event>
 5   0  0.1095119E-03  0.1414548E+04  0.7818609E-02  0.8943355E-01
       -2   -1    0    0    0  501  0.00000000000E+00  0.00000000000E+00  0.32947519336E+03  0.32947519337E+03  0.25500000920E-02 0.  1.
        2   -1    0    0  501    0  0.00000000000E+00  0.00000000000E+00 -0.15182828605E+04  0.15182828605E+04  0.25500000920E-02 0. -1.
    10030    2    1    2    0    0  0.00000000000E+00  0.00000000000E+00 -0.11888076671E+04  0.18477580539E+04  0.14145480396E+04 0.  0.
        5    1    3    3  502    0 -0.44198903124E+03  0.44765188731E+03 -0.10166044897E+04  0.11955138203E+04  0.46999998093E+01 0. -1.
       -5    1    3    3    0  502  0.44198903124E+03 -0.44765188731E+03 -0.17220317741E+03  0.65224423359E+03  0.46999998093E+01 0.  1.
</event>
<event>
 5   0  0.6194742E-04  0.1430545E+04  0.7818609E-02  0.8932000E-01
       -1   -1    0    0    0  501  0.00000000000E+00  0.00000000000E+00  0.23358423004E+03  0.23358423009E+03  0.50400001928E-02 0. -1.
        1   -1    0    0  501    0  0.00000000000E+00  0.00000000000E+00 -0.21902808803E+04  0.21902808803E+04  0.50400001928E-02 0.  1.
    10030    2    1    2    0    0  0.00000000000E+00  0.00000000000E+00 -0.19566966503E+04  0.24238651104E+04  0.14305454527E+04 0.  0.
        4    1    3    3  502    0 -0.12335343337E+03 -0.51720987660E+03 -0.17889760654E+04  0.18663223466E+04  0.12699999809E+01 0. -1.
       -4    1    3    3    0  502  0.12335343337E+03  0.51720987660E+03 -0.16772058489E+03  0.55754276381E+03  0.12699999809E+01 0.  1.
</event>
<event>
 5   0  0.1175146E-03  0.1429537E+04  0.7818609E-02  0.8932711E-01
       -2   -1    0    0    0  501  0.00000000000E+00  0.00000000000E+00  0.59234980935E+03  0.59234980936E+03  0.25500000920E-02 0.  1.
        2   -1    0    0  501    0  0.00000000000E+00  0.00000000000E+00 -0.86248718385E+03  0.86248718385E+03  0.25500000920E-02 0. -1.
    10030    2    1    2    0    0  0.00000000000E+00  0.00000000000E+00 -0.27013737450E+03  0.14548369932E+04  0.14295371544E+04 0.  0.
        1    1    3    3  502    0 -0.64636470716E+03 -0.24973431807E+03 -0.31349860432E+03  0.76054976117E+03  0.50400001928E-02 0.  1.
       -1    1    3    3    0  502  0.64636470716E+03  0.24973431807E+03  0.43361229818E+02  0.69428723203E+03  0.50400001928E-02 0. -1.
</event>
<event>
 5   0  0.6097538E-04  0.1288437E+04  0.7818609E-02  0.9038785E-01
       -1   -1    0    0    0  501  0.00000000000E+00  0.00000000000E+00  0.45297076592E+03  0.45297076595E+03  0.50400001928E-02 0.  1.
        1   -1    0    0  501    0  0.00000000000E+00  0.00000000000E+00 -0.91621228972E+03  0.91621228974E+03  0.50400001928E-02 0. -1.
    10030    2    1    2    0    0  0.00000000000E+00  0.00000000000E+00 -0.46324152380E+03  0.13691830557E+04  0.12884368555E+04 0.  0.
        2    1    3    3  502    0  0.61358820162E+03 -0.14494108919E+03 -0.37227499647E+03  0.73217967297E+03  0.25500000920E-02 0.  1.
       -2    1    3    3    0  502 -0.61358820162E+03  0.14494108919E+03 -0.90966527332E+02  0.63700338272E+03  0.25500000920E-02 0. -1.
</event>
<event>
 5   0  0.6097538E-04  0.1398940E+04  0.7818609E-02  0.8954586E-01
        1   -1    0    0  501    0  0.00000000000E+00  0.00000000000E+00  0.16520076625E+04  0.16520076626E+04  0.50400001928E-02 0. -1.
       -1   -1    0    0    0  501  0.00000000000E+00  0.00000000000E+00 -0.29615971381E+03  0.29615971385E+03  0.50400001928E-02 0.  1.
    10030    2    1    2    0    0  0.00000000000E+00  0.00000000000E+00  0.13558479487E+04  0.19481673764E+04  0.13989397651E+04 0.  0.
        2    1    3    3  502    0 -0.19765738641E+02 -0.33821583624E+03 -0.17427322808E+03  0.38098791889E+03  0.25500000920E-02 0.  1.
       -2    1    3    3    0  502  0.19765738641E+02  0.33821583624E+03  0.15301211768E+04  0.15671794575E+04  0.25500000920E-02 0. -1.
</event>
<event>
 5   0  0.6114266E-04  0.1405931E+04  0.7818609E-02  0.8949536E-01
        1   -1    0    0  501    0  0.00000000000E+00  0.00000000000E+00  0.10662039395E+04  0.10662039395E+04  0.50400001928E-02 0.  1.
       -1   -1    0    0    0  501  0.00000000000E+00  0.00000000000E+00 -0.46347679239E+03  0.46347679242E+03  0.50400001928E-02 0. -1.
    10030    2    1    2    0    0  0.00000000000E+00  0.00000000000E+00  0.60272714706E+03  0.15296807319E+04  0.14059314093E+04 0.  0.
        3    1    3    3  502    0 -0.25820719563E+03 -0.60833016436E+03  0.56208951338E+03  0.86757200047E+03  0.10100000352E+00 0.  1.
       -3    1    3    3    0  502  0.25820719563E+03  0.60833016436E+03  0.40637633677E+02  0.66210873141E+03  0.10100000352E+00 0. -1.
</event>
<event>
 5   0  0.6153318E-04  0.1405708E+04  0.7818609E-02  0.8949697E-01
        1   -1    0    0  501    0  0.00000000000E+00  0.00000000000E+00  0.75764139429E+03  0.75764139430E+03  0.50400001928E-02 0. -1.
       -1   -1    0    0    0  501  0.00000000000E+00  0.00000000000E+00 -0.65202856690E+03  0.65202856692E+03  0.50400001928E-02 0.  1.
    10030    2    1    2    0    0  0.00000000000E+00  0.00000000000E+00  0.10561282739E+03  0.14096699612E+04  0.14057081241E+04 0.  0.
        5    1    3    3  502    0 -0.56457632352E+03  0.40495614249E+03  0.15915169967E+03  0.71280239613E+03  0.46999998093E+01 0. -1.
       -5    1    3    3    0  502  0.56457632352E+03 -0.40495614249E+03 -0.53538872288E+02  0.69686756509E+03  0.46999998093E+01 0.  1.
</event>
<event>
 5   0  0.6194742E-04  0.1390375E+04  0.7818609E-02  0.8960815E-01
       -1   -1    0    0    0  501  0.00000000000E+00  0.00000000000E+00  0.62634825477E+03  0.62634825479E+03  0.50400001928E-02 0.  1.
        1   -1    0    0  501    0  0.00000000000E+00  0.00000000000E+00 -0.77159253988E+03  0.77159253990E+03  0.50400001928E-02 0. -1.
    10030    2    1    2    0    0  0.00000000000E+00  0.00000000000E+00 -0.14524428511E+03  0.13979407947E+04  0.13903749721E+04 0.  0.
        4    1    3    3  502    0  0.33824211210E+03  0.13779728978E+03  0.52211010905E+03  0.63717846663E+03  0.12699999809E+01 0.  1.
       -4    1    3    3    0  502 -0.33824211210E+03 -0.13779728978E+03 -0.66735439416E+03  0.76076232805E+03  0.12699999809E+01 0. -1.
</event>
<event>
 5   0  0.1098949E-03  0.1417116E+04  0.7818609E-02  0.8941522E-01
        2   -1    0    0  501    0  0.00000000000E+00  0.00000000000E+00  0.60807614815E+03  0.60807614816E+03  0.25500000920E-02 0.  1.
       -2   -1    0    0    0  501  0.00000000000E+00  0.00000000000E+00 -0.82564367006E+03  0.82564367006E+03  0.25500000920E-02 0. -1.
    10030    2    1    2    0    0  0.00000000000E+00  0.00000000000E+00 -0.21756752191E+03  0.14337198182E+04  0.14171156941E+04 0.  0.
        4    1    3    3  502    0 -0.52137276334E+03 -0.43860272631E+03  0.88048344393E+02  0.68699056306E+03  0.12699999809E+01 0.  1.
       -4    1    3    3    0  502  0.52137276334E+03  0.43860272631E+03 -0.30561586630E+03  0.74672925516E+03  0.12699999809E+01 0. -1.
</event>
<event>
 5   0  0.1175146E-03  0.1296458E+04  0.7818609E-02  0.9032379E-01
        2   -1    0    0  501    0  0.00000000000E+00  0.00000000000E+00  0.18404255749E+04  0.18404255749E+04  0.25500000920E-02 0. -1.
       -2   -1    0    0    0  501  0.00000000000E+00  0.00000000000E+00 -0.22831723567E+03  0.22831723569E+03  0.25500000920E-02 0.  1.
    10030    2    1    2    0    0  0.00000000000E+00  0.00000000000E+00  0.16121083392E+04  0.20687428106E+04  0.12964580668E+04 0.  0.
        1    1    3    3  502    0 -0.34824424165E+03 -0.33729607144E+03  0.14926789745E+04  0.15694372280E+04  0.50400001928E-02 0. -1.
       -1    1    3    3    0  502  0.34824424165E+03  0.33729607144E+03  0.11942936476E+03  0.49930558263E+03  0.50400001928E-02 0.  1.
</event>
<event>
 5   0  0.1095119E-03  0.1398806E+04  0.7818609E-02  0.8954684E-01
       -2   -1    0    0    0  501  0.00000000000E+00  0.00000000000E+00  0.70579036813E+03  0.70579036813E+03  0.25500000920E-02 0.  1.
        2   -1    0    0  501    0  0.00000000000E+00  0.00000000000E+00 -0.69307298967E+03  0.69307298967E+03  0.25500000920E-02 0. -1.
    10030    2    1    2    0    0  0.00000000000E+00  0.00000000000E+00  0.12717378461E+02  0.13988633578E+04  0.13988055483E+04 0.  0.
        5    1    3    3  502    0  0.64351420995E+03 -0.22685515916E+03 -0.14716752018E+03  0.69803593792E+03  0.46999998093E+01 0. -1.
       -5    1    3    3    0  502 -0.64351420995E+03  0.22685515916E+03  0.15988489864E+03  0.70082741988E+03  0.46999998093E+01 0.  1.
</event>
<event>
 5   0  0.1120053E-03  0.1399859E+04  0.7818609E-02  0.8953920E-01
        2   -1    0    0  501    0  0.00000000000E+00  0.00000000000E+00  0.11324489213E+04  0.11324489213E+04  0.25500000920E-02 0.  1.
       -2   -1    0    0    0  501  0.00000000000E+00  0.00000000000E+00 -0.43260374076E+03  0.43260374076E+03  0.25500000920E-02 0. -1.
    10030    2    1    2    0    0  0.00000000000E+00  0.00000000000E+00  0.69984518052E+03  0.15650526620E+04  0.13998594780E+04 0.  0.
        2    1    3    3  502    0 -0.21311029290E+03 -0.61893080565E+03  0.62697703669E+03  0.90641687080E+03  0.25500000920E-02 0.  1.
       -2    1    3    3    0  502  0.21311029290E+03  0.61893080565E+03  0.72868143830E+02  0.65863579125E+03  0.25500000920E-02 0. -1.
</event>
<event>
 5   0  0.6097538E-04  0.1400186E+04  0.7818609E-02  0.8953684E-01
       -1   -1    0    0    0  501  0.00000000000E+00  0.00000000000E+00  0.55204959920E+03  0.55204959922E+03  0.50400001928E-02 0.  1.
        1   -1    0    0  501    0  0.00000000000E+00  0.00000000000E+00 -0.88783724457E+03  0.88783724458E+03  0.50400001928E-02 0. -1.
    10030    2    1    2    0    0  0.00000000000E+00  0.00000000000E+00 -0.33578764537E+03  0.14398868438E+04  0.14001859806E+04 0.  0.
        2    1    3    3  502    0  0.28374113554E+03 -0.17162577654E+03 -0.80195204078E+03  0.86780845518E+03  0.25500000920E-02 0. -1.
       -2    1    3    3    0  502 -0.28374113554E+03  0.17162577654E+03  0.46616439541E+03  0.57207838862E+03  0.25500000920E-02 0.  1.
</event>
<event>
 5   0  0.5875298E-04  0.1435217E+04  0.7818609E-02  0.8928714E-01
       -1   -1    0    0    0  501  0.00000000000E+00  0.00000000000E+00  0.60425091632E+03  0.60425091634E+03  0.50400001928E-02 0.  1.
        1   -1    0    0  501    0  0.00000000000E+00  0.00000000000E+00 -0.85223234653E+03  0.85223234654E+03  0.50400001928E-02 0. -1.
    10030    2    1    2    0    0  0.00000000000E+00  0.00000000000E+00 -0.24798143021E+03  0.14564832629E+04  0.14352173025E+04 0.  0.
        1    1    3    3  502    0 -0.21781235620E+03  0.36442425230E+03 -0.71110868289E+03  0.82820457441E+03  0.50400001928E-02 0. -1.
       -1    1    3    3    0  502  0.21781235620E+03 -0.36442425230E+03  0.46312725268E+03  0.62827868846E+03  0.50400001928E-02 0.  1.
</event>
<event>
 5   0  0.1095119E-03  0.1389440E+04  0.7818609E-02  0.8961498E-01
        2   -1    0    0  501    0  0.00000000000E+00  0.00000000000E+00  0.94988323983E+03  0.94988323983E+03  0.25500000920E-02 0. -1.
       -2   -1    0    0    0  501  0.00000000000E+00  0.00000000000E+00 -0.50810049396E+03  0.50810049396E+03  0.25500000920E-02 0.  1.
    10030    2    1    2    0    0  0.00000000000E+00  0.00000000000E+00  0.44178274587E+03  0.14579837338E+04  0.13894403814E+04 0.  0.
        5    1    3    3  502    0 -0.36321951116E+03  0.49772362687E+03 -0.11580647930E+03  0.62696925976E+03  0.46999998093E+01 0.  1.
       -5    1    3    3    0  502  0.36321951116E+03 -0.49772362687E+03  0.55758922517E+03  0.83101447404E+03  0.46999998093E+01 0. -1.
</event>
<event>
 5   0  0.1175146E-03  0.1411053E+04  0.7818609E-02  0.8945856E-01
        2   -1    0    0  501    0  0.00000000000E+00  0.00000000000E+00  0.16120115223E+04  0.16120115223E+04  0.25500000920E-02 0.  1.
       -2   -1    0    0    0  501  0.00000000000E+00  0.00000000000E+00 -0.30878673737E+03  0.30878673738E+03  0.25500000920E-02 0. -1.
    10030    2    1    2    0    0  0.00000000000E+00  0.00000000000E+00  0.13032247849E+04  0.19207982597E+04  0.14110531933E+04 0.  0.
        1    1    3    3  502    0  0.38953850343E+03  0.55072065642E+03  0.93301403086E+03  0.11513247452E+04  0.50400001928E-02 0. -1.
       -1    1    3    3    0  502 -0.38953850343E+03 -0.55072065642E+03  0.37021075408E+03  0.76947351450E+03  0.50400001928E-02 0.  1.
</event>
<event>
 5   0  0.6153318E-04  0.1398019E+04  0.7818609E-02  0.8955254E-01
        1   -1    0    0  501    0  0.00000000000E+00  0.00000000000E+00  0.86841804123E+03  0.86841804125E+03  0.50400001928E-02 0. -1.
       -1   -1    0    0    0  501  0.00000000000E+00  0.00000000000E+00 -0.56264852367E+03  0.56264852370E+03  0.50400001928E-02 0.  1.
    10030    2    1    2    0    0  0.00000000000E+00  0.00000000000E+00  0.30576951756E+03  0.14310665649E+04  0.13980187822E+04 0.  0.
        5    1    3    3  502    0  0.32906365011E+03 -0.17329992777E+03  0.75871674391E+03  0.84497866143E+03  0.46999998093E+01 0. -1.
       -5    1    3    3    0  502 -0.32906365011E+03  0.17329992777E+03 -0.45294722635E+03  0.58608790351E+03  0.46999998093E+01 0.  1.
</event>
<event>
 5   0  0.6114266E-04  0.1401705E+04  0.7818609E-02  0.8952586E-01
       -1   -1    0    0    0  501  0.00000000000E+00  0.00000000000E+00  0.29874032794E+03  0.29874032798E+03  0.50400001928E-02 0.  1.
        1   -1    0    0  501    0  0.00000000000E+00  0.00000000000E+00 -0.16442172866E+04  0.16442172866E+04  0.50400001928E-02 0. -1.
    10030    2    1    2    0    0  0.00000000000E+00  0.00000000000E+00 -0.13454769586E+04  0.19429576145E+04  0.14017046928E+04 0.  0.
        3    1    3    3  502    0 -0.35106277352E+03  0.44983601820E+03 -0.10866931507E+03  0.58086706264E+03  0.10100000352E+00 0.  1.
       -3    1    3    3    0  502  0.35106277352E+03 -0.44983601820E+03 -0.12368076435E+04  0.13620905519E+04  0.10100000352E+00 0. -1.
</event>
<event>
 5   0  0.1095119E-03  0.1399392E+04  0.7818609E-02  0.8954259E-01
       -2   -1    0    0    0  501  0.00000000000E+00  0.00000000000E+00  0.32469684105E+03  0.32469684106E+03  0.25500000920E-02 0. -1.
        2   -1    0    0  501    0  0.00000000000E+00  0.00000000000E+00 -0.15077891985E+04  0.15077891985E+04  0.25500000920E-02 0.  1.
    10030    2    1    2    0    0  0.00000000000E+00  0.00000000000E+00 -0.11830923574E+04  0.18324860395E+04  0.13993918532E+04 0.  0.
        5    1    3    3  502    0 -0.17570756154E+03 -0.67725760033E+03 -0.59303654929E+03  0.91720523504E+03  0.46999998093E+01 0. -1.
       -5    1    3    3    0  502  0.17570756154E+03  0.67725760033E+03 -0.59005580813E+03  0.91528080450E+03  0.46999998093E+01 0.  1.
</event>
<event>
 5   0  0.6114266E-04  0.1373715E+04  0.7818609E-02  0.8973068E-01
       -1   -1    0    0    0  501  0.00000000000E+00  0.00000000000E+00  0.43452187143E+03  0.43452187146E+03  0.50400001928E-02 0. -1.
        1   -1    0    0  501    0  0.00000000000E+00  0.00000000000E+00 -0.10857295503E+04  0.10857295504E+04  0.50400001928E-02 0.  1.
    10030    2    1    2    0    0  0.00000000000E+00  0.00000000000E+00 -0.65120767891E+03  0.15202514218E+04  0.13737150157E+04 0.  0.
        3    1    3    3  502    0  0.12264813191E+03 -0.62200892951E+03 -0.61805750017E+03  0.88539977206E+03  0.10100000352E+00 0.  1.
       -3    1    3    3    0  502 -0.12264813191E+03  0.62200892951E+03 -0.33150178747E+02  0.63485164976E+03  0.10100000352E+00 0. -1.
</event>
<event>
 5   0  0.1095119E-03  0.1401824E+04  0.7818609E-02  0.8952500E-01
       -2   -1    0    0    0  501  0.00000000000E+00  0.00000000000E+00  0.79287225694E+03  0.79287225694E+03  0.25500000920E-02 0.  1.
        2   -1    0    0  501    0  0.00000000000E+00  0.00000000000E+00 -0.61961738134E+03  0.61961738134E+03  0.25500000920E-02 0. -1.
    10030    2    1    2    0    0  0.00000000000E+00  0.00000000000E+00  0.17325487560E+03  0.14124896383E+04  0.14018237144E+04 0.  0.
        5    1    3    3  502    0  0.51532784795E+03  0.77816796689E+02 -0.38559293022E+03  0.64832263770E+03  0.46999998093E+01 0. -1.
       -5    1    3    3    0  502 -0.51532784795E+03 -0.77816796689E+02  0.55884780582E+03  0.76416700059E+03  0.46999998093E+01 0.  1.
</event>
<event>
 5   0  0.6097538E-04  0.1400800E+04  0.7818609E-02  0.8953240E-01
        1   -1    0    0  501    0  0.00000000000E+00  0.00000000000E+00  0.59535911806E+03  0.59535911808E+03  0.50400001928E-02 0.  1.
       -1   -1    0    0    0  501  0.00000000000E+00  0.00000000000E+00 -0.82397367884E+03  0.82397367885E+03  0.50400001928E-02 0. -1.
    10030    2    1    2    0    0  0.00000000000E+00  0.00000000000E+00 -0.22861456077E+03  0.14193327969E+04  0.14008001182E+04 0.  0.
        2    1    3    3  502    0  0.34417594625E+03 -0.11900254824E+03  0.49189020198E+03  0.61202504792E+03  0.25500000920E-02 0.  1.
       -2    1    3    3    0  502 -0.34417594625E+03  0.11900254824E+03 -0.72050476276E+03  0.80730774902E+03  0.25500000920E-02 0. -1.
</event>
<event>
 5   0  0.1175146E-03  0.1400439E+04  0.7818609E-02  0.8953501E-01
        2   -1    0    0  501    0  0.00000000000E+00  0.00000000000E+00  0.13598245535E+04  0.13598245535E+04  0.25500000920E-02 0. -1.
       -2   -1    0    0    0  501  0.00000000000E+00  0.00000000000E+00 -0.36056642181E+03  0.36056642182E+03  0.25500000920E-02 0.  1.
    10030    2    1    2    0    0  0.00000000000E+00  0.00000000000E+00  0.99925813171E+03  0.17203909753E+04  0.14004386078E+04 0.  0.
        1    1    3    3  502    0 -0.77444593838E+01 -0.97326685261E+02  0.13514216295E+04  0.13549438663E+04  0.50400001928E-02 0. -1.
       -1    1    3    3    0  502  0.77444593838E+01  0.97326685261E+02 -0.35216349775E+03  0.36544710901E+03  0.50400001928E-02 0.  1.
</event>
<event>
 5   0  0.6097538E-04  0.1398710E+04  0.7818609E-02  0.8954753E-01
        1   -1    0    0  501    0  0.00000000000E+00  0.00000000000E+00  0.71286773577E+03  0.71286773579E+03  0.50400001928E-02 0.  1.
       -1   -1    0    0    0  501  0.00000000000E+00  0.00000000000E+00 -0.68609851242E+03  0.68609851244E+03  0.50400001928E-02 0. -1.
    10030    2    1    2    0    0  0.00000000000E+00  0.00000000000E+00  0.26769223344E+02  0.13989662482E+04  0.13987101102E+04 0.  0.
        2    1    3    3  502    0  0.55451436883E+03 -0.71924516979E+02 -0.40673774896E+03  0.69144408149E+03  0.25500000920E-02 0. -1.
       -2    1    3    3    0  502 -0.55451436883E+03  0.71924516979E+02  0.43350697231E+03  0.70752216674E+03  0.25500000920E-02 0.  1.
</event>
<event>
 5   0  0.1098949E-03  0.1397714E+04  0.7818609E-02  0.8955475E-01
       -2   -1    0    0    0  501  0.00000000000E+00  0.00000000000E+00  0.74189779988E+03  0.74189779989E+03  0.25500000920E-02 0.  1.
        2   -1    0    0  501    0  0.00000000000E+00  0.00000000000E+00 -0.65831328905E+03  0.65831328906E+03  0.25500000920E-02 0. -1.
    10030    2    1    2    0    0  0.00000000000E+00  0.00000000000E+00  0.83584510829E+02  0.14002110889E+04  0.13977141064E+04 0.  0.
        4    1    3    3  502    0 -0.84980340460E+02  0.66363759537E+02 -0.64992934489E+03  0.65881376208E+03  0.12699999809E+01 0. -1.
       -4    1    3    3    0  502  0.84980340460E+02 -0.66363759537E+02  0.73351385572E+03  0.74139732687E+03  0.12699999809E+01 0.  1.
</event>
<event>
 5   0  0.6194742E-04  0.1392254E+04  0.7818609E-02  0.8959445E-01
        1   -1    0    0  501    0  0.00000000000E+00  0.00000000000E+00  0.15326182078E+04  0.15326182078E+04  0.50400001928E-02 0. -1.
       -1   -1    0    0    0  501  0.00000000000E+00  0.00000000000E+00 -0.31618613688E+03  0.31618613692E+03  0.50400001928E-02 0.  1.
    10030    2    1    2    0    0  0.00000000000E+00  0.00000000000E+00  0.12164320709E+04  0.18488043447E+04  0.13922537563E+04 0.  0.
        4    1    3    3  502    0  0.61252499621E+03 -0.32303248904E+03  0.70262145912E+03  0.98651679543E+03  0.12699999809E+01 0. -1.
       -4    1    3    3    0  502 -0.61252499621E+03  0.32303248904E+03  0.51381061181E+03  0.86228754929E+03  0.12699999809E+01 0.  1.
</event>
<event>
 5   0  0.6097538E-04  0.1389105E+04  0.7818609E-02  0.8961743E-01
        1   -1    0    0  501    0  0.00000000000E+00  0.00000000000E+00  0.45976638867E+03  0.45976638870E+03  0.50400001928E-02 0. -1.
       -1   -1    0    0    0  501  0.00000000000E+00  0.00000000000E+00 -0.10492350931E+04  0.10492350931E+04  0.50400001928E-02 0.  1.
    10030    2    1    2    0    0  0.00000000000E+00  0.00000000000E+00 -0.58946870444E+03  0.15090014818E+04  0.13891047904E+04 0.  0.
        2    1    3    3  502    0  0.64901299467E+03  0.58144898055E+02 -0.33557396609E+02  0.65247589634E+03  0.25500000920E-02 0. -1.
       -2    1    3    3    0  502 -0.64901299467E+03 -0.58144898055E+02 -0.55591130783E+03  0.85652558550E+03  0.25500000920E-02 0.  1.
</event>
<event>
 5   0  0.6153318E-04  0.1399361E+04  0.7818609E-02  0.8954281E-01
       -1   -1    0    0    0  501  0.00000000000E+00  0.00000000000E+00  0.44764624764E+03  0.44764624767E+03  0.50400001928E-02 0. -1.
        1   -1    0    0  501    0  0.00000000000E+00  0.00000000000E+00 -0.10936155039E+04  0.10936155039E+04  0.50400001928E-02 0.  1.
    10030    2    1    2    0    0  0.00000000000E+00  0.00000000000E+00 -0.64596925624E+03  0.15412617516E+04  0.13993611067E+04 0.  0.
        5    1    3    3  502    0 -0.31544333743E+03 -0.12199986835E+03 -0.99758197934E+03  0.10533662053E+04  0.46999998093E+01 0.  1.
       -5    1    3    3    0  502  0.31544333743E+03  0.12199986835E+03  0.35161272310E+03  0.48789554625E+03  0.46999998093E+01 0. -1.
</event>
<event>
 5   0  0.6097538E-04  0.1402282E+04  0.7818609E-02  0.8952168E-01
       -1   -1    0    0    0  501  0.00000000000E+00  0.00000000000E+00  0.36443576751E+03  0.36443576754E+03  0.50400001928E-02 0.  1.
        1   -1    0    0  501    0  0.00000000000E+00  0.00000000000E+00 -0.13489319023E+04  0.13489319023E+04  0.50400001928E-02 0. -1.
    10030    2    1    2    0    0  0.00000000000E+00  0.00000000000E+00 -0.98449613478E+03  0.17133676698E+04  0.14022824725E+04 0.  0.
        2    1    3    3  502    0 -0.12879808751E+03  0.68692570624E+03 -0.42374684822E+03  0.81732323142E+03  0.25500000920E-02 0.  1.
       -2    1    3    3    0  502  0.12879808751E+03 -0.68692570624E+03 -0.56074928656E+03  0.89604443842E+03  0.25500000920E-02 0. -1.
</event>
<event>
 5   0  0.6114266E-04  0.1408896E+04  0.7818609E-02  0.8947404E-01
        1   -1    0    0  501    0  0.00000000000E+00  0.00000000000E+00  0.61838725558E+03  0.61838725560E+03  0.50400001928E-02 0.  1.
       -1   -1    0    0    0  501  0.00000000000E+00  0.00000000000E+00 -0.80248601870E+03  0.80248601872E+03  0.50400001928E-02 0. -1.
    10030    2    1    2    0    0  0.00000000000E+00  0.00000000000E+00 -0.18409876313E+03  0.14208732743E+04  0.14088962017E+04 0.  0.
        3    1    3    3  502    0  0.18171791881E+03  0.54390646703E+02  0.59214805371E+03  0.62178699905E+03  0.10100000352E+00 0.  1.
       -3    1    3    3    0  502 -0.18171791881E+03 -0.54390646703E+02 -0.77624681684E+03  0.79908627527E+03  0.10100000352E+00 0. -1.
</event>
<event>
 5   0  0.6153318E-04  0.1393936E+04  0.7818609E-02  0.8958219E-01
        1   -1    0    0  501    0  0.00000000000E+00  0.00000000000E+00  0.10342844165E+04  0.10342844165E+04  0.50400001928E-02 0.  1.
       -1   -1    0    0    0  501  0.00000000000E+00  0.00000000000E+00 -0.46966258872E+03  0.46966258875E+03  0.50400001928E-02 0. -1.
    10030    2    1    2    0    0  0.00000000000E+00  0.00000000000E+00  0.56462182778E+03  0.15039470053E+04  0.13939364355E+04 0.  0.
        5    1    3    3  502    0 -0.86652060758E+02  0.13489462970E+03 -0.44947857027E+03  0.47724020774E+03  0.46999998093E+01 0. -1.
       -5    1    3    3    0  502  0.86652060758E+02 -0.13489462970E+03  0.10141003981E+04  0.10267067975E+04  0.46999998093E+01 0.  1.
</event>
<event>
 5   0  0.6153318E-04  0.1320873E+04  0.7818609E-02  0.9013174E-01
        1   -1    0    0  501    0  0.00000000000E+00  0.00000000000E+00  0.10122835212E+04  0.10122835213E+04  0.50400001928E-02 0.  1.
       -1   -1    0    0    0  501  0.00000000000E+00  0.00000000000E+00 -0.43088381628E+03  0.43088381631E+03  0.50400001928E-02 0. -1.
    10030    2    1    2    0    0  0.00000000000E+00  0.00000000000E+00  0.58139970497E+03  0.14431673376E+04  0.13208733275E+04 0.  0.
        5    1    3    3  502    0  0.14252455951E+03  0.40684279342E+03 -0.25594272940E+03  0.50136122641E+03  0.46999998093E+01 0. -1.
       -5    1    3    3    0  502 -0.14252455951E+03 -0.40684279342E+03  0.83734243437E+03  0.94180611116E+03  0.46999998093E+01 0.  1.
</event>
<event>
 5   0  0.6153318E-04  0.1393644E+04  0.7818609E-02  0.8958432E-01
        1   -1    0    0  501    0  0.00000000000E+00  0.00000000000E+00  0.86509132848E+03  0.86509132849E+03  0.50400001928E-02 0. -1.
       -1   -1    0    0    0  501  0.00000000000E+00  0.00000000000E+00 -0.56128321468E+03  0.56128321470E+03  0.50400001928E-02 0.  1.
    10030    2    1    2    0    0  0.00000000000E+00  0.00000000000E+00  0.30380811380E+03  0.14263745432E+04  0.13936444911E+04 0.  0.
        5    1    3    3  502    0 -0.54633939750E+03  0.22232280969E+03  0.53159498076E+03  0.79405886592E+03  0.46999998093E+01 0. -1.
       -5    1    3    3    0  502  0.54633939750E+03 -0.22232280969E+03 -0.22778686697E+03  0.63231567728E+03  0.46999998093E+01 0.  1.
</event>
<event>
 5   0  0.1098949E-03  0.1364783E+04  0.7818609E-02  0.8979712E-01
        2   -1    0    0  501    0  0.00000000000E+00  0.00000000000E+00  0.16909493395E+04  0.16909493395E+04  0.25500000920E-02 0. -1.
       -2   -1    0    0    0  501  0.00000000000E+00  0.00000000000E+00 -0.27538271078E+03  0.27538271080E+03  0.25500000920E-02 0.  1.
    10030    2    1    2    0    0  0.00000000000E+00  0.00000000000E+00  0.14155666287E+04  0.19663320503E+04  0.13647830786E+04 0.  0.
        4    1    3    3  502    0  0.27644586815E+03  0.10514876587E+03 -0.17823228894E+03  0.34532150628E+03  0.12699999809E+01 0.  1.
       -4    1    3    3    0  502 -0.27644586815E+03 -0.10514876587E+03  0.15937989176E+04  0.16210105440E+04  0.12699999809E+01 0. -1.
</event>
<event>
 5   0  0.6194742E-04  0.1405733E+04  0.7818609E-02  0.8949679E-01
        1   -1    0    0  501    0  0.00000000000E+00  0.00000000000E+00  0.92327450768E+03  0.92327450769E+03  0.50400001928E-02 0.  1.
       -1   -1    0    0    0  501  0.00000000000E+00  0.00000000000E+00 -0.53507535733E+03  0.53507535736E+03  0.50400001928E-02 0. -1.
    10030    2    1    2    0    0  0.00000000000E+00  0.00000000000E+00  0.38819915035E+03  0.14583498651E+04  0.14057331712E+04 0.  0.
        4    1    3    3  502    0  0.83984443865E+02 -0.56950978522E+03 -0.22426272643E+03  0.61781078465E+03  0.12699999809E+01 0.  1.
       -4    1    3    3    0  502 -0.83984443865E+02  0.56950978522E+03  0.61246187678E+03  0.84053908040E+03  0.12699999809E+01 0. -1.
</event>
<event>
 5   0  0.1108819E-03  0.1437772E+04  0.7818609E-02  0.8926922E-01
       -2   -1    0    0    0  501  0.00000000000E+00  0.00000000000E+00  0.99965022467E+03  0.99965022468E+03  0.25500000920E-02 0. -1.
        2   -1    0    0  501    0  0.00000000000E+00  0.00000000000E+00 -0.51697800566E+03  0.51697800566E+03  0.25500000920E-02 0.  1.
    10030    2    1    2    0    0  0.00000000000E+00  0.00000000000E+00  0.48267221902E+03  0.15166282303E+04  0.14377721370E+04 0.  0.
        3    1    3    3  502    0  0.54197998646E+03 -0.28379863974E+03  0.63955018971E+03  0.88504713378E+03  0.10100000352E+00 0. -1.
       -3    1    3    3    0  502 -0.54197998646E+03  0.28379863974E+03 -0.15687797069E+03  0.63158109656E+03  0.10100000352E+00 0.  1.
</event>
<event>
 5   0  0.1175146E-03  0.1488752E+04  0.7818609E-02  0.8891967E-01
        2   -1    0    0  501    0  0.00000000000E+00  0.00000000000E+00  0.39051462507E+03  0.39051462508E+03  0.25500000920E-02 0.  1.
       -2   -1    0    0    0  501  0.00000000000E+00  0.00000000000E+00 -0.14188853056E+04  0.14188853056E+04  0.25500000920E-02 0. -1.
    10030    2    1    2    0    0  0.00000000000E+00  0.00000000000E+00 -0.10283706805E+04  0.18093999307E+04  0.14887517767E+04 0.  0.
        1    1    3    3  502    0 -0.20383318000E+03 -0.60622125156E+03 -0.51313137322E+02  0.64162700161E+03  0.50400001928E-02 0.  1.
       -1    1    3    3    0  502  0.20383318000E+03  0.60622125156E+03 -0.97705754318E+03  0.11677729291E+04  0.50400001928E-02 0. -1.
</event>
<event>
 5   0  0.6194742E-04  0.1400561E+04  0.7818609E-02  0.8953412E-01
       -1   -1    0    0    0  501  0.00000000000E+00  0.00000000000E+00  0.11954429167E+04  0.11954429167E+04  0.50400001928E-02 0. -1.
        1   -1    0    0  501    0  0.00000000000E+00  0.00000000000E+00 -0.41021854539E+03  0.41021854542E+03  0.50400001928E-02 0.  1.
    10030    2    1    2    0    0  0.00000000000E+00  0.00000000000E+00  0.78522437131E+03  0.16056614621E+04  0.14005611082E+04 0.  0.
        4    1    3    3  502    0  0.40231596504E+03  0.44584663614E+03 -0.20351727908E+02  0.60087699608E+03  0.12699999809E+01 0.  1.
       -4    1    3    3    0  502 -0.40231596504E+03 -0.44584663614E+03  0.80557609922E+03  0.10047844661E+04  0.12699999809E+01 0. -1.
</event>
<event>
 5   0  0.1175146E-03  0.1396084E+04  0.7818609E-02  0.8956658E-01
        2   -1    0    0  501    0  0.00000000000E+00  0.00000000000E+00  0.44619274356E+03  0.44619274357E+03  0.25500000920E-02 0.  1.
       -2   -1    0    0    0  501  0.00000000000E+00  0.00000000000E+00 -0.10920457479E+04  0.10920457479E+04  0.25500000920E-02 0. -1.
    10030    2    1    2    0    0  0.00000000000E+00  0.00000000000E+00 -0.64585300429E+03  0.15382384914E+04  0.13960843647E+04 0.  0.
        1    1    3    3  502    0 -0.46994246317E+03 -0.90659175446E+02 -0.88279798892E+03  0.10041898695E+04  0.50400001928E-02 0. -1.
       -1    1    3    3    0  502  0.46994246317E+03  0.90659175446E+02  0.23694498463E+03  0.53404862190E+03  0.50400001928E-02 0.  1.
</event>
<event>
 5   0  0.1108819E-03  0.1397383E+04  0.7818609E-02  0.8955715E-01
        2   -1    0    0  501    0  0.00000000000E+00  0.00000000000E+00  0.11902903504E+04  0.11902903504E+04  0.25500000920E-02 0. -1.
       -2   -1    0    0    0  501  0.00000000000E+00  0.00000000000E+00 -0.41012691233E+03  0.41012691234E+03  0.25500000920E-02 0.  1.
    10030    2    1    2    0    0  0.00000000000E+00  0.00000000000E+00  0.78016343803E+03  0.16004172627E+04  0.13973834208E+04 0.  0.
        3    1    3    3  502    0 -0.38218497502E+03  0.29838208909E+03  0.96623817927E+03  0.10810705137E+04  0.10100000352E+00 0. -1.
       -3    1    3    3    0  502  0.38218497502E+03 -0.29838208909E+03 -0.18607474123E+03  0.51934674905E+03  0.10100000352E+00 0.  1.
</event>
<event>
 5   0  0.6097538E-04  0.1402658E+04  0.7818609E-02  0.8951897E-01
        1   -1    0    0  501    0  0.00000000000E+00  0.00000000000E+00  0.39911171346E+03  0.39911171349E+03  0.50400001928E-02 0. -1.
       -1   -1    0    0    0  501  0.00000000000E+00  0.00000000000E+00 -0.12323926616E+04  0.12323926616E+04  0.50400001928E-02 0.  1.
    10030    2    1    2    0    0  0.00000000000E+00  0.00000000000E+00 -0.83328094816E+03  0.16315043751E+04  0.14026579724E+04 0.  0.
        2    1    3    3  502    0  0.20424171428E+03 -0.39812185853E+03 -0.10447927794E+04  0.11365771614E+04  0.25500000920E-02 0.  1.
       -2    1    3    3    0  502 -0.20424171428E+03  0.39812185853E+03  0.21151183121E+03  0.49492721367E+03  0.25500000920E-02 0. -1.
</event>
<event>
 5   0  0.1108819E-03  0.1384085E+04  0.7818609E-02  0.8965420E-01
       -2   -1    0    0    0  501  0.00000000000E+00  0.00000000000E+00  0.53831488106E+03  0.53831488106E+03  0.25500000920E-02 0.  1.
        2   -1    0    0  501    0  0.00000000000E+00  0.00000000000E+00 -0.88967018946E+03  0.88967018947E+03  0.25500000920E-02 0. -1.
    10030    2    1    2    0    0  0.00000000000E+00  0.00000000000E+00 -0.35135530841E+03  0.14279850705E+04  0.13840848272E+04 0.  0.
        3    1    3    3  502    0  0.77522839650E+02  0.59001327673E+02  0.53120477488E+03  0.54006432061E+03  0.10100000352E+00 0.  1.
       -3    1    3    3    0  502 -0.77522839650E+02 -0.59001327673E+02 -0.88256008329E+03  0.88792074993E+03  0.10100000352E+00 0. -1.
</event>
<event>
 5   0  0.6194742E-04  0.1403656E+04  0.7818609E-02  0.8951176E-01
       -1   -1    0    0    0  501  0.00000000000E+00  0.00000000000E+00  0.49609273982E+03  0.49609273985E+03  0.50400001928E-02 0.  1.
        1   -1    0    0  501    0  0.00000000000E+00  0.00000000000E+00 -0.99288456847E+03  0.99288456848E+03  0.50400001928E-02 0. -1.
    10030    2    1    2    0    0  0.00000000000E+00  0.00000000000E+00 -0.49679182865E+03  0.14889773083E+04  0.14036564051E+04 0.  0.
        4    1    3    3  502    0  0.34005427264E+03 -0.20787919535E+02  0.40249054984E+03  0.52732276791E+03  0.12699999809E+01 0.  1.
       -4    1    3    3    0  502 -0.34005427264E+03  0.20787919535E+02 -0.89928237849E+03  0.96165454042E+03  0.12699999809E+01 0. -1.
</event>
<event>
 5   0  0.6097538E-04  0.1436887E+04  0.7818609E-02  0.8927542E-01
       -1   -1    0    0    0  501  0.00000000000E+00  0.00000000000E+00  0.35113033793E+03  0.35113033797E+03  0.50400001928E-02 0.  1.
        1   -1    0    0  501    0  0.00000000000E+00  0.00000000000E+00 -0.14699979796E+04  0.14699979797E+04  0.50400001928E-02 0. -1.
    10030    2    1    2    0    0  0.00000000000E+00  0.00000000000E+00 -0.11188676417E+04  0.18211283176E+04  0.14368867560E+04 0.  0.
        2    1    3    3  502    0  0.58379803996E+02 -0.88731717129E+02 -0.14599920882E+04  0.14638505445E+04  0.25500000920E-02 0. -1.
       -2    1    3    3    0  502 -0.58379803996E+02  0.88731717129E+02  0.34112444649E+03  0.35727777308E+03  0.25500000920E-02 0.  1.
</event>
<event>
 5   0  0.5875298E-04  0.1445739E+04  0.7818609E-02  0.8921360E-01
        1   -1    0    0  501    0  0.00000000000E+00  0.00000000000E+00  0.70243175142E+03  0.70243175144E+03  0.50400001928E-02 0.  1.
       -1   -1    0    0    0  501  0.00000000000E+00  0.00000000000E+00 -0.74390240355E+03  0.74390240357E+03  0.50400001928E-02 0. -1.
    10030    2    1    2    0    0  0.00000000000E+00  0.00000000000E+00 -0.41470652128E+02  0.14463341550E+04  0.14457394900E+04 0.  0.
        1    1    3    3  502    0 -0.57849288943E+03 -0.42693840521E+03 -0.95667691820E+02  0.72531560872E+03  0.50400001928E-02 0.  1.
       -1    1    3    3    0  502  0.57849288943E+03  0.42693840521E+03  0.54197039692E+02  0.72101854629E+03  0.50400001928E-02 0. -1.
</event>
<event>
 5   0  0.1175146E-03  0.1387247E+04  0.7818609E-02  0.8963102E-01
        2   -1    0    0  501    0  0.00000000000E+00  0.00000000000E+00  0.10303872181E+04  0.10303872181E+04  0.25500000920E-02 0. -1.
       -2   -1    0    0    0  501  0.00000000000E+00  0.00000000000E+00 -0.46692522231E+03  0.46692522232E+03  0.25500000920E-02 0.  1.
    10030    2    1    2    0    0  0.00000000000E+00  0.00000000000E+00  0.56346199579E+03  0.14973124404E+04  0.13872473188E+04 0.  0.
        1    1    3    3  502    0  0.16469883148E+03 -0.49927669669E+03  0.77007850589E+03  0.93242899473E+03  0.50400001928E-02 0. -1.
       -1    1    3    3    0  502 -0.16469883148E+03  0.49927669669E+03 -0.20661651011E+03  0.56488344569E+03  0.50400001928E-02 0.  1.
</event>
<event>
 5   0  0.5875298E-04  0.1450469E+04  0.7818609E-02  0.8918075E-01
        1   -1    0    0  501    0  0.00000000000E+00  0.00000000000E+00  0.17545128171E+04  0.17545128171E+04  0.50400001928E-02 0. -1.
       -1   -1    0    0    0  501  0.00000000000E+00  0.00000000000E+00 -0.29977849299E+03  0.29977849303E+03  0.50400001928E-02 0.  1.
    10030    2    1    2    0    0  0.00000000000E+00  0.00000000000E+00  0.14547343241E+04  0.20542913101E+04  0.14504691769E+04 0.  0.
        1    1    3    3  502    0 -0.20510464582E+03 -0.66678422962E+03  0.10081225889E+04  0.12259609614E+04  0.50400001928E-02 0.  1.
       -1    1    3    3    0  502  0.20510464582E+03  0.66678422962E+03  0.44661173524E+03  0.82833034876E+03  0.50400001928E-02 0. -1.
</event>
<event>
 5   0  0.6194742E-04  0.1410666E+04  0.7818609E-02  0.8946134E-01
        1   -1    0    0  501    0  0.00000000000E+00  0.00000000000E+00  0.90288890131E+03  0.90288890133E+03  0.50400001928E-02 0.  1.
       -1   -1    0    0    0  501  0.00000000000E+00  0.00000000000E+00 -0.55100300874E+03  0.55100300876E+03  0.50400001928E-02 0. -1.
    10030    2    1    2    0    0  0.00000000000E+00  0.00000000000E+00  0.35188589258E+03  0.14538919101E+04  0.14106658020E+04 0.  0.
        4    1    3    3  502    0 -0.15990259833E+03 -0.40269288933E+03 -0.39767455217E+03  0.58811314083E+03  0.12699999809E+01 0. -1.
       -4    1    3    3    0  502  0.15990259833E+03  0.40269288933E+03  0.74956044475E+03  0.86577876926E+03  0.12699999809E+01 0.  1.
</event>
<event>
 5   0  0.1120053E-03  0.1398762E+04  0.7818609E-02  0.8954715E-01
       -2   -1    0    0    0  501  0.00000000000E+00  0.00000000000E+00  0.33895807600E+03  0.33895807601E+03  0.25500000920E-02 0.  1.
        2   -1    0    0  501    0  0.00000000000E+00  0.00000000000E+00 -0.14430504939E+04  0.14430504939E+04  0.25500000920E-02 0. -1.
    10030    2    1    2    0    0  0.00000000000E+00  0.00000000000E+00 -0.11040924179E+04  0.17820085699E+04  0.13987617653E+04 0.  0.
        2    1    3    3  502    0 -0.18902929928E+03  0.39190067191E+03 -0.12496245836E+04  0.13232081516E+04  0.25500000920E-02 0. -1.
       -2    1    3    3    0  502  0.18902929928E+03 -0.39190067191E+03  0.14553216563E+03  0.45880041834E+03  0.25500000920E-02 0.  1.
</event>
<event>
 5   0  0.1120053E-03  0.1391334E+04  0.7818609E-02  0.8960115E-01
       -2   -1    0    0    0  501  0.00000000000E+00  0.00000000000E+00  0.45915944985E+03  0.45915944986E+03  0.25500000920E-02 0.  1.
        2   -1    0    0  501    0  0.00000000000E+00  0.00000000000E+00 -0.10539970271E+04  0.10539970271E+04  0.25500000920E-02 0. -1.
    10030    2    1    2    0    0  0.00000000000E+00  0.00000000000E+00 -0.59483757723E+03  0.15131564769E+04  0.13913341728E+04 0.  0.
        2    1    3    3  502    0  0.53545556958E+03  0.28912278240E+03  0.69215748593E+02  0.61245038179E+03  0.25500000920E-02 0.  1.
       -2    1    3    3    0  502 -0.53545556958E+03 -0.28912278240E+03 -0.66405332582E+03  0.90070609515E+03  0.25500000920E-02 0. -1.
</event>
<event>
 5   0  0.4176125E-04  0.1396867E+04  0.7818609E-02  0.8956089E-01
       -4   -1    0    0    0  501  0.00000000000E+00  0.00000000000E+00  0.30637125986E+03  0.30637389211E+03  0.12699999809E+01 0.  1.
        4   -1    0    0  501    0  0.00000000000E+00  0.00000000000E+00 -0.15922076547E+04  0.15922081612E+04  0.12699999809E+01 0. -1.
    10030    2    1    2    0    0  0.00000000000E+00  0.00000000000E+00 -0.12858363949E+04  0.18985820533E+04  0.13968674164E+04 0.  0.
        4    1    3    3  502    0 -0.53383378070E+03  0.19932758764E+02 -0.12544428846E+04  0.13634531103E+04  0.12699999809E+01 0. -1.
       -4    1    3    3    0  502  0.53383378070E+03 -0.19932758764E+02 -0.31393510246E+02  0.53512894304E+03  0.12699999809E+01 0.  1.
</event>
<event>
 5   0  0.1175146E-03  0.1403191E+04  0.7818609E-02  0.8951512E-01
       -2   -1    0    0    0  501  0.00000000000E+00  0.00000000000E+00  0.31585741891E+03  0.31585741892E+03  0.25500000920E-02 0.  1.
        2   -1    0    0  501    0  0.00000000000E+00  0.00000000000E+00 -0.15584131928E+04  0.15584131928E+04  0.25500000920E-02 0. -1.
    10030    2    1    2    0    0  0.00000000000E+00  0.00000000000E+00 -0.12425557738E+04  0.18742706117E+04  0.14031911754E+04 0.  0.
        1    1    3    3  502    0 -0.51689856095E+03 -0.41628509819E+03 -0.92516216768E+03  0.11385966985E+04  0.50400001928E-02 0. -1.
       -1    1    3    3    0  502  0.51689856095E+03  0.41628509819E+03 -0.31739360617E+03  0.73567391319E+03  0.50400001928E-02 0.  1.
</event>
<event>
 5   0  0.6114266E-04  0.1402895E+04  0.7818609E-02  0.8951725E-01
        1   -1    0    0  501    0  0.00000000000E+00  0.00000000000E+00  0.13257906574E+04  0.13257906574E+04  0.50400001928E-02 0. -1.
       -1   -1    0    0    0  501  0.00000000000E+00  0.00000000000E+00 -0.37112107518E+03  0.37112107521E+03  0.50400001928E-02 0.  1.
    10030    2    1    2    0    0  0.00000000000E+00  0.00000000000E+00  0.95466958220E+03  0.16969117326E+04  0.14028953693E+04 0.  0.
        3    1    3    3  502    0 -0.13548117872E+03 -0.26180283155E+03 -0.29256245389E+03  0.41531755564E+03  0.10100000352E+00 0.  1.
       -3    1    3    3    0  502  0.13548117872E+03  0.26180283155E+03  0.12472320361E+04  0.12815941770E+04  0.10100000352E+00 0. -1.
</event>
<event>
 5   0  0.1098949E-03  0.1394953E+04  0.7818609E-02  0.8957480E-01
       -2   -1    0    0    0  501  0.00000000000E+00  0.00000000000E+00  0.29337822317E+03  0.29337822318E+03  0.25500000920E-02 0.  1.
        2   -1    0    0  501    0  0.00000000000E+00  0.00000000000E+00 -0.16581796146E+04  0.16581796146E+04  0.25500000920E-02 0. -1.
    10030    2    1    2    0    0  0.00000000000E+00  0.00000000000E+00 -0.13648013915E+04  0.19515578378E+04  0.13949534602E+04 0.  0.
        4    1    3    3  502    0 -0.21262654091E+03 -0.45974781418E+03 -0.13531891828E+04  0.14448877727E+04  0.12699999809E+01 0. -1.
       -4    1    3    3    0  502  0.21262654091E+03  0.45974781418E+03 -0.11612208681E+02  0.50667006506E+03  0.12699999809E+01 0.  1.
</event>
<event>
 5   0  0.1095119E-03  0.1400346E+04  0.7818609E-02  0.8953568E-01
       -2   -1    0    0    0  501  0.00000000000E+00  0.00000000000E+00  0.10908543153E+04  0.10908543153E+04  0.25500000920E-02 0.  1.
        2   -1    0    0  501    0  0.00000000000E+00  0.00000000000E+00 -0.44941158626E+03  0.44941158627E+03  0.25500000920E-02 0. -1.
    10030    2    1    2    0    0  0.00000000000E+00  0.00000000000E+00  0.64144272900E+03  0.15402659015E+04  0.14003464831E+04 0.  0.
        5    1    3    3  502    0  0.35605234846E+03 -0.18340750199E+03  0.95239300031E+03  0.10331921911E+04  0.46999998093E+01 0.  1.
       -5    1    3    3    0  502 -0.35605234846E+03  0.18340750199E+03 -0.31095027131E+03  0.50707371048E+03  0.46999998093E+01 0. -1.
</event>
<event>
 5   0  0.1108819E-03  0.1376800E+04  0.7818609E-02  0.8970785E-01
        2   -1    0    0  501    0  0.00000000000E+00  0.00000000000E+00  0.58361880627E+03  0.58361880628E+03  0.25500000920E-02 0. -1.
       -2   -1    0    0    0  501  0.00000000000E+00  0.00000000000E+00 -0.81199304081E+03  0.81199304081E+03  0.25500000920E-02 0.  1.
    10030    2    1    2    0    0  0.00000000000E+00  0.00000000000E+00 -0.22837423453E+03  0.13956118471E+04  0.13767997809E+04 0.  0.
        3    1    3    3  502    0  0.32320799267E+01  0.61411223079E+03 -0.42948395632E+03  0.74940026507E+03  0.10100000352E+00 0.  1.
       -3    1    3    3    0  502 -0.32320799267E+01 -0.61411223079E+03  0.20110972179E+03  0.64621158202E+03  0.10100000352E+00 0. -1.
</event>
<event>
 5   0  0.5875298E-04  0.1397527E+04  0.7818609E-02  0.8955610E-01
       -1   -1    0    0    0  501  0.00000000000E+00  0.00000000000E+00  0.95353448352E+03  0.95353448354E+03  0.50400001928E-02 0.  1.
        1   -1    0    0  501    0  0.00000000000E+00  0.00000000000E+00 -0.51206384521E+03  0.51206384523E+03  0.50400001928E-02 0. -1.
    10030    2    1    2    0    0  0.00000000000E+00  0.00000000000E+00  0.44147063832E+03  0.14655983288E+04  0.13975271506E+04 0.  0.
        1    1    3    3  502    0  0.91227816160E+02  0.64306499788E+03  0.49099993871E+03  0.81420884653E+03  0.50400001928E-02 0.  1.
       -1    1    3    3    0  502 -0.91227816160E+02 -0.64306499788E+03 -0.49529300389E+02  0.65138948223E+03  0.50400001928E-02 0. -1.
</event>
<event>
 5   0  0.6097538E-04  0.1409648E+04  0.7818609E-02  0.8946865E-01
       -1   -1    0    0    0  501  0.00000000000E+00  0.00000000000E+00  0.65142861266E+03  0.65142861268E+03  0.50400001928E-02 0. -1.
        1   -1    0    0  501    0  0.00000000000E+00  0.00000000000E+00 -0.76259562867E+03  0.76259562869E+03  0.50400001928E-02 0.  1.
    10030    2    1    2    0    0  0.00000000000E+00  0.00000000000E+00 -0.11116701601E+03  0.14140242414E+04  0.14096476332E+04 0.  0.
        2    1    3    3  502    0 -0.32968451529E+03  0.62514736805E+02 -0.67732774092E+03  0.75589208262E+03  0.25500000920E-02 0.  1.
       -2    1    3    3    0  502  0.32968451529E+03 -0.62514736805E+02  0.56616072491E+03  0.65813215874E+03  0.25500000920E-02 0. -1.
</event>
<event>
 5   0  0.6097538E-04  0.1396264E+04  0.7818609E-02  0.8956528E-01
       -1   -1    0    0    0  501  0.00000000000E+00  0.00000000000E+00  0.95497931539E+03  0.95497931540E+03  0.50400001928E-02 0.  1.
        1   -1    0    0  501    0  0.00000000000E+00  0.00000000000E+00 -0.51036492962E+03  0.51036492965E+03  0.50400001928E-02 0. -1.
    10030    2    1    2    0    0  0.00000000000E+00  0.00000000000E+00  0.44461438577E+03  0.14653442451E+04  0.13962635154E+04 0.  0.
        2    1    3    3  502    0 -0.81496421047E+02  0.25455824866E+03 -0.45454049365E+03  0.52730316610E+03  0.25500000920E-02 0. -1.
       -2    1    3    3    0  502  0.81496421047E+02 -0.25455824866E+03  0.89915487942E+03  0.93804107895E+03  0.25500000920E-02 0.  1.
</event>
<event>
 5   0  0.1120053E-03  0.1391049E+04  0.7818609E-02  0.8960323E-01
       -2   -1    0    0    0  501  0.00000000000E+00  0.00000000000E+00  0.37181160302E+03  0.37181160302E+03  0.25500000920E-02 0.  1.
        2   -1    0    0  501    0  0.00000000000E+00  0.00000000000E+00 -0.13010747064E+04  0.13010747065E+04  0.25500000920E-02 0. -1.
    10030    2    1    2    0    0  0.00000000000E+00  0.00000000000E+00 -0.92926310343E+03  0.16728863095E+04  0.13910494919E+04 0.  0.
        2    1    3    3  502    0 -0.21994280505E+02 -0.40790239193E+03 -0.11416114243E+04  0.12124952593E+04  0.25500000920E-02 0. -1.
       -2    1    3    3    0  502  0.21994280505E+02  0.40790239193E+03  0.21234832085E+03  0.46039105019E+03  0.25500000920E-02 0.  1.
</event>
<event>
 5   0  0.1098949E-03  0.1407233E+04  0.7818609E-02  0.8948599E-01
       -2   -1    0    0    0  501  0.00000000000E+00  0.00000000000E+00  0.16594922110E+04  0.16594922110E+04  0.25500000920E-02 0.  1.
        2   -1    0    0  501    0  0.00000000000E+00  0.00000000000E+00 -0.29833008682E+03  0.29833008683E+03  0.25500000920E-02 0. -1.
    10030    2    1    2    0    0  0.00000000000E+00  0.00000000000E+00  0.13611621241E+04  0.19578222978E+04  0.14072333927E+04 0.  0.
        4    1    3    3  502    0  0.23245938839E+03  0.55303715414E+03  0.11921158995E+04  0.13345521316E+04  0.12699999809E+01 0. -1.
       -4    1    3    3    0  502 -0.23245938839E+03 -0.55303715414E+03  0.16904622460E+03  0.62327016619E+03  0.12699999809E+01 0.  1.
</event>
<event>
 5   0  0.1095119E-03  0.1385668E+04  0.7818609E-02  0.8964258E-01
        2   -1    0    0  501    0  0.00000000000E+00  0.00000000000E+00  0.64216163706E+03  0.64216163707E+03  0.25500000920E-02 0.  1.
       -2   -1    0    0    0  501  0.00000000000E+00  0.00000000000E+00 -0.74750537350E+03  0.74750537351E+03  0.25500000920E-02 0. -1.
    10030    2    1    2    0    0  0.00000000000E+00  0.00000000000E+00 -0.10534373644E+03  0.13896670106E+04  0.13856684659E+04 0.  0.
        5    1    3    3  502    0 -0.66354375725E+03 -0.15282234918E+03  0.75572841393E+02  0.68511191243E+03  0.46999998093E+01 0.  1.
       -5    1    3    3    0  502  0.66354375725E+03  0.15282234918E+03 -0.18091657783E+03  0.70455509815E+03  0.46999998093E+01 0. -1.
</event>
<event>
 5   0  0.5875298E-04  0.1388581E+04  0.7818609E-02  0.8962126E-01
       -1   -1    0    0    0  501  0.00000000000E+00  0.00000000000E+00  0.60220455507E+03  0.60220455509E+03  0.50400001928E-02 0. -1.
        1   -1    0    0  501    0  0.00000000000E+00  0.00000000000E+00 -0.80045734847E+03  0.80045734848E+03  0.50400001928E-02 0.  1.
    10030    2    1    2    0    0  0.00000000000E+00  0.00000000000E+00 -0.19825279339E+03  0.14026619036E+04  0.13885806587E+04 0.  0.
        1    1    3    3  502    0  0.26209323814E+03  0.44345878730E+02  0.54876660111E+03  0.60975749684E+03  0.50400001928E-02 0. -1.
       -1    1    3    3    0  502 -0.26209323814E+03 -0.44345878730E+02 -0.74701939450E+03  0.79290440674E+03  0.50400001928E-02 0.  1.
</event>
<event>
 5   0  0.6194742E-04  0.1409084E+04  0.7818609E-02  0.8947269E-01
       -1   -1    0    0    0  501  0.00000000000E+00  0.00000000000E+00  0.25624673953E+03  0.25624673958E+03  0.50400001928E-02 0. -1.
        1   -1    0    0  501    0  0.00000000000E+00  0.00000000000E+00 -0.19371163867E+04  0.19371163867E+04  0.50400001928E-02 0.  1.
    10030    2    1    2    0    0  0.00000000000E+00  0.00000000000E+00 -0.16808696471E+04  0.21933631263E+04  0.14090844662E+04 0.  0.
        4    1    3    3  502    0 -0.36036062610E+02 -0.34246367653E+03 -0.17971957711E+04  0.18298891278E+04  0.12699999809E+01 0.  1.
       -4    1    3    3    0  502  0.36036062610E+02  0.34246367653E+03  0.11632612394E+03  0.36347399847E+03  0.12699999809E+01 0. -1.
</event>
<event>
 5   0  0.1120053E-03  0.1413705E+04  0.7818609E-02  0.8943957E-01
       -2   -1    0    0    0  501  0.00000000000E+00  0.00000000000E+00  0.89105791147E+03  0.89105791148E+03  0.25500000920E-02 0.  1.
        2   -1    0    0  501    0  0.00000000000E+00  0.00000000000E+00 -0.56072754409E+03  0.56072754410E+03  0.25500000920E-02 0. -1.
    10030    2    1    2    0    0  0.00000000000E+00  0.00000000000E+00  0.33033036738E+03  0.14517854556E+04  0.14137053644E+04 0.  0.
        2    1    3    3  502    0  0.23763006104E+03  0.21986274938E+03  0.81044826577E+03  0.87271648659E+03  0.25500000920E-02 0.  1.
       -2    1    3    3    0  502 -0.23763006104E+03 -0.21986274938E+03 -0.48011789839E+03  0.57906896898E+03  0.25500000920E-02 0. -1.
</event>
<event>
 5   0  0.1175146E-03  0.1400371E+04  0.7818609E-02  0.8953550E-01
        2   -1    0    0  501    0  0.00000000000E+00  0.00000000000E+00  0.65075313300E+03  0.65075313300E+03  0.25500000920E-02 0.  1.
       -2   -1    0    0    0  501  0.00000000000E+00  0.00000000000E+00 -0.75337310833E+03  0.75337310833E+03  0.25500000920E-02 0. -1.
    10030    2    1    2    0    0  0.00000000000E+00  0.00000000000E+00 -0.10261997533E+03  0.14041262413E+04  0.14003712516E+04 0.  0.
        1    1    3    3  502    0  0.35590414892E+03  0.43243998782E+02  0.55173608494E+03  0.65798975228E+03  0.50400001928E-02 0.  1.
       -1    1    3    3    0  502 -0.35590414892E+03 -0.43243998782E+02 -0.65435606028E+03  0.74613648905E+03  0.50400001928E-02 0. -1.
</event>
<event>
 5   0  0.1175146E-03  0.1417207E+04  0.7818609E-02  0.8941457E-01
        2   -1    0    0  501    0  0.00000000000E+00  0.00000000000E+00  0.64738663444E+03  0.64738663445E+03  0.25500000920E-02 0. -1.
       -2   -1    0    0    0  501  0.00000000000E+00  0.00000000000E+00 -0.77560889956E+03  0.77560889956E+03  0.25500000920E-02 0.  1.
    10030    2    1    2    0    0  0.00000000000E+00  0.00000000000E+00 -0.12822226511E+03  0.14229955340E+04  0.14172068799E+04 0.  0.
        1    1    3    3  502    0 -0.70005358184E+03  0.10949930922E+03 -0.71470389937E+02  0.71216088971E+03  0.50400001928E-02 0.  1.
       -1    1    3    3    0  502  0.70005358184E+03 -0.10949930922E+03 -0.56751875174E+02  0.71083464430E+03  0.50400001928E-02 0. -1.
</event>
<event>
 5   0  0.6097538E-04  0.1403620E+04  0.7818609E-02  0.8951203E-01
        1   -1    0    0  501    0  0.00000000000E+00  0.00000000000E+00  0.11837927842E+04  0.11837927842E+04  0.50400001928E-02 0.  1.
       -1   -1    0    0    0  501  0.00000000000E+00  0.00000000000E+00 -0.41606693862E+03  0.41606693865E+03  0.50400001928E-02 0. -1.
    10030    2    1    2    0    0  0.00000000000E+00  0.00000000000E+00  0.76772584556E+03  0.15998597228E+04  0.14036196632E+04 0.  0.
        2    1    3    3  502    0 -0.42631964040E+03  0.35060642744E+03  0.87789362535E+03  0.10370007330E+04  0.25500000920E-02 0.  1.
       -2    1    3    3    0  502  0.42631964040E+03 -0.35060642744E+03 -0.11016777980E+03  0.56285898986E+03  0.25500000920E-02 0. -1.
</event>
<event>
 5   0  0.1095119E-03  0.1407797E+04  0.7818609E-02  0.8948194E-01
       -2   -1    0    0    0  501  0.00000000000E+00  0.00000000000E+00  0.93158669502E+03  0.93158669502E+03  0.25500000920E-02 0.  1.
        2   -1    0    0  501    0  0.00000000000E+00  0.00000000000E+00 -0.53185918364E+03  0.53185918365E+03  0.25500000920E-02 0. -1.
    10030    2    1    2    0    0  0.00000000000E+00  0.00000000000E+00  0.39972751138E+03  0.14634458787E+04  0.14077967738E+04 0.  0.
        5    1    3    3  502    0 -0.66425907950E+03 -0.22946432269E+03  0.15884712806E+03  0.72051960430E+03  0.46999998093E+01 0.  1.
       -5    1    3    3    0  502  0.66425907950E+03  0.22946432269E+03  0.24088038332E+03  0.74292627437E+03  0.46999998093E+01 0. -1.
</event>
<event>
 5   0  0.6194742E-04  0.1406335E+04  0.7818609E-02  0.8949246E-01
       -1   -1    0    0    0  501  0.00000000000E+00  0.00000000000E+00  0.69170668359E+03  0.69170668361E+03  0.50400001928E-02 0.  1.
        1   -1    0    0  501    0  0.00000000000E+00  0.00000000000E+00 -0.71481809548E+03  0.71481809550E+03  0.50400001928E-02 0. -1.
    10030    2    1    2    0    0  0.00000000000E+00  0.00000000000E+00 -0.23111411892E+02  0.14065247791E+04  0.14063348879E+04 0.  0.
        4    1    3    3  502    0  0.33365560817E+03  0.53805019061E+03 -0.31756886320E+03  0.70829066650E+03  0.12699999809E+01 0.  1.
       -4    1    3    3    0  502 -0.33365560817E+03 -0.53805019061E+03  0.29445745131E+03  0.69823411261E+03  0.12699999809E+01 0. -1.
</event>
<event>
 5   0  0.5875298E-04  0.1414972E+04  0.7818609E-02  0.8943052E-01
       -1   -1    0    0    0  501  0.00000000000E+00  0.00000000000E+00  0.32285395971E+03  0.32285395975E+03  0.50400001928E-02 0.  1.
        1   -1    0    0  501    0  0.00000000000E+00  0.00000000000E+00 -0.15503499496E+04  0.15503499496E+04  0.50400001928E-02 0. -1.
    10030    2    1    2    0    0  0.00000000000E+00  0.00000000000E+00 -0.12274959899E+04  0.18732039093E+04  0.14149722544E+04 0.  0.
        1    1    3    3  502    0  0.14999904321E+03 -0.19586018528E+03 -0.14915637288E+04  0.15118277951E+04  0.50400001928E-02 0. -1.
       -1    1    3    3    0  502 -0.14999904321E+03  0.19586018528E+03  0.26406773892E+03  0.36137611418E+03  0.50400001928E-02 0.  1.
</event>
<event>
 5   0  0.5875298E-04  0.1400540E+04  0.7818609E-02  0.8953428E-01
        1   -1    0    0  501    0  0.00000000000E+00  0.00000000000E+00  0.19061426746E+04  0.19061426746E+04  0.50400001928E-02 0. -1.
       -1   -1    0    0    0  501  0.00000000000E+00  0.00000000000E+00 -0.25726184482E+03  0.25726184487E+03  0.50400001928E-02 0.  1.
    10030    2    1    2    0    0  0.00000000000E+00  0.00000000000E+00  0.16488808298E+04  0.21634045195E+04  0.14005395832E+04 0.  0.
        1    1    3    3  502    0  0.13016309829E+03  0.10868734859E+03  0.18739484949E+04  0.18816052544E+04  0.50400001928E-02 0. -1.
       -1    1    3    3    0  502 -0.13016309829E+03 -0.10868734859E+03 -0.22506766510E+03  0.28179926508E+03  0.50400001928E-02 0.  1.
</event>
<event>
 5   0  0.6097538E-04  0.1405125E+04  0.7818609E-02  0.8950117E-01
       -1   -1    0    0    0  501  0.00000000000E+00  0.00000000000E+00  0.33607309882E+03  0.33607309886E+03  0.50400001928E-02 0. -1.
        1   -1    0    0  501    0  0.00000000000E+00  0.00000000000E+00 -0.14687098866E+04  0.14687098866E+04  0.50400001928E-02 0.  1.
    10030    2    1    2    0    0  0.00000000000E+00  0.00000000000E+00 -0.11326367878E+04  0.18047829855E+04  0.14051247388E+04 0.  0.
        2    1    3    3  502    0  0.59432179125E+03  0.20989501093E+03 -0.16769077234E+03  0.65222273980E+03  0.25500000920E-02 0. -1.
       -2    1    3    3    0  502 -0.59432179125E+03 -0.20989501093E+03 -0.96494601544E+03  0.11525602457E+04  0.25500000920E-02 0.  1.
</event>
<event>
 5   0  0.5875298E-04  0.1391490E+04  0.7818609E-02  0.8960001E-01
        1   -1    0    0  501    0  0.00000000000E+00  0.00000000000E+00  0.48491552047E+03  0.48491552050E+03  0.50400001928E-02 0. -1.
       -1   -1    0    0    0  501  0.00000000000E+00  0.00000000000E+00 -0.99823853995E+03  0.99823853996E+03  0.50400001928E-02 0.  1.
    10030    2    1    2    0    0  0.00000000000E+00  0.00000000000E+00 -0.51332301948E+03  0.14831540605E+04  0.13914903682E+04 0.  0.
        1    1    3    3  502    0  0.69142977022E+02 -0.55864454864E+03  0.17917152237E+03  0.59073421896E+03  0.50400001928E-02 0. -1.
       -1    1    3    3    0  502 -0.69142977022E+02  0.55864454864E+03 -0.69249454185E+03  0.89241984150E+03  0.50400001928E-02 0.  1.
</event>
<event>
 5   0  0.1108819E-03  0.1480215E+04  0.7818609E-02  0.8897717E-01
       -2   -1    0    0    0  501  0.00000000000E+00  0.00000000000E+00  0.46161604955E+03  0.46161604956E+03  0.25500000920E-02 0. -1.
        2   -1    0    0  501    0  0.00000000000E+00  0.00000000000E+00 -0.11866117033E+04  0.11866117033E+04  0.25500000920E-02 0.  1.
    10030    2    1    2    0    0  0.00000000000E+00  0.00000000000E+00 -0.72499565376E+03  0.16482277529E+04  0.14802148585E+04 0.  0.
        3    1    3    3  502    0  0.41684444731E+03  0.12810886406E+03 -0.10283592021E+04  0.11170021634E+04  0.10100000352E+00 0.  1.
       -3    1    3    3    0  502 -0.41684444731E+03 -0.12810886406E+03  0.30336354831E+03  0.53122558950E+03  0.10100000352E+00 0. -1.
</event>
<event>
 5   0  0.6114266E-04  0.1457328E+04  0.7818609E-02  0.8913336E-01
        1   -1    0    0  501    0  0.00000000000E+00  0.00000000000E+00  0.14657661251E+04  0.14657661251E+04  0.50400001928E-02 0.  1.
       -1   -1    0    0    0  501  0.00000000000E+00  0.00000000000E+00 -0.36223443593E+03  0.36223443596E+03  0.50400001928E-02 0. -1.
    10030    2    1    2    0    0  0.00000000000E+00  0.00000000000E+00  0.11035316892E+04  0.18280005611E+04  0.14573276441E+04 0.  0.
        3    1    3    3  502    0 -0.12049043982E+03 -0.34060285649E+03 -0.24197452357E+03  0.43483322343E+03  0.10100000352E+00 0. -1.
       -3    1    3    3    0  502  0.12049043982E+03  0.34060285649E+03  0.13455062127E+04  0.13931673376E+04  0.10100000352E+00 0.  1.
</event>
<event>
 5   0  0.1098949E-03  0.1393473E+04  0.7818609E-02  0.8958557E-01
        2   -1    0    0  501    0  0.00000000000E+00  0.00000000000E+00  0.96216859916E+03  0.96216859916E+03  0.25500000920E-02 0.  1.
       -2   -1    0    0    0  501  0.00000000000E+00  0.00000000000E+00 -0.50452876170E+03  0.50452876170E+03  0.25500000920E-02 0. -1.
    10030    2    1    2    0    0  0.00000000000E+00  0.00000000000E+00  0.45763983746E+03  0.14666973609E+04  0.13934729734E+04 0.  0.
        4    1    3    3  502    0  0.28580691945E+03  0.12704602723E+03 -0.42648223169E+03  0.52888088932E+03  0.12699999809E+01 0. -1.
       -4    1    3    3    0  502 -0.28580691945E+03 -0.12704602723E+03  0.88412206915E+03  0.93781647154E+03  0.12699999809E+01 0.  1.
</event>
<event>
 5   0  0.1108819E-03  0.1423926E+04  0.7818609E-02  0.8936679E-01
       -2   -1    0    0    0  501  0.00000000000E+00  0.00000000000E+00  0.39093575729E+03  0.39093575730E+03  0.25500000920E-02 0. -1.
        2   -1    0    0  501    0  0.00000000000E+00  0.00000000000E+00 -0.12966106086E+04  0.12966106086E+04  0.25500000920E-02 0.  1.
    10030    2    1    2    0    0  0.00000000000E+00  0.00000000000E+00 -0.90567485126E+03  0.16875463659E+04  0.14239261922E+04 0.  0.
        3    1    3    3  502    0  0.46278553065E+03  0.52985073354E+03 -0.58254998006E+03  0.91338750631E+03  0.10100000352E+00 0. -1.
       -3    1    3    3    0  502 -0.46278553065E+03 -0.52985073354E+03 -0.32312487120E+03  0.77415885954E+03  0.10100000352E+00 0.  1.
</event>
<event>
 5   0  0.1120053E-03  0.1394389E+04  0.7818609E-02  0.8957890E-01
        2   -1    0    0  501    0  0.00000000000E+00  0.00000000000E+00  0.43300728923E+03  0.43300728924E+03  0.25500000920E-02 0.  1.
       -2   -1    0    0    0  501  0.00000000000E+00  0.00000000000E+00 -0.11225685691E+04  0.11225685691E+04  0.25500000920E-02 0. -1.
    10030    2    1    2    0    0  0.00000000000E+00  0.00000000000E+00 -0.68956127987E+03  0.15555758583E+04  0.13943892901E+04 0.  0.
        2    1    3    3  502    0  0.77607086345E+02  0.11773253461E+03 -0.11064942053E+04  0.11154430671E+04  0.25500000920E-02 0. -1.
       -2    1    3    3    0  502 -0.77607086345E+02 -0.11773253461E+03  0.41693292547E+03  0.44013279121E+03  0.25500000920E-02 0.  1.
</event>
<event>
 5   0  0.6153318E-04  0.1391281E+04  0.7818609E-02  0.8960154E-01
       -1   -1    0    0    0  501  0.00000000000E+00  0.00000000000E+00  0.35969203233E+03  0.35969203237E+03  0.50400001928E-02 0.  1.
        1   -1    0    0  501    0  0.00000000000E+00  0.00000000000E+00 -0.13453605680E+04  0.13453605680E+04  0.50400001928E-02 0. -1.
    10030    2    1    2    0    0  0.00000000000E+00  0.00000000000E+00 -0.98566853562E+03  0.17050526003E+04  0.13912806718E+04 0.  0.
        5    1    3    3  502    0 -0.41491683974E+03  0.51080380996E+03 -0.21656855466E+03  0.69282071638E+03  0.46999998093E+01 0.  1.
       -5    1    3    3    0  502  0.41491683974E+03 -0.51080380996E+03 -0.76909998096E+03  0.10122318840E+04  0.46999998093E+01 0. -1.
</event>
<event>
 5   0  0.5875298E-04  0.1420525E+04  0.7818609E-02  0.8939094E-01
       -1   -1    0    0    0  501  0.00000000000E+00  0.00000000000E+00  0.76229761002E+03  0.76229761003E+03  0.50400001928E-02 0. -1.
        1   -1    0    0  501    0  0.00000000000E+00  0.00000000000E+00 -0.66177930998E+03  0.66177931000E+03  0.50400001928E-02 0.  1.
    10030    2    1    2    0    0  0.00000000000E+00  0.00000000000E+00  0.10051830003E+03  0.14240769200E+04  0.14205249542E+04 0.  0.
        1    1    3    3  502    0 -0.66181483427E+03 -0.21860340533E+03  0.18729939598E+03  0.72171142948E+03  0.50400001928E-02 0. -1.
       -1    1    3    3    0  502  0.66181483427E+03  0.21860340533E+03 -0.86781095951E+02  0.70236549055E+03  0.50400001928E-02 0.  1.
</event>
<event>
 5   0  0.1098949E-03  0.1416731E+04  0.7818609E-02  0.8941796E-01
       -2   -1    0    0    0  501  0.00000000000E+00  0.00000000000E+00  0.10538619046E+04  0.10538619046E+04  0.25500000920E-02 0.  1.
        2   -1    0    0  501    0  0.00000000000E+00  0.00000000000E+00 -0.47613603572E+03  0.47613603572E+03  0.25500000920E-02 0. -1.
    10030    2    1    2    0    0  0.00000000000E+00  0.00000000000E+00  0.57772586884E+03  0.15299979403E+04  0.14167309264E+04 0.  0.
        4    1    3    3  502    0 -0.24823415795E+03 -0.37787276194E+03 -0.30005327097E+03  0.54262473193E+03  0.12699999809E+01 0. -1.
       -4    1    3    3    0  502  0.24823415795E+03  0.37787276194E+03  0.87777913981E+03  0.98737320835E+03  0.12699999809E+01 0.  1.
</event>
<event>
 5   0  0.1098949E-03  0.1367453E+04  0.7818609E-02  0.8977720E-01
       -2   -1    0    0    0  501  0.00000000000E+00  0.00000000000E+00  0.55413697802E+03  0.55413697803E+03  0.25500000920E-02 0. -1.
        2   -1    0    0  501    0  0.00000000000E+00  0.00000000000E+00 -0.84362178718E+03  0.84362178719E+03  0.25500000920E-02 0.  1.
    10030    2    1    2    0    0  0.00000000000E+00  0.00000000000E+00 -0.28948480916E+03  0.13977587652E+04  0.13674531476E+04 0.  0.
        4    1    3    3  502    0  0.56691970396E+03 -0.29260870712E+03 -0.39608332980E+03  0.75093370098E+03  0.12699999809E+01 0.  1.
       -4    1    3    3    0  502 -0.56691970396E+03  0.29260870712E+03  0.10659852064E+03  0.64682506423E+03  0.12699999809E+01 0. -1.
</event>
<event>
 5   0  0.4176125E-04  0.1385826E+04  0.7818609E-02  0.8964143E-01
       -4   -1    0    0    0  501  0.00000000000E+00  0.00000000000E+00  0.13009624085E+04  0.13009630284E+04  0.12699999809E+01 0.  1.
        4   -1    0    0  501    0  0.00000000000E+00  0.00000000000E+00 -0.36905428416E+03  0.36905646934E+03  0.12699999809E+01 0. -1.
    10030    2    1    2    0    0  0.00000000000E+00  0.00000000000E+00  0.93190812436E+03  0.16700194977E+04  0.13858255195E+04 0.  0.
        2    1    3    3  502    0 -0.56381443788E+03 -0.18686209260E+03  0.35954507483E+02  0.59506040754E+03  0.25500000920E-02 0. -1.
       -2    1    3    3    0  502  0.56381443788E+03  0.18686209260E+03  0.89595361688E+03  0.10749590902E+04  0.25500000920E-02 0.  1.
</event>
<event>
 5   0  0.1108819E-03  0.1392698E+04  0.7818609E-02  0.8959121E-01
       -2   -1    0    0    0  501  0.00000000000E+00  0.00000000000E+00  0.99623721752E+03  0.99623721752E+03  0.25500000920E-02 0.  1.
        2   -1    0    0  501    0  0.00000000000E+00  0.00000000000E+00 -0.48673368771E+03  0.48673368771E+03  0.25500000920E-02 0. -1.
    10030    2    1    2    0    0  0.00000000000E+00  0.00000000000E+00  0.50950352981E+03  0.14829709052E+04  0.13926984092E+04 0.  0.
        3    1    3    3  502    0  0.58188743609E+03 -0.27454853066E+03  0.53834615466E+03  0.83891982716E+03  0.10100000352E+00 0.  1.
       -3    1    3    3    0  502 -0.58188743609E+03  0.27454853066E+03 -0.28842624846E+02  0.64405107808E+03  0.10100000352E+00 0. -1.
</event>
<event>
 5   0  0.1098949E-03  0.1408042E+04  0.7818609E-02  0.8948018E-01
       -2   -1    0    0    0  501  0.00000000000E+00  0.00000000000E+00  0.99030905404E+03  0.99030905405E+03  0.25500000920E-02 0.  1.
        2   -1    0    0  501    0  0.00000000000E+00  0.00000000000E+00 -0.50049553148E+03  0.50049553149E+03  0.25500000920E-02 0. -1.
    10030    2    1    2    0    0  0.00000000000E+00  0.00000000000E+00  0.48981352256E+03  0.14908045855E+04  0.14080415567E+04 0.  0.
        4    1    3    3  502    0  0.44291438567E+03  0.35563682613E+03  0.68527849488E+03  0.89008928405E+03  0.12699999809E+01 0.  1.
       -4    1    3    3    0  502 -0.44291438567E+03 -0.35563682613E+03 -0.19546497232E+03  0.60071530148E+03  0.12699999809E+01 0. -1.
</event>
<event>
 5   0  0.6153318E-04  0.1387874E+04  0.7818609E-02  0.8962643E-01
       -1   -1    0    0    0  501  0.00000000000E+00  0.00000000000E+00  0.16625397762E+03  0.16625397770E+03  0.50400001928E-02 0.  1.
        1   -1    0    0  501    0  0.00000000000E+00  0.00000000000E+00 -0.28964618757E+04  0.28964618757E+04  0.50400001928E-02 0. -1.
    10030    2    1    2    0    0  0.00000000000E+00  0.00000000000E+00 -0.27302078981E+04  0.30627158534E+04  0.13878736369E+04 0.  0.
        5    1    3    3  502    0 -0.75711897075E+02 -0.54322701965E+03 -0.23031709350E+04  0.23675823813E+04  0.46999998093E+01 0. -1.
       -5    1    3    3    0  502  0.75711897075E+02  0.54322701965E+03 -0.42703696303E+03  0.69513347210E+03  0.46999998093E+01 0.  1.
</event>
<event>
 5   0  0.6097538E-04  0.1399078E+04  0.7818609E-02  0.8954486E-01
       -1   -1    0    0    0  501  0.00000000000E+00  0.00000000000E+00  0.51534713308E+03  0.51534713310E+03  0.50400001928E-02 0. -1.
        1   -1    0    0  501    0  0.00000000000E+00  0.00000000000E+00 -0.94956328132E+03  0.94956328134E+03  0.50400001928E-02 0.  1.
    10030    2    1    2    0    0  0.00000000000E+00  0.00000000000E+00 -0.43421614824E+03  0.14649104144E+04  0.13990778602E+04 0.  0.
        2    1    3    3  502    0 -0.19613479319E+03  0.50174689984E+03  0.25013618032E+03  0.59395868317E+03  0.25500000920E-02 0. -1.
       -2    1    3    3    0  502  0.19613479319E+03 -0.50174689984E+03 -0.68435232856E+03  0.87095173128E+03  0.25500000920E-02 0.  1.
</event>
<event>
 5   0  0.1098949E-03  0.1395738E+04  0.7818609E-02  0.8956909E-01
       -2   -1    0    0    0  501  0.00000000000E+00  0.00000000000E+00  0.41933570199E+03  0.41933570200E+03  0.25500000920E-02 0.  1.
        2   -1    0    0  501    0  0.00000000000E+00  0.00000000000E+00 -0.11614110747E+04  0.11614110747E+04  0.25500000920E-02 0. -1.
    10030    2    1    2    0    0  0.00000000000E+00  0.00000000000E+00 -0.74207537267E+03  0.15807467767E+04  0.13957379816E+04 0.  0.
        4    1    3    3  502    0  0.39681184241E+03  0.45649373920E+03 -0.76527883650E+03  0.97544834958E+03  0.12699999809E+01 0. -1.
       -4    1    3    3    0  502 -0.39681184241E+03 -0.45649373920E+03  0.23203463824E+02  0.60529842709E+03  0.12699999809E+01 0.  1.
</event>
<event>
 5   0  0.1108819E-03  0.1395200E+04  0.7818609E-02  0.8957300E-01
       -2   -1    0    0    0  501  0.00000000000E+00  0.00000000000E+00  0.48729830568E+03  0.48729830569E+03  0.25500000920E-02 0. -1.
        2   -1    0    0  501    0  0.00000000000E+00  0.00000000000E+00 -0.99866118477E+03  0.99866118477E+03  0.25500000920E-02 0.  1.
    10030    2    1    2    0    0  0.00000000000E+00  0.00000000000E+00 -0.51136287909E+03  0.14859594905E+04  0.13952002054E+04 0.  0.
        3    1    3    3  502    0  0.23989353331E+03 -0.57822300264E+03 -0.58352891121E+03  0.85580181615E+03  0.10100000352E+00 0.  1.
       -3    1    3    3    0  502 -0.23989353331E+03  0.57822300264E+03  0.72166032126E+02  0.63015767431E+03  0.10100000352E+00 0. -1.
</event>
<event>
 5   0  0.4176125E-04  0.1405391E+04  0.7818609E-02  0.8949926E-01
       -3   -1    0    0    0  501  0.00000000000E+00  0.00000000000E+00  0.47213591848E+03  0.47213592928E+03  0.10100000352E+00 0.  1.
        3   -1    0    0  501    0  0.00000000000E+00  0.00000000000E+00 -0.10458448947E+04  0.10458448996E+04  0.10100000352E+00 0. -1.
    10030    2    1    2    0    0  0.00000000000E+00  0.00000000000E+00 -0.57370897621E+03  0.15179808288E+04  0.14053909802E+04 0.  0.
        4    1    3    3  502    0  0.56853417023E+03  0.25618142486E+03  0.63007569118E+02  0.62676278753E+03  0.12699999809E+01 0.  1.
       -4    1    3    3    0  502 -0.56853417023E+03 -0.25618142486E+03 -0.63671654533E+03  0.89121804131E+03  0.12699999809E+01 0. -1.
</event>
<event>
 5   0  0.1120053E-03  0.1405311E+04  0.7818609E-02  0.8949983E-01
        2   -1    0    0  501    0  0.00000000000E+00  0.00000000000E+00  0.16298345740E+04  0.16298345740E+04  0.25500000920E-02 0.  1.
       -2   -1    0    0    0  501  0.00000000000E+00  0.00000000000E+00 -0.30292922149E+03  0.30292922150E+03  0.25500000920E-02 0. -1.
    10030    2    1    2    0    0  0.00000000000E+00  0.00000000000E+00  0.13269053525E+04  0.19327637955E+04  0.14053106684E+04 0.  0.
        2    1    3    3  502    0  0.58953329149E+03  0.12630817210E+03  0.16714911735E+03  0.62565332538E+03  0.25500000920E-02 0. -1.
       -2    1    3    3    0  502 -0.58953329149E+03 -0.12630817210E+03  0.11597562351E+04  0.13071104701E+04  0.25500000920E-02 0.  1.
</event>
<event>
 5   0  0.1098949E-03  0.1433977E+04  0.7818609E-02  0.8929585E-01
        2   -1    0    0  501    0  0.00000000000E+00  0.00000000000E+00  0.13637786155E+04  0.13637786155E+04  0.25500000920E-02 0.  1.
       -2   -1    0    0    0  501  0.00000000000E+00  0.00000000000E+00 -0.37694718682E+03  0.37694718683E+03  0.25500000920E-02 0. -1.
    10030    2    1    2    0    0  0.00000000000E+00  0.00000000000E+00  0.98683142871E+03  0.17407258024E+04  0.14339770048E+04 0.  0.
        4    1    3    3  502    0  0.24232083562E+03  0.43986946273E+03  0.11146108441E+04  0.12225234061E+04  0.12699999809E+01 0.  1.
       -4    1    3    3    0  502 -0.24232083562E+03 -0.43986946273E+03 -0.12777941543E+03  0.51820239630E+03  0.12699999809E+01 0. -1.
</event>
<event>
 5   0  0.5875298E-04  0.1398276E+04  0.7818609E-02  0.8955067E-01
        1   -1    0    0  501    0  0.00000000000E+00  0.00000000000E+00  0.83764023798E+03  0.83764023800E+03  0.50400001928E-02 0.  1.
       -1   -1    0    0    0  501  0.00000000000E+00  0.00000000000E+00 -0.58353718560E+03  0.58353718563E+03  0.50400001928E-02 0. -1.
    10030    2    1    2    0    0  0.00000000000E+00  0.00000000000E+00  0.25410305238E+03  0.14211774236E+04  0.13982764062E+04 0.  0.
        1    1    3    3  502    0  0.26446830517E+03  0.64009296731E+03  0.22417672906E+03  0.72795446088E+03  0.50400001928E-02 0.  1.
       -1    1    3    3    0  502 -0.26446830517E+03 -0.64009296731E+03  0.29926323316E+02  0.69322296275E+03  0.50400001928E-02 0. -1.
</event>
<event>
 5   0  0.1120053E-03  0.1409544E+04  0.7818609E-02  0.8946939E-01
        2   -1    0    0  501    0  0.00000000000E+00  0.00000000000E+00  0.13958122764E+04  0.13958122764E+04  0.25500000920E-02 0.  1.
       -2   -1    0    0    0  501  0.00000000000E+00  0.00000000000E+00 -0.35585270232E+03  0.35585270233E+03  0.25500000920E-02 0. -1.
    10030    2    1    2    0    0  0.00000000000E+00  0.00000000000E+00  0.10399595740E+04  0.17516649787E+04  0.14095439979E+04 0.  0.
        2    1    3    3  502    0  0.50442830717E+03  0.47252432329E+03  0.34878934172E+03  0.77419710544E+03  0.25500000920E-02 0. -1.
       -2    1    3    3    0  502 -0.50442830717E+03 -0.47252432329E+03  0.69117023231E+03  0.97746787324E+03  0.25500000920E-02 0.  1.
</event>
<event>
 5   0  0.6153318E-04  0.1398819E+04  0.7818609E-02  0.8954674E-01
        1   -1    0    0  501    0  0.00000000000E+00  0.00000000000E+00  0.15571593644E+04  0.15571593645E+04  0.50400001928E-02 0. -1.
       -1   -1    0    0    0  501  0.00000000000E+00  0.00000000000E+00 -0.31414469240E+03  0.31414469244E+03  0.50400001928E-02 0.  1.
    10030    2    1    2    0    0  0.00000000000E+00  0.00000000000E+00  0.12430146720E+04  0.18713040569E+04  0.13988185724E+04 0.  0.
        5    1    3    3  502    0  0.62716137564E+02  0.47138933529E+03 -0.64563775982E+02  0.47992894318E+03  0.46999998093E+01 0.  1.
       -5    1    3    3    0  502 -0.62716137564E+02 -0.47138933529E+03  0.13075784480E+04  0.13913751137E+04  0.46999998093E+01 0. -1.
</event>
<event>
 5   0  0.6114266E-04  0.1391803E+04  0.7818609E-02  0.8959773E-01
        1   -1    0    0  501    0  0.00000000000E+00  0.00000000000E+00  0.51345642753E+03  0.51345642755E+03  0.50400001928E-02 0.  1.
       -1   -1    0    0    0  501  0.00000000000E+00  0.00000000000E+00 -0.94317444810E+03  0.94317444812E+03  0.50400001928E-02 0. -1.
    10030    2    1    2    0    0  0.00000000000E+00  0.00000000000E+00 -0.42971802057E+03  0.14566308757E+04  0.13918031221E+04 0.  0.
        3    1    3    3  502    0  0.54477112211E+03 -0.90819492578E+01  0.23822708258E+03  0.59465133512E+03  0.10100000352E+00 0.  1.
       -3    1    3    3    0  502 -0.54477112211E+03  0.90819492578E+01 -0.66794510316E+03  0.86197954055E+03  0.10100000352E+00 0. -1.
</event>
<event>
 5   0  0.1095119E-03  0.1427110E+04  0.7818609E-02  0.8934425E-01
       -2   -1    0    0    0  501  0.00000000000E+00  0.00000000000E+00  0.12297378051E+04  0.12297378051E+04  0.25500000920E-02 0. -1.
        2   -1    0    0  501    0  0.00000000000E+00  0.00000000000E+00 -0.41404031908E+03  0.41404031909E+03  0.25500000920E-02 0.  1.
    10030    2    1    2    0    0  0.00000000000E+00  0.00000000000E+00  0.81569748604E+03  0.16437781242E+04  0.14271104137E+04 0.  0.
        5    1    3    3  502    0 -0.36823865941E+03  0.27264406900E+03 -0.22219346015E+03  0.50924112401E+03  0.46999998093E+01 0.  1.
       -5    1    3    3    0  502  0.36823865941E+03 -0.27264406900E+03  0.10378909462E+04  0.11345370002E+04  0.46999998093E+01 0. -1.
</event>
<event>
 5   0  0.6153318E-04  0.1431100E+04  0.7818609E-02  0.8931609E-01
       -1   -1    0    0    0  501  0.00000000000E+00  0.00000000000E+00  0.61733619004E+03  0.61733619006E+03  0.50400001928E-02 0.  1.
        1   -1    0    0  501    0  0.00000000000E+00  0.00000000000E+00 -0.82938950548E+03  0.82938950550E+03  0.50400001928E-02 0. -1.
    10030    2    1    2    0    0  0.00000000000E+00  0.00000000000E+00 -0.21205331544E+03  0.14467256956E+04  0.14311004960E+04 0.  0.
        5    1    3    3  502    0  0.52507541730E+03  0.48212195588E+03 -0.16870598333E+03  0.73255004812E+03  0.46999998093E+01 0.  1.
       -5    1    3    3    0  502 -0.52507541730E+03 -0.48212195588E+03 -0.43347332115E+02  0.71417564744E+03  0.46999998093E+01 0. -1.
</event>
<event>
 5   0  0.1108819E-03  0.1419216E+04  0.7818609E-02  0.8940026E-01
       -2   -1    0    0    0  501  0.00000000000E+00  0.00000000000E+00  0.60452364992E+03  0.60452364992E+03  0.25500000920E-02 0. -1.
        2   -1    0    0  501    0  0.00000000000E+00  0.00000000000E+00 -0.83295870464E+03  0.83295870464E+03  0.25500000920E-02 0.  1.
    10030    2    1    2    0    0  0.00000000000E+00  0.00000000000E+00 -0.22843505472E+03  0.14374823546E+04  0.14192156092E+04 0.  0.
        3    1    3    3  502    0  0.20200386687E+03 -0.26019575524E+03  0.52239090798E+03  0.61757563441E+03  0.10100000352E+00 0. -1.
       -3    1    3    3    0  502 -0.20200386687E+03  0.26019575524E+03 -0.75082596270E+03  0.81990672015E+03  0.10100000352E+00 0.  1.
</event>
<event>
 5   0  0.5875298E-04  0.1408846E+04  0.7818609E-02  0.8947440E-01
        1   -1    0    0  501    0  0.00000000000E+00  0.00000000000E+00  0.85134087819E+03  0.85134087821E+03  0.50400001928E-02 0. -1.
       -1   -1    0    0    0  501  0.00000000000E+00  0.00000000000E+00 -0.58285901335E+03  0.58285901337E+03  0.50400001928E-02 0.  1.
    10030    2    1    2    0    0  0.00000000000E+00  0.00000000000E+00  0.26848186485E+03  0.14341998916E+04  0.14088459168E+04 0.  0.
        1    1    3    3  502    0 -0.68654015806E+03 -0.39091140246E+02 -0.21303429550E+02  0.68798207971E+03  0.50400001928E-02 0. -1.
       -1    1    3    3    0  502  0.68654015806E+03  0.39091140246E+02  0.28978529440E+03  0.74621781187E+03  0.50400001928E-02 0.  1.
</event>
<event>
 5   0  0.6153318E-04  0.1407326E+04  0.7818609E-02  0.8948533E-01
       -1   -1    0    0    0  501  0.00000000000E+00  0.00000000000E+00  0.27495220879E+03  0.27495220884E+03  0.50400001928E-02 0. -1.
        1   -1    0    0  501    0  0.00000000000E+00  0.00000000000E+00 -0.18008274658E+04  0.18008274658E+04  0.50400001928E-02 0.  1.
    10030    2    1    2    0    0  0.00000000000E+00  0.00000000000E+00 -0.15258752570E+04  0.20757796746E+04  0.14073258179E+04 0.  0.
        5    1    3    3  502    0 -0.48000874933E+02 -0.10476265545E+03  0.26091646489E+03  0.28526967876E+03  0.46999998093E+01 0. -1.
       -5    1    3    3    0  502  0.48000874933E+02  0.10476265545E+03 -0.17867917219E+04  0.17905099959E+04  0.46999998093E+01 0.  1.
</event>
<event>
 5   0  0.1108819E-03  0.1403996E+04  0.7818609E-02  0.8950931E-01
        2   -1    0    0  501    0  0.00000000000E+00  0.00000000000E+00  0.22685030997E+04  0.22685030997E+04  0.25500000920E-02 0.  1.
       -2   -1    0    0    0  501  0.00000000000E+00  0.00000000000E+00 -0.21723638090E+03  0.21723638091E+03  0.25500000920E-02 0. -1.
    10030    2    1    2    0    0  0.00000000000E+00  0.00000000000E+00  0.20512667188E+04  0.24857394806E+04  0.14039963012E+04 0.  0.
        3    1    3    3  502    0  0.30429293490E+03 -0.23099158297E+03  0.20683361919E+04  0.21033225893E+04  0.10100000352E+00 0.  1.
       -3    1    3    3    0  502 -0.30429293490E+03  0.23099158297E+03 -0.17069473142E+02  0.38241689130E+03  0.10100000352E+00 0. -1.
</event>
<event>
 5   0  0.1095119E-03  0.1413772E+04  0.7818609E-02  0.8943910E-01
        2   -1    0    0  501    0  0.00000000000E+00  0.00000000000E+00  0.79805743493E+03  0.79805743493E+03  0.25500000920E-02 0.  1.
       -2   -1    0    0    0  501  0.00000000000E+00  0.00000000000E+00 -0.62612999439E+03  0.62612999439E+03  0.25500000920E-02 0. -1.
    10030    2    1    2    0    0  0.00000000000E+00  0.00000000000E+00  0.17192744054E+03  0.14241874293E+04  0.14137718306E+04 0.  0.
        5    1    3    3  502    0 -0.25109158615E+03  0.65943160723E+03  0.43599430057E+02  0.70697951141E+03  0.46999998093E+01 0.  1.
       -5    1    3    3    0  502  0.25109158615E+03 -0.65943160723E+03  0.12832801048E+03  0.71720791792E+03  0.46999998093E+01 0. -1.
</event>
<event>
 5   0  0.1095119E-03  0.1407984E+04  0.7818609E-02  0.8948060E-01
       -2   -1    0    0    0  501  0.00000000000E+00  0.00000000000E+00  0.97184302059E+03  0.97184302059E+03  0.25500000920E-02 0.  1.
        2   -1    0    0  501    0  0.00000000000E+00  0.00000000000E+00 -0.50996357576E+03  0.50996357577E+03  0.25500000920E-02 0. -1.
    10030    2    1    2    0    0  0.00000000000E+00  0.00000000000E+00  0.46187944483E+03  0.14818065964E+04  0.14079837241E+04 0.  0.
        5    1    3    3  502    0 -0.55846565600E+03  0.13932609165E+03 -0.19563510973E+03  0.60793982836E+03  0.46999998093E+01 0. -1.
       -5    1    3    3    0  502  0.55846565600E+03 -0.13932609165E+03  0.65751455456E+03  0.87386676800E+03  0.46999998093E+01 0.  1.
</event>
<event>
 5   0  0.6194742E-04  0.1382327E+04  0.7818609E-02  0.8966711E-01
       -1   -1    0    0    0  501  0.00000000000E+00  0.00000000000E+00  0.42969958504E+03  0.42969958507E+03  0.50400001928E-02 0. -1.
        1   -1    0    0  501    0  0.00000000000E+00  0.00000000000E+00 -0.11117232572E+04  0.11117232572E+04  0.50400001928E-02 0.  1.
    10030    2    1    2    0    0  0.00000000000E+00  0.00000000000E+00 -0.68202367213E+03  0.15414228423E+04  0.13823270558E+04 0.  0.
        4    1    3    3  502    0 -0.19170842063E+03  0.30475923488E+03 -0.99889301216E+03  0.10617999682E+04  0.12699999809E+01 0.  1.
       -4    1    3    3    0  502  0.19170842063E+03 -0.30475923488E+03  0.31686934003E+03  0.47962287407E+03  0.12699999809E+01 0. -1.
</event>
<event>
 5   0  0.6153318E-04  0.1395333E+04  0.7818609E-02  0.8957203E-01
       -1   -1    0    0    0  501  0.00000000000E+00  0.00000000000E+00  0.66722552630E+03  0.66722552632E+03  0.50400001928E-02 0. -1.
        1   -1    0    0  501    0  0.00000000000E+00  0.00000000000E+00 -0.72949672484E+03  0.72949672486E+03  0.50400001928E-02 0.  1.
    10030    2    1    2    0    0  0.00000000000E+00  0.00000000000E+00 -0.62271198542E+02  0.13967222512E+04  0.13953334171E+04 0.  0.
        5    1    3    3  502    0 -0.35510725528E+03  0.26820600692E+03 -0.56896092431E+03  0.72233942734E+03  0.46999998093E+01 0.  1.
       -5    1    3    3    0  502  0.35510725528E+03 -0.26820600692E+03  0.50668972576E+03  0.67438282384E+03  0.46999998093E+01 0. -1.
</event>
<event>
 5   0  0.6194742E-04  0.1487274E+04  0.7818609E-02  0.8892960E-01
       -1   -1    0    0    0  501  0.00000000000E+00  0.00000000000E+00  0.17114442736E+04  0.17114442736E+04  0.50400001928E-02 0.  1.
        1   -1    0    0  501    0  0.00000000000E+00  0.00000000000E+00 -0.32311657086E+03  0.32311657090E+03  0.50400001928E-02 0. -1.
    10030    2    1    2    0    0  0.00000000000E+00  0.00000000000E+00  0.13883277028E+04  0.20345608445E+04  0.14872740231E+04 0.  0.
        4    1    3    3  502    0 -0.20213107721E+03  0.53134970753E+03  0.13499456212E+04  0.14647676530E+04  0.12699999809E+01 0.  1.
       -4    1    3    3    0  502  0.20213107721E+03 -0.53134970753E+03  0.38382081557E+02  0.56979319156E+03  0.12699999809E+01 0. -1.
</event>
<event>
 5   0  0.6114266E-04  0.1393518E+04  0.7818609E-02  0.8958524E-01
       -1   -1    0    0    0  501  0.00000000000E+00  0.00000000000E+00  0.34987227531E+03  0.34987227534E+03  0.50400001928E-02 0.  1.
        1   -1    0    0  501    0  0.00000000000E+00  0.00000000000E+00 -0.13875715432E+04  0.13875715433E+04  0.50400001928E-02 0. -1.
    10030    2    1    2    0    0  0.00000000000E+00  0.00000000000E+00 -0.10376992679E+04  0.17374438186E+04  0.13935175823E+04 0.  0.
        3    1    3    3  502    0 -0.59050035040E+03  0.68434565263E+02 -0.65693529394E+02  0.59807157059E+03  0.10100000352E+00 0.  1.
       -3    1    3    3    0  502  0.59050035040E+03 -0.68434565263E+02 -0.97200573854E+03  0.11393722480E+04  0.10100000352E+00 0. -1.
</event>
<event>
 5   0  0.6194742E-04  0.1391012E+04  0.7818609E-02  0.8960350E-01
       -1   -1    0    0    0  501  0.00000000000E+00  0.00000000000E+00  0.78129162791E+03  0.78129162793E+03  0.50400001928E-02 0.  1.
        1   -1    0    0  501    0  0.00000000000E+00  0.00000000000E+00 -0.61914002138E+03  0.61914002140E+03  0.50400001928E-02 0. -1.
    10030    2    1    2    0    0  0.00000000000E+00  0.00000000000E+00  0.16215160653E+03  0.14004316493E+04  0.13910124589E+04 0.  0.
        4    1    3    3  502    0 -0.32331484850E+02  0.69054651082E+03  0.15793074688E+03  0.70911461854E+03  0.12699999809E+01 0.  1.
       -4    1    3    3    0  502  0.32331484850E+02 -0.69054651082E+03  0.42208596556E+01  0.69131703080E+03  0.12699999809E+01 0. -1.
</event>
<event>
 5   0  0.1095119E-03  0.1386269E+04  0.7818609E-02  0.8963818E-01
       -2   -1    0    0    0  501  0.00000000000E+00  0.00000000000E+00  0.58527495243E+03  0.58527495243E+03  0.25500000920E-02 0. -1.
        2   -1    0    0  501    0  0.00000000000E+00  0.00000000000E+00 -0.82087103508E+03  0.82087103508E+03  0.25500000920E-02 0.  1.
    10030    2    1    2    0    0  0.00000000000E+00  0.00000000000E+00 -0.23559608265E+03  0.14061459875E+04  0.13862687416E+04 0.  0.
        5    1    3    3  502    0 -0.12922697348E+03 -0.40198159135E+03  0.43974172640E+03  0.60965866383E+03  0.46999998093E+01 0. -1.
       -5    1    3    3    0  502  0.12922697348E+03  0.40198159135E+03 -0.67533780905E+03  0.79648732368E+03  0.46999998093E+01 0.  1.
</event>
<event>
 5   0  0.1095119E-03  0.1409583E+04  0.7818609E-02  0.8946911E-01
        2   -1    0    0  501    0  0.00000000000E+00  0.00000000000E+00  0.16030344966E+04  0.16030344966E+04  0.25500000920E-02 0.  1.
       -2   -1    0    0    0  501  0.00000000000E+00  0.00000000000E+00 -0.30986910209E+03  0.30986910210E+03  0.25500000920E-02 0. -1.
    10030    2    1    2    0    0  0.00000000000E+00  0.00000000000E+00  0.12931653945E+04  0.19129035988E+04  0.14095827186E+04 0.  0.
        5    1    3    3  502    0  0.21950479820E+03 -0.18046150887E+03 -0.22865967044E+03  0.36476848480E+03  0.46999998093E+01 0. -1.
       -5    1    3    3    0  502 -0.21950479820E+03  0.18046150887E+03  0.15218250650E+04  0.15481351140E+04  0.46999998093E+01 0.  1.
</event>
<event>
 5   0  0.1095119E-03  0.1437046E+04  0.7818609E-02  0.8927431E-01
        2   -1    0    0  501    0  0.00000000000E+00  0.00000000000E+00  0.12960552679E+04  0.12960552679E+04  0.25500000920E-02 0. -1.
       -2   -1    0    0    0  501  0.00000000000E+00  0.00000000000E+00 -0.39834337394E+03  0.39834337395E+03  0.25500000920E-02 0.  1.
    10030    2    1    2    0    0  0.00000000000E+00  0.00000000000E+00  0.89771189394E+03  0.16943986418E+04  0.14370456196E+04 0.  0.
        5    1    3    3  502    0  0.90408154116E+02 -0.55809560186E+02 -0.38901186150E+03  0.40328731659E+03  0.46999998093E+01 0.  1.
       -5    1    3    3    0  502 -0.90408154116E+02  0.55809560186E+02  0.12867237554E+04  0.12911113252E+04  0.46999998093E+01 0. -1.
</event>
<event>
 5   0  0.5875298E-04  0.1392685E+04  0.7818609E-02  0.8959131E-01
       -1   -1    0    0    0  501  0.00000000000E+00  0.00000000000E+00  0.13707592157E+04  0.13707592157E+04  0.50400001928E-02 0.  1.
        1   -1    0    0  501    0  0.00000000000E+00  0.00000000000E+00 -0.35374019879E+03  0.35374019883E+03  0.50400001928E-02 0. -1.
    10030    2    1    2    0    0  0.00000000000E+00  0.00000000000E+00  0.10170190169E+04  0.17244994146E+04  0.13926846556E+04 0.  0.
        1    1    3    3  502    0 -0.33743437704E+03  0.31800007314E+03  0.11518146741E+04  0.12416372453E+04  0.50400001928E-02 0.  1.
       -1    1    3    3    0  502  0.33743437704E+03 -0.31800007314E+03 -0.13479565716E+03  0.48286216930E+03  0.50400001928E-02 0. -1.
</event>
<event>
 5   0  0.1175146E-03  0.1462933E+04  0.7818609E-02  0.8909483E-01
       -2   -1    0    0    0  501  0.00000000000E+00  0.00000000000E+00  0.45343260284E+03  0.45343260285E+03  0.25500000920E-02 0.  1.
        2   -1    0    0  501    0  0.00000000000E+00  0.00000000000E+00 -0.11799834732E+04  0.11799834732E+04  0.25500000920E-02 0. -1.
    10030    2    1    2    0    0  0.00000000000E+00  0.00000000000E+00 -0.72655087033E+03  0.16334160760E+04  0.14629326404E+04 0.  0.
        1    1    3    3  502    0 -0.14085409146E+03 -0.16191398388E+03  0.41749100295E+03  0.46941958931E+03  0.50400001928E-02 0.  1.
       -1    1    3    3    0  502  0.14085409146E+03  0.16191398388E+03 -0.11440418733E+04  0.11639964867E+04  0.50400001928E-02 0. -1.
</event>
<event>
 5   0  0.1175146E-03  0.1380849E+04  0.7818609E-02  0.8967799E-01
       -2   -1    0    0    0  501  0.00000000000E+00  0.00000000000E+00  0.32379669457E+03  0.32379669458E+03  0.25500000920E-02 0. -1.
        2   -1    0    0  501    0  0.00000000000E+00  0.00000000000E+00 -0.14721769290E+04  0.14721769290E+04  0.25500000920E-02 0.  1.
    10030    2    1    2    0    0  0.00000000000E+00  0.00000000000E+00 -0.11483802344E+04  0.17959736235E+04  0.13808490481E+04 0.  0.
        1    1    3    3  502    0  0.17420351865E+03 -0.35768143468E+03  0.15971924221E+03  0.42871098771E+03  0.50400001928E-02 0. -1.
       -1    1    3    3    0  502 -0.17420351865E+03  0.35768143468E+03 -0.13080994766E+04  0.13672626358E+04  0.50400001928E-02 0.  1.
</event>
<event>
 5   0  0.6114266E-04  0.1619646E+04  0.7818609E-02  0.8808569E-01
        1   -1    0    0  501    0  0.00000000000E+00  0.00000000000E+00  0.11581137536E+04  0.11581137536E+04  0.50400001928E-02 0. -1.
       -1   -1    0    0    0  501  0.00000000000E+00  0.00000000000E+00 -0.56627723678E+03  0.56627723680E+03  0.50400001928E-02 0.  1.
    10030    2    1    2    0    0  0.00000000000E+00  0.00000000000E+00  0.59183651678E+03  0.17243909904E+04  0.16196462037E+04 0.  0.
        3    1    3    3  502    0 -0.90990991637E+02 -0.71936670889E+03  0.67985834502E+03  0.99396941699E+03  0.10100000352E+00 0.  1.
       -3    1    3    3    0  502  0.90990991637E+02  0.71936670889E+03 -0.88021828239E+02  0.73042157338E+03  0.10100000352E+00 0. -1.
</event>
<event>
 5   0  0.1098949E-03  0.1375886E+04  0.7818609E-02  0.8971461E-01
        2   -1    0    0  501    0  0.00000000000E+00  0.00000000000E+00  0.83569703061E+03  0.83569703061E+03  0.25500000920E-02 0. -1.
       -2   -1    0    0    0  501  0.00000000000E+00  0.00000000000E+00 -0.56631254156E+03  0.56631254156E+03  0.25500000920E-02 0.  1.
    10030    2    1    2    0    0  0.00000000000E+00  0.00000000000E+00  0.26938448905E+03  0.14020095722E+04  0.13758862008E+04 0.  0.
        4    1    3    3  502    0  0.12730458533E+03  0.20000407451E+03  0.79275249035E+03  0.82744559406E+03  0.12699999809E+01 0. -1.
       -4    1    3    3    0  502 -0.12730458533E+03 -0.20000407451E+03 -0.52336800130E+03  0.57456397812E+03  0.12699999809E+01 0.  1.
</event>
<event>
 5   0  0.6097538E-04  0.1398860E+04  0.7818609E-02  0.8954644E-01
        1   -1    0    0  501    0  0.00000000000E+00  0.00000000000E+00  0.10239031239E+04  0.10239031239E+04  0.50400001928E-02 0. -1.
       -1   -1    0    0    0  501  0.00000000000E+00  0.00000000000E+00 -0.47778161625E+03  0.47778161627E+03  0.50400001928E-02 0.  1.
    10030    2    1    2    0    0  0.00000000000E+00  0.00000000000E+00  0.54612150762E+03  0.15016847402E+04  0.13988596633E+04 0.  0.
        2    1    3    3  502    0  0.50904821420E+03  0.10695687356E+03 -0.22889069806E+03  0.56829640932E+03  0.25500000920E-02 0.  1.
       -2    1    3    3    0  502 -0.50904821420E+03 -0.10695687356E+03  0.77501220567E+03  0.93338833083E+03  0.25500000920E-02 0. -1.
</event>
<event>
 5   0  0.1120053E-03  0.1404420E+04  0.7818609E-02  0.8950625E-01
       -2   -1    0    0    0  501  0.00000000000E+00  0.00000000000E+00  0.53277047916E+03  0.53277047916E+03  0.25500000920E-02 0. -1.
        2   -1    0    0  501    0  0.00000000000E+00  0.00000000000E+00 -0.92553729545E+03  0.92553729546E+03  0.25500000920E-02 0.  1.
    10030    2    1    2    0    0  0.00000000000E+00  0.00000000000E+00 -0.39276681630E+03  0.14583077746E+04  0.14044200915E+04 0.  0.
        2    1    3    3  502    0 -0.81371327790E+02 -0.61429863309E+03  0.14661655778E+03  0.63677352224E+03  0.25500000920E-02 0. -1.
       -2    1    3    3    0  502  0.81371327790E+02  0.61429863309E+03 -0.53938337407E+03  0.82153425238E+03  0.25500000920E-02 0.  1.
</event>
<event>
 5   0  0.5875298E-04  0.1402305E+04  0.7818609E-02  0.8952152E-01
        1   -1    0    0  501    0  0.00000000000E+00  0.00000000000E+00  0.20630808032E+04  0.20630808032E+04  0.50400001928E-02 0.  1.
       -1   -1    0    0    0  501  0.00000000000E+00  0.00000000000E+00 -0.23829164154E+03  0.23829164159E+03  0.50400001928E-02 0. -1.
    10030    2    1    2    0    0  0.00000000000E+00  0.00000000000E+00  0.18247891616E+04  0.23013724448E+04  0.14023051184E+04 0.  0.
        1    1    3    3  502    0 -0.40277235579E+03 -0.53537423239E+03  0.12517715697E+04  0.14197828010E+04  0.50400001928E-02 0.  1.
       -1    1    3    3    0  502  0.40277235579E+03  0.53537423239E+03  0.57301759195E+03  0.88158964378E+03  0.50400001928E-02 0. -1.
</event>
<event>
 5   0  0.1120053E-03  0.1418777E+04  0.7818609E-02  0.8940338E-01
       -2   -1    0    0    0  501  0.00000000000E+00  0.00000000000E+00  0.42473121998E+03  0.42473121999E+03  0.25500000920E-02 0. -1.
        2   -1    0    0  501    0  0.00000000000E+00  0.00000000000E+00 -0.11848247852E+04  0.11848247852E+04  0.25500000920E-02 0.  1.
    10030    2    1    2    0    0  0.00000000000E+00  0.00000000000E+00 -0.76009356525E+03  0.16095560052E+04  0.14187770459E+04 0.  0.
        2    1    3    3  502    0 -0.38867732676E+03 -0.54700770215E+03 -0.11900939328E+03  0.68150621879E+03  0.25500000920E-02 0. -1.
       -2    1    3    3    0  502  0.38867732676E+03  0.54700770215E+03 -0.64108417197E+03  0.92804978644E+03  0.25500000920E-02 0.  1.
</event>
<event>
 5   0  0.1095119E-03  0.1423225E+04  0.7818609E-02  0.8937177E-01
       -2   -1    0    0    0  501  0.00000000000E+00  0.00000000000E+00  0.11103879597E+04  0.11103879597E+04  0.25500000920E-02 0.  1.
        2   -1    0    0  501    0  0.00000000000E+00  0.00000000000E+00 -0.45604965207E+03  0.45604965208E+03  0.25500000920E-02 0. -1.
    10030    2    1    2    0    0  0.00000000000E+00  0.00000000000E+00  0.65433830762E+03  0.15664376118E+04  0.14232245679E+04 0.  0.
        5    1    3    3  502    0  0.17094578428E+03 -0.64384861603E+03  0.60255981817E+03  0.89825604701E+03  0.46999998093E+01 0.  1.
       -5    1    3    3    0  502 -0.17094578428E+03  0.64384861603E+03  0.51778489452E+02  0.66818156476E+03  0.46999998093E+01 0. -1.
</event>
<event>
 5   0  0.1095119E-03  0.1396232E+04  0.7818609E-02  0.8956551E-01
       -2   -1    0    0    0  501  0.00000000000E+00  0.00000000000E+00  0.43182590850E+03  0.43182590851E+03  0.25500000920E-02 0. -1.
        2   -1    0    0  501    0  0.00000000000E+00  0.00000000000E+00 -0.11286162442E+04  0.11286162442E+04  0.25500000920E-02 0.  1.
    10030    2    1    2    0    0  0.00000000000E+00  0.00000000000E+00 -0.69679033574E+03  0.15604421528E+04  0.13962316928E+04 0.  0.
        5    1    3    3  502    0  0.61978783206E+03  0.30034472214E+03 -0.47582099186E+03  0.83712102779E+03  0.46999998093E+01 0.  1.
       -5    1    3    3    0  502 -0.61978783206E+03 -0.30034472214E+03 -0.22096934388E+03  0.72332112496E+03  0.46999998093E+01 0. -1.
</event>
<event>
 5   0  0.4176125E-04  0.1269100E+04  0.7818609E-02  0.9054435E-01
        4   -1    0    0  501    0  0.00000000000E+00  0.00000000000E+00  0.13866745926E+04  0.13866751742E+04  0.12699999809E+01 0. -1.
       -4   -1    0    0    0  501  0.00000000000E+00  0.00000000000E+00 -0.29037150971E+03  0.29037428700E+03  0.12699999809E+01 0.  1.
    10030    2    1    2    0    0  0.00000000000E+00  0.00000000000E+00  0.10963030829E+04  0.16770494612E+04  0.12690998565E+04 0.  0.
        4    1    3    3  502    0 -0.34941117552E+03 -0.30854614268E+03 -0.20782246313E+02  0.46660733642E+03  0.12699999809E+01 0.  1.
       -4    1    3    3    0  502  0.34941117552E+03  0.30854614268E+03  0.11170853292E+04  0.12104421248E+04  0.12699999809E+01 0. -1.
</event>
<event>
 5   0  0.5875298E-04  0.1388542E+04  0.7818609E-02  0.8962154E-01
       -1   -1    0    0    0  501  0.00000000000E+00  0.00000000000E+00  0.18373569289E+04  0.18373569289E+04  0.50400001928E-02 0.  1.
        1   -1    0    0  501    0  0.00000000000E+00  0.00000000000E+00 -0.26234004089E+03  0.26234004094E+03  0.50400001928E-02 0. -1.
    10030    2    1    2    0    0  0.00000000000E+00  0.00000000000E+00  0.15750168880E+04  0.20996969698E+04  0.13885421015E+04 0.  0.
        1    1    3    3  502    0 -0.44119326035E+03  0.11354550907E+03  0.15797244251E+04  0.16441025926E+04  0.50400001928E-02 0.  1.
       -1    1    3    3    0  502  0.44119326035E+03 -0.11354550907E+03 -0.47075371655E+01  0.45559437721E+03  0.50400001928E-02 0. -1.
</event>
<event>
 5   0  0.6114266E-04  0.1402314E+04  0.7818609E-02  0.8952145E-01
        1   -1    0    0  501    0  0.00000000000E+00  0.00000000000E+00  0.95937008171E+03  0.95937008172E+03  0.50400001928E-02 0. -1.
       -1   -1    0    0    0  501  0.00000000000E+00  0.00000000000E+00 -0.51244159090E+03  0.51244159092E+03  0.50400001928E-02 0.  1.
    10030    2    1    2    0    0  0.00000000000E+00  0.00000000000E+00  0.44692849081E+03  0.14718116726E+04  0.14023139890E+04 0.  0.
        3    1    3    3  502    0  0.54723099718E+03 -0.19038438198E+03  0.63789153021E+03  0.86175030705E+03  0.10100000352E+00 0. -1.
       -3    1    3    3    0  502 -0.54723099718E+03  0.19038438198E+03 -0.19096303940E+03  0.61006136560E+03  0.10100000352E+00 0.  1.
</event>
<event>
 5   0  0.6114266E-04  0.1391843E+04  0.7818609E-02  0.8959744E-01
       -1   -1    0    0    0  501  0.00000000000E+00  0.00000000000E+00  0.58769185136E+03  0.58769185138E+03  0.50400001928E-02 0.  1.
        1   -1    0    0  501    0  0.00000000000E+00  0.00000000000E+00 -0.82408255150E+03  0.82408255152E+03  0.50400001928E-02 0. -1.
    10030    2    1    2    0    0  0.00000000000E+00  0.00000000000E+00 -0.23639070015E+03  0.14117744029E+04  0.13918428078E+04 0.  0.
        3    1    3    3  502    0  0.65469333481E+03 -0.21572414852E+03 -0.21520128210E+03  0.72213009418E+03  0.10100000352E+00 0. -1.
       -3    1    3    3    0  502 -0.65469333481E+03  0.21572414852E+03 -0.21189418047E+02  0.68964430872E+03  0.10100000352E+00 0.  1.
</event>
<event>
 5   0  0.1175146E-03  0.1387741E+04  0.7818609E-02  0.8962740E-01
        2   -1    0    0  501    0  0.00000000000E+00  0.00000000000E+00  0.70573428561E+03  0.70573428561E+03  0.25500000920E-02 0. -1.
       -2   -1    0    0    0  501  0.00000000000E+00  0.00000000000E+00 -0.68220607938E+03  0.68220607939E+03  0.25500000920E-02 0.  1.
    10030    2    1    2    0    0  0.00000000000E+00  0.00000000000E+00  0.23528206222E+02  0.13879403650E+04  0.13877409269E+04 0.  0.
        1    1    3    3  502    0 -0.44552695886E+03 -0.16784521635E+03 -0.49307564518E+03  0.68541219686E+03  0.50400001928E-02 0.  1.
       -1    1    3    3    0  502  0.44552695886E+03  0.16784521635E+03  0.51660385140E+03  0.70252816814E+03  0.50400001928E-02 0. -1.
</event>
<event>
 5   0  0.6153318E-04  0.1395055E+04  0.7818609E-02  0.8957406E-01
       -1   -1    0    0    0  501  0.00000000000E+00  0.00000000000E+00  0.36847053770E+03  0.36847053773E+03  0.50400001928E-02 0.  1.
        1   -1    0    0  501    0  0.00000000000E+00  0.00000000000E+00 -0.13204434667E+04  0.13204434667E+04  0.50400001928E-02 0. -1.
    10030    2    1    2    0    0  0.00000000000E+00  0.00000000000E+00 -0.95197292903E+03  0.16889140045E+04  0.13950548580E+04 0.  0.
        5    1    3    3  502    0 -0.19130078206E+03  0.16518758021E+03 -0.12630345960E+04  0.12880843942E+04  0.46999998093E+01 0. -1.
       -5    1    3    3    0  502  0.19130078206E+03 -0.16518758021E+03  0.31106166694E+03  0.40082961032E+03  0.46999998093E+01 0.  1.
</event>
<event>
 5   0  0.1175146E-03  0.1395145E+04  0.7818609E-02  0.8957340E-01
        2   -1    0    0  501    0  0.00000000000E+00  0.00000000000E+00  0.46046638721E+03  0.46046638722E+03  0.25500000920E-02 0.  1.
       -2   -1    0    0    0  501  0.00000000000E+00  0.00000000000E+00 -0.10567707681E+04  0.10567707681E+04  0.25500000920E-02 0. -1.
    10030    2    1    2    0    0  0.00000000000E+00  0.00000000000E+00 -0.59630438090E+03  0.15172371553E+04  0.13951450358E+04 0.  0.
        1    1    3    3  502    0  0.76518543924E+02 -0.11629024831E+03  0.44520742618E+03  0.46646346241E+03  0.50400001928E-02 0.  1.
       -1    1    3    3    0  502 -0.76518543924E+02  0.11629024831E+03 -0.10415118071E+04  0.10507736929E+04  0.50400001928E-02 0. -1.
</event>
<event>
 5   0  0.1108819E-03  0.1405430E+04  0.7818609E-02  0.8949897E-01
        2   -1    0    0  501    0  0.00000000000E+00  0.00000000000E+00  0.10187861078E+04  0.10187861078E+04  0.25500000920E-02 0.  1.
       -2   -1    0    0    0  501  0.00000000000E+00  0.00000000000E+00 -0.48470286189E+03  0.48470286190E+03  0.25500000920E-02 0. -1.
    10030    2    1    2    0    0  0.00000000000E+00  0.00000000000E+00  0.53408324586E+03  0.15034889697E+04  0.14054302432E+04 0.  0.
        3    1    3    3  502    0  0.11750520417E+03  0.51399954605E+03  0.76400253557E+03  0.92827953274E+03  0.10100000352E+00 0.  1.
       -3    1    3    3    0  502 -0.11750520417E+03 -0.51399954605E+03 -0.22991928971E+03  0.57520943692E+03  0.10100000352E+00 0. -1.
</event>
<event>
 5   0  0.1120053E-03  0.1393586E+04  0.7818609E-02  0.8958474E-01
        2   -1    0    0  501    0  0.00000000000E+00  0.00000000000E+00  0.17239370150E+04  0.17239370150E+04  0.25500000920E-02 0. -1.
       -2   -1    0    0    0  501  0.00000000000E+00  0.00000000000E+00 -0.28163484522E+03  0.28163484523E+03  0.25500000920E-02 0.  1.
    10030    2    1    2    0    0  0.00000000000E+00  0.00000000000E+00  0.14423021698E+04  0.20055718603E+04  0.13935863582E+04 0.  0.
        2    1    3    3  502    0  0.22863452160E+03 -0.97350777696E+02  0.16579995532E+04  0.16765182483E+04  0.25500000920E-02 0. -1.
       -2    1    3    3    0  502 -0.22863452160E+03  0.97350777696E+02 -0.21569738336E+03  0.32905361201E+03  0.25500000920E-02 0.  1.
</event>
<event>
 5   0  0.6097538E-04  0.1401065E+04  0.7818609E-02  0.8953048E-01
       -1   -1    0    0    0  501  0.00000000000E+00  0.00000000000E+00  0.55942652915E+03  0.55942652918E+03  0.50400001928E-02 0. -1.
        1   -1    0    0  501    0  0.00000000000E+00  0.00000000000E+00 -0.87723069446E+03  0.87723069447E+03  0.50400001928E-02 0.  1.
    10030    2    1    2    0    0  0.00000000000E+00  0.00000000000E+00 -0.31780416530E+03  0.14366572236E+04  0.14010654841E+04 0.  0.
        2    1    3    3  502    0 -0.45184194943E+03  0.46212240933E+03 -0.43600365920E+03  0.77962648705E+03  0.25500000920E-02 0.  1.
       -2    1    3    3    0  502  0.45184194943E+03 -0.46212240933E+03  0.11819949390E+03  0.65703073660E+03  0.25500000920E-02 0. -1.
</event>
<event>
 5   0  0.1095119E-03  0.1465135E+04  0.7818609E-02  0.8907974E-01
       -2   -1    0    0    0  501  0.00000000000E+00  0.00000000000E+00  0.65542768100E+03  0.65542768100E+03  0.25500000920E-02 0.  1.
        2   -1    0    0  501    0  0.00000000000E+00  0.00000000000E+00 -0.81878669237E+03  0.81878669237E+03  0.25500000920E-02 0. -1.
    10030    2    1    2    0    0  0.00000000000E+00  0.00000000000E+00 -0.16335901137E+03  0.14742143734E+04  0.14651354381E+04 0.  0.
        5    1    3    3  502    0 -0.65089769607E+03  0.86773655538E+02  0.24504154164E+03  0.70090293563E+03  0.46999998093E+01 0. -1.
       -5    1    3    3    0  502  0.65089769607E+03 -0.86773655538E+02 -0.40840055301E+03  0.77331143774E+03  0.46999998093E+01 0.  1.
</event>
<event>
 5   0  0.4176125E-04  0.1429409E+04  0.7818609E-02  0.8932802E-01
        3   -1    0    0  501    0  0.00000000000E+00  0.00000000000E+00  0.68671703121E+03  0.68671703864E+03  0.10100000352E+00 0. -1.
       -3   -1    0    0    0  501  0.00000000000E+00  0.00000000000E+00 -0.74383221329E+03  0.74383222015E+03  0.10100000352E+00 0.  1.
    10030    2    1    2    0    0  0.00000000000E+00  0.00000000000E+00 -0.57115182077E+02  0.14305492588E+04  0.14294086322E+04 0.  0.
        1    1    3    3  502    0  0.15835585468E+03 -0.33760652132E+03 -0.63875513581E+03  0.73963698089E+03  0.50400001928E-02 0.  1.
       -1    1    3    3    0  502 -0.15835585468E+03  0.33760652132E+03  0.58163995373E+03  0.69091227790E+03  0.50400001928E-02 0. -1.
</event>
<event>
 5   0  0.1095119E-03  0.1410668E+04  0.7818609E-02  0.8946132E-01
       -2   -1    0    0    0  501  0.00000000000E+00  0.00000000000E+00  0.43145736441E+03  0.43145736442E+03  0.25500000920E-02 0. -1.
        2   -1    0    0  501    0  0.00000000000E+00  0.00000000000E+00 -0.11530600559E+04  0.11530600559E+04  0.25500000920E-02 0.  1.
    10030    2    1    2    0    0  0.00000000000E+00  0.00000000000E+00 -0.72160269148E+03  0.15845174203E+04  0.14106682852E+04 0.  0.
        5    1    3    3  502    0 -0.26848034523E+03 -0.20299104589E+03 -0.10570165543E+04  0.11093210295E+04  0.46999998093E+01 0.  1.
       -5    1    3    3    0  502  0.26848034523E+03  0.20299104589E+03  0.33541386279E+03  0.47519639081E+03  0.46999998093E+01 0. -1.
</event>
<event>
 5   0  0.1175146E-03  0.1396090E+04  0.7818609E-02  0.8956654E-01
        2   -1    0    0  501    0  0.00000000000E+00  0.00000000000E+00  0.50433356032E+03  0.50433356033E+03  0.25500000920E-02 0.  1.
       -2   -1    0    0    0  501  0.00000000000E+00  0.00000000000E+00 -0.96616001620E+03  0.96616001620E+03  0.25500000920E-02 0. -1.
    10030    2    1    2    0    0  0.00000000000E+00  0.00000000000E+00 -0.46182645588E+03  0.14704935765E+04  0.13960901415E+04 0.  0.
        1    1    3    3  502    0 -0.26743771366E+03  0.37338480803E+03  0.32277073114E+03  0.56135558291E+03  0.50400001928E-02 0.  1.
       -1    1    3    3    0  502  0.26743771366E+03 -0.37338480803E+03 -0.78459718702E+03  0.90913799363E+03  0.50400001928E-02 0. -1.
</event>
<event>
 5   0  0.1098949E-03  0.1399995E+04  0.7818609E-02  0.8953822E-01
       -2   -1    0    0    0  501  0.00000000000E+00  0.00000000000E+00  0.97752306858E+03  0.97752306859E+03  0.25500000920E-02 0. -1.
        2   -1    0    0  501    0  0.00000000000E+00  0.00000000000E+00 -0.50126309316E+03  0.50126309317E+03  0.25500000920E-02 0.  1.
    10030    2    1    2    0    0  0.00000000000E+00  0.00000000000E+00  0.47625997542E+03  0.14787861618E+04  0.13999946243E+04 0.  0.
        4    1    3    3  502    0  0.48828921097E+03 -0.46063369180E+02  0.76568488863E+03  0.90929816293E+03  0.12699999809E+01 0. -1.
       -4    1    3    3    0  502 -0.48828921097E+03  0.46063369180E+02 -0.28942491321E+03  0.56948799883E+03  0.12699999809E+01 0.  1.
</event>
<event>
 5   0  0.6097538E-04  0.1397175E+04  0.7818609E-02  0.8955866E-01
        1   -1    0    0  501    0  0.00000000000E+00  0.00000000000E+00  0.15470048301E+04  0.15470048301E+04  0.50400001928E-02 0. -1.
       -1   -1    0    0    0  501  0.00000000000E+00  0.00000000000E+00 -0.31546390881E+03  0.31546390885E+03  0.50400001928E-02 0.  1.
    10030    2    1    2    0    0  0.00000000000E+00  0.00000000000E+00  0.12315409213E+04  0.18624687389E+04  0.13971745642E+04 0.  0.
        2    1    3    3  502    0 -0.70757725918E+02 -0.69489593790E+03  0.60015810142E+03  0.92091083553E+03  0.25500000920E-02 0.  1.
       -2    1    3    3    0  502  0.70757725918E+02  0.69489593790E+03  0.63138281984E+03  0.94155790341E+03  0.25500000920E-02 0. -1.
</event>
<event>
 5   0  0.6097538E-04  0.1405849E+04  0.7818609E-02  0.8949596E-01
        1   -1    0    0  501    0  0.00000000000E+00  0.00000000000E+00  0.80980258208E+03  0.80980258210E+03  0.50400001928E-02 0. -1.
       -1   -1    0    0    0  501  0.00000000000E+00  0.00000000000E+00 -0.61015193330E+03  0.61015193332E+03  0.50400001928E-02 0.  1.
    10030    2    1    2    0    0  0.00000000000E+00  0.00000000000E+00  0.19965064878E+03  0.14199545154E+04  0.14058486563E+04 0.  0.
        2    1    3    3  502    0 -0.18461776292E+03  0.53261920319E+03 -0.32431147798E+03  0.65034211669E+03  0.25500000920E-02 0.  1.
       -2    1    3    3    0  502  0.18461776292E+03 -0.53261920319E+03  0.52396212676E+03  0.76961239873E+03  0.25500000920E-02 0. -1.
</event>
<event>
 5   0  0.1095119E-03  0.1287784E+04  0.7818609E-02  0.9039309E-01
       -2   -1    0    0    0  501  0.00000000000E+00  0.00000000000E+00  0.56891065894E+03  0.56891065895E+03  0.25500000920E-02 0. -1.
        2   -1    0    0  501    0  0.00000000000E+00  0.00000000000E+00 -0.72875625555E+03  0.72875625555E+03  0.25500000920E-02 0.  1.
    10030    2    1    2    0    0  0.00000000000E+00  0.00000000000E+00 -0.15984559660E+03  0.12976669145E+04  0.12877844564E+04 0.  0.
        5    1    3    3  502    0 -0.13632115906E+03  0.58967731798E+03  0.14147286576E+03  0.62156211234E+03  0.46999998093E+01 0. -1.
       -5    1    3    3    0  502  0.13632115906E+03 -0.58967731798E+03 -0.30131846236E+03  0.67610480216E+03  0.46999998093E+01 0.  1.
</event>
<event>
 5   0  0.1108819E-03  0.1326789E+04  0.7818609E-02  0.9008587E-01
       -2   -1    0    0    0  501  0.00000000000E+00  0.00000000000E+00  0.75707731669E+03  0.75707731669E+03  0.25500000920E-02 0.  1.
        2   -1    0    0  501    0  0.00000000000E+00  0.00000000000E+00 -0.58130439072E+03  0.58130439072E+03  0.25500000920E-02 0. -1.
    10030    2    1    2    0    0  0.00000000000E+00  0.00000000000E+00  0.17577292597E+03  0.13383817074E+04  0.13267891593E+04 0.  0.
        3    1    3    3  502    0  0.24614279214E+03 -0.34852715264E+03 -0.42452319782E+03  0.60189484624E+03  0.10100000352E+00 0. -1.
       -3    1    3    3    0  502 -0.24614279214E+03  0.34852715264E+03  0.60029612379E+03  0.73648686117E+03  0.10100000352E+00 0.  1.
</event>
<event>
 5   0  0.6097538E-04  0.1400210E+04  0.7818609E-02  0.8953667E-01
       -1   -1    0    0    0  501  0.00000000000E+00  0.00000000000E+00  0.97838831545E+03  0.97838831547E+03  0.50400001928E-02 0. -1.
        1   -1    0    0  501    0  0.00000000000E+00  0.00000000000E+00 -0.50097390623E+03  0.50097390625E+03  0.50400001928E-02 0.  1.
    10030    2    1    2    0    0  0.00000000000E+00  0.00000000000E+00  0.47741440923E+03  0.14793622217E+04  0.14002100074E+04 0.  0.
        2    1    3    3  502    0 -0.17025469189E+03 -0.14307159233E+03  0.94007912698E+03  0.96602531314E+03  0.25500000920E-02 0. -1.
       -2    1    3    3    0  502  0.17025469189E+03  0.14307159233E+03 -0.46266471776E+03  0.51333690858E+03  0.25500000920E-02 0.  1.
</event>
<event>
 5   0  0.1098949E-03  0.1400723E+04  0.7818609E-02  0.8953295E-01
        2   -1    0    0  501    0  0.00000000000E+00  0.00000000000E+00  0.48854395120E+03  0.48854395121E+03  0.25500000920E-02 0. -1.
       -2   -1    0    0    0  501  0.00000000000E+00  0.00000000000E+00 -0.10040170547E+04  0.10040170547E+04  0.25500000920E-02 0.  1.
    10030    2    1    2    0    0  0.00000000000E+00  0.00000000000E+00 -0.51547310350E+03  0.14925610059E+04  0.14007233260E+04 0.  0.
        4    1    3    3  502    0  0.36482047630E+02 -0.68102174233E+03 -0.87969381526E+02  0.68764945889E+03  0.12699999809E+01 0.  1.
       -4    1    3    3    0  502 -0.36482047630E+02  0.68102174233E+03 -0.42750372198E+03  0.80491154703E+03  0.12699999809E+01 0. -1.
</event>
<event>
 5   0  0.6194742E-04  0.1499923E+04  0.7818609E-02  0.8884504E-01
       -1   -1    0    0    0  501  0.00000000000E+00  0.00000000000E+00  0.27896109993E+03  0.27896109997E+03  0.50400001928E-02 0. -1.
        1   -1    0    0  501    0  0.00000000000E+00  0.00000000000E+00 -0.20162033915E+04  0.20162033915E+04  0.50400001928E-02 0.  1.
    10030    2    1    2    0    0  0.00000000000E+00  0.00000000000E+00 -0.17372422916E+04  0.22951644915E+04  0.14999230858E+04 0.  0.
        4    1    3    3  502    0  0.61983671795E+03  0.24689611248E+03 -0.13926641244E+04  0.15442377484E+04  0.12699999809E+01 0.  1.
       -4    1    3    3    0  502 -0.61983671795E+03 -0.24689611248E+03 -0.34457816717E+03  0.75092674308E+03  0.12699999809E+01 0. -1.
</event>
<event>
 5   0  0.6114266E-04  0.1405348E+04  0.7818609E-02  0.8949957E-01
       -1   -1    0    0    0  501  0.00000000000E+00  0.00000000000E+00  0.60546333685E+03  0.60546333687E+03  0.50400001928E-02 0. -1.
        1   -1    0    0  501    0  0.00000000000E+00  0.00000000000E+00 -0.81549189504E+03  0.81549189506E+03  0.50400001928E-02 0.  1.
    10030    2    1    2    0    0  0.00000000000E+00  0.00000000000E+00 -0.21002855819E+03  0.14209552319E+04  0.14053475641E+04 0.  0.
        3    1    3    3  502    0 -0.37425353589E+03  0.14372776906E+03 -0.68850829622E+03  0.79672270263E+03  0.10100000352E+00 0.  1.
       -3    1    3    3    0  502  0.37425353589E+03 -0.14372776906E+03  0.47847973803E+03  0.62423252930E+03  0.10100000352E+00 0. -1.
</event>
<event>
 5   0  0.1108819E-03  0.1396232E+04  0.7818609E-02  0.8956550E-01
        2   -1    0    0  501    0  0.00000000000E+00  0.00000000000E+00  0.95272556773E+03  0.95272556773E+03  0.25500000920E-02 0.  1.
       -2   -1    0    0    0  501  0.00000000000E+00  0.00000000000E+00 -0.51154943284E+03  0.51154943285E+03  0.25500000920E-02 0. -1.
    10030    2    1    2    0    0  0.00000000000E+00  0.00000000000E+00  0.44117613488E+03  0.14642750006E+04  0.13962323930E+04 0.  0.
        3    1    3    3  502    0  0.16236663014E+03  0.62786603879E+03  0.49161510874E+03  0.81379611119E+03  0.10100000352E+00 0.  1.
       -3    1    3    3    0  502 -0.16236663014E+03 -0.62786603879E+03 -0.50438973860E+02  0.65047888938E+03  0.10100000352E+00 0. -1.
</event>
<event>
 5   0  0.6097538E-04  0.1392820E+04  0.7818609E-02  0.8959033E-01
        1   -1    0    0  501    0  0.00000000000E+00  0.00000000000E+00  0.13776581140E+04  0.13776581140E+04  0.50400001928E-02 0.  1.
       -1   -1    0    0    0  501  0.00000000000E+00  0.00000000000E+00 -0.35203700784E+03  0.35203700788E+03  0.50400001928E-02 0. -1.
    10030    2    1    2    0    0  0.00000000000E+00  0.00000000000E+00  0.10256211062E+04  0.17296951219E+04  0.13928196442E+04 0.  0.
        2    1    3    3  502    0 -0.36202199214E+03  0.12563289859E+03  0.12349564320E+04  0.12930432850E+04  0.25500000920E-02 0.  1.
       -2    1    3    3    0  502  0.36202199214E+03 -0.12563289859E+03 -0.20933532583E+03  0.43665183688E+03  0.25500000920E-02 0. -1.
</event>
<event>
 5   0  0.1175146E-03  0.1406340E+04  0.7818609E-02  0.8949242E-01
        2   -1    0    0  501    0  0.00000000000E+00  0.00000000000E+00  0.63197321776E+03  0.63197321776E+03  0.25500000920E-02 0. -1.
       -2   -1    0    0    0  501  0.00000000000E+00  0.00000000000E+00 -0.78238795454E+03  0.78238795454E+03  0.25500000920E-02 0.  1.
    10030    2    1    2    0    0  0.00000000000E+00  0.00000000000E+00 -0.15041473678E+03  0.14143611723E+04  0.14063402621E+04 0.  0.
        1    1    3    3  502    0  0.25783770450E+03 -0.61888743067E+03  0.13800720484E+03  0.68450560430E+03  0.50400001928E-02 0.  1.
       -1    1    3    3    0  502 -0.25783770450E+03  0.61888743067E+03 -0.28842194162E+03  0.72985556800E+03  0.50400001928E-02 0. -1.
</event>
<event>
 5   0  0.1108819E-03  0.1403123E+04  0.7818609E-02  0.8951561E-01
       -2   -1    0    0    0  501  0.00000000000E+00  0.00000000000E+00  0.51065173522E+03  0.51065173522E+03  0.25500000920E-02 0.  1.
        2   -1    0    0  501    0  0.00000000000E+00  0.00000000000E+00 -0.96384421855E+03  0.96384421856E+03  0.25500000920E-02 0. -1.
    10030    2    1    2    0    0  0.00000000000E+00  0.00000000000E+00 -0.45319248334E+03  0.14744959538E+04  0.14031232629E+04 0.  0.
        3    1    3    3  502    0 -0.28830104076E+03 -0.33826190957E+03 -0.79702453531E+03  0.91257149290E+03  0.10100000352E+00 0. -1.
       -3    1    3    3    0  502  0.28830104076E+03  0.33826190957E+03  0.34383205197E+03  0.56192446088E+03  0.10100000352E+00 0.  1.
</event>
<event>
 5   0  0.5875298E-04  0.1404462E+04  0.7818609E-02  0.8950595E-01
        1   -1    0    0  501    0  0.00000000000E+00  0.00000000000E+00  0.13008672136E+04  0.13008672136E+04  0.50400001928E-02 0. -1.
       -1   -1    0    0    0  501  0.00000000000E+00  0.00000000000E+00 -0.37907678118E+03  0.37907678121E+03  0.50400001928E-02 0.  1.
    10030    2    1    2    0    0  0.00000000000E+00  0.00000000000E+00  0.92179043240E+03  0.16799439948E+04  0.14044622545E+04 0.  0.
        1    1    3    3  502    0 -0.31438399836E+03 -0.26527556584E+03  0.11416703780E+04  0.12135154207E+04  0.50400001928E-02 0. -1.
       -1    1    3    3    0  502  0.31438399836E+03  0.26527556584E+03 -0.21987994558E+03  0.46642857411E+03  0.50400001928E-02 0.  1.
</event>
<event>
 5   0  0.5875298E-04  0.1405958E+04  0.7818609E-02  0.8949517E-01
       -1   -1    0    0    0  501  0.00000000000E+00  0.00000000000E+00  0.14976899350E+04  0.14976899350E+04  0.50400001928E-02 0.  1.
        1   -1    0    0  501    0  0.00000000000E+00  0.00000000000E+00 -0.32996131913E+03  0.32996131917E+03  0.50400001928E-02 0. -1.
    10030    2    1    2    0    0  0.00000000000E+00  0.00000000000E+00  0.11677286159E+04  0.18276512542E+04  0.14059583872E+04 0.  0.
        1    1    3    3  502    0  0.53454989921E+03 -0.25490069271E+02  0.11764203488E+04  0.12924233731E+04  0.50400001928E-02 0.  1.
       -1    1    3    3    0  502 -0.53454989921E+03  0.25490069271E+02 -0.86917329427E+01  0.53522788102E+03  0.50400001928E-02 0. -1.
</event>
<event>
 5   0  0.1175146E-03  0.1404804E+04  0.7818609E-02  0.8950349E-01
        2   -1    0    0  501    0  0.00000000000E+00  0.00000000000E+00  0.29587694014E+04  0.29587694014E+04  0.25500000920E-02 0.  1.
       -2   -1    0    0    0  501  0.00000000000E+00  0.00000000000E+00 -0.16674787228E+03  0.16674787230E+03  0.25500000920E-02 0. -1.
    10030    2    1    2    0    0  0.00000000000E+00  0.00000000000E+00  0.27920215291E+04  0.31255172737E+04  0.14048039042E+04 0.  0.
        1    1    3    3  502    0  0.12264633414E+03  0.66220584449E+02 -0.13567062605E+03  0.19450914601E+03  0.50400001928E-02 0. -1.
       -1    1    3    3    0  502 -0.12264633414E+03 -0.66220584449E+02  0.29276921552E+04  0.29310081277E+04  0.50400001928E-02 0.  1.
</event>
<event>
 5   0  0.6097538E-04  0.1396600E+04  0.7818609E-02  0.8956284E-01
       -1   -1    0    0    0  501  0.00000000000E+00  0.00000000000E+00  0.78155432421E+03  0.78155432423E+03  0.50400001928E-02 0. -1.
        1   -1    0    0  501    0  0.00000000000E+00  0.00000000000E+00 -0.62391383538E+03  0.62391383540E+03  0.50400001928E-02 0.  1.
    10030    2    1    2    0    0  0.00000000000E+00  0.00000000000E+00  0.15764048884E+03  0.14054681596E+04  0.13965995217E+04 0.  0.
        2    1    3    3  502    0  0.55371721397E+02 -0.14532219669E+03  0.76390599912E+03  0.77957484815E+03  0.25500000920E-02 0. -1.
       -2    1    3    3    0  502 -0.55371721397E+02  0.14532219669E+03 -0.60626551028E+03  0.62589331147E+03  0.25500000920E-02 0.  1.
</event>
<event>
 5   0  0.5875298E-04  0.1395191E+04  0.7818609E-02  0.8957307E-01
       -1   -1    0    0    0  501  0.00000000000E+00  0.00000000000E+00  0.47983044232E+03  0.47983044234E+03  0.50400001928E-02 0. -1.
        1   -1    0    0  501    0  0.00000000000E+00  0.00000000000E+00 -0.10141903755E+04  0.10141903755E+04  0.50400001928E-02 0.  1.
    10030    2    1    2    0    0  0.00000000000E+00  0.00000000000E+00 -0.53435993317E+03  0.14940208178E+04  0.13951909066E+04 0.  0.
        1    1    3    3  502    0 -0.41896274339E+03 -0.52401854911E+03 -0.47180270151E+03  0.82019693327E+03  0.50400001928E-02 0.  1.
       -1    1    3    3    0  502  0.41896274339E+03  0.52401854911E+03 -0.62557231659E+02  0.67382388457E+03  0.50400001928E-02 0. -1.
</event>
<event>
 5   0  0.1108819E-03  0.1412997E+04  0.7818609E-02  0.8944464E-01
       -2   -1    0    0    0  501  0.00000000000E+00  0.00000000000E+00  0.10351376687E+04  0.10351376687E+04  0.25500000920E-02 0.  1.
        2   -1    0    0  501    0  0.00000000000E+00  0.00000000000E+00 -0.48219655989E+03  0.48219655989E+03  0.25500000920E-02 0. -1.
    10030    2    1    2    0    0  0.00000000000E+00  0.00000000000E+00  0.55294110878E+03  0.15173342286E+04  0.14129965645E+04 0.  0.
        3    1    3    3  502    0 -0.52900797929E+03  0.47588938834E+02 -0.22378934933E+03  0.57636432256E+03  0.10100000352E+00 0. -1.
       -3    1    3    3    0  502  0.52900797929E+03 -0.47588938834E+02  0.77673045811E+03  0.94096990600E+03  0.10100000352E+00 0.  1.
</event>
<event>
 5   0  0.6194742E-04  0.1406019E+04  0.7818609E-02  0.8949474E-01
       -1   -1    0    0    0  501  0.00000000000E+00  0.00000000000E+00  0.32765452900E+03  0.32765452904E+03  0.50400001928E-02 0. -1.
        1   -1    0    0  501    0  0.00000000000E+00  0.00000000000E+00 -0.15083632348E+04  0.15083632348E+04  0.50400001928E-02 0.  1.
    10030    2    1    2    0    0  0.00000000000E+00  0.00000000000E+00 -0.11807087058E+04  0.18360177638E+04  0.14060185565E+04 0.  0.
        4    1    3    3  502    0 -0.19974906484E+03 -0.64864026041E+03 -0.35104010086E+03  0.76411035960E+03  0.12699999809E+01 0.  1.
       -4    1    3    3    0  502  0.19974906484E+03  0.64864026041E+03 -0.82966860490E+03  0.10719074042E+04  0.12699999809E+01 0. -1.
</event>
<event>
 5   0  0.5875298E-04  0.1421603E+04  0.7818609E-02  0.8938328E-01
       -1   -1    0    0    0  501  0.00000000000E+00  0.00000000000E+00  0.10587588626E+04  0.10587588626E+04  0.50400001928E-02 0.  1.
        1   -1    0    0  501    0  0.00000000000E+00  0.00000000000E+00 -0.47719901268E+03  0.47719901271E+03  0.50400001928E-02 0. -1.
    10030    2    1    2    0    0  0.00000000000E+00  0.00000000000E+00  0.58155984987E+03  0.15359578753E+04  0.14216028755E+04 0.  0.
        1    1    3    3  502    0  0.77431460471E+02  0.63238005292E+03  0.63131343715E+03  0.89691516787E+03  0.50400001928E-02 0.  1.
       -1    1    3    3    0  502 -0.77431460471E+02 -0.63238005292E+03 -0.49753587286E+02  0.63904270740E+03  0.50400001928E-02 0. -1.
</event>
<event>
 5   0  0.5875298E-04  0.1384491E+04  0.7818609E-02  0.8965122E-01
       -1   -1    0    0    0  501  0.00000000000E+00  0.00000000000E+00  0.32470691460E+03  0.32470691464E+03  0.50400001928E-02 0. -1.
        1   -1    0    0  501    0  0.00000000000E+00  0.00000000000E+00 -0.14758039974E+04  0.14758039974E+04  0.50400001928E-02 0.  1.
    10030    2    1    2    0    0  0.00000000000E+00  0.00000000000E+00 -0.11510970828E+04  0.18005109121E+04  0.13844908993E+04 0.  0.
        1    1    3    3  502    0 -0.18840678696E+03 -0.15794997621E+03 -0.14171131134E+04  0.14382819225E+04  0.50400001928E-02 0.  1.
       -1    1    3    3    0  502  0.18840678696E+03  0.15794997621E+03  0.26601603056E+03  0.36222898959E+03  0.50400001928E-02 0. -1.
</event>
<event>
 5   0  0.1120053E-03  0.1516988E+04  0.7818609E-02  0.8873234E-01
       -2   -1    0    0    0  501  0.00000000000E+00  0.00000000000E+00  0.46759237205E+03  0.46759237205E+03  0.25500000920E-02 0. -1.
        2   -1    0    0  501    0  0.00000000000E+00  0.00000000000E+00 -0.12303733245E+04  0.12303733245E+04  0.25500000920E-02 0.  1.
    10030    2    1    2    0    0  0.00000000000E+00  0.00000000000E+00 -0.76278095244E+03  0.16979656965E+04  0.15169880439E+04 0.  0.
        2    1    3    3  502    0  0.50315153480E+02 -0.73886239461E+03 -0.19793464722E+03  0.76656857320E+03  0.25500000920E-02 0.  1.
       -2    1    3    3    0  502 -0.50315153480E+02  0.73886239461E+03 -0.56484630522E+03  0.93139712334E+03  0.25500000920E-02 0. -1.
</event>
<event>
 5   0  0.1098949E-03  0.1401403E+04  0.7818609E-02  0.8952804E-01
        2   -1    0    0  501    0  0.00000000000E+00  0.00000000000E+00  0.12466264494E+04  0.12466264494E+04  0.25500000920E-02 0.  1.
       -2   -1    0    0    0  501  0.00000000000E+00  0.00000000000E+00 -0.39384888776E+03  0.39384888777E+03  0.25500000920E-02 0. -1.
    10030    2    1    2    0    0  0.00000000000E+00  0.00000000000E+00  0.85277756164E+03  0.16404753372E+04  0.14014027837E+04 0.  0.
        4    1    3    3  502    0 -0.50900516714E+03  0.33122402050E+03  0.83557034647E+03  0.10329448333E+04  0.12699999809E+01 0. -1.
       -4    1    3    3    0  502  0.50900516714E+03 -0.33122402050E+03  0.17207215170E+02  0.60753050383E+03  0.12699999809E+01 0.  1.
</event>
<event>
 5   0  0.1108819E-03  0.1397778E+04  0.7818609E-02  0.8955428E-01
       -2   -1    0    0    0  501  0.00000000000E+00  0.00000000000E+00  0.25471103607E+03  0.25471103608E+03  0.25500000920E-02 0. -1.
        2   -1    0    0  501    0  0.00000000000E+00  0.00000000000E+00 -0.19176477565E+04  0.19176477565E+04  0.25500000920E-02 0.  1.
    10030    2    1    2    0    0  0.00000000000E+00  0.00000000000E+00 -0.16629367205E+04  0.21723587926E+04  0.13977783042E+04 0.  0.
        3    1    3    3  502    0  0.73426503575E+02  0.65253140248E+03 -0.45958315744E+03  0.80150194726E+03  0.10100000352E+00 0.  1.
       -3    1    3    3    0  502 -0.73426503575E+02 -0.65253140248E+03 -0.12033535630E+04  0.13708568454E+04  0.10100000352E+00 0. -1.
</event>
<event>
 5   0  0.6114266E-04  0.1393436E+04  0.7818609E-02  0.8958584E-01
       -1   -1    0    0    0  501  0.00000000000E+00  0.00000000000E+00  0.52450149852E+03  0.52450149854E+03  0.50400001928E-02 0.  1.
        1   -1    0    0  501    0  0.00000000000E+00  0.00000000000E+00 -0.92548049672E+03  0.92548049673E+03  0.50400001928E-02 0. -1.
    10030    2    1    2    0    0  0.00000000000E+00  0.00000000000E+00 -0.40097899820E+03  0.14499819953E+04  0.13934359080E+04 0.  0.
        3    1    3    3  502    0 -0.28855460113E+03  0.62447042194E+03 -0.85606266288E+02  0.69322111101E+03  0.10100000352E+00 0.  1.
       -3    1    3    3    0  502  0.28855460113E+03 -0.62447042194E+03 -0.31537273192E+03  0.75676088427E+03  0.10100000352E+00 0. -1.
</event>
<event>
 5   0  0.1095119E-03  0.1397746E+04  0.7818609E-02  0.8955452E-01
        2   -1    0    0  501    0  0.00000000000E+00  0.00000000000E+00  0.75549177690E+03  0.75549177690E+03  0.25500000920E-02 0.  1.
       -2   -1    0    0    0  501  0.00000000000E+00  0.00000000000E+00 -0.64649738153E+03  0.64649738154E+03  0.25500000920E-02 0. -1.
    10030    2    1    2    0    0  0.00000000000E+00  0.00000000000E+00  0.10899439537E+03  0.14019891584E+04  0.13977459791E+04 0.  0.
        5    1    3    3  502    0 -0.33154787667E+03 -0.57152877938E+03 -0.17386085517E+03  0.68324141205E+03  0.46999998093E+01 0. -1.
       -5    1    3    3    0  502  0.33154787667E+03  0.57152877938E+03  0.28285525054E+03  0.71874774639E+03  0.46999998093E+01 0.  1.
</event>
<event>
 5   0  0.1120053E-03  0.1401907E+04  0.7818609E-02  0.8952439E-01
        2   -1    0    0  501    0  0.00000000000E+00  0.00000000000E+00  0.60189796627E+03  0.60189796628E+03  0.25500000920E-02 0.  1.
       -2   -1    0    0    0  501  0.00000000000E+00  0.00000000000E+00 -0.81631095527E+03  0.81631095527E+03  0.25500000920E-02 0. -1.
    10030    2    1    2    0    0  0.00000000000E+00  0.00000000000E+00 -0.21441298900E+03  0.14182089215E+04  0.14019071351E+04 0.  0.
        2    1    3    3  502    0  0.37902271425E+03  0.57672587465E+03  0.16960118490E+02  0.69033223743E+03  0.25500000920E-02 0.  1.
       -2    1    3    3    0  502 -0.37902271425E+03 -0.57672587465E+03 -0.23137310749E+03  0.72787668412E+03  0.25500000920E-02 0. -1.
</event>
<event>
 5   0  0.6114266E-04  0.1397397E+04  0.7818609E-02  0.8955705E-01
        1   -1    0    0  501    0  0.00000000000E+00  0.00000000000E+00  0.13719465196E+04  0.13719465196E+04  0.50400001928E-02 0.  1.
       -1   -1    0    0    0  501  0.00000000000E+00  0.00000000000E+00 -0.35583011631E+03  0.35583011635E+03  0.50400001928E-02 0. -1.
    10030    2    1    2    0    0  0.00000000000E+00  0.00000000000E+00  0.10161164033E+04  0.17277766359E+04  0.13973974233E+04 0.  0.
        3    1    3    3  502    0 -0.44696865391E+03 -0.53694473101E+03  0.49637691804E+03  0.85701848096E+03  0.10100000352E+00 0. -1.
       -3    1    3    3    0  502  0.44696865391E+03  0.53694473101E+03  0.51973948522E+03  0.87075815497E+03  0.10100000352E+00 0.  1.
</event>
<event>
 5   0  0.1095119E-03  0.1416187E+04  0.7818609E-02  0.8942184E-01
       -2   -1    0    0    0  501  0.00000000000E+00  0.00000000000E+00  0.36018642428E+03  0.36018642429E+03  0.25500000920E-02 0.  1.
        2   -1    0    0  501    0  0.00000000000E+00  0.00000000000E+00 -0.13920475004E+04  0.13920475004E+04  0.25500000920E-02 0. -1.
    10030    2    1    2    0    0  0.00000000000E+00  0.00000000000E+00 -0.10318610761E+04  0.17522339247E+04  0.14161872921E+04 0.  0.
        5    1    3    3  502    0 -0.35654760149E+03 -0.57135345731E+03 -0.24540922005E+03  0.71681150981E+03  0.46999998093E+01 0.  1.
       -5    1    3    3    0  502  0.35654760149E+03  0.57135345731E+03 -0.78645185604E+03  0.10354224149E+04  0.46999998093E+01 0. -1.
</event>
<event>
 5   0  0.4176125E-04  0.1411046E+04  0.7818609E-02  0.8945861E-01
        3   -1    0    0  501    0  0.00000000000E+00  0.00000000000E+00  0.65445137953E+03  0.65445138732E+03  0.10100000352E+00 0.  1.
       -3   -1    0    0    0  501  0.00000000000E+00  0.00000000000E+00 -0.76058007693E+03  0.76058008363E+03  0.10100000352E+00 0. -1.
    10030    2    1    2    0    0  0.00000000000E+00  0.00000000000E+00 -0.10612869740E+03  0.14150314710E+04  0.14110459820E+04 0.  0.
        2    1    3    3  502    0 -0.39846326858E+03  0.31113048505E+02 -0.63610282843E+03  0.75124417238E+03  0.25500000920E-02 0. -1.
       -2    1    3    3    0  502  0.39846326858E+03 -0.31113048505E+02  0.52997413102E+03  0.66378729858E+03  0.25500000920E-02 0.  1.
</event>
<event>
 5   0  0.1095119E-03  0.1403739E+04  0.7818609E-02  0.8951117E-01
        2   -1    0    0  501    0  0.00000000000E+00  0.00000000000E+00  0.98550824439E+03  0.98550824439E+03  0.25500000920E-02 0. -1.
       -2   -1    0    0    0  501  0.00000000000E+00  0.00000000000E+00 -0.49986467717E+03  0.49986467718E+03  0.25500000920E-02 0.  1.
    10030    2    1    2    0    0  0.00000000000E+00  0.00000000000E+00  0.48564356722E+03  0.14853729216E+04  0.14037389507E+04 0.  0.
        5    1    3    3  502    0 -0.25334238738E+03  0.17550910087E+03  0.91005761928E+03  0.96083961728E+03  0.46999998093E+01 0. -1.
       -5    1    3    3    0  502  0.25334238738E+03 -0.17550910087E+03 -0.42441405206E+03  0.52453330430E+03  0.46999998093E+01 0.  1.
</event>
<event>
 5   0  0.1175146E-03  0.1391556E+04  0.7818609E-02  0.8959953E-01
       -2   -1    0    0    0  501  0.00000000000E+00  0.00000000000E+00  0.37088184135E+03  0.37088184136E+03  0.25500000920E-02 0. -1.
        2   -1    0    0  501    0  0.00000000000E+00  0.00000000000E+00 -0.13052868114E+04  0.13052868114E+04  0.25500000920E-02 0.  1.
    10030    2    1    2    0    0  0.00000000000E+00  0.00000000000E+00 -0.93440497008E+03  0.16761686528E+04  0.13915562168E+04 0.  0.
        1    1    3    3  502    0 -0.40602550777E+03 -0.21244766425E+03  0.16344186656E+03  0.48652231889E+03  0.50400001928E-02 0. -1.
       -1    1    3    3    0  502  0.40602550777E+03  0.21244766425E+03 -0.10978468366E+04  0.11896463339E+04  0.50400001928E-02 0.  1.
</event>
<event>
 5   0  0.1098949E-03  0.1391005E+04  0.7818609E-02  0.8960356E-01
       -2   -1    0    0    0  501  0.00000000000E+00  0.00000000000E+00  0.20594377032E+03  0.20594377034E+03  0.25500000920E-02 0.  1.
        2   -1    0    0  501    0  0.00000000000E+00  0.00000000000E+00 -0.23488137743E+04  0.23488137743E+04  0.25500000920E-02 0. -1.
    10030    2    1    2    0    0  0.00000000000E+00  0.00000000000E+00 -0.21428700040E+04  0.25547575446E+04  0.13910047656E+04 0.  0.
        4    1    3    3  502    0  0.22304811552E+03  0.61434317669E+03 -0.63466525609E+03  0.91102667402E+03  0.12699999809E+01 0.  1.
       -4    1    3    3    0  502 -0.22304811552E+03 -0.61434317669E+03 -0.15082047479E+04  0.16437308706E+04  0.12699999809E+01 0. -1.
</event>
<event>
 5   0  0.6114266E-04  0.1399990E+04  0.7818609E-02  0.8953826E-01
        1   -1    0    0  501    0  0.00000000000E+00  0.00000000000E+00  0.58382697859E+03  0.58382697861E+03  0.50400001928E-02 0. -1.
       -1   -1    0    0    0  501  0.00000000000E+00  0.00000000000E+00 -0.83927723944E+03  0.83927723945E+03  0.50400001928E-02 0.  1.
    10030    2    1    2    0    0  0.00000000000E+00  0.00000000000E+00 -0.25545026085E+03  0.14231042181E+04  0.13999895641E+04 0.  0.
        3    1    3    3  502    0  0.37428729286E+03 -0.51998395355E+03 -0.41437101498E+03  0.76300566040E+03  0.10100000352E+00 0.  1.
       -3    1    3    3    0  502 -0.37428729286E+03  0.51998395355E+03  0.15892075412E+03  0.66009855767E+03  0.10100000352E+00 0. -1.
</event>
<event>
 5   0  0.6194742E-04  0.1438231E+04  0.7818609E-02  0.8926600E-01
        1   -1    0    0  501    0  0.00000000000E+00  0.00000000000E+00  0.97960168270E+03  0.97960168272E+03  0.50400001928E-02 0. -1.
       -1   -1    0    0    0  501  0.00000000000E+00  0.00000000000E+00 -0.52789559900E+03  0.52789559903E+03  0.50400001928E-02 0.  1.
    10030    2    1    2    0    0  0.00000000000E+00  0.00000000000E+00  0.45170608370E+03  0.15074972817E+04  0.14382314377E+04 0.  0.
        4    1    3    3  502    0 -0.12430356277E+03  0.62570145177E+03  0.57376040219E+03  0.85799550960E+03  0.12699999809E+01 0. -1.
       -4    1    3    3    0  502  0.12430356277E+03 -0.62570145177E+03 -0.12205431849E+03  0.64950177215E+03  0.12699999809E+01 0.  1.
</event>
<event>
 5   0  0.1175146E-03  0.1431926E+04  0.7818609E-02  0.8931028E-01
       -2   -1    0    0    0  501  0.00000000000E+00  0.00000000000E+00  0.52741432711E+03  0.52741432711E+03  0.25500000920E-02 0. -1.
        2   -1    0    0  501    0  0.00000000000E+00  0.00000000000E+00 -0.97191669496E+03  0.97191669496E+03  0.25500000920E-02 0.  1.
    10030    2    1    2    0    0  0.00000000000E+00  0.00000000000E+00 -0.44450236785E+03  0.14993310221E+04  0.14319256820E+04 0.  0.
        1    1    3    3  502    0  0.54735471012E+03  0.97276721110E+02 -0.69464583851E+03  0.88971499940E+03  0.50400001928E-02 0.  1.
       -1    1    3    3    0  502 -0.54735471012E+03 -0.97276721110E+02  0.25014347067E+03  0.60961602268E+03  0.50400001928E-02 0. -1.
</event>
<event>
 5   0  0.5875298E-04  0.1392185E+04  0.7818609E-02  0.8959495E-01
        1   -1    0    0  501    0  0.00000000000E+00  0.00000000000E+00  0.49136872035E+03  0.49136872038E+03  0.50400001928E-02 0. -1.
       -1   -1    0    0    0  501  0.00000000000E+00  0.00000000000E+00 -0.98611272812E+03  0.98611272813E+03  0.50400001928E-02 0.  1.
    10030    2    1    2    0    0  0.00000000000E+00  0.00000000000E+00 -0.49474400776E+03  0.14774814485E+04  0.13921852598E+04 0.  0.
        1    1    3    3  502    0 -0.49803643955E+03  0.46175589282E+03 -0.40931935450E+03  0.79296981889E+03  0.50400001928E-02 0. -1.
       -1    1    3    3    0  502  0.49803643955E+03 -0.46175589282E+03 -0.85424653262E+02  0.68451162962E+03  0.50400001928E-02 0.  1.
</event>
<event>
 5   0  0.1098949E-03  0.1335820E+04  0.7818609E-02  0.9001632E-01
        2   -1    0    0  501    0  0.00000000000E+00  0.00000000000E+00  0.18174327696E+04  0.18174327696E+04  0.25500000920E-02 0.  1.
       -2   -1    0    0    0  501  0.00000000000E+00  0.00000000000E+00 -0.24545803514E+03  0.24545803516E+03  0.25500000920E-02 0. -1.
    10030    2    1    2    0    0  0.00000000000E+00  0.00000000000E+00  0.15719747345E+04  0.20628908048E+04  0.13358195637E+04 0.  0.
        4    1    3    3  502    0  0.21254363379E+03 -0.33439885918E+03  0.16163271462E+04  0.16641852209E+04  0.12699999809E+01 0.  1.
       -4    1    3    3    0  502 -0.21254363379E+03  0.33439885918E+03 -0.44352411658E+02  0.39870558386E+03  0.12699999809E+01 0. -1.
</event>
<event>
 5   0  0.1095119E-03  0.1390408E+04  0.7818609E-02  0.8960791E-01
       -2   -1    0    0    0  501  0.00000000000E+00  0.00000000000E+00  0.33075251031E+03  0.33075251032E+03  0.25500000920E-02 0. -1.
        2   -1    0    0  501    0  0.00000000000E+00  0.00000000000E+00 -0.14612396568E+04  0.14612396568E+04  0.25500000920E-02 0.  1.
    10030    2    1    2    0    0  0.00000000000E+00  0.00000000000E+00 -0.11304871465E+04  0.17919921671E+04  0.13904081194E+04 0.  0.
        5    1    3    3  502    0  0.47066570352E+03 -0.30565718941E+02  0.92973825828E+02  0.48075637275E+03  0.46999998093E+01 0. -1.
       -5    1    3    3    0  502 -0.47066570352E+03  0.30565718941E+02 -0.12234609723E+04  0.13112357944E+04  0.46999998093E+01 0.  1.
</event>
<event>
 5   0  0.1095119E-03  0.1392711E+04  0.7818609E-02  0.8959112E-01
       -2   -1    0    0    0  501  0.00000000000E+00  0.00000000000E+00  0.72900767965E+03  0.72900767966E+03  0.25500000920E-02 0. -1.
        2   -1    0    0  501    0  0.00000000000E+00  0.00000000000E+00 -0.66516537193E+03  0.66516537194E+03  0.25500000920E-02 0.  1.
    10030    2    1    2    0    0  0.00000000000E+00  0.00000000000E+00  0.63842307720E+02  0.13941730516E+04  0.13927105433E+04 0.  0.
        5    1    3    3  502    0 -0.41351773728E+03 -0.25155590064E+03 -0.46921545688E+03  0.67413835758E+03  0.46999998093E+01 0.  1.
       -5    1    3    3    0  502  0.41351773728E+03  0.25155590064E+03  0.53305776460E+03  0.72003469401E+03  0.46999998093E+01 0. -1.
</event>
<event>
 5   0  0.6194742E-04  0.1402433E+04  0.7818609E-02  0.8952060E-01
        1   -1    0    0  501    0  0.00000000000E+00  0.00000000000E+00  0.72827776898E+03  0.72827776900E+03  0.50400001928E-02 0. -1.
       -1   -1    0    0    0  501  0.00000000000E+00  0.00000000000E+00 -0.67516038996E+03  0.67516038998E+03  0.50400001928E-02 0.  1.
    10030    2    1    2    0    0  0.00000000000E+00  0.00000000000E+00  0.53117379023E+02  0.14034381590E+04  0.14024326045E+04 0.  0.
        4    1    3    3  502    0 -0.32198692212E+02  0.58307517769E+02  0.72510372355E+03  0.72815763761E+03  0.12699999809E+01 0. -1.
       -4    1    3    3    0  502  0.32198692212E+02 -0.58307517769E+02 -0.67198634452E+03  0.67528052136E+03  0.12699999809E+01 0.  1.
</event>
<event>
 5   0  0.6194742E-04  0.1488376E+04  0.7818609E-02  0.8892220E-01
        1   -1    0    0  501    0  0.00000000000E+00  0.00000000000E+00  0.18564493699E+04  0.18564493699E+04  0.50400001928E-02 0. -1.
       -1   -1    0    0    0  501  0.00000000000E+00  0.00000000000E+00 -0.29831993164E+03  0.29831993169E+03  0.50400001928E-02 0.  1.
    10030    2    1    2    0    0  0.00000000000E+00  0.00000000000E+00  0.15581294382E+04  0.21547693016E+04  0.14883760938E+04 0.  0.
        4    1    3    3  502    0  0.22932491024E+03  0.69748583364E+03  0.95481859831E+03  0.12044735660E+04  0.12699999809E+01 0. -1.
       -4    1    3    3    0  502 -0.22932491024E+03 -0.69748583364E+03  0.60331083993E+03  0.95029573558E+03  0.12699999809E+01 0.  1.
</event>
<event>
 5   0  0.5875298E-04  0.1387576E+04  0.7818609E-02  0.8962861E-01
        1   -1    0    0  501    0  0.00000000000E+00  0.00000000000E+00  0.10969016545E+04  0.10969016545E+04  0.50400001928E-02 0. -1.
       -1   -1    0    0    0  501  0.00000000000E+00  0.00000000000E+00 -0.43881918674E+03  0.43881918677E+03  0.50400001928E-02 0.  1.
    10030    2    1    2    0    0  0.00000000000E+00  0.00000000000E+00  0.65808246771E+03  0.15357208412E+04  0.13875755720E+04 0.  0.
        1    1    3    3  502    0  0.15301886356E+03 -0.24555925582E+03  0.10269421502E+04  0.10669228185E+04  0.50400001928E-02 0. -1.
       -1    1    3    3    0  502 -0.15301886356E+03  0.24555925582E+03 -0.36885968250E+03  0.46879802274E+03  0.50400001928E-02 0.  1.
</event>
<event>
 5   0  0.1095119E-03  0.1537980E+04  0.7818609E-02  0.8859582E-01
       -2   -1    0    0    0  501  0.00000000000E+00  0.00000000000E+00  0.62588079756E+03  0.62588079757E+03  0.25500000920E-02 0.  1.
        2   -1    0    0  501    0  0.00000000000E+00  0.00000000000E+00 -0.94482150325E+03  0.94482150325E+03  0.25500000920E-02 0. -1.
    10030    2    1    2    0    0  0.00000000000E+00  0.00000000000E+00 -0.31894070569E+03  0.15707023008E+04  0.15379800207E+04 0.  0.
        5    1    3    3  502    0  0.43826666800E+03 -0.16583205551E+03  0.46321135288E+03  0.65891182289E+03  0.46999998093E+01 0.  1.
       -5    1    3    3    0  502 -0.43826666800E+03  0.16583205551E+03 -0.78215205857E+03  0.91179047793E+03  0.46999998093E+01 0. -1.
</event>
<event>
 5   0  0.1098949E-03  0.1404115E+04  0.7818609E-02  0.8950845E-01
        2   -1    0    0  501    0  0.00000000000E+00  0.00000000000E+00  0.96881686127E+03  0.96881686127E+03  0.25500000920E-02 0. -1.
       -2   -1    0    0    0  501  0.00000000000E+00  0.00000000000E+00 -0.50874920438E+03  0.50874920439E+03  0.25500000920E-02 0.  1.
    10030    2    1    2    0    0  0.00000000000E+00  0.00000000000E+00  0.46006765689E+03  0.14775660657E+04  0.14041151055E+04 0.  0.
        4    1    3    3  502    0 -0.41528295338E+02  0.51834501445E+03 -0.26631476652E+03  0.58423567255E+03  0.12699999809E+01 0.  1.
       -4    1    3    3    0  502  0.41528295338E+02 -0.51834501445E+03  0.72638242340E+03  0.89333039311E+03  0.12699999809E+01 0. -1.
</event>
<event>
 5   0  0.1175146E-03  0.1425043E+04  0.7818609E-02  0.8935888E-01
       -2   -1    0    0    0  501  0.00000000000E+00  0.00000000000E+00  0.23611026784E+03  0.23611026786E+03  0.25500000920E-02 0.  1.
        2   -1    0    0  501    0  0.00000000000E+00  0.00000000000E+00 -0.21502095160E+04  0.21502095160E+04  0.25500000920E-02 0. -1.
    10030    2    1    2    0    0  0.00000000000E+00  0.00000000000E+00 -0.19140992482E+04  0.23863197839E+04  0.14250425183E+04 0.  0.
        1    1    3    3  502    0  0.39326217288E+03 -0.15168810606E+03 -0.19190435916E+04  0.19647882137E+04  0.50400001928E-02 0. -1.
       -1    1    3    3    0  502 -0.39326217288E+03  0.15168810606E+03  0.49443433936E+01  0.42153157023E+03  0.50400001928E-02 0.  1.
</event>
<event>
 5   0  0.1175146E-03  0.1401533E+04  0.7818609E-02  0.8952709E-01
        2   -1    0    0  501    0  0.00000000000E+00  0.00000000000E+00  0.88867478044E+03  0.88867478045E+03  0.25500000920E-02 0. -1.
       -2   -1    0    0    0  501  0.00000000000E+00  0.00000000000E+00 -0.55259137295E+03  0.55259137295E+03  0.25500000920E-02 0.  1.
    10030    2    1    2    0    0  0.00000000000E+00  0.00000000000E+00  0.33608340750E+03  0.14412661534E+04  0.14015334702E+04 0.  0.
        1    1    3    3  502    0 -0.19173333381E+02 -0.63124653185E+02 -0.54939081715E+03  0.55333769847E+03  0.50400001928E-02 0.  1.
       -1    1    3    3    0  502  0.19173333381E+02  0.63124653185E+02  0.88547422464E+03  0.88792845494E+03  0.50400001928E-02 0. -1.
</event>
<event>
 5   0  0.6097538E-04  0.1406331E+04  0.7818609E-02  0.8949248E-01
        1   -1    0    0  501    0  0.00000000000E+00  0.00000000000E+00  0.61551559216E+03  0.61551559218E+03  0.50400001928E-02 0.  1.
       -1   -1    0    0    0  501  0.00000000000E+00  0.00000000000E+00 -0.80329736111E+03  0.80329736113E+03  0.50400001928E-02 0. -1.
    10030    2    1    2    0    0  0.00000000000E+00  0.00000000000E+00 -0.18778176895E+03  0.14188129533E+04  0.14063314701E+04 0.  0.
        2    1    3    3  502    0 -0.47186061240E+03 -0.49244350196E+03 -0.26655011510E+03  0.73225815395E+03  0.25500000920E-02 0.  1.
       -2    1    3    3    0  502  0.47186061240E+03  0.49244350196E+03  0.78768346152E+02  0.68655479936E+03  0.25500000920E-02 0. -1.
</event>
<event>
 5   0  0.6153318E-04  0.1457760E+04  0.7818609E-02  0.8913038E-01
        1   -1    0    0  501    0  0.00000000000E+00  0.00000000000E+00  0.75484367027E+03  0.75484367029E+03  0.50400001928E-02 0.  1.
       -1   -1    0    0    0  501  0.00000000000E+00  0.00000000000E+00 -0.70380977446E+03  0.70380977448E+03  0.50400001928E-02 0. -1.
    10030    2    1    2    0    0  0.00000000000E+00  0.00000000000E+00  0.51033895811E+02  0.14586534448E+04  0.14577604102E+04 0.  0.
        5    1    3    3  502    0 -0.43974603182E+03 -0.29691188041E+03 -0.47450012122E+03  0.71183262939E+03  0.46999998093E+01 0. -1.
       -5    1    3    3    0  502  0.43974603182E+03  0.29691188041E+03  0.52553401703E+03  0.74682081538E+03  0.46999998093E+01 0.  1.
</event>
<event>
 5   0  0.1095119E-03  0.1391919E+04  0.7818609E-02  0.8959689E-01
        2   -1    0    0  501    0  0.00000000000E+00  0.00000000000E+00  0.90874839571E+03  0.90874839571E+03  0.25500000920E-02 0. -1.
       -2   -1    0    0    0  501  0.00000000000E+00  0.00000000000E+00 -0.53299651677E+03  0.53299651677E+03  0.25500000920E-02 0.  1.
    10030    2    1    2    0    0  0.00000000000E+00  0.00000000000E+00  0.37575187894E+03  0.14417449125E+04  0.13919191493E+04 0.  0.
        5    1    3    3  502    0 -0.39716880703E+03 -0.46593850699E+03  0.53062266854E+03  0.81020013573E+03  0.46999998093E+01 0. -1.
       -5    1    3    3    0  502  0.39716880703E+03  0.46593850699E+03 -0.15487078960E+03  0.63154477675E+03  0.46999998093E+01 0.  1.
</event>
<event>
 5   0  0.6194742E-04  0.1397251E+04  0.7818609E-02  0.8955811E-01
        1   -1    0    0  501    0  0.00000000000E+00  0.00000000000E+00  0.10614759632E+04  0.10614759633E+04  0.50400001928E-02 0.  1.
       -1   -1    0    0    0  501  0.00000000000E+00  0.00000000000E+00 -0.45981020373E+03  0.45981020376E+03  0.50400001928E-02 0. -1.
    10030    2    1    2    0    0  0.00000000000E+00  0.00000000000E+00  0.60166575951E+03  0.15212861670E+04  0.13972508421E+04 0.  0.
        4    1    3    3  502    0  0.10251665073E+03  0.90820352313E+02 -0.44504903983E+03  0.46564821575E+03  0.12699999809E+01 0. -1.
       -4    1    3    3    0  502 -0.10251665073E+03 -0.90820352313E+02  0.10467147993E+04  0.10556379513E+04  0.12699999809E+01 0.  1.
</event>
<event>
 5   0  0.1120053E-03  0.1321587E+04  0.7818609E-02  0.9012620E-01
       -2   -1    0    0    0  501  0.00000000000E+00  0.00000000000E+00  0.34986905266E+03  0.34986905267E+03  0.25500000920E-02 0.  1.
        2   -1    0    0  501    0  0.00000000000E+00  0.00000000000E+00 -0.12480321352E+04  0.12480321352E+04  0.25500000920E-02 0. -1.
    10030    2    1    2    0    0  0.00000000000E+00  0.00000000000E+00 -0.89816308252E+03  0.15979011878E+04  0.13215866537E+04 0.  0.
        2    1    3    3  502    0  0.58779816807E+02  0.15505270299E+03 -0.12224675361E+04  0.12336625488E+04  0.25500000920E-02 0. -1.
       -2    1    3    3    0  502 -0.58779816807E+02 -0.15505270299E+03  0.32430445355E+03  0.36423863904E+03  0.25500000920E-02 0.  1.
</event>
<event>
 5   0  0.5875298E-04  0.1413772E+04  0.7818609E-02  0.8943909E-01
        1   -1    0    0  501    0  0.00000000000E+00  0.00000000000E+00  0.15021593189E+04  0.15021593189E+04  0.50400001928E-02 0. -1.
       -1   -1    0    0    0  501  0.00000000000E+00  0.00000000000E+00 -0.33264657420E+03  0.33264657424E+03  0.50400001928E-02 0.  1.
    10030    2    1    2    0    0  0.00000000000E+00  0.00000000000E+00  0.11695127447E+04  0.18348058932E+04  0.14137724731E+04 0.  0.
        1    1    3    3  502    0 -0.65381272130E+03  0.29871427498E+02  0.93135816857E+03  0.11383283423E+04  0.50400001928E-02 0. -1.
       -1    1    3    3    0  502  0.65381272130E+03 -0.29871427498E+02  0.23815457616E+03  0.69647755088E+03  0.50400001928E-02 0.  1.
</event>
<event>
 5   0  0.1108819E-03  0.1401251E+04  0.7818609E-02  0.8952913E-01
        2   -1    0    0  501    0  0.00000000000E+00  0.00000000000E+00  0.94272781311E+03  0.94272781311E+03  0.25500000920E-02 0. -1.
       -2   -1    0    0    0  501  0.00000000000E+00  0.00000000000E+00 -0.52069786407E+03  0.52069786408E+03  0.25500000920E-02 0.  1.
    10030    2    1    2    0    0  0.00000000000E+00  0.00000000000E+00  0.42202994903E+03  0.14634256772E+04  0.14012513817E+04 0.  0.
        3    1    3    3  502    0  0.27205246881E+03 -0.15016730278E+03  0.86682112637E+03  0.92083746662E+03  0.10100000352E+00 0. -1.
       -3    1    3    3    0  502 -0.27205246881E+03  0.15016730278E+03 -0.44479117734E+03  0.54258821057E+03  0.10100000352E+00 0.  1.
</event>
<event>
 5   0  0.1095119E-03  0.1405211E+04  0.7818609E-02  0.8950055E-01
       -2   -1    0    0    0  501  0.00000000000E+00  0.00000000000E+00  0.26240435653E+03  0.26240435654E+03  0.25500000920E-02 0.  1.
        2   -1    0    0  501    0  0.00000000000E+00  0.00000000000E+00 -0.18812729548E+04  0.18812729548E+04  0.25500000920E-02 0. -1.
    10030    2    1    2    0    0  0.00000000000E+00  0.00000000000E+00 -0.16188685982E+04  0.21436773113E+04  0.14052106165E+04 0.  0.
        5    1    3    3  502    0 -0.41149278699E+03  0.16620278431E+03 -0.16403633011E+04  0.16993420871E+04  0.46999998093E+01 0. -1.
       -5    1    3    3    0  502  0.41149278699E+03 -0.16620278431E+03  0.21494702861E+02  0.44433522425E+03  0.46999998093E+01 0.  1.
</event>
<event>
 5   0  0.5875298E-04  0.1365138E+04  0.7818609E-02  0.8979447E-01
       -1   -1    0    0    0  501  0.00000000000E+00  0.00000000000E+00  0.75970899601E+03  0.75970899603E+03  0.50400001928E-02 0.  1.
        1   -1    0    0  501    0  0.00000000000E+00  0.00000000000E+00 -0.61326187576E+03  0.61326187578E+03  0.50400001928E-02 0. -1.
    10030    2    1    2    0    0  0.00000000000E+00  0.00000000000E+00  0.14644712026E+03  0.13729708718E+04  0.13651381819E+04 0.  0.
        1    1    3    3  502    0 -0.21015554863E+03  0.31588221483E+03 -0.49744162314E+03  0.62561577404E+03  0.50400001928E-02 0. -1.
       -1    1    3    3    0  502  0.21015554863E+03 -0.31588221483E+03  0.64388874340E+03  0.74735509777E+03  0.50400001928E-02 0.  1.
</event>
<event>
 5   0  0.6194742E-04  0.1407550E+04  0.7818609E-02  0.8948371E-01
       -1   -1    0    0    0  501  0.00000000000E+00  0.00000000000E+00  0.24560002436E+03  0.24560002441E+03  0.50400001928E-02 0.  1.
        1   -1    0    0  501    0  0.00000000000E+00  0.00000000000E+00 -0.20166912187E+04  0.20166912188E+04  0.50400001928E-02 0. -1.
    10030    2    1    2    0    0  0.00000000000E+00  0.00000000000E+00 -0.17710911944E+04  0.22622912432E+04  0.14075502300E+04 0.  0.
        4    1    3    3  502    0  0.30562519577E+03  0.61438022031E+03 -0.11367506830E+04  0.13278077962E+04  0.12699999809E+01 0.  1.
       -4    1    3    3    0  502 -0.30562519577E+03 -0.61438022031E+03 -0.63434051140E+03  0.93448344699E+03  0.12699999809E+01 0. -1.
</event>
<event>
 5   0  0.4176125E-04  0.1406258E+04  0.7818609E-02  0.8949301E-01
        3   -1    0    0  501    0  0.00000000000E+00  0.00000000000E+00  0.66121218455E+03  0.66121219226E+03  0.10100000352E+00 0.  1.
       -3   -1    0    0    0  501  0.00000000000E+00  0.00000000000E+00 -0.74770329877E+03  0.74770330560E+03  0.10100000352E+00 0. -1.
    10030    2    1    2    0    0  0.00000000000E+00  0.00000000000E+00 -0.86491114228E+02  0.14089154979E+04  0.14062582150E+04 0.  0.
        2    1    3    3  502    0 -0.34284359017E+03  0.51127235497E+03 -0.38366605437E+03  0.72535562972E+03  0.25500000920E-02 0. -1.
       -2    1    3    3    0  502  0.34284359017E+03 -0.51127235497E+03  0.29717494015E+03  0.68355986814E+03  0.25500000920E-02 0.  1.
</event>
<event>
 5   0  0.6153318E-04  0.1403882E+04  0.7818609E-02  0.8951013E-01
        1   -1    0    0  501    0  0.00000000000E+00  0.00000000000E+00  0.14406921991E+04  0.14406921991E+04  0.50400001928E-02 0. -1.
       -1   -1    0    0    0  501  0.00000000000E+00  0.00000000000E+00 -0.34200331441E+03  0.34200331445E+03  0.50400001928E-02 0.  1.
    10030    2    1    2    0    0  0.00000000000E+00  0.00000000000E+00  0.10986888847E+04  0.17826955136E+04  0.14038824839E+04 0.  0.
        5    1    3    3  502    0  0.94714499093E+02  0.22340737465E+03  0.13857175548E+04  0.14068109052E+04  0.46999998093E+01 0. -1.
       -5    1    3    3    0  502 -0.94714499093E+02 -0.22340737465E+03 -0.28702867006E+03  0.37588460839E+03  0.46999998093E+01 0.  1.
</event>
<event>
 5   0  0.1095119E-03  0.1402923E+04  0.7818609E-02  0.8951705E-01
        2   -1    0    0  501    0  0.00000000000E+00  0.00000000000E+00  0.79451910006E+03  0.79451910007E+03  0.25500000920E-02 0. -1.
       -2   -1    0    0    0  501  0.00000000000E+00  0.00000000000E+00 -0.61930358503E+03  0.61930358503E+03  0.25500000920E-02 0.  1.
    10030    2    1    2    0    0  0.00000000000E+00  0.00000000000E+00  0.17521551504E+03  0.14138226851E+04  0.14029234149E+04 0.  0.
        5    1    3    3  502    0  0.67986042119E+03  0.15375862603E+03  0.16679640456E+03  0.71672521788E+03  0.46999998093E+01 0. -1.
       -5    1    3    3    0  502 -0.67986042119E+03 -0.15375862603E+03  0.84191104775E+01  0.69709746721E+03  0.46999998093E+01 0.  1.
</event>
<event>
 5   0  0.1095119E-03  0.1363593E+04  0.7818609E-02  0.8980602E-01
        2   -1    0    0  501    0  0.00000000000E+00  0.00000000000E+00  0.14818621443E+04  0.14818621443E+04  0.25500000920E-02 0. -1.
       -2   -1    0    0    0  501  0.00000000000E+00  0.00000000000E+00 -0.31369076728E+03  0.31369076729E+03  0.25500000920E-02 0.  1.
    10030    2    1    2    0    0  0.00000000000E+00  0.00000000000E+00  0.11681713770E+04  0.17955529116E+04  0.13635930083E+04 0.  0.
        5    1    3    3  502    0 -0.56376442538E+03  0.36258572622E+03  0.42001224463E+03  0.79103167561E+03  0.46999998093E+01 0.  1.
       -5    1    3    3    0  502  0.56376442538E+03 -0.36258572622E+03  0.74815913241E+03  0.10045212360E+04  0.46999998093E+01 0. -1.
</event>
<event>
 5   0  0.1095119E-03  0.1406678E+04  0.7818609E-02  0.8948998E-01
       -2   -1    0    0    0  501  0.00000000000E+00  0.00000000000E+00  0.71153116350E+03  0.71153116351E+03  0.25500000920E-02 0.  1.
        2   -1    0    0  501    0  0.00000000000E+00  0.00000000000E+00 -0.69524161509E+03  0.69524161509E+03  0.25500000920E-02 0. -1.
    10030    2    1    2    0    0  0.00000000000E+00  0.00000000000E+00  0.16289548414E+02  0.14067727786E+04  0.14066784640E+04 0.  0.
        5    1    3    3  502    0 -0.44553497644E+03 -0.16779810869E+03  0.52587279587E+03  0.70938135579E+03  0.46999998093E+01 0.  1.
       -5    1    3    3    0  502  0.44553497644E+03  0.16779810869E+03 -0.50958324746E+03  0.69739142280E+03  0.46999998093E+01 0. -1.
</event>
<event>
 5   0  0.1095119E-03  0.1397920E+04  0.7818609E-02  0.8955326E-01
        2   -1    0    0  501    0  0.00000000000E+00  0.00000000000E+00  0.53625911484E+03  0.53625911484E+03  0.25500000920E-02 0. -1.
       -2   -1    0    0    0  501  0.00000000000E+00  0.00000000000E+00 -0.91102412943E+03  0.91102412943E+03  0.25500000920E-02 0.  1.
    10030    2    1    2    0    0  0.00000000000E+00  0.00000000000E+00 -0.37476501459E+03  0.14472832443E+04  0.13979198736E+04 0.  0.
        5    1    3    3  502    0  0.25514172867E+03 -0.56860951135E+03 -0.51495500892E+03  0.80846448859E+03  0.46999998093E+01 0. -1.
       -5    1    3    3    0  502 -0.25514172867E+03  0.56860951135E+03  0.14018999433E+03  0.63881875568E+03  0.46999998093E+01 0.  1.
</event>
<event>
 5   0  0.6097538E-04  0.1432103E+04  0.7818609E-02  0.8930903E-01
       -1   -1    0    0    0  501  0.00000000000E+00  0.00000000000E+00  0.34944730598E+03  0.34944730602E+03  0.50400001928E-02 0. -1.
        1   -1    0    0  501    0  0.00000000000E+00  0.00000000000E+00 -0.14672600589E+04  0.14672600589E+04  0.50400001928E-02 0.  1.
    10030    2    1    2    0    0  0.00000000000E+00  0.00000000000E+00 -0.11178127529E+04  0.18167073650E+04  0.14321034527E+04 0.  0.
        2    1    3    3  502    0 -0.39840991144E+03  0.59489416305E+03 -0.57162692997E+03  0.91618058801E+03  0.25500000920E-02 0. -1.
       -2    1    3    3    0  502  0.39840991144E+03 -0.59489416305E+03 -0.54618582298E+03  0.90052677694E+03  0.25500000920E-02 0.  1.
</event>
<event>
 5   0  0.1108819E-03  0.1356379E+04  0.7818609E-02  0.8986014E-01
       -2   -1    0    0    0  501  0.00000000000E+00  0.00000000000E+00  0.24742444814E+03  0.24742444815E+03  0.25500000920E-02 0.  1.
        2   -1    0    0  501    0  0.00000000000E+00  0.00000000000E+00 -0.18589140678E+04  0.18589140678E+04  0.25500000920E-02 0. -1.
    10030    2    1    2    0    0  0.00000000000E+00  0.00000000000E+00 -0.16114896197E+04  0.21063385160E+04  0.13563786896E+04 0.  0.
        3    1    3    3  502    0  0.47203015113E+03 -0.17510507275E+03 -0.15113666879E+04  0.15930171140E+04  0.10100000352E+00 0. -1.
       -3    1    3    3    0  502 -0.47203015113E+03  0.17510507275E+03 -0.10012293184E+03  0.51332140201E+03  0.10100000352E+00 0.  1.
</event>
<event>
 5   0  0.1098949E-03  0.1402932E+04  0.7818609E-02  0.8951699E-01
       -2   -1    0    0    0  501  0.00000000000E+00  0.00000000000E+00  0.56077715779E+03  0.56077715779E+03  0.25500000920E-02 0.  1.
        2   -1    0    0  501    0  0.00000000000E+00  0.00000000000E+00 -0.87745138815E+03  0.87745138815E+03  0.25500000920E-02 0. -1.
    10030    2    1    2    0    0  0.00000000000E+00  0.00000000000E+00 -0.31667423036E+03  0.14382285459E+04  0.14029322087E+04 0.  0.
        4    1    3    3  502    0 -0.56823958985E+03 -0.24030761305E+03 -0.50051469940E+03  0.79445613949E+03  0.12699999809E+01 0. -1.
       -4    1    3    3    0  502  0.56823958985E+03  0.24030761305E+03  0.18384046904E+03  0.64377240645E+03  0.12699999809E+01 0.  1.
</event>
<event>
 5   0  0.1108819E-03  0.1373779E+04  0.7818609E-02  0.8973021E-01
       -2   -1    0    0    0  501  0.00000000000E+00  0.00000000000E+00  0.39032877293E+03  0.39032877293E+03  0.25500000920E-02 0.  1.
        2   -1    0    0  501    0  0.00000000000E+00  0.00000000000E+00 -0.12087683550E+04  0.12087683550E+04  0.25500000920E-02 0. -1.
    10030    2    1    2    0    0  0.00000000000E+00  0.00000000000E+00 -0.81843958203E+03  0.15990971279E+04  0.13737788305E+04 0.  0.
        3    1    3    3  502    0  0.64741837495E+03  0.26884193584E+02 -0.67451209933E+03  0.93532876275E+03  0.10100000352E+00 0.  1.
       -3    1    3    3    0  502 -0.64741837495E+03 -0.26884193584E+02 -0.14392748270E+03  0.66376836514E+03  0.10100000352E+00 0. -1.
</event>
<event>
 5   0  0.6097538E-04  0.1385192E+04  0.7818609E-02  0.8964608E-01
       -1   -1    0    0    0  501  0.00000000000E+00  0.00000000000E+00  0.45901523897E+03  0.45901523899E+03  0.50400001928E-02 0.  1.
        1   -1    0    0  501    0  0.00000000000E+00  0.00000000000E+00 -0.10450396814E+04  0.10450396814E+04  0.50400001928E-02 0. -1.
    10030    2    1    2    0    0  0.00000000000E+00  0.00000000000E+00 -0.58602444241E+03  0.15040549204E+04  0.13851918843E+04 0.  0.
        2    1    3    3  502    0 -0.68400285262E+03 -0.20230172415E+02 -0.40904651618E+03  0.79723786580E+03  0.25500000920E-02 0. -1.
       -2    1    3    3    0  502  0.68400285262E+03  0.20230172415E+02 -0.17697792623E+03  0.70681705458E+03  0.25500000920E-02 0.  1.
</event>
<event>
 5   0  0.1120053E-03  0.1332709E+04  0.7818609E-02  0.9004021E-01
       -2   -1    0    0    0  501  0.00000000000E+00  0.00000000000E+00  0.89613915744E+03  0.89613915744E+03  0.25500000920E-02 0. -1.
        2   -1    0    0  501    0  0.00000000000E+00  0.00000000000E+00 -0.49549058787E+03  0.49549058787E+03  0.25500000920E-02 0.  1.
    10030    2    1    2    0    0  0.00000000000E+00  0.00000000000E+00  0.40064856957E+03  0.13916297453E+04  0.13327092975E+04 0.  0.
        2    1    3    3  502    0  0.33061966277E+03 -0.18124968811E+03  0.77403981132E+03  0.86098689907E+03  0.25500000920E-02 0. -1.
       -2    1    3    3    0  502 -0.33061966277E+03  0.18124968811E+03 -0.37339124175E+03  0.53064284625E+03  0.25500000920E-02 0.  1.
</event>
<event>
 5   0  0.6194742E-04  0.1442197E+04  0.7818609E-02  0.8923828E-01
       -1   -1    0    0    0  501  0.00000000000E+00  0.00000000000E+00  0.79821227039E+03  0.79821227040E+03  0.50400001928E-02 0. -1.
        1   -1    0    0  501    0  0.00000000000E+00  0.00000000000E+00 -0.65143435860E+03  0.65143435862E+03  0.50400001928E-02 0.  1.
    10030    2    1    2    0    0  0.00000000000E+00  0.00000000000E+00  0.14677791179E+03  0.14496466290E+04  0.14421967944E+04 0.  0.
        4    1    3    3  502    0 -0.10725265928E+03  0.16813450070E+03  0.76993967611E+03  0.79534964701E+03  0.12699999809E+01 0. -1.
       -4    1    3    3    0  502  0.10725265928E+03 -0.16813450070E+03 -0.62316176432E+03  0.65429698201E+03  0.12699999809E+01 0.  1.
</event>
<event>
 5   0  0.6194742E-04  0.1400202E+04  0.7818609E-02  0.8953672E-01
       -1   -1    0    0    0  501  0.00000000000E+00  0.00000000000E+00  0.48137382077E+03  0.48137382080E+03  0.50400001928E-02 0.  1.
        1   -1    0    0  501    0  0.00000000000E+00  0.00000000000E+00 -0.10182140638E+04  0.10182140639E+04  0.50400001928E-02 0. -1.
    10030    2    1    2    0    0  0.00000000000E+00  0.00000000000E+00 -0.53684024307E+03  0.14995878847E+04  0.14002022630E+04 0.  0.
        4    1    3    3  502    0  0.22120912848E+03 -0.49057488643E+03  0.21118594443E+03  0.57809887886E+03  0.12699999809E+01 0.  1.
       -4    1    3    3    0  502 -0.22120912848E+03  0.49057488643E+03 -0.74802618750E+03  0.92148900580E+03  0.12699999809E+01 0. -1.
</event>
<event>
 5   0  0.1098949E-03  0.1561679E+04  0.7818609E-02  0.8844442E-01
        2   -1    0    0  501    0  0.00000000000E+00  0.00000000000E+00  0.15420945986E+04  0.15420945986E+04  0.25500000920E-02 0.  1.
       -2   -1    0    0    0  501  0.00000000000E+00  0.00000000000E+00 -0.39537818251E+03  0.39537818252E+03  0.25500000920E-02 0. -1.
    10030    2    1    2    0    0  0.00000000000E+00  0.00000000000E+00  0.11467164161E+04  0.19374727812E+04  0.15616793009E+04 0.  0.
        4    1    3    3  502    0 -0.25652672326E+03 -0.13338252361E+03 -0.32651826335E+03  0.43613374847E+03  0.12699999809E+01 0. -1.
       -4    1    3    3    0  502  0.25652672326E+03  0.13338252361E+03  0.14732346795E+04  0.15013390327E+04  0.12699999809E+01 0.  1.
</event>
<event>
 5   0  0.6114266E-04  0.1390726E+04  0.7818609E-02  0.8960559E-01
        1   -1    0    0  501    0  0.00000000000E+00  0.00000000000E+00  0.82898760899E+03  0.82898760901E+03  0.50400001928E-02 0.  1.
       -1   -1    0    0    0  501  0.00000000000E+00  0.00000000000E+00 -0.58327740856E+03  0.58327740858E+03  0.50400001928E-02 0. -1.
    10030    2    1    2    0    0  0.00000000000E+00  0.00000000000E+00  0.24571020043E+03  0.14122650176E+04  0.13907260612E+04 0.  0.
        3    1    3    3  502    0 -0.48305649141E+03  0.16480640996E+02  0.63051209917E+03  0.79445623091E+03  0.10100000352E+00 0.  1.
       -3    1    3    3    0  502  0.48305649141E+03 -0.16480640996E+02 -0.38480189875E+03  0.61780878668E+03  0.10100000352E+00 0. -1.
</event>
<event>
 5   0  0.6097538E-04  0.1266858E+04  0.7818609E-02  0.9056268E-01
        1   -1    0    0  501    0  0.00000000000E+00  0.00000000000E+00  0.12462891089E+04  0.12462891089E+04  0.50400001928E-02 0. -1.
       -1   -1    0    0    0  501  0.00000000000E+00  0.00000000000E+00 -0.32194140236E+03  0.32194140240E+03  0.50400001928E-02 0.  1.
    10030    2    1    2    0    0  0.00000000000E+00  0.00000000000E+00  0.92434770649E+03  0.15682305113E+04  0.12668576297E+04 0.  0.
        2    1    3    3  502    0 -0.53350632192E+03  0.32472886816E+03  0.33143583783E+03  0.70705554800E+03  0.25500000920E-02 0.  1.
       -2    1    3    3    0  502  0.53350632192E+03 -0.32472886816E+03  0.59291186866E+03  0.86117496327E+03  0.25500000920E-02 0. -1.
</event>
<event>
 5   0  0.1108819E-03  0.1396034E+04  0.7818609E-02  0.8956695E-01
        2   -1    0    0  501    0  0.00000000000E+00  0.00000000000E+00  0.16242245488E+04  0.16242245488E+04  0.25500000920E-02 0. -1.
       -2   -1    0    0    0  501  0.00000000000E+00  0.00000000000E+00 -0.29997547128E+03  0.29997547129E+03  0.25500000920E-02 0.  1.
    10030    2    1    2    0    0  0.00000000000E+00  0.00000000000E+00  0.13242490775E+04  0.19242000201E+04  0.13960337023E+04 0.  0.
        3    1    3    3  502    0  0.66493409146E+03  0.51525751149E+02  0.37819029557E+03  0.76669430602E+03  0.10100000352E+00 0.  1.
       -3    1    3    3    0  502 -0.66493409146E+03 -0.51525751149E+02  0.94605878195E+03  0.11575057141E+04  0.10100000352E+00 0. -1.
</event>
<event>
 5   0  0.1108819E-03  0.1386979E+04  0.7818609E-02  0.8963298E-01
        2   -1    0    0  501    0  0.00000000000E+00  0.00000000000E+00  0.13503070094E+04  0.13503070094E+04  0.25500000920E-02 0.  1.
       -2   -1    0    0    0  501  0.00000000000E+00  0.00000000000E+00 -0.35616187188E+03  0.35616187189E+03  0.25500000920E-02 0. -1.
    10030    2    1    2    0    0  0.00000000000E+00  0.00000000000E+00  0.99414513752E+03  0.17064688813E+04  0.13869792675E+04 0.  0.
        3    1    3    3  502    0  0.18727431100E+03  0.64170443888E+03  0.26996860437E+03  0.72092947782E+03  0.10100000352E+00 0.  1.
       -3    1    3    3    0  502 -0.18727431100E+03 -0.64170443888E+03  0.72417653315E+03  0.98553940348E+03  0.10100000352E+00 0. -1.
</event>
<event>
 5   0  0.1098949E-03  0.1393747E+04  0.7818609E-02  0.8958357E-01
       -2   -1    0    0    0  501  0.00000000000E+00  0.00000000000E+00  0.50162247199E+03  0.50162247200E+03  0.25500000920E-02 0.  1.
        2   -1    0    0  501    0  0.00000000000E+00  0.00000000000E+00 -0.96812377816E+03  0.96812377816E+03  0.25500000920E-02 0. -1.
    10030    2    1    2    0    0  0.00000000000E+00  0.00000000000E+00 -0.46650130617E+03  0.14697462502E+04  0.13937469538E+04 0.  0.
        4    1    3    3  502    0 -0.43392099093E+03 -0.70348786921E+02  0.33697026093E+03  0.55388351469E+03  0.12699999809E+01 0.  1.
       -4    1    3    3    0  502  0.43392099093E+03  0.70348786921E+02 -0.80347156710E+03  0.91586273547E+03  0.12699999809E+01 0. -1.
</event>
<event>
 5   0  0.5875298E-04  0.1378604E+04  0.7818609E-02  0.8969453E-01
        1   -1    0    0  501    0  0.00000000000E+00  0.00000000000E+00  0.40910116505E+03  0.40910116508E+03  0.50400001928E-02 0.  1.
       -1   -1    0    0    0  501  0.00000000000E+00  0.00000000000E+00 -0.11614176136E+04  0.11614176136E+04  0.50400001928E-02 0. -1.
    10030    2    1    2    0    0  0.00000000000E+00  0.00000000000E+00 -0.75231644856E+03  0.15705187787E+04  0.13786040750E+04 0.  0.
        1    1    3    3  502    0  0.44598127713E+03  0.20190327144E+03 -0.92896606877E+03  0.10500677062E+04  0.50400001928E-02 0. -1.
       -1    1    3    3    0  502 -0.44598127713E+03 -0.20190327144E+03  0.17664962021E+03  0.52045107254E+03  0.50400001928E-02 0.  1.
</event>
<event>
 5   0  0.1098949E-03  0.1396320E+04  0.7818609E-02  0.8956486E-01
        2   -1    0    0  501    0  0.00000000000E+00  0.00000000000E+00  0.12173674985E+04  0.12173674985E+04  0.25500000920E-02 0. -1.
       -2   -1    0    0    0  501  0.00000000000E+00  0.00000000000E+00 -0.40039477541E+03  0.40039477542E+03  0.25500000920E-02 0.  1.
    10030    2    1    2    0    0  0.00000000000E+00  0.00000000000E+00  0.81697272310E+03  0.16177622739E+04  0.13963202873E+04 0.  0.
        4    1    3    3  502    0 -0.12967943362E+02  0.29725615978E+03 -0.32325872099E+03  0.43934861520E+03  0.12699999809E+01 0.  1.
       -4    1    3    3    0  502  0.12967943362E+02 -0.29725615978E+03  0.11402314441E+04  0.11784136587E+04  0.12699999809E+01 0. -1.
</event>
<event>
 5   0  0.6114266E-04  0.1381399E+04  0.7818609E-02  0.8967394E-01
        1   -1    0    0  501    0  0.00000000000E+00  0.00000000000E+00  0.43538986729E+03  0.43538986732E+03  0.50400001928E-02 0. -1.
       -1   -1    0    0    0  501  0.00000000000E+00  0.00000000000E+00 -0.10957207651E+04  0.10957207651E+04  0.50400001928E-02 0.  1.
    10030    2    1    2    0    0  0.00000000000E+00  0.00000000000E+00 -0.66033089778E+03  0.15311106324E+04  0.13813988831E+04 0.  0.
        3    1    3    3  502    0  0.60931223242E+03  0.69827166737E+02 -0.68228840168E+03  0.91741740940E+03  0.10100000352E+00 0.  1.
       -3    1    3    3    0  502 -0.60931223242E+03 -0.69827166737E+02  0.21957503903E+02  0.61369322301E+03  0.10100000352E+00 0. -1.
</event>
<event>
 5   0  0.1108819E-03  0.1378303E+04  0.7818609E-02  0.8969676E-01
        2   -1    0    0  501    0  0.00000000000E+00  0.00000000000E+00  0.50461818713E+03  0.50461818714E+03  0.25500000920E-02 0. -1.
       -2   -1    0    0    0  501  0.00000000000E+00  0.00000000000E+00 -0.94116618882E+03  0.94116618882E+03  0.25500000920E-02 0.  1.
    10030    2    1    2    0    0  0.00000000000E+00  0.00000000000E+00 -0.43654800168E+03  0.14457843760E+04  0.13783026895E+04 0.  0.
        3    1    3    3  502    0  0.14864617695E+03  0.65996402251E+03 -0.35616883398E+03  0.76452890425E+03  0.10100000352E+00 0. -1.
       -3    1    3    3    0  502 -0.14864617695E+03 -0.65996402251E+03 -0.80379167696E+02  0.68125547171E+03  0.10100000352E+00 0.  1.
</event>
<event>
 5   0  0.1095119E-03  0.1409047E+04  0.7818609E-02  0.8947296E-01
        2   -1    0    0  501    0  0.00000000000E+00  0.00000000000E+00  0.60671347731E+03  0.60671347731E+03  0.25500000920E-02 0.  1.
       -2   -1    0    0    0  501  0.00000000000E+00  0.00000000000E+00 -0.81810204951E+03  0.81810204951E+03  0.25500000920E-02 0. -1.
    10030    2    1    2    0    0  0.00000000000E+00  0.00000000000E+00 -0.21138857220E+03  0.14248155268E+04  0.14090472515E+04 0.  0.
        5    1    3    3  502    0 -0.55375441592E+03  0.38221838167E+03 -0.31682888936E+03  0.74373212891E+03  0.46999998093E+01 0.  1.
       -5    1    3    3    0  502  0.55375441592E+03 -0.38221838167E+03  0.10544031716E+03  0.68108339792E+03  0.46999998093E+01 0. -1.
</event>
<event>
 5   0  0.6194742E-04  0.1393253E+04  0.7818609E-02  0.8958717E-01
       -1   -1    0    0    0  501  0.00000000000E+00  0.00000000000E+00  0.61884531848E+03  0.61884531850E+03  0.50400001928E-02 0.  1.
        1   -1    0    0  501    0  0.00000000000E+00  0.00000000000E+00 -0.78418434097E+03  0.78418434098E+03  0.50400001928E-02 0. -1.
    10030    2    1    2    0    0  0.00000000000E+00  0.00000000000E+00 -0.16533902249E+03  0.14030296595E+04  0.13932534705E+04 0.  0.
        4    1    3    3  502    0 -0.41172110558E+03  0.56035511447E+03 -0.12509674702E+03  0.70651463687E+03  0.12699999809E+01 0.  1.
       -4    1    3    3    0  502  0.41172110558E+03 -0.56035511447E+03 -0.40242275472E+02  0.69651502261E+03  0.12699999809E+01 0. -1.
</event>
<event>
 5   0  0.5875298E-04  0.1398835E+04  0.7818609E-02  0.8954663E-01
        1   -1    0    0  501    0  0.00000000000E+00  0.00000000000E+00  0.11698803014E+04  0.11698803014E+04  0.50400001928E-02 0. -1.
       -1   -1    0    0    0  501  0.00000000000E+00  0.00000000000E+00 -0.41814926861E+03  0.41814926864E+03  0.50400001928E-02 0.  1.
    10030    2    1    2    0    0  0.00000000000E+00  0.00000000000E+00  0.75173103281E+03  0.15880295701E+04  0.13988346470E+04 0.  0.
        1    1    3    3  502    0 -0.56321291466E+03 -0.38426409369E+03  0.55289532964E+03  0.87781599809E+03  0.50400001928E-02 0. -1.
       -1    1    3    3    0  502  0.56321291466E+03  0.38426409369E+03  0.19883570317E+03  0.71021357198E+03  0.50400001928E-02 0.  1.
</event>
<event>
 5   0  0.1175146E-03  0.1395032E+04  0.7818609E-02  0.8957422E-01
        2   -1    0    0  501    0  0.00000000000E+00  0.00000000000E+00  0.65942364216E+03  0.65942364217E+03  0.25500000920E-02 0.  1.
       -2   -1    0    0    0  501  0.00000000000E+00  0.00000000000E+00 -0.73780912748E+03  0.73780912749E+03  0.25500000920E-02 0. -1.
    10030    2    1    2    0    0  0.00000000000E+00  0.00000000000E+00 -0.78385485319E+02  0.13972327697E+04  0.13950323037E+04 0.  0.
        1    1    3    3  502    0 -0.37252275035E+03  0.36133877505E+02  0.55033566110E+03  0.66554353466E+03  0.50400001928E-02 0.  1.
       -1    1    3    3    0  502  0.37252275035E+03 -0.36133877505E+02 -0.62872114642E+03  0.73168923499E+03  0.50400001928E-02 0. -1.
</event>
<event>
 5   0  0.6194742E-04  0.1405347E+04  0.7818609E-02  0.8949957E-01
        1   -1    0    0  501    0  0.00000000000E+00  0.00000000000E+00  0.16241059163E+04  0.16241059164E+04  0.50400001928E-02 0.  1.
       -1   -1    0    0    0  501  0.00000000000E+00  0.00000000000E+00 -0.30401346771E+03  0.30401346776E+03  0.50400001928E-02 0. -1.
    10030    2    1    2    0    0  0.00000000000E+00  0.00000000000E+00  0.13200924486E+04  0.19281193841E+04  0.14053470342E+04 0.  0.
        4    1    3    3  502    0  0.51538905521E+03  0.45266537549E+03  0.45099630361E+03  0.82093306619E+03  0.12699999809E+01 0. -1.
       -4    1    3    3    0  502 -0.51538905521E+03 -0.45266537549E+03  0.86909614502E+03  0.11071863179E+04  0.12699999809E+01 0.  1.
</event>
<event>
 5   0  0.1095119E-03  0.1398278E+04  0.7818609E-02  0.8955066E-01
       -2   -1    0    0    0  501  0.00000000000E+00  0.00000000000E+00  0.92510987763E+03  0.92510987764E+03  0.25500000920E-02 0.  1.
        2   -1    0    0  501    0  0.00000000000E+00  0.00000000000E+00 -0.52836440809E+03  0.52836440809E+03  0.25500000920E-02 0. -1.
    10030    2    1    2    0    0  0.00000000000E+00  0.00000000000E+00  0.39674546955E+03  0.14534742857E+04  0.13982777019E+04 0.  0.
        5    1    3    3  502    0 -0.31272473065E+03  0.28320843923E+03  0.77784539628E+03  0.88491204519E+03  0.46999998093E+01 0.  1.
       -5    1    3    3    0  502  0.31272473065E+03 -0.28320843923E+03 -0.38109992673E+03  0.56856224054E+03  0.46999998093E+01 0. -1.
</event>
<event>
 5   0  0.6097538E-04  0.1389368E+04  0.7818609E-02  0.8961551E-01
       -1   -1    0    0    0  501  0.00000000000E+00  0.00000000000E+00  0.82016420635E+03  0.82016420637E+03  0.50400001928E-02 0. -1.
        1   -1    0    0  501    0  0.00000000000E+00  0.00000000000E+00 -0.58840116848E+03  0.58840116850E+03  0.50400001928E-02 0.  1.
    10030    2    1    2    0    0  0.00000000000E+00  0.00000000000E+00  0.23176303787E+03  0.14085653749E+04  0.13893675934E+04 0.  0.
        2    1    3    3  502    0  0.27504712088E+03 -0.36008796912E+03 -0.41795995779E+03  0.61644528592E+03  0.25500000920E-02 0.  1.
       -2    1    3    3    0  502 -0.27504712088E+03  0.36008796912E+03  0.64972299566E+03  0.79212008895E+03  0.25500000920E-02 0. -1.
</event>
<event>
 5   0  0.6153318E-04  0.1227597E+04  0.7818609E-02  0.9089038E-01
       -1   -1    0    0    0  501  0.00000000000E+00  0.00000000000E+00  0.60553451286E+03  0.60553451289E+03  0.50400001928E-02 0. -1.
        1   -1    0    0  501    0  0.00000000000E+00  0.00000000000E+00 -0.62217551494E+03  0.62217551496E+03  0.50400001928E-02 0.  1.
    10030    2    1    2    0    0  0.00000000000E+00  0.00000000000E+00 -0.16641002077E+02  0.12277100278E+04  0.12275972424E+04 0.  0.
        5    1    3    3  502    0  0.51569236726E+03 -0.29133189989E+03  0.15267181464E+03  0.61167284273E+03  0.46999998093E+01 0.  1.
       -5    1    3    3    0  502 -0.51569236726E+03  0.29133189989E+03 -0.16931281672E+03  0.61603718512E+03  0.46999998093E+01 0. -1.
</event>
<event>
 5   0  0.5875298E-04  0.1395469E+04  0.7818609E-02  0.8957105E-01
        1   -1    0    0  501    0  0.00000000000E+00  0.00000000000E+00  0.46757115268E+03  0.46757115271E+03  0.50400001928E-02 0.  1.
       -1   -1    0    0    0  501  0.00000000000E+00  0.00000000000E+00 -0.10411960278E+04  0.10411960278E+04  0.50400001928E-02 0. -1.
    10030    2    1    2    0    0  0.00000000000E+00  0.00000000000E+00 -0.57362487508E+03  0.15087671805E+04  0.13954687053E+04 0.  0.
        1    1    3    3  502    0 -0.45735240976E+03 -0.13031991614E+03  0.26520769446E+03  0.54450861195E+03  0.50400001928E-02 0.  1.
       -1    1    3    3    0  502  0.45735240976E+03  0.13031991614E+03 -0.83883256954E+03  0.96425856854E+03  0.50400001928E-02 0. -1.
</event>
<event>
 5   0  0.1095119E-03  0.1411062E+04  0.7818609E-02  0.8945850E-01
        2   -1    0    0  501    0  0.00000000000E+00  0.00000000000E+00  0.14159037436E+04  0.14159037436E+04  0.25500000920E-02 0. -1.
       -2   -1    0    0    0  501  0.00000000000E+00  0.00000000000E+00 -0.35155916060E+03  0.35155916061E+03  0.25500000920E-02 0.  1.
    10030    2    1    2    0    0  0.00000000000E+00  0.00000000000E+00  0.10643445830E+04  0.17674629042E+04  0.14110619145E+04 0.  0.
        5    1    3    3  502    0 -0.28190518559E+03  0.17935064464E+03  0.13104997996E+04  0.13524307753E+04  0.46999998093E+01 0. -1.
       -5    1    3    3    0  502  0.28190518559E+03 -0.17935064464E+03 -0.24615521654E+03  0.41503212890E+03  0.46999998093E+01 0.  1.
</event>
<event>
 5   0  0.6097538E-04  0.1392449E+04  0.7818609E-02  0.8959303E-01
       -1   -1    0    0    0  501  0.00000000000E+00  0.00000000000E+00  0.41269226474E+03  0.41269226477E+03  0.50400001928E-02 0.  1.
        1   -1    0    0  501    0  0.00000000000E+00  0.00000000000E+00 -0.11745517469E+04  0.11745517469E+04  0.50400001928E-02 0. -1.
    10030    2    1    2    0    0  0.00000000000E+00  0.00000000000E+00 -0.76185948211E+03  0.15872440116E+04  0.13924488077E+04 0.  0.
        2    1    3    3  502    0  0.38501868884E+03 -0.48911532857E+03 -0.73641445560E+03  0.96425071730E+03  0.25500000920E-02 0. -1.
       -2    1    3    3    0  502 -0.38501868884E+03  0.48911532857E+03 -0.25445026509E+02  0.62299329433E+03  0.25500000920E-02 0.  1.
</event>
<event>
 5   0  0.6114266E-04  0.1403763E+04  0.7818609E-02  0.8951099E-01
        1   -1    0    0  501    0  0.00000000000E+00  0.00000000000E+00  0.73853462386E+03  0.73853462388E+03  0.50400001928E-02 0. -1.
       -1   -1    0    0    0  501  0.00000000000E+00  0.00000000000E+00 -0.66704759735E+03  0.66704759737E+03  0.50400001928E-02 0.  1.
    10030    2    1    2    0    0  0.00000000000E+00  0.00000000000E+00  0.71487026515E+02  0.14055822212E+04  0.14037631516E+04 0.  0.
        3    1    3    3  502    0  0.55001775908E+03  0.98957997814E+02 -0.38945428644E+03  0.68116581833E+03  0.10100000352E+00 0.  1.
       -3    1    3    3    0  502 -0.55001775908E+03 -0.98957997814E+02  0.46094131296E+03  0.72441640292E+03  0.10100000352E+00 0. -1.
</event>
<event>
 5   0  0.1108819E-03  0.1185913E+04  0.7818609E-02  0.9125277E-01
       -2   -1    0    0    0  501  0.00000000000E+00  0.00000000000E+00  0.28448877986E+03  0.28448877987E+03  0.25500000920E-02 0.  1.
        2   -1    0    0  501    0  0.00000000000E+00  0.00000000000E+00 -0.12358922314E+04  0.12358922314E+04  0.25500000920E-02 0. -1.
    10030    2    1    2    0    0  0.00000000000E+00  0.00000000000E+00 -0.95140345150E+03  0.15203810112E+04  0.11859131046E+04 0.  0.
        3    1    3    3  502    0  0.13822952891E+03 -0.17112948933E+03  0.23023792335E+03  0.31843714659E+03  0.10100000352E+00 0.  1.
       -3    1    3    3    0  502 -0.13822952891E+03  0.17112948933E+03 -0.11816413748E+04  0.12019438646E+04  0.10100000352E+00 0. -1.
</event>
<event>
 5   0  0.1095119E-03  0.1404937E+04  0.7818609E-02  0.8950253E-01
        2   -1    0    0  501    0  0.00000000000E+00  0.00000000000E+00  0.16057115123E+04  0.16057115123E+04  0.25500000920E-02 0. -1.
       -2   -1    0    0    0  501  0.00000000000E+00  0.00000000000E+00 -0.30731656192E+03  0.30731656193E+03  0.25500000920E-02 0.  1.
    10030    2    1    2    0    0  0.00000000000E+00  0.00000000000E+00  0.12983949503E+04  0.19130280742E+04  0.14049366411E+04 0.  0.
        5    1    3    3  502    0  0.18541132370E+03  0.33337232178E+03  0.14523675879E+04  0.15016351635E+04  0.46999998093E+01 0. -1.
       -5    1    3    3    0  502 -0.18541132370E+03 -0.33337232178E+03 -0.15397263753E+03  0.41139291072E+03  0.46999998093E+01 0.  1.
</event>
<event>
 5   0  0.1175146E-03  0.1395108E+04  0.7818609E-02  0.8957368E-01
        2   -1    0    0  501    0  0.00000000000E+00  0.00000000000E+00  0.62178304966E+03  0.62178304966E+03  0.25500000920E-02 0.  1.
       -2   -1    0    0    0  501  0.00000000000E+00  0.00000000000E+00 -0.78255794504E+03  0.78255794504E+03  0.25500000920E-02 0. -1.
    10030    2    1    2    0    0  0.00000000000E+00  0.00000000000E+00 -0.16077489538E+03  0.14043409947E+04  0.13951075451E+04 0.  0.
        1    1    3    3  502    0 -0.41626575773E+03  0.85219108172E+02 -0.63725928081E+03  0.76592353956E+03  0.50400001928E-02 0. -1.
       -1    1    3    3    0  502  0.41626575773E+03 -0.85219108172E+02  0.47648438542E+03  0.63841745514E+03  0.50400001928E-02 0.  1.
</event>
<event>
 5   0  0.6194742E-04  0.1433499E+04  0.7818609E-02  0.8929921E-01
        1   -1    0    0  501    0  0.00000000000E+00  0.00000000000E+00  0.20976774562E+04  0.20976774563E+04  0.50400001928E-02 0. -1.
       -1   -1    0    0    0  501  0.00000000000E+00  0.00000000000E+00 -0.24490403377E+03  0.24490403382E+03  0.50400001928E-02 0.  1.
    10030    2    1    2    0    0  0.00000000000E+00  0.00000000000E+00  0.18527734225E+04  0.23425814901E+04  0.14334987557E+04 0.  0.
        4    1    3    3  502    0  0.29377836979E+03 -0.18233844296E+03  0.19523738953E+04  0.19827552745E+04  0.12699999809E+01 0. -1.
       -4    1    3    3    0  502 -0.29377836979E+03  0.18233844296E+03 -0.99600472872E+02  0.35982621560E+03  0.12699999809E+01 0.  1.
</event>
<event>
 5   0  0.6114266E-04  0.1381924E+04  0.7818609E-02  0.8967008E-01
       -1   -1    0    0    0  501  0.00000000000E+00  0.00000000000E+00  0.52043523926E+03  0.52043523928E+03  0.50400001928E-02 0. -1.
        1   -1    0    0  501    0  0.00000000000E+00  0.00000000000E+00 -0.91736368249E+03  0.91736368250E+03  0.50400001928E-02 0.  1.
    10030    2    1    2    0    0  0.00000000000E+00  0.00000000000E+00 -0.39692844323E+03  0.14377989218E+04  0.13819238584E+04 0.  0.
        3    1    3    3  502    0  0.14169881340E+03 -0.59690525949E+03 -0.52920721543E+03  0.81020659686E+03  0.10100000352E+00 0.  1.
       -3    1    3    3    0  502 -0.14169881340E+03  0.59690525949E+03  0.13227877220E+03  0.62759232492E+03  0.10100000352E+00 0. -1.
</event>
<event>
 5   0  0.5875298E-04  0.1405371E+04  0.7818609E-02  0.8949940E-01
        1   -1    0    0  501    0  0.00000000000E+00  0.00000000000E+00  0.18489341023E+04  0.18489341023E+04  0.50400001928E-02 0.  1.
       -1   -1    0    0    0  501  0.00000000000E+00  0.00000000000E+00 -0.26705471365E+03  0.26705471370E+03  0.50400001928E-02 0. -1.
    10030    2    1    2    0    0  0.00000000000E+00  0.00000000000E+00  0.15818793886E+04  0.21159888160E+04  0.14053705096E+04 0.  0.
        1    1    3    3  502    0 -0.47450434699E+03  0.46754739185E+03  0.11276512563E+04  0.13097145853E+04  0.50400001928E-02 0. -1.
       -1    1    3    3    0  502  0.47450434699E+03 -0.46754739185E+03  0.45422813233E+03  0.80627423075E+03  0.50400001928E-02 0.  1.
</event>
<event>
 5   0  0.1120053E-03  0.1411607E+04  0.7818609E-02  0.8945459E-01
        2   -1    0    0  501    0  0.00000000000E+00  0.00000000000E+00  0.87297669667E+03  0.87297669668E+03  0.25500000920E-02 0.  1.
       -2   -1    0    0    0  501  0.00000000000E+00  0.00000000000E+00 -0.57064369641E+03  0.57064369642E+03  0.25500000920E-02 0. -1.
    10030    2    1    2    0    0  0.00000000000E+00  0.00000000000E+00  0.30233300026E+03  0.14436203931E+04  0.14116070970E+04 0.  0.
        2    1    3    3  502    0  0.11273996328E+03 -0.42713226275E+03  0.71411032771E+03  0.83970579929E+03  0.25500000920E-02 0.  1.
       -2    1    3    3    0  502 -0.11273996328E+03  0.42713226275E+03 -0.41177732745E+03  0.60391459381E+03  0.25500000920E-02 0. -1.
</event>
<event>
 5   0  0.5875298E-04  0.1402212E+04  0.7818609E-02  0.8952219E-01
       -1   -1    0    0    0  501  0.00000000000E+00  0.00000000000E+00  0.70462552407E+03  0.70462552409E+03  0.50400001928E-02 0.  1.
        1   -1    0    0  501    0  0.00000000000E+00  0.00000000000E+00 -0.69760440778E+03  0.69760440780E+03  0.50400001928E-02 0. -1.
    10030    2    1    2    0    0  0.00000000000E+00  0.00000000000E+00  0.70211162926E+01  0.14022299319E+04  0.14022123540E+04 0.  0.
        1    1    3    3  502    0  0.23689690883E+03  0.43272463120E+03 -0.49467147871E+03  0.69862051483E+03  0.50400001928E-02 0. -1.
       -1    1    3    3    0  502 -0.23689690883E+03 -0.43272463120E+03  0.50169259501E+03  0.70360941706E+03  0.50400001928E-02 0.  1.
</event>
<event>
 5   0  0.4176125E-04  0.1417444E+04  0.7818609E-02  0.8941288E-01
       -4   -1    0    0    0  501  0.00000000000E+00  0.00000000000E+00  0.70139991260E+03  0.70140106237E+03  0.12699999809E+01 0.  1.
        4   -1    0    0  501    0  0.00000000000E+00  0.00000000000E+00 -0.71611805727E+03  0.71611918341E+03  0.12699999809E+01 0. -1.
    10030    2    1    2    0    0  0.00000000000E+00  0.00000000000E+00 -0.14718144670E+02  0.14175202458E+04  0.14174438343E+04 0.  0.
        5    1    3    3  502    0  0.28696380264E+03 -0.98748860685E+02 -0.64783493280E+03  0.71541019819E+03  0.46999998093E+01 0. -1.
       -5    1    3    3    0  502 -0.28696380264E+03  0.98748860685E+02  0.63311678813E+03  0.70211004759E+03  0.46999998093E+01 0.  1.
</event>
<event>
 5   0  0.6194742E-04  0.1439193E+04  0.7818609E-02  0.8925927E-01
        1   -1    0    0  501    0  0.00000000000E+00  0.00000000000E+00  0.87213002776E+03  0.87213002778E+03  0.50400001928E-02 0. -1.
       -1   -1    0    0    0  501  0.00000000000E+00  0.00000000000E+00 -0.59374044843E+03  0.59374044845E+03  0.50400001928E-02 0.  1.
    10030    2    1    2    0    0  0.00000000000E+00  0.00000000000E+00  0.27838957934E+03  0.14658704762E+04  0.14391926540E+04 0.  0.
        4    1    3    3  502    0  0.52875416074E+03 -0.34688978471E+03 -0.21054135699E+03  0.66651538702E+03  0.12699999809E+01 0.  1.
       -4    1    3    3    0  502 -0.52875416074E+03  0.34688978471E+03  0.48893093633E+03  0.79935508920E+03  0.12699999809E+01 0. -1.
</event>
<event>
 5   0  0.1108819E-03  0.1398530E+04  0.7818609E-02  0.8954883E-01
       -2   -1    0    0    0  501  0.00000000000E+00  0.00000000000E+00  0.16089228424E+03  0.16089228426E+03  0.25500000920E-02 0. -1.
        2   -1    0    0  501    0  0.00000000000E+00  0.00000000000E+00 -0.30391241107E+04  0.30391241107E+04  0.25500000920E-02 0.  1.
    10030    2    1    2    0    0  0.00000000000E+00  0.00000000000E+00 -0.28782318264E+04  0.32000163950E+04  0.13985301145E+04 0.  0.
        3    1    3    3  502    0 -0.35364011367E+03 -0.12320309500E+03 -0.87896639733E+02  0.38466369999E+03  0.10100000352E+00 0. -1.
       -3    1    3    3    0  502  0.35364011367E+03  0.12320309500E+03 -0.27903351867E+04  0.28153526950E+04  0.10100000352E+00 0.  1.
</event>
<event>
 5   0  0.1108819E-03  0.1396366E+04  0.7818609E-02  0.8956453E-01
       -2   -1    0    0    0  501  0.00000000000E+00  0.00000000000E+00  0.25140680207E+03  0.25140680208E+03  0.25500000920E-02 0.  1.
        2   -1    0    0  501    0  0.00000000000E+00  0.00000000000E+00 -0.19389275141E+04  0.19389275141E+04  0.25500000920E-02 0. -1.
    10030    2    1    2    0    0  0.00000000000E+00  0.00000000000E+00 -0.16875207120E+04  0.21903343161E+04  0.13963660921E+04 0.  0.
        3    1    3    3  502    0 -0.51231564788E+03  0.36467793018E+03 -0.36797583023E+03  0.72860382764E+03  0.10100000352E+00 0.  1.
       -3    1    3    3    0  502  0.51231564788E+03 -0.36467793018E+03 -0.13195448818E+04  0.14617304885E+04  0.10100000352E+00 0. -1.
</event>
<event>
 5   0  0.6097538E-04  0.1417925E+04  0.7818609E-02  0.8940945E-01
        1   -1    0    0  501    0  0.00000000000E+00  0.00000000000E+00  0.15318770186E+04  0.15318770186E+04  0.50400001928E-02 0. -1.
       -1   -1    0    0    0  501  0.00000000000E+00  0.00000000000E+00 -0.32811221677E+03  0.32811221681E+03  0.50400001928E-02 0.  1.
    10030    2    1    2    0    0  0.00000000000E+00  0.00000000000E+00  0.12037648018E+04  0.18599892354E+04  0.14179246305E+04 0.  0.
        2    1    3    3  502    0  0.56255568342E+03 -0.28920448013E+03  0.10218931339E+04  0.12018209956E+04  0.25500000920E-02 0. -1.
       -2    1    3    3    0  502 -0.56255568342E+03  0.28920448013E+03  0.18187166785E+03  0.65816823978E+03  0.25500000920E-02 0.  1.
</event>
<event>
 5   0  0.4176125E-04  0.1387686E+04  0.7818609E-02  0.8962781E-01
       -3   -1    0    0    0  501  0.00000000000E+00  0.00000000000E+00  0.78862064794E+03  0.78862065440E+03  0.10100000352E+00 0.  1.
        3   -1    0    0  501    0  0.00000000000E+00  0.00000000000E+00 -0.61045587600E+03  0.61045588436E+03  0.10100000352E+00 0. -1.
    10030    2    1    2    0    0  0.00000000000E+00  0.00000000000E+00  0.17816477193E+03  0.13990765388E+04  0.13876860147E+04 0.  0.
        3    1    3    3  502    0 -0.22751780734E+03  0.65414025721E+03  0.13131030724E+03  0.70491576500E+03  0.10100000352E+00 0. -1.
       -3    1    3    3    0  502  0.22751780734E+03 -0.65414025721E+03  0.46854464691E+02  0.69416077376E+03  0.10100000352E+00 0.  1.
</event>
<event>
 5   0  0.6153318E-04  0.1398336E+04  0.7818609E-02  0.8955024E-01
       -1   -1    0    0    0  501  0.00000000000E+00  0.00000000000E+00  0.30775824362E+03  0.30775824366E+03  0.50400001928E-02 0. -1.
        1   -1    0    0  501    0  0.00000000000E+00  0.00000000000E+00 -0.15883766575E+04  0.15883766575E+04  0.50400001928E-02 0.  1.
    10030    2    1    2    0    0  0.00000000000E+00  0.00000000000E+00 -0.12806184139E+04  0.18961349012E+04  0.13983361690E+04 0.  0.
        5    1    3    3  502    0  0.19076822560E+03  0.44660234890E+03 -0.13223183815E+04  0.14086852615E+04  0.46999998093E+01 0.  1.
       -5    1    3    3    0  502 -0.19076822560E+03 -0.44660234890E+03  0.41699967586E+02  0.48744963969E+03  0.46999998093E+01 0. -1.
</event>
<event>
 5   0  0.1095119E-03  0.1396392E+04  0.7818609E-02  0.8956434E-01
        2   -1    0    0  501    0  0.00000000000E+00  0.00000000000E+00  0.86111660040E+03  0.86111660041E+03  0.25500000920E-02 0. -1.
       -2   -1    0    0    0  501  0.00000000000E+00  0.00000000000E+00 -0.56609930097E+03  0.56609930097E+03  0.25500000920E-02 0.  1.
    10030    2    1    2    0    0  0.00000000000E+00  0.00000000000E+00  0.29501729944E+03  0.14272159014E+04  0.13963917868E+04 0.  0.
        5    1    3    3  502    0 -0.49439715100E+03  0.31276946903E+03  0.53697405446E+03  0.79411366242E+03  0.46999998093E+01 0. -1.
       -5    1    3    3    0  502  0.49439715100E+03 -0.31276946903E+03 -0.24195675502E+03  0.63310223896E+03  0.46999998093E+01 0.  1.
</event>
<event>
 5   0  0.1175146E-03  0.1388891E+04  0.7818609E-02  0.8961899E-01
       -2   -1    0    0    0  501  0.00000000000E+00  0.00000000000E+00  0.58150558587E+03  0.58150558587E+03  0.25500000920E-02 0. -1.
        2   -1    0    0  501    0  0.00000000000E+00  0.00000000000E+00 -0.82932093152E+03  0.82932093153E+03  0.25500000920E-02 0.  1.
    10030    2    1    2    0    0  0.00000000000E+00  0.00000000000E+00 -0.24781534566E+03  0.14108265174E+04  0.13888912904E+04 0.  0.
        1    1    3    3  502    0  0.74253644872E+02 -0.68522568930E+03 -0.21014191691E+03  0.72056052787E+03  0.50400001928E-02 0.  1.
       -1    1    3    3    0  502 -0.74253644872E+02  0.68522568930E+03 -0.37673428743E+02  0.69026598953E+03  0.50400001928E-02 0. -1.
</event>
<event>
 5   0  0.4176125E-04  0.1384710E+04  0.7818609E-02  0.8964961E-01
       -3   -1    0    0    0  501  0.00000000000E+00  0.00000000000E+00  0.29523362429E+03  0.29523364156E+03  0.10100000352E+00 0.  1.
        3   -1    0    0  501    0  0.00000000000E+00  0.00000000000E+00 -0.16236477179E+04  0.16236477210E+04  0.10100000352E+00 0. -1.
    10030    2    1    2    0    0  0.00000000000E+00  0.00000000000E+00 -0.13284140936E+04  0.19188813626E+04  0.13847099623E+04 0.  0.
        2    1    3    3  502    0 -0.10480039211E+03 -0.62866023267E+03 -0.10390264194E+04  0.12189227664E+04  0.25500000920E-02 0. -1.
       -2    1    3    3    0  502  0.10480039211E+03  0.62866023267E+03 -0.28938767419E+03  0.69995859614E+03  0.25500000920E-02 0.  1.
</event>
<event>
 5   0  0.6194742E-04  0.1411765E+04  0.7818609E-02  0.8945346E-01
        1   -1    0    0  501    0  0.00000000000E+00  0.00000000000E+00  0.11417701246E+04  0.11417701246E+04  0.50400001928E-02 0.  1.
       -1   -1    0    0    0  501  0.00000000000E+00  0.00000000000E+00 -0.43640136990E+03  0.43640136993E+03  0.50400001928E-02 0. -1.
    10030    2    1    2    0    0  0.00000000000E+00  0.00000000000E+00  0.70536875471E+03  0.15781714945E+04  0.14117649188E+04 0.  0.
        4    1    3    3  502    0  0.40746302939E+03  0.57540595760E+02 -0.28844321942E+03  0.50253173453E+03  0.12699999809E+01 0. -1.
       -4    1    3    3    0  502 -0.40746302939E+03 -0.57540595760E+02  0.99381197413E+03  0.10756397600E+04  0.12699999809E+01 0.  1.
</event>
<event>
 5   0  0.1098949E-03  0.1396353E+04  0.7818609E-02  0.8956463E-01
       -2   -1    0    0    0  501  0.00000000000E+00  0.00000000000E+00  0.36082764512E+03  0.36082764512E+03  0.25500000920E-02 0.  1.
        2   -1    0    0  501    0  0.00000000000E+00  0.00000000000E+00 -0.13509226411E+04  0.13509226411E+04  0.25500000920E-02 0. -1.
    10030    2    1    2    0    0  0.00000000000E+00  0.00000000000E+00 -0.99009499601E+03  0.17117502862E+04  0.13963527281E+04 0.  0.
        4    1    3    3  502    0  0.18411967327E+03  0.58813499152E+03 -0.92845877230E+02  0.62323734817E+03  0.12699999809E+01 0.  1.
       -4    1    3    3    0  502 -0.18411967327E+03 -0.58813499152E+03 -0.89724911878E+03  0.10885129381E+04  0.12699999809E+01 0. -1.
</event>
<event>
 5   0  0.1108819E-03  0.1409076E+04  0.7818609E-02  0.8947275E-01
        2   -1    0    0  501    0  0.00000000000E+00  0.00000000000E+00  0.90233634693E+03  0.90233634694E+03  0.25500000920E-02 0.  1.
       -2   -1    0    0    0  501  0.00000000000E+00  0.00000000000E+00 -0.55009829953E+03  0.55009829953E+03  0.25500000920E-02 0. -1.
    10030    2    1    2    0    0  0.00000000000E+00  0.00000000000E+00  0.35223804741E+03  0.14524346465E+04  0.14090758533E+04 0.  0.
        3    1    3    3  502    0 -0.48484558261E+03 -0.11653621843E+03 -0.33690864872E+03  0.60180011380E+03  0.10100000352E+00 0. -1.
       -3    1    3    3    0  502  0.48484558261E+03  0.11653621843E+03  0.68914669613E+03  0.85063453267E+03  0.10100000352E+00 0.  1.
</event>
<event>
 5   0  0.1095119E-03  0.1395469E+04  0.7818609E-02  0.8957105E-01
        2   -1    0    0  501    0  0.00000000000E+00  0.00000000000E+00  0.16581312318E+04  0.16581312318E+04  0.25500000920E-02 0. -1.
       -2   -1    0    0    0  501  0.00000000000E+00  0.00000000000E+00 -0.29360370351E+03  0.29360370352E+03  0.25500000920E-02 0.  1.
    10030    2    1    2    0    0  0.00000000000E+00  0.00000000000E+00  0.13645275283E+04  0.19517349353E+04  0.13954690546E+04 0.  0.
        5    1    3    3  502    0 -0.41961276651E+03  0.94469761945E+02  0.14506310330E+04  0.15130604395E+04  0.46999998093E+01 0. -1.
       -5    1    3    3    0  502  0.41961276651E+03 -0.94469761945E+02 -0.86103504709E+02  0.43867449580E+03  0.46999998093E+01 0.  1.
</event>
<event>
 5   0  0.1095119E-03  0.1420258E+04  0.7818609E-02  0.8939284E-01
        2   -1    0    0  501    0  0.00000000000E+00  0.00000000000E+00  0.85174125310E+03  0.85174125311E+03  0.25500000920E-02 0.  1.
       -2   -1    0    0    0  501  0.00000000000E+00  0.00000000000E+00 -0.59206154680E+03  0.59206154681E+03  0.25500000920E-02 0. -1.
    10030    2    1    2    0    0  0.00000000000E+00  0.00000000000E+00  0.25967970630E+03  0.14438027999E+04  0.14202580664E+04 0.  0.
        5    1    3    3  502    0  0.53817232620E+03  0.40132973218E+03 -0.10544058500E+03  0.67958429468E+03  0.46999998093E+01 0. -1.
       -5    1    3    3    0  502 -0.53817232620E+03 -0.40132973218E+03  0.36512029131E+03  0.76421850523E+03  0.46999998093E+01 0.  1.
</event>
<event>
 5   0  0.1095119E-03  0.1392007E+04  0.7818609E-02  0.8959625E-01
        2   -1    0    0  501    0  0.00000000000E+00  0.00000000000E+00  0.48744831222E+03  0.48744831223E+03  0.25500000920E-02 0. -1.
       -2   -1    0    0    0  501  0.00000000000E+00  0.00000000000E+00 -0.99378886464E+03  0.99378886464E+03  0.25500000920E-02 0.  1.
    10030    2    1    2    0    0  0.00000000000E+00  0.00000000000E+00 -0.50634055242E+03  0.14812371769E+04  0.13920067597E+04 0.  0.
        5    1    3    3  502    0  0.85973527089E+02  0.60032415143E+03  0.11021406088E+03  0.61640065166E+03  0.46999998093E+01 0.  1.
       -5    1    3    3    0  502 -0.85973527089E+02 -0.60032415143E+03 -0.61655461329E+03  0.86483652520E+03  0.46999998093E+01 0. -1.
</event>
<event>
 5   0  0.6153318E-04  0.1404969E+04  0.7818609E-02  0.8950230E-01
        1   -1    0    0  501    0  0.00000000000E+00  0.00000000000E+00  0.14633268678E+04  0.14633268678E+04  0.50400001928E-02 0. -1.
       -1   -1    0    0    0  501  0.00000000000E+00  0.00000000000E+00 -0.33723442448E+03  0.33723442452E+03  0.50400001928E-02 0.  1.
    10030    2    1    2    0    0  0.00000000000E+00  0.00000000000E+00  0.11260924433E+04  0.18005612923E+04  0.14049686034E+04 0.  0.
        5    1    3    3  502    0 -0.53427230970E+03 -0.32892558156E+03  0.96795478168E+03  0.11535152745E+04  0.46999998093E+01 0. -1.
       -5    1    3    3    0  502  0.53427230970E+03  0.32892558156E+03  0.15813766159E+03  0.64704601779E+03  0.46999998093E+01 0.  1.
</event>
<event>
 5   0  0.1175146E-03  0.1404070E+04  0.7818609E-02  0.8950878E-01
        2   -1    0    0  501    0  0.00000000000E+00  0.00000000000E+00  0.19186174206E+04  0.19186174206E+04  0.25500000920E-02 0.  1.
       -2   -1    0    0    0  501  0.00000000000E+00  0.00000000000E+00 -0.25687942314E+03  0.25687942316E+03  0.25500000920E-02 0. -1.
    10030    2    1    2    0    0  0.00000000000E+00  0.00000000000E+00  0.16617379975E+04  0.21754968438E+04  0.14040702778E+04 0.  0.
        1    1    3    3  502    0 -0.36404905392E+03  0.59133559989E+03  0.99072119006E+03  0.12098503965E+04  0.50400001928E-02 0.  1.
       -1    1    3    3    0  502  0.36404905392E+03 -0.59133559989E+03  0.67101680744E+03  0.96564644734E+03  0.50400001928E-02 0. -1.
</event>
<event>
 5   0  0.6097538E-04  0.1537402E+04  0.7818609E-02  0.8859955E-01
        1   -1    0    0  501    0  0.00000000000E+00  0.00000000000E+00  0.59837000742E+03  0.59837000744E+03  0.50400001928E-02 0.  1.
       -1   -1    0    0    0  501  0.00000000000E+00  0.00000000000E+00 -0.98751755421E+03  0.98751755423E+03  0.50400001928E-02 0. -1.
    10030    2    1    2    0    0  0.00000000000E+00  0.00000000000E+00 -0.38914754679E+03  0.15858875617E+04  0.15374015562E+04 0.  0.
        2    1    3    3  502    0  0.36114911716E+03  0.35867572106E+02  0.50442958570E+03  0.62142125366E+03  0.25500000920E-02 0.  1.
       -2    1    3    3    0  502 -0.36114911716E+03 -0.35867572106E+02 -0.89357713250E+03  0.96446630801E+03  0.25500000920E-02 0. -1.
</event>
<event>
 5   0  0.6097538E-04  0.1396008E+04  0.7818609E-02  0.8956713E-01
       -1   -1    0    0    0  501  0.00000000000E+00  0.00000000000E+00  0.11555897088E+04  0.11555897089E+04  0.50400001928E-02 0. -1.
        1   -1    0    0  501    0  0.00000000000E+00  0.00000000000E+00 -0.42161125517E+03  0.42161125520E+03  0.50400001928E-02 0.  1.
    10030    2    1    2    0    0  0.00000000000E+00  0.00000000000E+00  0.73397845368E+03  0.15772009641E+04  0.13960080625E+04 0.  0.
        2    1    3    3  502    0 -0.24585346107E+03 -0.43667048002E+03  0.91593940735E+03  0.10440641888E+04  0.25500000920E-02 0. -1.
       -2    1    3    3    0  502  0.24585346107E+03  0.43667048002E+03 -0.18196095367E+03  0.53313677523E+03  0.25500000920E-02 0.  1.
</event>
<event>
 5   0  0.6114266E-04  0.1449869E+04  0.7818609E-02  0.8918491E-01
       -1   -1    0    0    0  501  0.00000000000E+00  0.00000000000E+00  0.14350299957E+04  0.14350299958E+04  0.50400001928E-02 0. -1.
        1   -1    0    0  501    0  0.00000000000E+00  0.00000000000E+00 -0.36621557067E+03  0.36621557071E+03  0.50400001928E-02 0.  1.
    10030    2    1    2    0    0  0.00000000000E+00  0.00000000000E+00  0.10688144251E+04  0.18012455665E+04  0.14498694132E+04 0.  0.
        3    1    3    3  502    0 -0.53055759257E+01  0.70263039298E+03  0.31282019884E+03  0.76913854751E+03  0.10100000352E+00 0.  1.
       -3    1    3    3    0  502  0.53055759257E+01 -0.70263039298E+03  0.75599422623E+03  0.10321070190E+04  0.10100000352E+00 0. -1.
</event>
<event>
 5   0  0.1175146E-03  0.1213860E+04  0.7818609E-02  0.9100811E-01
       -2   -1    0    0    0  501  0.00000000000E+00  0.00000000000E+00  0.65132272417E+03  0.65132272417E+03  0.25500000920E-02 0.  1.
        2   -1    0    0  501    0  0.00000000000E+00  0.00000000000E+00 -0.56556311807E+03  0.56556311808E+03  0.25500000920E-02 0. -1.
    10030    2    1    2    0    0  0.00000000000E+00  0.00000000000E+00  0.85759606099E+02  0.12168858423E+04  0.12138601415E+04 0.  0.
        1    1    3    3  502    0  0.55081652995E+01  0.20485215006E+03 -0.52983166844E+03  0.56808127955E+03  0.50400001928E-02 0. -1.
       -1    1    3    3    0  502 -0.55081652995E+01 -0.20485215006E+03  0.61559127454E+03  0.64880456270E+03  0.50400001928E-02 0.  1.
</event>
<event>
 5   0  0.6194742E-04  0.1380680E+04  0.7818609E-02  0.8967923E-01
       -1   -1    0    0    0  501  0.00000000000E+00  0.00000000000E+00  0.28280747125E+03  0.28280747129E+03  0.50400001928E-02 0. -1.
        1   -1    0    0  501    0  0.00000000000E+00  0.00000000000E+00 -0.16851372370E+04  0.16851372370E+04  0.50400001928E-02 0.  1.
    10030    2    1    2    0    0  0.00000000000E+00  0.00000000000E+00 -0.14023297658E+04  0.19679447083E+04  0.13806801233E+04 0.  0.
        4    1    3    3  502    0  0.39514748729E+03 -0.24734046636E+03 -0.14269003007E+04  0.15011212223E+04  0.12699999809E+01 0. -1.
       -4    1    3    3    0  502 -0.39514748729E+03  0.24734046636E+03  0.24570534918E+02  0.46682348602E+03  0.12699999809E+01 0.  1.
</event>
<event>
 5   0  0.6194742E-04  0.1399647E+04  0.7818609E-02  0.8954074E-01
        1   -1    0    0  501    0  0.00000000000E+00  0.00000000000E+00  0.55543157921E+03  0.55543157923E+03  0.50400001928E-02 0.  1.
       -1   -1    0    0    0  501  0.00000000000E+00  0.00000000000E+00 -0.88175146618E+03  0.88175146620E+03  0.50400001928E-02 0. -1.
    10030    2    1    2    0    0  0.00000000000E+00  0.00000000000E+00 -0.32631988698E+03  0.14371830454E+04  0.13996465402E+04 0.  0.
        4    1    3    3  502    0  0.45573888113E+03 -0.49402075573E+03  0.36994787202E+02  0.67314534986E+03  0.12699999809E+01 0.  1.
       -4    1    3    3    0  502 -0.45573888113E+03  0.49402075573E+03 -0.36331467418E+03  0.76403769556E+03  0.12699999809E+01 0. -1.
</event>
<event>
 5   0  0.6153318E-04  0.1372069E+04  0.7818609E-02  0.8974288E-01
        1   -1    0    0  501    0  0.00000000000E+00  0.00000000000E+00  0.12823800347E+04  0.12823800347E+04  0.50400001928E-02 0. -1.
       -1   -1    0    0    0  501  0.00000000000E+00  0.00000000000E+00 -0.36700785980E+03  0.36700785983E+03  0.50400001928E-02 0.  1.
    10030    2    1    2    0    0  0.00000000000E+00  0.00000000000E+00  0.91537217492E+03  0.16493878946E+04  0.13720693161E+04 0.  0.
        5    1    3    3  502    0 -0.69753640821E+02 -0.68246302171E+03  0.45727732690E+03  0.82446709461E+03  0.46999998093E+01 0. -1.
       -5    1    3    3    0  502  0.69753640821E+02  0.68246302171E+03  0.45809484802E+03  0.82492079995E+03  0.46999998093E+01 0.  1.
</event>
<event>
 5   0  0.1120053E-03  0.1392778E+04  0.7818609E-02  0.8959063E-01
        2   -1    0    0  501    0  0.00000000000E+00  0.00000000000E+00  0.74565448536E+03  0.74565448537E+03  0.25500000920E-02 0.  1.
       -2   -1    0    0    0  501  0.00000000000E+00  0.00000000000E+00 -0.65037830375E+03  0.65037830375E+03  0.25500000920E-02 0. -1.
    10030    2    1    2    0    0  0.00000000000E+00  0.00000000000E+00  0.95276181614E+02  0.13960327891E+04  0.13927777990E+04 0.  0.
        2    1    3    3  502    0 -0.61259809283E+03  0.53707401232E+01 -0.28427357722E+03  0.67536414985E+03  0.25500000920E-02 0. -1.
       -2    1    3    3    0  502  0.61259809283E+03 -0.53707401232E+01  0.37954975883E+03  0.72066863927E+03  0.25500000920E-02 0.  1.
</event>
<event>
 5   0  0.1098949E-03  0.1399754E+04  0.7818609E-02  0.8953996E-01
       -2   -1    0    0    0  501  0.00000000000E+00  0.00000000000E+00  0.24848913381E+03  0.24848913382E+03  0.25500000920E-02 0.  1.
        2   -1    0    0  501    0  0.00000000000E+00  0.00000000000E+00 -0.19712251036E+04  0.19712251036E+04  0.25500000920E-02 0. -1.
    10030    2    1    2    0    0  0.00000000000E+00  0.00000000000E+00 -0.17227359698E+04  0.22197142374E+04  0.13997542907E+04 0.  0.
        4    1    3    3  502    0  0.62948811887E+03  0.74985088575E+02 -0.13316507999E+04  0.14748469484E+04  0.12699999809E+01 0. -1.
       -4    1    3    3    0  502 -0.62948811887E+03 -0.74985088575E+02 -0.39108516986E+03  0.74486728905E+03  0.12699999809E+01 0.  1.
</event>
<event>
 5   0  0.1095119E-03  0.1349217E+04  0.7818609E-02  0.8991421E-01
        2   -1    0    0  501    0  0.00000000000E+00  0.00000000000E+00  0.15524846291E+04  0.15524846291E+04  0.25500000920E-02 0.  1.
       -2   -1    0    0    0  501  0.00000000000E+00  0.00000000000E+00 -0.29314087446E+03  0.29314087447E+03  0.25500000920E-02 0. -1.
    10030    2    1    2    0    0  0.00000000000E+00  0.00000000000E+00  0.12593437546E+04  0.18456255035E+04  0.13492171089E+04 0.  0.
        5    1    3    3  502    0  0.24713672739E+03  0.48291071746E+03  0.11781993742E+04  0.12970948995E+04  0.46999998093E+01 0.  1.
       -5    1    3    3    0  502 -0.24713672739E+03 -0.48291071746E+03  0.81144380437E+02  0.54853060401E+03  0.46999998093E+01 0. -1.
</event>
<event>
 5   0  0.1108819E-03  0.1402897E+04  0.7818609E-02  0.8951724E-01
        2   -1    0    0  501    0  0.00000000000E+00  0.00000000000E+00  0.52321219666E+03  0.52321219666E+03  0.25500000920E-02 0. -1.
       -2   -1    0    0    0  501  0.00000000000E+00  0.00000000000E+00 -0.94040221351E+03  0.94040221351E+03  0.25500000920E-02 0.  1.
    10030    2    1    2    0    0  0.00000000000E+00  0.00000000000E+00 -0.41719001685E+03  0.14636144102E+04  0.14028968713E+04 0.  0.
        3    1    3    3  502    0  0.55498898330E+03  0.39628263086E+03 -0.37995103637E+03  0.78065068715E+03  0.10100000352E+00 0. -1.
       -3    1    3    3    0  502 -0.55498898330E+03 -0.39628263086E+03 -0.37238980486E+02  0.68296372303E+03  0.10100000352E+00 0.  1.
</event>
<event>
 5   0  0.1095119E-03  0.1406980E+04  0.7818609E-02  0.8948781E-01
       -2   -1    0    0    0  501  0.00000000000E+00  0.00000000000E+00  0.44327777811E+03  0.44327777811E+03  0.25500000920E-02 0.  1.
        2   -1    0    0  501    0  0.00000000000E+00  0.00000000000E+00 -0.11164522849E+04  0.11164522849E+04  0.25500000920E-02 0. -1.
    10030    2    1    2    0    0  0.00000000000E+00  0.00000000000E+00 -0.67317450677E+03  0.15597300630E+04  0.14069804380E+04 0.  0.
        5    1    3    3  502    0 -0.88063998378E+02 -0.55490297436E+03  0.13269595482E+03  0.57732389972E+03  0.46999998093E+01 0.  1.
       -5    1    3    3    0  502  0.88063998378E+02  0.55490297436E+03 -0.80587046159E+03  0.98240616327E+03  0.46999998093E+01 0. -1.
</event>
<event>
 5   0  0.1120053E-03  0.1509817E+04  0.7818609E-02  0.8877951E-01
        2   -1    0    0  501    0  0.00000000000E+00  0.00000000000E+00  0.13924865807E+04  0.13924865807E+04  0.25500000920E-02 0.  1.
       -2   -1    0    0    0  501  0.00000000000E+00  0.00000000000E+00 -0.40925853304E+03  0.40925853305E+03  0.25500000920E-02 0. -1.
    10030    2    1    2    0    0  0.00000000000E+00  0.00000000000E+00  0.98322804763E+03  0.18017451137E+04  0.15098172277E+04 0.  0.
        2    1    3    3  502    0  0.23604481929E+02  0.11100288103E+02  0.13919486443E+04  0.13921930241E+04  0.25500000920E-02 0.  1.
       -2    1    3    3    0  502 -0.23604481929E+02 -0.11100288103E+02 -0.40872059667E+03  0.40955208962E+03  0.25500000920E-02 0. -1.
</event>
<event>
 5   0  0.5875298E-04  0.1393006E+04  0.7818609E-02  0.8958897E-01
       -1   -1    0    0    0  501  0.00000000000E+00  0.00000000000E+00  0.39250084820E+03  0.39250084823E+03  0.50400001928E-02 0.  1.
        1   -1    0    0  501    0  0.00000000000E+00  0.00000000000E+00 -0.12359624601E+04  0.12359624601E+04  0.50400001928E-02 0. -1.
    10030    2    1    2    0    0  0.00000000000E+00  0.00000000000E+00 -0.84346161188E+03  0.16284633083E+04  0.13930058348E+04 0.  0.
        1    1    3    3  502    0  0.26484425614E+03  0.29573240274E+03 -0.10907543816E+04  0.11607520213E+04  0.50400001928E-02 0. -1.
       -1    1    3    3    0  502 -0.26484425614E+03 -0.29573240274E+03  0.24729276968E+03  0.46771128702E+03  0.50400001928E-02 0.  1.
</event>
<event>
 5   0  0.6194742E-04  0.1393504E+04  0.7818609E-02  0.8958534E-01
        1   -1    0    0  501    0  0.00000000000E+00  0.00000000000E+00  0.57244270115E+03  0.57244270117E+03  0.50400001928E-02 0. -1.
       -1   -1    0    0    0  501  0.00000000000E+00  0.00000000000E+00 -0.84805624499E+03  0.84805624501E+03  0.50400001928E-02 0.  1.
    10030    2    1    2    0    0  0.00000000000E+00  0.00000000000E+00 -0.27561354385E+03  0.14204989462E+04  0.13935043705E+04 0.  0.
        4    1    3    3  502    0  0.42523571397E+03 -0.54790130096E+03 -0.20573661035E+03  0.72342961909E+03  0.12699999809E+01 0.  1.
       -4    1    3    3    0  502 -0.42523571397E+03  0.54790130096E+03 -0.69876933501E+02  0.69706932709E+03  0.12699999809E+01 0. -1.
</event>
<event>
 5   0  0.1098949E-03  0.1408882E+04  0.7818609E-02  0.8947414E-01
        2   -1    0    0  501    0  0.00000000000E+00  0.00000000000E+00  0.94649409875E+03  0.94649409876E+03  0.25500000920E-02 0. -1.
       -2   -1    0    0    0  501  0.00000000000E+00  0.00000000000E+00 -0.52428962810E+03  0.52428962811E+03  0.25500000920E-02 0.  1.
    10030    2    1    2    0    0  0.00000000000E+00  0.00000000000E+00  0.42220447065E+03  0.14707837269E+04  0.14088818816E+04 0.  0.
        4    1    3    3  502    0  0.17527043531E+03 -0.67450252452E+03  0.31838951658E+03  0.76618984478E+03  0.12699999809E+01 0.  1.
       -4    1    3    3    0  502 -0.17527043531E+03  0.67450252452E+03  0.10381495407E+03  0.70459388208E+03  0.12699999809E+01 0. -1.
</event>
<event>
 5   0  0.1098949E-03  0.1472772E+04  0.7818609E-02  0.8902764E-01
       -2   -1    0    0    0  501  0.00000000000E+00  0.00000000000E+00  0.51637499126E+03  0.51637499126E+03  0.25500000920E-02 0.  1.
        2   -1    0    0  501    0  0.00000000000E+00  0.00000000000E+00 -0.10501369182E+04  0.10501369182E+04  0.25500000920E-02 0. -1.
    10030    2    1    2    0    0  0.00000000000E+00  0.00000000000E+00 -0.53376192691E+03  0.15665119094E+04  0.14727721371E+04 0.  0.
        4    1    3    3  502    0  0.69309519124E+03  0.10314440870E+03 -0.50765846655E+03  0.86529673796E+03  0.12699999809E+01 0. -1.
       -4    1    3    3    0  502 -0.69309519124E+03 -0.10314440870E+03 -0.26103460359E+02  0.70121517147E+03  0.12699999809E+01 0.  1.
</event>
<event>
 5   0  0.6097538E-04  0.1266208E+04  0.7818609E-02  0.9056801E-01
        1   -1    0    0  501    0  0.00000000000E+00  0.00000000000E+00  0.77340575526E+03  0.77340575527E+03  0.50400001928E-02 0. -1.
       -1   -1    0    0    0  501  0.00000000000E+00  0.00000000000E+00 -0.51825374019E+03  0.51825374021E+03  0.50400001928E-02 0.  1.
    10030    2    1    2    0    0  0.00000000000E+00  0.00000000000E+00  0.25515201507E+03  0.12916594955E+04  0.12662076060E+04 0.  0.
        2    1    3    3  502    0  0.47901299707E+03 -0.69120832695E+02  0.54393375897E+03  0.72807628380E+03  0.25500000920E-02 0. -1.
       -2    1    3    3    0  502 -0.47901299707E+03  0.69120832695E+02 -0.28878174390E+03  0.56358321169E+03  0.25500000920E-02 0.  1.
</event>
<event>
 5   0  0.6097538E-04  0.1395135E+04  0.7818609E-02  0.8957347E-01
       -1   -1    0    0    0  501  0.00000000000E+00  0.00000000000E+00  0.41538417812E+03  0.41538417815E+03  0.50400001928E-02 0. -1.
        1   -1    0    0  501    0  0.00000000000E+00  0.00000000000E+00 -0.11714471834E+04  0.11714471834E+04  0.50400001928E-02 0.  1.
    10030    2    1    2    0    0  0.00000000000E+00  0.00000000000E+00 -0.75606300526E+03  0.15868313615E+04  0.13951352988E+04 0.  0.
        2    1    3    3  502    0  0.69170083514E+03 -0.73955791222E+02 -0.43692572126E+03  0.82147646972E+03  0.25500000920E-02 0.  1.
       -2    1    3    3    0  502 -0.69170083514E+03  0.73955791222E+02 -0.31913728400E+03  0.76535489182E+03  0.25500000920E-02 0. -1.
</event>
<event>
 5   0  0.1120053E-03  0.1401977E+04  0.7818609E-02  0.8952389E-01
       -2   -1    0    0    0  501  0.00000000000E+00  0.00000000000E+00  0.55925513016E+03  0.55925513016E+03  0.25500000920E-02 0. -1.
        2   -1    0    0  501    0  0.00000000000E+00  0.00000000000E+00 -0.87864116935E+03  0.87864116935E+03  0.25500000920E-02 0.  1.
    10030    2    1    2    0    0  0.00000000000E+00  0.00000000000E+00 -0.31938603919E+03  0.14378962995E+04  0.14019765783E+04 0.  0.
        2    1    3    3  502    0 -0.38431187015E+02  0.57884411379E+03  0.24389509695E+03  0.62930301328E+03  0.25500000920E-02 0. -1.
       -2    1    3    3    0  502  0.38431187015E+02 -0.57884411379E+03 -0.56328113614E+03  0.80859328623E+03  0.25500000920E-02 0.  1.
</event>
<event>
 5   0  0.1108819E-03  0.1398468E+04  0.7818609E-02  0.8954928E-01
        2   -1    0    0  501    0  0.00000000000E+00  0.00000000000E+00  0.10974976872E+04  0.10974976872E+04  0.25500000920E-02 0.  1.
       -2   -1    0    0    0  501  0.00000000000E+00  0.00000000000E+00 -0.44549341931E+03  0.44549341932E+03  0.25500000920E-02 0. -1.
    10030    2    1    2    0    0  0.00000000000E+00  0.00000000000E+00  0.65200426789E+03  0.15429911065E+04  0.13984677291E+04 0.  0.
        3    1    3    3  502    0 -0.12490242629E+03  0.63767607991E+03  0.41055990790E+02  0.65108909034E+03  0.10100000352E+00 0.  1.
       -3    1    3    3    0  502  0.12490242629E+03 -0.63767607991E+03  0.61094827710E+03  0.89190201618E+03  0.10100000352E+00 0. -1.
</event>
<event>
 5   0  0.1120053E-03  0.1375475E+04  0.7818609E-02  0.8971765E-01
        2   -1    0    0  501    0  0.00000000000E+00  0.00000000000E+00  0.58760212843E+03  0.58760212844E+03  0.25500000920E-02 0.  1.
       -2   -1    0    0    0  501  0.00000000000E+00  0.00000000000E+00 -0.80493771042E+03  0.80493771042E+03  0.25500000920E-02 0. -1.
    10030    2    1    2    0    0  0.00000000000E+00  0.00000000000E+00 -0.21733558198E+03  0.13925398389E+04  0.13754753533E+04 0.  0.
        2    1    3    3  502    0 -0.20795673740E+03  0.64036953767E+02 -0.76916986271E+03  0.79935537390E+03  0.25500000920E-02 0. -1.
       -2    1    3    3    0  502  0.20795673740E+03 -0.64036953767E+02  0.55183428073E+03  0.59318446496E+03  0.25500000920E-02 0.  1.
</event>
<event>
 5   0  0.1175146E-03  0.1395080E+04  0.7818609E-02  0.8957388E-01
       -2   -1    0    0    0  501  0.00000000000E+00  0.00000000000E+00  0.89406061064E+03  0.89406061065E+03  0.25500000920E-02 0. -1.
        2   -1    0    0  501    0  0.00000000000E+00  0.00000000000E+00 -0.54421603717E+03  0.54421603717E+03  0.25500000920E-02 0.  1.
    10030    2    1    2    0    0  0.00000000000E+00  0.00000000000E+00  0.34984457348E+03  0.14382766478E+04  0.13950801017E+04 0.  0.
        1    1    3    3  502    0 -0.18032652899E+03 -0.34801193028E+03 -0.41994647061E+03  0.57444320770E+03  0.50400001928E-02 0.  1.
       -1    1    3    3    0  502  0.18032652899E+03  0.34801193028E+03  0.76979104409E+03  0.86383344011E+03  0.50400001928E-02 0. -1.
</event>
<event>
 5   0  0.6153318E-04  0.1386284E+04  0.7818609E-02  0.8963807E-01
        1   -1    0    0  501    0  0.00000000000E+00  0.00000000000E+00  0.69579793922E+03  0.69579793924E+03  0.50400001928E-02 0.  1.
       -1   -1    0    0    0  501  0.00000000000E+00  0.00000000000E+00 -0.69049664071E+03  0.69049664073E+03  0.50400001928E-02 0. -1.
    10030    2    1    2    0    0  0.00000000000E+00  0.00000000000E+00  0.53012985081E+01  0.13862945800E+04  0.13862844436E+04 0.  0.
        5    1    3    3  502    0  0.36944590875E+03  0.33670816408E+03  0.48282223744E+03  0.69498350356E+03  0.46999998093E+01 0.  1.
       -5    1    3    3    0  502 -0.36944590875E+03 -0.33670816408E+03 -0.47752093893E+03  0.69131107641E+03  0.46999998093E+01 0. -1.
</event>
<event>
 5   0  0.1095119E-03  0.1401701E+04  0.7818609E-02  0.8952588E-01
       -2   -1    0    0    0  501  0.00000000000E+00  0.00000000000E+00  0.72233340054E+03  0.72233340055E+03  0.25500000920E-02 0. -1.
        2   -1    0    0  501    0  0.00000000000E+00  0.00000000000E+00 -0.68000677168E+03  0.68000677169E+03  0.25500000920E-02 0.  1.
    10030    2    1    2    0    0  0.00000000000E+00  0.00000000000E+00  0.42326628858E+02  0.14023401722E+04  0.14017012575E+04 0.  0.
        5    1    3    3  502    0  0.48619233636E+03 -0.43050008613E+03 -0.24250225844E+03  0.69321190659E+03  0.46999998093E+01 0.  1.
       -5    1    3    3    0  502 -0.48619233636E+03  0.43050008613E+03  0.28482888729E+03  0.70912826564E+03  0.46999998093E+01 0. -1.
</event>
<event>
 5   0  0.1098949E-03  0.1395507E+04  0.7818609E-02  0.8957077E-01
       -2   -1    0    0    0  501  0.00000000000E+00  0.00000000000E+00  0.51236471360E+03  0.51236471361E+03  0.25500000920E-02 0.  1.
        2   -1    0    0  501    0  0.00000000000E+00  0.00000000000E+00 -0.95022185177E+03  0.95022185177E+03  0.25500000920E-02 0. -1.
    10030    2    1    2    0    0  0.00000000000E+00  0.00000000000E+00 -0.43785713816E+03  0.14625865654E+04  0.13955072869E+04 0.  0.
        4    1    3    3  502    0 -0.15565510132E+03 -0.16798816112E+03 -0.90970797083E+03  0.93809313927E+03  0.12699999809E+01 0. -1.
       -4    1    3    3    0  502  0.15565510132E+03  0.16798816112E+03  0.47185083267E+03  0.52449342611E+03  0.12699999809E+01 0.  1.
</event>
<event>
 5   0  0.1120053E-03  0.1390572E+04  0.7818609E-02  0.8960671E-01
       -2   -1    0    0    0  501  0.00000000000E+00  0.00000000000E+00  0.21988078581E+03  0.21988078582E+03  0.25500000920E-02 0.  1.
        2   -1    0    0  501    0  0.00000000000E+00  0.00000000000E+00 -0.21985668570E+04  0.21985668570E+04  0.25500000920E-02 0. -1.
    10030    2    1    2    0    0  0.00000000000E+00  0.00000000000E+00 -0.19786860712E+04  0.24184476428E+04  0.13905719804E+04 0.  0.
        2    1    3    3  502    0 -0.60840307328E+03  0.19177446940E+03 -0.50833980680E+03  0.81568444013E+03  0.25500000920E-02 0. -1.
       -2    1    3    3    0  502  0.60840307328E+03 -0.19177446940E+03 -0.14703462644E+04  0.16027632027E+04  0.25500000920E-02 0.  1.
</event>
<event>
 5   0  0.6114266E-04  0.1388199E+04  0.7818609E-02  0.8962405E-01
       -1   -1    0    0    0  501  0.00000000000E+00  0.00000000000E+00  0.83934870844E+03  0.83934870845E+03  0.50400001928E-02 0.  1.
        1   -1    0    0  501    0  0.00000000000E+00  0.00000000000E+00 -0.57398601249E+03  0.57398601251E+03  0.50400001928E-02 0. -1.
    10030    2    1    2    0    0  0.00000000000E+00  0.00000000000E+00  0.26536269595E+03  0.14133347210E+04  0.13881994356E+04 0.  0.
        3    1    3    3  502    0 -0.38072493700E+02  0.33371404659E+03 -0.48573748459E+03  0.59055524196E+03  0.10100000352E+00 0. -1.
       -3    1    3    3    0  502  0.38072493700E+02 -0.33371404659E+03  0.75110018054E+03  0.82277947900E+03  0.10100000352E+00 0.  1.
</event>
<event>
 5   0  0.6153318E-04  0.1340693E+04  0.7818609E-02  0.8997903E-01
        1   -1    0    0  501    0  0.00000000000E+00  0.00000000000E+00  0.82147320756E+03  0.82147320758E+03  0.50400001928E-02 0. -1.
       -1   -1    0    0    0  501  0.00000000000E+00  0.00000000000E+00 -0.54702301634E+03  0.54702301636E+03  0.50400001928E-02 0.  1.
    10030    2    1    2    0    0  0.00000000000E+00  0.00000000000E+00  0.27445019122E+03  0.13684962239E+04  0.13406934801E+04 0.  0.
        5    1    3    3  502    0 -0.48862462884E+03  0.42331943357E+03  0.31806941024E+03  0.72051621112E+03  0.46999998093E+01 0. -1.
       -5    1    3    3    0  502  0.48862462884E+03 -0.42331943357E+03 -0.43619219019E+02  0.64798001282E+03  0.46999998093E+01 0.  1.
</event>
<event>
 5   0  0.1175146E-03  0.1391867E+04  0.7818609E-02  0.8959727E-01
       -2   -1    0    0    0  501  0.00000000000E+00  0.00000000000E+00  0.26719166706E+03  0.26719166708E+03  0.25500000920E-02 0. -1.
        2   -1    0    0  501    0  0.00000000000E+00  0.00000000000E+00 -0.18126446512E+04  0.18126446512E+04  0.25500000920E-02 0.  1.
    10030    2    1    2    0    0  0.00000000000E+00  0.00000000000E+00 -0.15454529841E+04  0.20798363183E+04  0.13918671577E+04 0.  0.
        1    1    3    3  502    0 -0.16615619174E+03  0.81967734381E+02  0.22966219947E+03  0.29507849027E+03  0.50400001928E-02 0. -1.
       -1    1    3    3    0  502  0.16615619174E+03 -0.81967734381E+02 -0.17751151836E+04  0.17847578280E+04  0.50400001928E-02 0.  1.
</event>
<event>
 5   0  0.1095119E-03  0.1394806E+04  0.7818609E-02  0.8957587E-01
        2   -1    0    0  501    0  0.00000000000E+00  0.00000000000E+00  0.20373412928E+04  0.20373412928E+04  0.25500000920E-02 0. -1.
       -2   -1    0    0    0  501  0.00000000000E+00  0.00000000000E+00 -0.23872840694E+03  0.23872840696E+03  0.25500000920E-02 0.  1.
    10030    2    1    2    0    0  0.00000000000E+00  0.00000000000E+00  0.17986128859E+04  0.22760696998E+04  0.13948064256E+04 0.  0.
        5    1    3    3  502    0  0.28479977450E+03 -0.27508719882E+03 -0.37483757687E+02  0.39775746454E+03  0.46999998093E+01 0.  1.
       -5    1    3    3    0  502 -0.28479977450E+03  0.27508719882E+03  0.18360966435E+04  0.18783122352E+04  0.46999998093E+01 0. -1.
</event>
<event>
 5   0  0.1095119E-03  0.1414090E+04  0.7818609E-02  0.8943682E-01
        2   -1    0    0  501    0  0.00000000000E+00  0.00000000000E+00  0.64974807224E+03  0.64974807224E+03  0.25500000920E-02 0.  1.
       -2   -1    0    0    0  501  0.00000000000E+00  0.00000000000E+00 -0.76939409508E+03  0.76939409508E+03  0.25500000920E-02 0. -1.
    10030    2    1    2    0    0  0.00000000000E+00  0.00000000000E+00 -0.11964602284E+03  0.14191421673E+04  0.14140895729E+04 0.  0.
        5    1    3    3  502    0  0.97347887079E+02 -0.65643273595E+03 -0.30464072429E+03  0.73021134532E+03  0.46999998093E+01 0. -1.
       -5    1    3    3    0  502 -0.97347887079E+02  0.65643273595E+03  0.18499470145E+03  0.68893082200E+03  0.46999998093E+01 0.  1.
</event>
<event>
 5   0  0.6194742E-04  0.1410659E+04  0.7818609E-02  0.8946139E-01
        1   -1    0    0  501    0  0.00000000000E+00  0.00000000000E+00  0.53204757620E+03  0.53204757623E+03  0.50400001928E-02 0. -1.
       -1   -1    0    0    0  501  0.00000000000E+00  0.00000000000E+00 -0.93504806015E+03  0.93504806017E+03  0.50400001928E-02 0.  1.
    10030    2    1    2    0    0  0.00000000000E+00  0.00000000000E+00 -0.40300048395E+03  0.14670956364E+04  0.14106594969E+04 0.  0.
        4    1    3    3  502    0 -0.16951644711E+03  0.58646601319E+03  0.16591851312E+03  0.63262056271E+03  0.12699999809E+01 0. -1.
       -4    1    3    3    0  502  0.16951644711E+03 -0.58646601319E+03 -0.56891899707E+03  0.83447507368E+03  0.12699999809E+01 0.  1.
</event>
<event>
 5   0  0.6194742E-04  0.1395223E+04  0.7818609E-02  0.8957284E-01
       -1   -1    0    0    0  501  0.00000000000E+00  0.00000000000E+00  0.65320498663E+03  0.65320498664E+03  0.50400001928E-02 0.  1.
        1   -1    0    0  501    0  0.00000000000E+00  0.00000000000E+00 -0.74503680861E+03  0.74503680863E+03  0.50400001928E-02 0. -1.
    10030    2    1    2    0    0  0.00000000000E+00  0.00000000000E+00 -0.91831821987E+02  0.13982417953E+04  0.13952229336E+04 0.  0.
        4    1    3    3  502    0  0.44008522350E+03 -0.78257886798E+02 -0.58266870033E+03  0.73437301695E+03  0.12699999809E+01 0. -1.
       -4    1    3    3    0  502 -0.44008522350E+03  0.78257886798E+02  0.49083687834E+03  0.66386877832E+03  0.12699999809E+01 0.  1.
</event>
<event>
 5   0  0.6097538E-04  0.1405059E+04  0.7818609E-02  0.8950164E-01
        1   -1    0    0  501    0  0.00000000000E+00  0.00000000000E+00  0.22284195677E+04  0.22284195677E+04  0.50400001928E-02 0.  1.
       -1   -1    0    0    0  501  0.00000000000E+00  0.00000000000E+00 -0.22147892837E+03  0.22147892843E+03  0.50400001928E-02 0. -1.
    10030    2    1    2    0    0  0.00000000000E+00  0.00000000000E+00  0.20069406393E+04  0.24498984961E+04  0.14050593979E+04 0.  0.
        2    1    3    3  502    0 -0.67613955848E+03  0.11932126728E+03  0.74399370917E+03  0.10123877255E+04  0.25500000920E-02 0. -1.
       -2    1    3    3    0  502  0.67613955848E+03 -0.11932126728E+03  0.12629469301E+04  0.14375107706E+04  0.25500000920E-02 0.  1.
</event>
<event>
 5   0  0.1175146E-03  0.1386570E+04  0.7818609E-02  0.8963597E-01
       -2   -1    0    0    0  501  0.00000000000E+00  0.00000000000E+00  0.38359885690E+03  0.38359885691E+03  0.25500000920E-02 0. -1.
        2   -1    0    0  501    0  0.00000000000E+00  0.00000000000E+00 -0.12529869355E+04  0.12529869355E+04  0.25500000920E-02 0.  1.
    10030    2    1    2    0    0  0.00000000000E+00  0.00000000000E+00 -0.86938807864E+03  0.16365857924E+04  0.13865703822E+04 0.  0.
        1    1    3    3  502    0  0.14420306793E+03 -0.67014931209E+03 -0.55706987009E+03  0.88330145788E+03  0.50400001928E-02 0.  1.
       -1    1    3    3    0  502 -0.14420306793E+03  0.67014931209E+03 -0.31231820854E+03  0.75328433457E+03  0.50400001928E-02 0. -1.
</event>
<event>
 5   0  0.1095119E-03  0.1418631E+04  0.7818609E-02  0.8940442E-01
        2   -1    0    0  501    0  0.00000000000E+00  0.00000000000E+00  0.59924098761E+03  0.59924098761E+03  0.25500000920E-02 0. -1.
       -2   -1    0    0    0  501  0.00000000000E+00  0.00000000000E+00 -0.83960986304E+03  0.83960986304E+03  0.25500000920E-02 0.  1.
    10030    2    1    2    0    0  0.00000000000E+00  0.00000000000E+00 -0.24036887543E+03  0.14388508507E+04  0.14186312326E+04 0.  0.
        5    1    3    3  502    0 -0.31333640107E+03  0.80056885854E+02  0.52009579594E+03  0.61246267818E+03  0.46999998093E+01 0. -1.
       -5    1    3    3    0  502  0.31333640107E+03 -0.80056885854E+02 -0.76046467137E+03  0.82638817248E+03  0.46999998093E+01 0.  1.
</event>
<event>
 5   0  0.1108819E-03  0.1472594E+04  0.7818609E-02  0.8902885E-01
        2   -1    0    0  501    0  0.00000000000E+00  0.00000000000E+00  0.69735332625E+03  0.69735332626E+03  0.25500000920E-02 0.  1.
       -2   -1    0    0    0  501  0.00000000000E+00  0.00000000000E+00 -0.77741508041E+03  0.77741508041E+03  0.25500000920E-02 0. -1.
    10030    2    1    2    0    0  0.00000000000E+00  0.00000000000E+00 -0.80061754158E+02  0.14747684067E+04  0.14725936197E+04 0.  0.
        3    1    3    3  502    0 -0.41407028383E+03 -0.56419902977E+03 -0.26918802983E+03  0.74982461333E+03  0.10100000352E+00 0. -1.
       -3    1    3    3    0  502  0.41407028383E+03  0.56419902977E+03  0.18912627567E+03  0.72494379334E+03  0.10100000352E+00 0.  1.
</event>
<event>
 5   0  0.6194742E-04  0.1382883E+04  0.7818609E-02  0.8966303E-01
        1   -1    0    0  501    0  0.00000000000E+00  0.00000000000E+00  0.52971964166E+03  0.52971964168E+03  0.50400001928E-02 0. -1.
       -1   -1    0    0    0  501  0.00000000000E+00  0.00000000000E+00 -0.90253696820E+03  0.90253696822E+03  0.50400001928E-02 0.  1.
    10030    2    1    2    0    0  0.00000000000E+00  0.00000000000E+00 -0.37281732655E+03  0.14322566099E+04  0.13828833059E+04 0.  0.
        4    1    3    3  502    0  0.17168167629E+03  0.54357652745E+02 -0.87782146885E+03  0.89610350767E+03  0.12699999809E+01 0.  1.
       -4    1    3    3    0  502 -0.17168167629E+03 -0.54357652745E+02  0.50500414230E+03  0.53615310223E+03  0.12699999809E+01 0. -1.
</event>
<event>
 5   0  0.1175146E-03  0.1388746E+04  0.7818609E-02  0.8962005E-01
        2   -1    0    0  501    0  0.00000000000E+00  0.00000000000E+00  0.11055736078E+04  0.11055736078E+04  0.25500000920E-02 0.  1.
       -2   -1    0    0    0  501  0.00000000000E+00  0.00000000000E+00 -0.43611186912E+03  0.43611186913E+03  0.25500000920E-02 0. -1.
    10030    2    1    2    0    0  0.00000000000E+00  0.00000000000E+00  0.66946173872E+03  0.15416854770E+04  0.13887458696E+04 0.  0.
        1    1    3    3  502    0  0.69297935918E+03 -0.16898628194E+02  0.37979463165E+03  0.79041123356E+03  0.50400001928E-02 0. -1.
       -1    1    3    3    0  502 -0.69297935918E+03  0.16898628194E+02  0.28966710707E+03  0.75127424342E+03  0.50400001928E-02 0.  1.
</event>
<event>
 5   0  0.6194742E-04  0.1486077E+04  0.7818609E-02  0.8893765E-01
        1   -1    0    0  501    0  0.00000000000E+00  0.00000000000E+00  0.17133773421E+04  0.17133773421E+04  0.50400001928E-02 0. -1.
       -1   -1    0    0    0  501  0.00000000000E+00  0.00000000000E+00 -0.32223266574E+03  0.32223266578E+03  0.50400001928E-02 0.  1.
    10030    2    1    2    0    0  0.00000000000E+00  0.00000000000E+00  0.13911446763E+04  0.20356100079E+04  0.14860769138E+04 0.  0.
        4    1    3    3  502    0 -0.52697619624E+03  0.52369774404E+03  0.71185478732E+03  0.10289325000E+04  0.12699999809E+01 0.  1.
       -4    1    3    3    0  502  0.52697619624E+03 -0.52369774404E+03  0.67928988900E+03  0.10066775078E+04  0.12699999809E+01 0. -1.
</event>
<event>
 5   0  0.1108819E-03  0.1400596E+04  0.7818609E-02  0.8953387E-01
        2   -1    0    0  501    0  0.00000000000E+00  0.00000000000E+00  0.15240920257E+04  0.15240920257E+04  0.25500000920E-02 0. -1.
       -2   -1    0    0    0  501  0.00000000000E+00  0.00000000000E+00 -0.32177657662E+03  0.32177657663E+03  0.25500000920E-02 0.  1.
    10030    2    1    2    0    0  0.00000000000E+00  0.00000000000E+00  0.12023154491E+04  0.18458686023E+04  0.14005957511E+04 0.  0.
        3    1    3    3  502    0 -0.68872196175E+02  0.11352642543E+03 -0.30503389440E+03  0.33268200373E+03  0.10100000352E+00 0.  1.
       -3    1    3    3    0  502  0.68872196175E+02 -0.11352642543E+03  0.15073493435E+04  0.15131865986E+04  0.10100000352E+00 0. -1.
</event>
<event>
 5   0  0.1098949E-03  0.1381020E+04  0.7818609E-02  0.8967673E-01
       -2   -1    0    0    0  501  0.00000000000E+00  0.00000000000E+00  0.50058683986E+03  0.50058683986E+03  0.25500000920E-02 0. -1.
        2   -1    0    0  501    0  0.00000000000E+00  0.00000000000E+00 -0.95248988559E+03  0.95248988559E+03  0.25500000920E-02 0.  1.
    10030    2    1    2    0    0  0.00000000000E+00  0.00000000000E+00 -0.45190304573E+03  0.14530767255E+04  0.13810197708E+04 0.  0.
        4    1    3    3  502    0  0.63193699490E+02 -0.82925403028E+02 -0.94415916786E+03  0.94989905426E+03  0.12699999809E+01 0.  1.
       -4    1    3    3    0  502 -0.63193699490E+02  0.82925403028E+02  0.49225612213E+03  0.50317767120E+03  0.12699999809E+01 0. -1.
</event>
<event>
 5   0  0.5875298E-04  0.1407095E+04  0.7818609E-02  0.8948699E-01
        1   -1    0    0  501    0  0.00000000000E+00  0.00000000000E+00  0.72197110238E+03  0.72197110240E+03  0.50400001928E-02 0.  1.
       -1   -1    0    0    0  501  0.00000000000E+00  0.00000000000E+00 -0.68559432489E+03  0.68559432490E+03  0.50400001928E-02 0. -1.
    10030    2    1    2    0    0  0.00000000000E+00  0.00000000000E+00  0.36376777493E+02  0.14075654273E+04  0.14070952925E+04 0.  0.
        1    1    3    3  502    0  0.13042024397E+03  0.56585230943E+03 -0.37916091190E+03  0.69351371527E+03  0.50400001928E-02 0. -1.
       -1    1    3    3    0  502 -0.13042024397E+03 -0.56585230943E+03  0.41553768940E+03  0.71405171203E+03  0.50400001928E-02 0.  1.
</event>
<event>
 5   0  0.1108819E-03  0.1425362E+04  0.7818609E-02  0.8935662E-01
        2   -1    0    0  501    0  0.00000000000E+00  0.00000000000E+00  0.59935387930E+03  0.59935387931E+03  0.25500000920E-02 0. -1.
       -2   -1    0    0    0  501  0.00000000000E+00  0.00000000000E+00 -0.84743679952E+03  0.84743679952E+03  0.25500000920E-02 0.  1.
    10030    2    1    2    0    0  0.00000000000E+00  0.00000000000E+00 -0.24808292022E+03  0.14467906788E+04  0.14253624567E+04 0.  0.
        3    1    3    3  502    0 -0.53441124078E+03 -0.46996171114E+03 -0.16276121550E+03  0.73003466197E+03  0.10100000352E+00 0.  1.
       -3    1    3    3    0  502  0.53441124078E+03  0.46996171114E+03 -0.85321704718E+02  0.71675601686E+03  0.10100000352E+00 0. -1.
</event>
<event>
 5   0  0.6153318E-04  0.1407199E+04  0.7818609E-02  0.8948624E-01
       -1   -1    0    0    0  501  0.00000000000E+00  0.00000000000E+00  0.65574070648E+03  0.65574070650E+03  0.50400001928E-02 0.  1.
        1   -1    0    0  501    0  0.00000000000E+00  0.00000000000E+00 -0.75495175492E+03  0.75495175493E+03  0.50400001928E-02 0. -1.
    10030    2    1    2    0    0  0.00000000000E+00  0.00000000000E+00 -0.99211048439E+02  0.14106924614E+04  0.14071994843E+04 0.  0.
        5    1    3    3  502    0 -0.66792313678E+03  0.86510462835E+02 -0.25364237884E+03  0.71969571568E+03  0.46999998093E+01 0. -1.
       -5    1    3    3    0  502  0.66792313678E+03 -0.86510462835E+02  0.15443133040E+03  0.69099674575E+03  0.46999998093E+01 0.  1.
</event>
<event>
 5   0  0.6153318E-04  0.1398836E+04  0.7818609E-02  0.8954661E-01
       -1   -1    0    0    0  501  0.00000000000E+00  0.00000000000E+00  0.66767871953E+03  0.66767871954E+03  0.50400001928E-02 0. -1.
        1   -1    0    0  501    0  0.00000000000E+00  0.00000000000E+00 -0.73266642545E+03  0.73266642547E+03  0.50400001928E-02 0.  1.
    10030    2    1    2    0    0  0.00000000000E+00  0.00000000000E+00 -0.64987705928E+02  0.14003451450E+04  0.13988363461E+04 0.  0.
        5    1    3    3  502    0  0.34439847578E+03 -0.18566245413E+01  0.57689085514E+03  0.67189203442E+03  0.46999998093E+01 0. -1.
       -5    1    3    3    0  502 -0.34439847578E+03  0.18566245413E+01 -0.64187856107E+03  0.72845311059E+03  0.46999998093E+01 0.  1.
</event>
<event>
 5   0  0.6194742E-04  0.1374672E+04  0.7818609E-02  0.8972359E-01
       -1   -1    0    0    0  501  0.00000000000E+00  0.00000000000E+00  0.92953326866E+03  0.92953326868E+03  0.50400001928E-02 0. -1.
        1   -1    0    0  501    0  0.00000000000E+00  0.00000000000E+00 -0.50824487083E+03  0.50824487086E+03  0.50400001928E-02 0.  1.
    10030    2    1    2    0    0  0.00000000000E+00  0.00000000000E+00  0.42128839783E+03  0.14377781395E+04  0.13746716206E+04 0.  0.
        4    1    3    3  502    0  0.79603392162E+02  0.28491017036E+03 -0.43825500896E+03  0.52875284490E+03  0.12699999809E+01 0.  1.
       -4    1    3    3    0  502 -0.79603392162E+02 -0.28491017036E+03  0.85954340679E+03  0.90902529463E+03  0.12699999809E+01 0. -1.
</event>
<event>
 5   0  0.6114266E-04  0.1396538E+04  0.7818609E-02  0.8956329E-01
       -1   -1    0    0    0  501  0.00000000000E+00  0.00000000000E+00  0.30980805643E+03  0.30980805647E+03  0.50400001928E-02 0.  1.
        1   -1    0    0  501    0  0.00000000000E+00  0.00000000000E+00 -0.15738111788E+04  0.15738111788E+04  0.50400001928E-02 0. -1.
    10030    2    1    2    0    0  0.00000000000E+00  0.00000000000E+00 -0.12640031223E+04  0.18836192352E+04  0.13965376938E+04 0.  0.
        3    1    3    3  502    0 -0.64075018675E+03 -0.23101319476E+03 -0.42457251816E+03  0.80261431046E+03  0.10100000352E+00 0.  1.
       -3    1    3    3    0  502  0.64075018675E+03  0.23101319476E+03 -0.83943060416E+03  0.10810049248E+04  0.10100000352E+00 0. -1.
</event>
<event>
 5   0  0.6114266E-04  0.1395184E+04  0.7818609E-02  0.8957312E-01
        1   -1    0    0  501    0  0.00000000000E+00  0.00000000000E+00  0.48710981770E+03  0.48710981773E+03  0.50400001928E-02 0. -1.
       -1   -1    0    0    0  501  0.00000000000E+00  0.00000000000E+00 -0.99902430102E+03  0.99902430104E+03  0.50400001928E-02 0.  1.
    10030    2    1    2    0    0  0.00000000000E+00  0.00000000000E+00 -0.51191448332E+03  0.14861341188E+04  0.13951839236E+04 0.  0.
        3    1    3    3  502    0  0.37033887822E+03  0.29054241828E+03  0.29245331903E+03  0.55416129019E+03  0.10100000352E+00 0. -1.
       -3    1    3    3    0  502 -0.37033887822E+03 -0.29054241828E+03 -0.80436780235E+03  0.93197282857E+03  0.10100000352E+00 0.  1.
</event>
<event>
 5   0  0.6194742E-04  0.1407454E+04  0.7818609E-02  0.8948441E-01
       -1   -1    0    0    0  501  0.00000000000E+00  0.00000000000E+00  0.39411780691E+03  0.39411780694E+03  0.50400001928E-02 0.  1.
        1   -1    0    0  501    0  0.00000000000E+00  0.00000000000E+00 -0.12565567111E+04  0.12565567111E+04  0.50400001928E-02 0. -1.
    10030    2    1    2    0    0  0.00000000000E+00  0.00000000000E+00 -0.86243890418E+03  0.16506745180E+04  0.14074535520E+04 0.  0.
        4    1    3    3  502    0  0.13660089309E+03  0.52405401543E+03 -0.95824989126E+03  0.11006983611E+04  0.12699999809E+01 0. -1.
       -4    1    3    3    0  502 -0.13660089309E+03 -0.52405401543E+03  0.95810987082E+02  0.54997615696E+03  0.12699999809E+01 0.  1.
</event>
<event>
 5   0  0.6114266E-04  0.1140123E+04  0.7818609E-02  0.9166945E-01
       -1   -1    0    0    0  501  0.00000000000E+00  0.00000000000E+00  0.26222251435E+03  0.26222251439E+03  0.50400001928E-02 0.  1.
        1   -1    0    0  501    0  0.00000000000E+00  0.00000000000E+00 -0.12392905644E+04  0.12392905644E+04  0.50400001928E-02 0. -1.
    10030    2    1    2    0    0  0.00000000000E+00  0.00000000000E+00 -0.97706805007E+03  0.15015130788E+04  0.11401226037E+04 0.  0.
        3    1    3    3  502    0 -0.39944798587E+03  0.17011083987E+03 -0.97505515492E+03  0.10673466900E+04  0.10100000352E+00 0. -1.
       -3    1    3    3    0  502  0.39944798587E+03 -0.17011083987E+03 -0.20128951481E+01  0.43416638885E+03  0.10100000352E+00 0.  1.
</event>
<event>
 5   0  0.5875298E-04  0.1385603E+04  0.7818609E-02  0.8964306E-01
       -1   -1    0    0    0  501  0.00000000000E+00  0.00000000000E+00  0.37303798857E+03  0.37303798860E+03  0.50400001928E-02 0. -1.
        1   -1    0    0  501    0  0.00000000000E+00  0.00000000000E+00 -0.12866624132E+04  0.12866624132E+04  0.50400001928E-02 0.  1.
    10030    2    1    2    0    0  0.00000000000E+00  0.00000000000E+00 -0.91362442463E+03  0.16597004018E+04  0.13856030581E+04 0.  0.
        1    1    3    3  502    0  0.10838512698E+03  0.58978699411E+03 -0.87240144914E+03  0.10586218979E+04  0.50400001928E-02 0.  1.
       -1    1    3    3    0  502 -0.10838512698E+03 -0.58978699411E+03 -0.41222975497E+02  0.60107850394E+03  0.50400001928E-02 0. -1.
</event>
<event>
 5   0  0.6153318E-04  0.1401211E+04  0.7818609E-02  0.8952943E-01
        1   -1    0    0  501    0  0.00000000000E+00  0.00000000000E+00  0.74006454671E+03  0.74006454673E+03  0.50400001928E-02 0. -1.
       -1   -1    0    0    0  501  0.00000000000E+00  0.00000000000E+00 -0.66324990194E+03  0.66324990196E+03  0.50400001928E-02 0.  1.
    10030    2    1    2    0    0  0.00000000000E+00  0.00000000000E+00  0.76814644770E+02  0.14033144487E+04  0.14012105310E+04 0.  0.
        5    1    3    3  502    0  0.34109280911E+03 -0.43564608891E+03 -0.39199816183E+03  0.67809768329E+03  0.46999998093E+01 0.  1.
       -5    1    3    3    0  502 -0.34109280911E+03  0.43564608891E+03  0.46881280660E+03  0.72521676541E+03  0.46999998093E+01 0. -1.
</event>
<event>
 5   0  0.1108819E-03  0.1393688E+04  0.7818609E-02  0.8958400E-01
        2   -1    0    0  501    0  0.00000000000E+00  0.00000000000E+00  0.11005276008E+04  0.11005276008E+04  0.25500000920E-02 0.  1.
       -2   -1    0    0    0  501  0.00000000000E+00  0.00000000000E+00 -0.44123525060E+03  0.44123525060E+03  0.25500000920E-02 0. -1.
    10030    2    1    2    0    0  0.00000000000E+00  0.00000000000E+00  0.65929235024E+03  0.15417628514E+04  0.13936880164E+04 0.  0.
        3    1    3    3  502    0 -0.17153375876E+03 -0.57255420507E+03  0.72596888202E+03  0.94035789783E+03  0.10100000352E+00 0.  1.
       -3    1    3    3    0  502  0.17153375876E+03  0.57255420507E+03 -0.66676531781E+02  0.60140495362E+03  0.10100000352E+00 0. -1.
</event>
<event>
 5   0  0.1120053E-03  0.1404338E+04  0.7818609E-02  0.8950684E-01
       -2   -1    0    0    0  501  0.00000000000E+00  0.00000000000E+00  0.95572625525E+03  0.95572625526E+03  0.25500000920E-02 0.  1.
        2   -1    0    0  501    0  0.00000000000E+00  0.00000000000E+00 -0.51588128109E+03  0.51588128109E+03  0.25500000920E-02 0. -1.
    10030    2    1    2    0    0  0.00000000000E+00  0.00000000000E+00  0.43984497417E+03  0.14716075363E+04  0.14043379720E+04 0.  0.
        2    1    3    3  502    0 -0.43839732025E+03 -0.72703042018E+02  0.78962173845E+03  0.90607970541E+03  0.25500000920E-02 0.  1.
       -2    1    3    3    0  502  0.43839732025E+03  0.72703042018E+02 -0.34977676428E+03  0.56552783093E+03  0.25500000920E-02 0. -1.
</event>
<event>
 5   0  0.6153318E-04  0.1404493E+04  0.7818609E-02  0.8950573E-01
       -1   -1    0    0    0  501  0.00000000000E+00  0.00000000000E+00  0.70603652983E+03  0.70603652985E+03  0.50400001928E-02 0. -1.
        1   -1    0    0  501    0  0.00000000000E+00  0.00000000000E+00 -0.69847648269E+03  0.69847648271E+03  0.50400001928E-02 0.  1.
    10030    2    1    2    0    0  0.00000000000E+00  0.00000000000E+00  0.75600471453E+01  0.14045130126E+04  0.14044926657E+04 0.  0.
        5    1    3    3  502    0 -0.33608140764E+03  0.40623330372E+03  0.46763112710E+03  0.70475326934E+03  0.46999998093E+01 0. -1.
       -5    1    3    3    0  502  0.33608140764E+03 -0.40623330372E+03 -0.46007107996E+03  0.69975974322E+03  0.46999998093E+01 0.  1.
</event>
<event>
 5   0  0.1108819E-03  0.1407302E+04  0.7818609E-02  0.8948550E-01
       -2   -1    0    0    0  501  0.00000000000E+00  0.00000000000E+00  0.62734436835E+03  0.62734436836E+03  0.25500000920E-02 0.  1.
        2   -1    0    0  501    0  0.00000000000E+00  0.00000000000E+00 -0.78923924708E+03  0.78923924708E+03  0.25500000920E-02 0. -1.
    10030    2    1    2    0    0  0.00000000000E+00  0.00000000000E+00 -0.16189487872E+03  0.14165836154E+04  0.14073020954E+04 0.  0.
        3    1    3    3  502    0 -0.49504277837E+03  0.47041163898E+03 -0.25168428683E+03  0.72780454309E+03  0.10100000352E+00 0. -1.
       -3    1    3    3    0  502  0.49504277837E+03 -0.47041163898E+03  0.89789408102E+02  0.68877907235E+03  0.10100000352E+00 0.  1.
</event>
<event>
 5   0  0.1175146E-03  0.1359234E+04  0.7818609E-02  0.8983868E-01
        2   -1    0    0  501    0  0.00000000000E+00  0.00000000000E+00  0.34722450019E+03  0.34722450020E+03  0.25500000920E-02 0. -1.
       -2   -1    0    0    0  501  0.00000000000E+00  0.00000000000E+00 -0.13302027024E+04  0.13302027024E+04  0.25500000920E-02 0.  1.
    10030    2    1    2    0    0  0.00000000000E+00  0.00000000000E+00 -0.98297820220E+03  0.16774272026E+04  0.13592335612E+04 0.  0.
        1    1    3    3  502    0  0.94708567045E+02 -0.37074335412E+03 -0.11846288309E+04  0.12448959050E+04  0.50400001928E-02 0.  1.
       -1    1    3    3    0  502 -0.94708567045E+02  0.37074335412E+03  0.20165062870E+03  0.43253129757E+03  0.50400001928E-02 0. -1.
</event>
<event>
 5   0  0.1098949E-03  0.1433435E+04  0.7818609E-02  0.8929966E-01
        2   -1    0    0  501    0  0.00000000000E+00  0.00000000000E+00  0.21651860026E+04  0.21651860026E+04  0.25500000920E-02 0. -1.
       -2   -1    0    0    0  501  0.00000000000E+00  0.00000000000E+00 -0.23724699312E+03  0.23724699313E+03  0.25500000920E-02 0.  1.
    10030    2    1    2    0    0  0.00000000000E+00  0.00000000000E+00  0.19279390095E+04  0.24024329957E+04  0.14334348519E+04 0.  0.
        4    1    3    3  502    0 -0.40401562116E+03 -0.52376418525E+03  0.14263890214E+04  0.15723055674E+04  0.12699999809E+01 0. -1.
       -4    1    3    3    0  502  0.40401562116E+03  0.52376418525E+03  0.50154998809E+03  0.83012742838E+03  0.12699999809E+01 0.  1.
</event>
<event>
 5   0  0.1120053E-03  0.1401776E+04  0.7818609E-02  0.8952534E-01
       -2   -1    0    0    0  501  0.00000000000E+00  0.00000000000E+00  0.28450234546E+03  0.28450234547E+03  0.25500000920E-02 0.  1.
        2   -1    0    0  501    0  0.00000000000E+00  0.00000000000E+00 -0.17266792507E+04  0.17266792507E+04  0.25500000920E-02 0. -1.
    10030    2    1    2    0    0  0.00000000000E+00  0.00000000000E+00 -0.14421769053E+04  0.20111815962E+04  0.14017764397E+04 0.  0.
        2    1    3    3  502    0  0.19438618791E+03  0.31303613782E+03 -0.15764938393E+04  0.16189843851E+04  0.25500000920E-02 0. -1.
       -2    1    3    3    0  502 -0.19438618791E+03 -0.31303613782E+03  0.13431693407E+03  0.39219721113E+03  0.25500000920E-02 0.  1.
</event>
<event>
 5   0  0.6153318E-04  0.1406051E+04  0.7818609E-02  0.8949451E-01
        1   -1    0    0  501    0  0.00000000000E+00  0.00000000000E+00  0.12764435979E+04  0.12764435979E+04  0.50400001928E-02 0.  1.
       -1   -1    0    0    0  501  0.00000000000E+00  0.00000000000E+00 -0.38720434101E+03  0.38720434104E+03  0.50400001928E-02 0. -1.
    10030    2    1    2    0    0  0.00000000000E+00  0.00000000000E+00  0.88923925688E+03  0.16636479389E+04  0.14060505001E+04 0.  0.
        5    1    3    3  502    0 -0.27058127027E+03 -0.57441897555E+03  0.80164817012E+03  0.10226598955E+04  0.46999998093E+01 0.  1.
       -5    1    3    3    0  502  0.27058127027E+03  0.57441897555E+03  0.87591086760E+02  0.64098804339E+03  0.46999998093E+01 0. -1.
</event>
<event>
 5   0  0.1120053E-03  0.1413557E+04  0.7818609E-02  0.8944063E-01
       -2   -1    0    0    0  501  0.00000000000E+00  0.00000000000E+00  0.52600198791E+03  0.52600198792E+03  0.25500000920E-02 0.  1.
        2   -1    0    0  501    0  0.00000000000E+00  0.00000000000E+00 -0.94968432421E+03  0.94968432421E+03  0.25500000920E-02 0. -1.
    10030    2    1    2    0    0  0.00000000000E+00  0.00000000000E+00 -0.42368233630E+03  0.14756863121E+04  0.14135569920E+04 0.  0.
        2    1    3    3  502    0  0.58605388525E+03 -0.33065764793E+03  0.13860790430E+02  0.67304216663E+03  0.25500000920E-02 0.  1.
       -2    1    3    3    0  502 -0.58605388525E+03  0.33065764793E+03 -0.43754312673E+03  0.80264414550E+03  0.25500000920E-02 0. -1.
</event>
<event>
 5   0  0.6153318E-04  0.1356242E+04  0.7818609E-02  0.8986116E-01
        1   -1    0    0  501    0  0.00000000000E+00  0.00000000000E+00  0.74123683867E+03  0.74123683868E+03  0.50400001928E-02 0. -1.
       -1   -1    0    0    0  501  0.00000000000E+00  0.00000000000E+00 -0.62037953380E+03  0.62037953382E+03  0.50400001928E-02 0.  1.
    10030    2    1    2    0    0  0.00000000000E+00  0.00000000000E+00  0.12085730487E+03  0.13616163725E+04  0.13562421088E+04 0.  0.
        5    1    3    3  502    0  0.66621438017E+02  0.50079218008E+03 -0.39368534666E+03  0.64050094910E+03  0.46999998093E+01 0.  1.
       -5    1    3    3    0  502 -0.66621438017E+02 -0.50079218008E+03  0.51454265152E+03  0.72111542340E+03  0.46999998093E+01 0. -1.
</event>
<event>
 5   0  0.6194742E-04  0.1401226E+04  0.7818609E-02  0.8952932E-01
       -1   -1    0    0    0  501  0.00000000000E+00  0.00000000000E+00  0.72233196970E+03  0.72233196972E+03  0.50400001928E-02 0.  1.
        1   -1    0    0  501    0  0.00000000000E+00  0.00000000000E+00 -0.67954701234E+03  0.67954701236E+03  0.50400001928E-02 0. -1.
    10030    2    1    2    0    0  0.00000000000E+00  0.00000000000E+00  0.42784957359E+02  0.14018789821E+04  0.14012259375E+04 0.  0.
        4    1    3    3  502    0 -0.61364628018E+03 -0.56538493013E+02 -0.31207737048E+03  0.69076208382E+03  0.12699999809E+01 0. -1.
       -4    1    3    3    0  502  0.61364628018E+03  0.56538493013E+02  0.35486232784E+03  0.71111689826E+03  0.12699999809E+01 0.  1.
</event>
<event>
 5   0  0.6097538E-04  0.1403972E+04  0.7818609E-02  0.8950949E-01
        1   -1    0    0  501    0  0.00000000000E+00  0.00000000000E+00  0.11905462241E+04  0.11905462241E+04  0.50400001928E-02 0.  1.
       -1   -1    0    0    0  501  0.00000000000E+00  0.00000000000E+00 -0.41391434215E+03  0.41391434218E+03  0.50400001928E-02 0. -1.
    10030    2    1    2    0    0  0.00000000000E+00  0.00000000000E+00  0.77663188198E+03  0.16044605663E+04  0.14039717336E+04 0.  0.
        2    1    3    3  502    0  0.10565768863E+00  0.15184061250E+03  0.11715547051E+04  0.11813534652E+04  0.25500000920E-02 0.  1.
       -2    1    3    3    0  502 -0.10565768863E+00 -0.15184061250E+03 -0.39492282312E+03  0.42310710109E+03  0.25500000920E-02 0. -1.
</event>
<event>
 5   0  0.6194742E-04  0.1399617E+04  0.7818609E-02  0.8954096E-01
       -1   -1    0    0    0  501  0.00000000000E+00  0.00000000000E+00  0.16585331746E+04  0.16585331746E+04  0.50400001928E-02 0. -1.
        1   -1    0    0  501    0  0.00000000000E+00  0.00000000000E+00 -0.29528026181E+03  0.29528026185E+03  0.50400001928E-02 0.  1.
    10030    2    1    2    0    0  0.00000000000E+00  0.00000000000E+00  0.13632529128E+04  0.19538134365E+04  0.13996172478E+04 0.  0.
        4    1    3    3  502    0  0.12645042822E+03 -0.64162159045E+03  0.33385934125E+03  0.73425584694E+03  0.12699999809E+01 0.  1.
       -4    1    3    3    0  502 -0.12645042822E+03  0.64162159045E+03  0.10293935716E+04  0.12195575895E+04  0.12699999809E+01 0. -1.
</event>
<event>
 5   0  0.1175146E-03  0.1403495E+04  0.7818609E-02  0.8951292E-01
        2   -1    0    0  501    0  0.00000000000E+00  0.00000000000E+00  0.76908494981E+03  0.76908494982E+03  0.25500000920E-02 0.  1.
       -2   -1    0    0    0  501  0.00000000000E+00  0.00000000000E+00 -0.64030609328E+03  0.64030609329E+03  0.25500000920E-02 0. -1.
    10030    2    1    2    0    0  0.00000000000E+00  0.00000000000E+00  0.12877885653E+03  0.14093910431E+04  0.14034953219E+04 0.  0.
        1    1    3    3  502    0  0.13658562112E+03 -0.31074459554E+03  0.68116159741E+03  0.76105121862E+03  0.50400001928E-02 0.  1.
       -1    1    3    3    0  502 -0.13658562112E+03  0.31074459554E+03 -0.55238274088E+03  0.64833982448E+03  0.50400001928E-02 0. -1.
</event>
<event>
 5   0  0.1098949E-03  0.1399973E+04  0.7818609E-02  0.8953838E-01
       -2   -1    0    0    0  501  0.00000000000E+00  0.00000000000E+00  0.47767537306E+03  0.47767537306E+03  0.25500000920E-02 0.  1.
        2   -1    0    0  501    0  0.00000000000E+00  0.00000000000E+00 -0.10257618982E+04  0.10257618982E+04  0.25500000920E-02 0. -1.
    10030    2    1    2    0    0  0.00000000000E+00  0.00000000000E+00 -0.54808652511E+03  0.15034372712E+04  0.13999731389E+04 0.  0.
        4    1    3    3  502    0  0.24298985192E+03 -0.54394114167E+03 -0.66871378533E+03  0.89559799762E+03  0.12699999809E+01 0.  1.
       -4    1    3    3    0  502 -0.24298985192E+03  0.54394114167E+03  0.12062726023E+03  0.60783927362E+03  0.12699999809E+01 0. -1.
</event>
<event>
 5   0  0.6114266E-04  0.1407567E+04  0.7818609E-02  0.8948360E-01
        1   -1    0    0  501    0  0.00000000000E+00  0.00000000000E+00  0.14715566449E+04  0.14715566450E+04  0.50400001928E-02 0. -1.
       -1   -1    0    0    0  501  0.00000000000E+00  0.00000000000E+00 -0.33658974973E+03  0.33658974976E+03  0.50400001928E-02 0.  1.
    10030    2    1    2    0    0  0.00000000000E+00  0.00000000000E+00  0.11349668952E+04  0.18081463947E+04  0.14075665283E+04 0.  0.
        3    1    3    3  502    0  0.32183368436E+03  0.76974091311E+02 -0.23042084824E+03  0.40323158188E+03  0.10100000352E+00 0.  1.
       -3    1    3    3    0  502 -0.32183368436E+03 -0.76974091311E+02  0.13653877435E+04  0.14049148128E+04  0.10100000352E+00 0. -1.
</event>
<event>
 5   0  0.1108819E-03  0.1409007E+04  0.7818609E-02  0.8947324E-01
       -2   -1    0    0    0  501  0.00000000000E+00  0.00000000000E+00  0.42264064740E+03  0.42264064741E+03  0.25500000920E-02 0.  1.
        2   -1    0    0  501    0  0.00000000000E+00  0.00000000000E+00 -0.11743436800E+04  0.11743436800E+04  0.25500000920E-02 0. -1.
    10030    2    1    2    0    0  0.00000000000E+00  0.00000000000E+00 -0.75170303261E+03  0.15969843274E+04  0.14090072721E+04 0.  0.
        3    1    3    3  502    0  0.21042326836E+03  0.40061301929E+03  0.23614489126E+03  0.51042449291E+03  0.10100000352E+00 0.  1.
       -3    1    3    3    0  502 -0.21042326836E+03 -0.40061301929E+03 -0.98784792387E+03  0.10865598345E+04  0.10100000352E+00 0. -1.
</event>
<event>
 5   0  0.6114266E-04  0.1400596E+04  0.7818609E-02  0.8953387E-01
       -1   -1    0    0    0  501  0.00000000000E+00  0.00000000000E+00  0.34415609226E+03  0.34415609230E+03  0.50400001928E-02 0. -1.
        1   -1    0    0  501    0  0.00000000000E+00  0.00000000000E+00 -0.14249858001E+04  0.14249858001E+04  0.50400001928E-02 0.  1.
    10030    2    1    2    0    0  0.00000000000E+00  0.00000000000E+00 -0.10808297078E+04  0.17691418924E+04  0.14005963652E+04 0.  0.
        3    1    3    3  502    0 -0.20630333261E+03  0.14356552768E+03  0.28522067564E+03  0.38016176793E+03  0.10100000352E+00 0. -1.
       -3    1    3    3    0  502  0.20630333261E+03 -0.14356552768E+03 -0.13660503834E+04  0.13889801244E+04  0.10100000352E+00 0.  1.
</event>
<event>
 5   0  0.6097538E-04  0.1355707E+04  0.7818609E-02  0.8986519E-01
       -1   -1    0    0    0  501  0.00000000000E+00  0.00000000000E+00  0.29679284160E+03  0.29679284164E+03  0.50400001928E-02 0. -1.
        1   -1    0    0  501    0  0.00000000000E+00  0.00000000000E+00 -0.15481693060E+04  0.15481693060E+04  0.50400001928E-02 0.  1.
    10030    2    1    2    0    0  0.00000000000E+00  0.00000000000E+00 -0.12513764644E+04  0.18449621476E+04  0.13557072953E+04 0.  0.
        2    1    3    3  502    0 -0.72360972335E+02 -0.16647423628E+03  0.26310198193E+03  0.31964423124E+03  0.25500000920E-02 0. -1.
       -2    1    3    3    0  502  0.72360972335E+02  0.16647423628E+03 -0.15144784463E+04  0.15253179164E+04  0.25500000920E-02 0.  1.
</event>
<event>
 5   0  0.1120053E-03  0.1382555E+04  0.7818609E-02  0.8966544E-01
       -2   -1    0    0    0  501  0.00000000000E+00  0.00000000000E+00  0.27470222379E+03  0.27470222380E+03  0.25500000920E-02 0. -1.
        2   -1    0    0  501    0  0.00000000000E+00  0.00000000000E+00 -0.17395736168E+04  0.17395736168E+04  0.25500000920E-02 0.  1.
    10030    2    1    2    0    0  0.00000000000E+00  0.00000000000E+00 -0.14648713930E+04  0.20142758406E+04  0.13825552300E+04 0.  0.
        2    1    3    3  502    0 -0.58887235269E+02 -0.45352778229E+03  0.22792217648E+02  0.45790243609E+03  0.25500000920E-02 0. -1.
       -2    1    3    3    0  502  0.58887235269E+02  0.45352778229E+03 -0.14876636107E+04  0.15563734045E+04  0.25500000920E-02 0.  1.
</event>
<event>
 5   0  0.6153318E-04  0.1432683E+04  0.7818609E-02  0.8930495E-01
        1   -1    0    0  501    0  0.00000000000E+00  0.00000000000E+00  0.42443868985E+03  0.42443868988E+03  0.50400001928E-02 0. -1.
       -1   -1    0    0    0  501  0.00000000000E+00  0.00000000000E+00 -0.12089970433E+04  0.12089970433E+04  0.50400001928E-02 0.  1.
    10030    2    1    2    0    0  0.00000000000E+00  0.00000000000E+00 -0.78455835346E+03  0.16334357332E+04  0.14326829672E+04 0.  0.
        5    1    3    3  502    0  0.18281048087E+03 -0.68627574605E+03 -0.28575867677E+03  0.76555482029E+03  0.46999998093E+01 0. -1.
       -5    1    3    3    0  502 -0.18281048087E+03  0.68627574605E+03 -0.49879967669E+03  0.86788091291E+03  0.46999998093E+01 0.  1.
</event>
<event>
 5   0  0.5875298E-04  0.1409055E+04  0.7818609E-02  0.8947290E-01
        1   -1    0    0  501    0  0.00000000000E+00  0.00000000000E+00  0.11488343308E+04  0.11488343308E+04  0.50400001928E-02 0.  1.
       -1   -1    0    0    0  501  0.00000000000E+00  0.00000000000E+00 -0.43205438311E+03  0.43205438314E+03  0.50400001928E-02 0. -1.
    10030    2    1    2    0    0  0.00000000000E+00  0.00000000000E+00  0.71677994769E+03  0.15808887140E+04  0.14090548721E+04 0.  0.
        1    1    3    3  502    0  0.16645579276E+03  0.27421128223E+03 -0.34536817801E+03  0.47135818297E+03  0.50400001928E-02 0. -1.
       -1    1    3    3    0  502 -0.16645579276E+03 -0.27421128223E+03  0.10621481257E+04  0.11095305310E+04  0.50400001928E-02 0.  1.
</event>
<event>
 5   0  0.1098949E-03  0.1385419E+04  0.7818609E-02  0.8964441E-01
       -2   -1    0    0    0  501  0.00000000000E+00  0.00000000000E+00  0.51721499479E+03  0.51721499480E+03  0.25500000920E-02 0.  1.
        2   -1    0    0  501    0  0.00000000000E+00  0.00000000000E+00 -0.92775047511E+03  0.92775047512E+03  0.25500000920E-02 0. -1.
    10030    2    1    2    0    0  0.00000000000E+00  0.00000000000E+00 -0.41053548032E+03  0.14449654699E+04  0.13854190083E+04 0.  0.
        4    1    3    3  502    0  0.40597379794E+03 -0.54990169043E+03 -0.32251961794E+03  0.75579568047E+03  0.12699999809E+01 0. -1.
       -4    1    3    3    0  502 -0.40597379794E+03  0.54990169043E+03 -0.88015862385E+02  0.68916978945E+03  0.12699999809E+01 0.  1.
</event>
<event>
 5   0  0.5875298E-04  0.1420478E+04  0.7818609E-02  0.8939127E-01
        1   -1    0    0  501    0  0.00000000000E+00  0.00000000000E+00  0.11378503170E+04  0.11378503170E+04  0.50400001928E-02 0.  1.
       -1   -1    0    0    0  501  0.00000000000E+00  0.00000000000E+00 -0.44332698595E+03  0.44332698598E+03  0.50400001928E-02 0. -1.
    10030    2    1    2    0    0  0.00000000000E+00  0.00000000000E+00  0.69452333106E+03  0.15811773030E+04  0.14204784427E+04 0.  0.
        1    1    3    3  502    0  0.25049998018E+03  0.59376226010E+03  0.67959371574E+03  0.93656365512E+03  0.50400001928E-02 0. -1.
       -1    1    3    3    0  502 -0.25049998018E+03 -0.59376226010E+03  0.14929615314E+02  0.64461364787E+03  0.50400001928E-02 0.  1.
</event>
<event>
 5   0  0.1098949E-03  0.1391313E+04  0.7818609E-02  0.8960131E-01
       -2   -1    0    0    0  501  0.00000000000E+00  0.00000000000E+00  0.63918992291E+03  0.63918992292E+03  0.25500000920E-02 0.  1.
        2   -1    0    0  501    0  0.00000000000E+00  0.00000000000E+00 -0.75711118160E+03  0.75711118160E+03  0.25500000920E-02 0. -1.
    10030    2    1    2    0    0  0.00000000000E+00  0.00000000000E+00 -0.11792125868E+03  0.13963011045E+04  0.13913128157E+04 0.  0.
        4    1    3    3  502    0  0.20999584026E+03 -0.59330456266E+03  0.23845923525E+03  0.67303267140E+03  0.12699999809E+01 0.  1.
       -4    1    3    3    0  502 -0.20999584026E+03  0.59330456266E+03 -0.35638049393E+03  0.72326843312E+03  0.12699999809E+01 0. -1.
</event>
<event>
 5   0  0.1095119E-03  0.1386979E+04  0.7818609E-02  0.8963298E-01
        2   -1    0    0  501    0  0.00000000000E+00  0.00000000000E+00  0.45656222544E+03  0.45656222544E+03  0.25500000920E-02 0.  1.
       -2   -1    0    0    0  501  0.00000000000E+00  0.00000000000E+00 -0.10533666097E+04  0.10533666097E+04  0.25500000920E-02 0. -1.
    10030    2    1    2    0    0  0.00000000000E+00  0.00000000000E+00 -0.59680438426E+03  0.15099288351E+04  0.13869785918E+04 0.  0.
        5    1    3    3  502    0  0.11744301367E+03  0.97002700915E+01 -0.10423692347E+04  0.10490198607E+04  0.46999998093E+01 0. -1.
       -5    1    3    3    0  502 -0.11744301367E+03 -0.97002700915E+01  0.44556485048E+03  0.46090897440E+03  0.46999998093E+01 0.  1.
</event>
<event>
 5   0  0.6194742E-04  0.1374546E+04  0.7818609E-02  0.8972452E-01
        1   -1    0    0  501    0  0.00000000000E+00  0.00000000000E+00  0.69765234166E+03  0.69765234168E+03  0.50400001928E-02 0.  1.
       -1   -1    0    0    0  501  0.00000000000E+00  0.00000000000E+00 -0.67704848067E+03  0.67704848069E+03  0.50400001928E-02 0. -1.
    10030    2    1    2    0    0  0.00000000000E+00  0.00000000000E+00  0.20603860994E+02  0.13747008224E+04  0.13745464095E+04 0.  0.
        4    1    3    3  502    0 -0.22583983648E+03 -0.64813923373E+03 -0.25124457439E+02  0.68681944447E+03  0.12699999809E+01 0. -1.
       -4    1    3    3    0  502  0.22583983648E+03  0.64813923373E+03  0.45728318433E+02  0.68788137789E+03  0.12699999809E+01 0.  1.
</event>
<event>
 5   0  0.1095119E-03  0.1423257E+04  0.7818609E-02  0.8937154E-01
        2   -1    0    0  501    0  0.00000000000E+00  0.00000000000E+00  0.16312491420E+04  0.16312491420E+04  0.25500000920E-02 0.  1.
       -2   -1    0    0    0  501  0.00000000000E+00  0.00000000000E+00 -0.31044642015E+03  0.31044642016E+03  0.25500000920E-02 0. -1.
    10030    2    1    2    0    0  0.00000000000E+00  0.00000000000E+00  0.13208027218E+04  0.19416955621E+04  0.14232574700E+04 0.  0.
        5    1    3    3  502    0  0.42892005776E+02 -0.12200336432E+03  0.16150617259E+04  0.16202379497E+04  0.46999998093E+01 0.  1.
       -5    1    3    3    0  502 -0.42892005776E+02  0.12200336432E+03 -0.29425900414E+03  0.32145761241E+03  0.46999998093E+01 0. -1.
</event>
<event>
 5   0  0.6097538E-04  0.1405655E+04  0.7818609E-02  0.8949735E-01
       -1   -1    0    0    0  501  0.00000000000E+00  0.00000000000E+00  0.84578893637E+03  0.84578893639E+03  0.50400001928E-02 0. -1.
        1   -1    0    0  501    0  0.00000000000E+00  0.00000000000E+00 -0.58403084533E+03  0.58403084536E+03  0.50400001928E-02 0.  1.
    10030    2    1    2    0    0  0.00000000000E+00  0.00000000000E+00  0.26175809104E+03  0.14298197817E+04  0.14056554734E+04 0.  0.
        2    1    3    3  502    0  0.84567787677E+02 -0.28798761588E+03  0.77731818891E+03  0.83325394955E+03  0.25500000920E-02 0. -1.
       -2    1    3    3    0  502 -0.84567787677E+02  0.28798761588E+03 -0.51556009788E+03  0.59656583219E+03  0.25500000920E-02 0.  1.
</event>
<event>
 5   0  0.1120053E-03  0.1394336E+04  0.7818609E-02  0.8957928E-01
        2   -1    0    0  501    0  0.00000000000E+00  0.00000000000E+00  0.16907214169E+04  0.16907214169E+04  0.25500000920E-02 0. -1.
       -2   -1    0    0    0  501  0.00000000000E+00  0.00000000000E+00 -0.28747702534E+03  0.28747702536E+03  0.25500000920E-02 0.  1.
    10030    2    1    2    0    0  0.00000000000E+00  0.00000000000E+00  0.14032443915E+04  0.19781984422E+04  0.13943364926E+04 0.  0.
        2    1    3    3  502    0  0.57820841273E+03  0.35503737213E+03  0.92891742478E+03  0.11503321634E+04  0.25500000920E-02 0. -1.
       -2    1    3    3    0  502 -0.57820841273E+03 -0.35503737213E+03  0.47432696673E+03  0.82786627878E+03  0.25500000920E-02 0.  1.
</event>
<event>
 5   0  0.6153318E-04  0.1351574E+04  0.7818609E-02  0.8989637E-01
       -1   -1    0    0    0  501  0.00000000000E+00  0.00000000000E+00  0.18564509621E+03  0.18564509628E+03  0.50400001928E-02 0.  1.
        1   -1    0    0  501    0  0.00000000000E+00  0.00000000000E+00 -0.24600062679E+04  0.24600062679E+04  0.50400001928E-02 0. -1.
    10030    2    1    2    0    0  0.00000000000E+00  0.00000000000E+00 -0.22743611716E+04  0.26456513641E+04  0.13515740459E+04 0.  0.
        5    1    3    3  502    0 -0.35091967654E+03 -0.43536818596E+03 -0.18799221397E+04  0.19613310322E+04  0.46999998093E+01 0. -1.
       -5    1    3    3    0  502  0.35091967654E+03  0.43536818596E+03 -0.39443903196E+03  0.68432033191E+03  0.46999998093E+01 0.  1.
</event>
</LesHouchesEvents>
