<LesHouchesEvents version="3.0">
<header>
<!--
#*********************************************************************
#                                                                    *
#                        MadGraph5_aMC@NLO                           *
#                                                                    *
#                           Going Beyond                             *
#                                                                    *
#                   http://madgraph.hep.uiuc.edu                     *
#                   http://madgraph.phys.ucl.ac.be                   *
#                   http://amcatnlo.cern.ch                          *
#                                                                    *
#                     The MadGraph5_aMC@NLO team                     *
#                                                                    *
#....................................................................*
#                                                                    *
# This file contains all the information necessary to reproduce      *
# the events generated:                                              *
#                                                                    *
# 1. software version                                                *
# 2. proc_card          : code generation info including model       *
# 3. param_card         : model primary parameters in the LH format  *
# 4. run_card           : running parameters (collider and cuts)     *
# 5. pythia_card        : present only if pythia has been run        *
# 6. pgs_card           : present only if pgs has been run           *
# 7. delphes_cards      : present only if delphes has been run       *
#                                                                    *
#                                                                    *
#*********************************************************************
-->
<MGVersion>
#5.2.2.3
</MGVersion>
<MG5ProcCard>
#************************************************************
#*                     MadGraph5_aMC@NLO                    *
#*                                                          *
#*                *                       *                 *
#*                  *        * *        *                   *
#*                    * * * * 5 * * * *                     *
#*                  *        * *        *                   *
#*                *                       *                 *
#*                                                          *
#*                                                          *
#*         VERSION 2.2.3                 2015-02-10         *
#*                                                          *
#*    The MadGraph5_aMC@NLO Development Team - Find us at   *
#*    https://server06.fynu.ucl.ac.be/projects/madgraph     *
#*                                                          *
#************************************************************
#*                                                          *
#*               Command File for MadGraph5_aMC@NLO         *
#*                                                          *
#*     run as ./bin/mg5_aMC  filename                       *
#*                                                          *
#************************************************************
set group_subprocesses Auto
set ignore_six_quark_processes False
set loop_optimized_output True
set gauge unitary
set complex_mass_scheme False
import model sm
define p = g u c d s u~ c~ d~ s~
define j = g u c d s u~ c~ d~ s~
define l+ = e+ mu+
define l- = e- mu-
define vl = ve vm vt
define vl~ = ve~ vm~ vt~
import model Zprime_UFO
generate p p > zph, zph > j j
add process p p > zph, zph > b b~
output Dijet_signal
</MG5ProcCard>
<MGProcCard>
#*********************************************************************
#                        MadGraph/MadEvent                           *
#                   http://madgraph.hep.uiuc.edu                     *
#                                                                    *
#                          proc_card.dat                             *
#*********************************************************************
#                                                                    *
#            This Files is generated by MADGRAPH 5                   *
#                                                                    *
# WARNING: This Files is generated for MADEVENT (compatibility issue)*
#          This files is NOT a valid MG4 proc_card.dat               *
#          Running this in MG4 will NEVER reproduce the result of MG5*
#                                                                    *
#*********************************************************************
#*********************************************************************
# Process(es) requested : mg2 input                                  *
#*********************************************************************
# Begin PROCESS # This is TAG. Do not modify this line
p p > zph , zph > j j           #Process
# Be carefull the coupling are here in MG5 convention
          
end_coup           # End the couplings input

done               # this tells MG there are no more procs
# End PROCESS  # This is TAG. Do not modify this line
#*********************************************************************
# Model information                                                  *
#*********************************************************************
# Begin MODEL  # This is TAG. Do not modify this line
Zprime_UFO
# End   MODEL  # This is TAG. Do not modify this line
#*********************************************************************
# Start multiparticle definitions                                    *
#*********************************************************************
# Begin MULTIPARTICLES # This is TAG. Do not modify this line

# End  MULTIPARTICLES # This is TAG. Do not modify this line
</MGProcCard>
<MGRunCard>
#*********************************************************************
#                       MadGraph5_aMC@NLO                            *
#                                                                    *
#                     run_card.dat MadEvent                          *
#                                                                    *
#  This file is used to set the parameters of the run.               *
#                                                                    *
#  Some notation/conventions:                                        *
#                                                                    *
#   Lines starting with a '# ' are info or comments                  *
#                                                                    *
#   mind the format:   value    = variable     ! comment             *
#*********************************************************************
#
#*******************                                                 
# Running parameters
#*******************                                                 
#                                                                    
#*********************************************************************
# Tag name for the run (one word)                                    *
#*********************************************************************
  tag_1     = run_tag ! name of the run 
#*********************************************************************
# Run to generate the grid pack                                      *
#*********************************************************************
  .false.     = gridpack  !True = setting up the grid pack
#*********************************************************************
# Number of events and rnd seed                                      *
# Warning: Do not generate more than 1M events in a single run       *
# If you want to run Pythia, avoid more than 50k events in a run.    *
#*********************************************************************
  2000 = nevents ! Number of unweighted events requested 
 615 = iseed   ! rnd seed (0=assigned automatically=default))
#*********************************************************************
# Collider type and energy                                           *
# lpp: 0=No PDF, 1=proton, -1=antiproton, 2=photon from proton,      *
#                                         3=photon from electron     *
#*********************************************************************
        1     = lpp1    ! beam 1 type 
        1     = lpp2    ! beam 2 type
     4000     = ebeam1  ! beam 1 total energy in GeV
     4000     = ebeam2  ! beam 2 total energy in GeV
#*********************************************************************
# Beam polarization from -100 (left-handed) to 100 (right-handed)    *
#*********************************************************************
        0     = polbeam1 ! beam polarization for beam 1
        0     = polbeam2 ! beam polarization for beam 2
#*********************************************************************
# PDF CHOICE: this automatically fixes also alpha_s and its evol.    *
#*********************************************************************
 'nn23lo1'    = pdlabel     ! PDF set                                     
 230000    = lhaid     ! if pdlabel=lhapdf, this is the lhapdf number
#*********************************************************************
# Renormalization and factorization scales                           *
#*********************************************************************
 F        = fixed_ren_scale  ! if .true. use fixed ren scale
 F        = fixed_fac_scale  ! if .true. use fixed fac scale
 91.1880  = scale            ! fixed ren scale
 91.1880  = dsqrt_q2fact1    ! fixed fact scale for pdf1
 91.1880  = dsqrt_q2fact2    ! fixed fact scale for pdf2
 1        = scalefact        ! scale factor for event-by-event scales
#*********************************************************************
# Matching - Warning! ickkw > 1 is still beta
#*********************************************************************
 0        = ickkw            ! 0 no matching, 1 MLM, 2 CKKW matching
 1        = highestmult      ! for ickkw=2, highest mult group
 1        = ktscheme         ! for ickkw=1, 1 Durham kT, 2 Pythia pTE
 1        = alpsfact         ! scale factor for QCD emission vx
 F        = chcluster        ! cluster only according to channel diag
 T        = pdfwgt           ! for ickkw=1, perform pdf reweighting
 5        = asrwgtflavor     ! highest quark flavor for a_s reweight
 T        = clusinfo         ! include clustering tag in output
 3.0      = lhe_version       ! Change the way clustering information pass to shower.        
#*********************************************************************
#**********************************************************
#
#**********************************************************
# Automatic ptj and mjj cuts if xqcut > 0
# (turn off for VBF and single top processes)
#**********************************************************
   T  = auto_ptj_mjj  ! Automatic setting of ptj and mjj
#**********************************************************
#                                                                    
#**********************************
# BW cutoff (M+/-bwcutoff*Gamma)
#**********************************
  15  = bwcutoff      ! (M+/-bwcutoff*Gamma)
#**********************************************************
# Apply pt/E/eta/dr/mij cuts on decay products or not
# (note that etmiss/ptll/ptheavy/ht/sorted cuts always apply)
#**********************************************************
   T  = cut_decays    ! Cut decay products 
#*************************************************************
# Number of helicities to sum per event (0 = all helicities)
# 0 gives more stable result, but longer run time (needed for
# long decay chains e.g.).
# Use >=2 if most helicities contribute, e.g. pure QCD.
#*************************************************************
   0  = nhel          ! Number of helicities used per event
#*******************                                                 
# Standard Cuts
#*******************                                                 
#                                                                    
#*********************************************************************
# Minimum and maximum pt's (for max, -1 means no cut)                *
#*********************************************************************
 20  = ptj       ! minimum pt for the jets 
  0  = ptb       ! minimum pt for the b 
 10  = pta       ! minimum pt for the photons 
 10  = ptl       ! minimum pt for the charged leptons 
  0  = misset    ! minimum missing Et (sum of neutrino's momenta)
  0  = ptheavy   ! minimum pt for one heavy final state
 1.0 = ptonium   ! minimum pt for the quarkonium states
 -1  = ptjmax    ! maximum pt for the jets
 -1  = ptbmax    ! maximum pt for the b
 -1  = ptamax    ! maximum pt for the photons
 -1  = ptlmax    ! maximum pt for the charged leptons
 -1  = missetmax ! maximum missing Et (sum of neutrino's momenta)
#*********************************************************************
# Minimum and maximum E's (in the center of mass frame)              *
#*********************************************************************
  0  = ej     ! minimum E for the jets 
  0  = eb     ! minimum E for the b 
  0  = ea     ! minimum E for the photons 
  0  = el     ! minimum E for the charged leptons 
 -1   = ejmax ! maximum E for the jets
 -1   = ebmax ! maximum E for the b
 -1   = eamax ! maximum E for the photons
 -1   = elmax ! maximum E for the charged leptons
#*********************************************************************
# Maximum and minimum absolute rapidity (for max, -1 means no cut)   *
#*********************************************************************
   5  = etaj    ! max rap for the jets 
  -1  = etab    ! max rap for the b
 2.5  = etaa    ! max rap for the photons 
 2.5  = etal    ! max rap for the charged leptons 
 0.6  = etaonium ! max rap for the quarkonium states
   0  = etajmin ! min rap for the jets
   0  = etabmin ! min rap for the b
   0  = etaamin ! min rap for the photons
   0  = etalmin ! main rap for the charged leptons
#*********************************************************************
# Minimum and maximum DeltaR distance                                *
#*********************************************************************
 0.4 = drjj    ! min distance between jets 
 0   = drbb    ! min distance between b's 
 0.4 = drll    ! min distance between leptons 
 0.4 = draa    ! min distance between gammas 
 0   = drbj    ! min distance between b and jet 
 0.4 = draj    ! min distance between gamma and jet 
 0.4 = drjl    ! min distance between jet and lepton 
 0   = drab    ! min distance between gamma and b 
 0   = drbl    ! min distance between b and lepton 
 0.4 = dral    ! min distance between gamma and lepton 
 -1  = drjjmax ! max distance between jets
 -1  = drbbmax ! max distance between b's
 -1  = drllmax ! max distance between leptons
 -1  = draamax ! max distance between gammas
 -1  = drbjmax ! max distance between b and jet
 -1  = drajmax ! max distance between gamma and jet
 -1  = drjlmax ! max distance between jet and lepton
 -1  = drabmax ! max distance between gamma and b
 -1  = drblmax ! max distance between b and lepton
 -1  = dralmax ! maxdistance between gamma and lepton
#*********************************************************************
# Minimum and maximum invariant mass for pairs                       *
# WARNING: for four lepton final state mmll cut require to have      *
#          different lepton masses for each flavor!                  *           
#*********************************************************************
 0   = mmjj    ! min invariant mass of a jet pair 
 0   = mmbb    ! min invariant mass of a b pair 
 0   = mmaa    ! min invariant mass of gamma gamma pair
 0   = mmll    ! min invariant mass of l+l- (same flavour) lepton pair
 -1  = mmjjmax ! max invariant mass of a jet pair
 -1  = mmbbmax ! max invariant mass of a b pair
 -1  = mmaamax ! max invariant mass of gamma gamma pair
 -1  = mmllmax ! max invariant mass of l+l- (same flavour) lepton pair
#*********************************************************************
# Minimum and maximum invariant mass for all letpons                 *
#*********************************************************************
 0   = mmnl    ! min invariant mass for all letpons (l+- and vl) 
 -1  = mmnlmax ! max invariant mass for all letpons (l+- and vl) 
#*********************************************************************
# Minimum and maximum pt for 4-momenta sum of leptons                *
#*********************************************************************
 0   = ptllmin  ! Minimum pt for 4-momenta sum of leptons(l and vl)
 -1  = ptllmax  ! Maximum pt for 4-momenta sum of leptons(l and vl)
#*********************************************************************
# Inclusive cuts                                                     *
#*********************************************************************
 0  = xptj ! minimum pt for at least one jet  
 0  = xptb ! minimum pt for at least one b 
 0  = xpta ! minimum pt for at least one photon 
 0  = xptl ! minimum pt for at least one charged lepton 
#*********************************************************************
# Control the pt's of the jets sorted by pt                          *
#*********************************************************************
 0   = ptj1min ! minimum pt for the leading jet in pt
 0   = ptj2min ! minimum pt for the second jet in pt
 0   = ptj3min ! minimum pt for the third jet in pt
 0   = ptj4min ! minimum pt for the fourth jet in pt
 -1  = ptj1max ! maximum pt for the leading jet in pt 
 -1  = ptj2max ! maximum pt for the second jet in pt
 -1  = ptj3max ! maximum pt for the third jet in pt
 -1  = ptj4max ! maximum pt for the fourth jet in pt
 0   = cutuse  ! reject event if fails any (0) / all (1) jet pt cuts
#*********************************************************************
# Control the pt's of leptons sorted by pt                           *
#*********************************************************************
 0   = ptl1min ! minimum pt for the leading lepton in pt
 0   = ptl2min ! minimum pt for the second lepton in pt
 0   = ptl3min ! minimum pt for the third lepton in pt
 0   = ptl4min ! minimum pt for the fourth lepton in pt
 -1  = ptl1max ! maximum pt for the leading lepton in pt 
 -1  = ptl2max ! maximum pt for the second lepton in pt
 -1  = ptl3max ! maximum pt for the third lepton in pt
 -1  = ptl4max ! maximum pt for the fourth lepton in pt
#*********************************************************************
# Control the Ht(k)=Sum of k leading jets                            *
#*********************************************************************
 0   = htjmin ! minimum jet HT=Sum(jet pt)
 -1  = htjmax ! maximum jet HT=Sum(jet pt)
 0   = ihtmin  !inclusive Ht for all partons (including b)
 -1  = ihtmax  !inclusive Ht for all partons (including b)
 0   = ht2min ! minimum Ht for the two leading jets
 0   = ht3min ! minimum Ht for the three leading jets
 0   = ht4min ! minimum Ht for the four leading jets
 -1  = ht2max ! maximum Ht for the two leading jets
 -1  = ht3max ! maximum Ht for the three leading jets
 -1  = ht4max ! maximum Ht for the four leading jets
#***********************************************************************
# Photon-isolation cuts, according to hep-ph/9801442                   *
# When ptgmin=0, all the other parameters are ignored                  *
# When ptgmin>0, pta and draj are not going to be used                 *
#***********************************************************************
   0 = ptgmin ! Min photon transverse momentum
 0.4 = R0gamma ! Radius of isolation code
 1.0 = xn ! n parameter of eq.(3.4) in hep-ph/9801442
 1.0 = epsgamma ! epsilon_gamma parameter of eq.(3.4) in hep-ph/9801442
 .true. = isoEM ! isolate photons from EM energy (photons and leptons)
#*********************************************************************
# WBF cuts                                                           *
#*********************************************************************
 0   = xetamin ! minimum rapidity for two jets in the WBF case  
 0   = deltaeta ! minimum rapidity for two jets in the WBF case 
#*********************************************************************
# KT DURHAM CUT                                                      *
#*********************************************************************
 -1    =  ktdurham        
 0.4  =  dparameter 
#*********************************************************************
# maximal pdg code for quark to be considered as a light jet         *
# (otherwise b cuts are applied)                                     *
#*********************************************************************
 4 = maxjetflavor    ! Maximum jet pdg code
#*********************************************************************
# Jet measure cuts                                                   *
#*********************************************************************
 0   = xqcut   ! minimum kt jet measure between partons
#*********************************************************************
#
#*********************************************************************
# Store info for systematics studies                                 *
# WARNING: If use_syst is T, matched Pythia output is                *
#          meaningful ONLY if plotted taking matchscale              *
#          reweighting into account!                                 *
#*********************************************************************
   F  = use_syst      ! Enable systematics studies
#
#**************************************
# Parameter of the systematics study
#  will be used by SysCalc (if installed)
#**************************************                                  
#
0.5 1 2 = sys_scalefact  # factorization/renormalization scale factor
0.5 1 2 = sys_alpsfact  # \alpha_s emission scale factors
30 50 = sys_matchscale # variation of merging scale
# PDF sets and number of members (0 or none for all members).
CT10nlo.LHgrid = sys_pdf # matching scales
# MSTW2008nlo68cl.LHgrid 1  = sys_pdf
</MGRunCard>
<slha>
######################################################################
## PARAM_CARD AUTOMATICALY GENERATED BY MG5 FOLLOWING UFO MODEL   ####
######################################################################
##                                                                  ##
##  Width set on Auto will be computed following the information    ##
##        present in the decay.py files of the model.               ##
##        See  arXiv:1402.1178 for more details.                    ##
##                                                                  ##
######################################################################

###################################
## INFORMATION FOR CKMBLOCK
###################################
Block ckmblock 
    1 2.277360e-01 # cabi 

###################################
## INFORMATION FOR FRBLOCK
###################################
Block frblock 
    1 2.000000e-01 # gz 

###################################
## INFORMATION FOR MASS
###################################
Block mass 
    1 5.040000e-03 # MD 
    2 2.550000e-03 # MU 
    3 1.010000e-01 # MS 
    4 1.270000e+00 # MC 
    5 4.700000e+00 # MB 
    6 1.720000e+02 # MT 
   11 5.110000e-04 # Me 
   13 1.056600e-01 # MM 
   15 1.777000e+00 # MTA 
   23 9.118760e+01 # MZ 
   25 1.200000e+02 # MH 
  10030 1.800000e+03 # MZph 
  10031 3.000000e+02 # MZpl 
## Dependent parameters, given by model restrictions.
## Those values should be edited following the 
## analytical expression. MG5 ignores those values 
## but they are important for interfacing the output of MG5
## to external program such as Pythia.
  12 0.000000 # ve : 0.0 
  14 0.000000 # vm : 0.0 
  16 0.000000 # vt : 0.0 
  21 0.000000 # g : 0.0 
  22 0.000000 # a : 0.0 
  24 79.824360 # w+ : cmath.sqrt(MZ__exp__2/2. + cmath.sqrt(MZ__exp__4/4. - (aEW*cmath.pi*MZ__exp__2)/(Gf*sqrt__2))) 

###################################
## INFORMATION FOR SMINPUTS
###################################
Block sminputs 
    1 1.279000e+02 # aEWM1 
    2 1.166370e-05 # Gf 
    3 1.184000e-01 # aS 

###################################
## INFORMATION FOR YUKAWA
###################################
Block yukawa 
    1 5.040000e-03 # ymdo 
    2 2.550000e-03 # ymup 
    3 1.010000e-01 # yms 
    4 1.270000e+00 # ymc 
    5 4.700000e+00 # ymb 
    6 1.720000e+02 # ymt 
   11 5.110000e-04 # yme 
   13 1.056600e-01 # ymm 
   15 1.777000e+00 # ymtau 

###################################
## INFORMATION FOR DECAY
###################################
DECAY   6 1.508336e+00 # WT 
DECAY  23 2.495200e+00 # WZ 
DECAY  24 2.085000e+00 # WW 
DECAY  25 5.753088e-03 # WH 
## Dependent parameters, given by model restrictions.
## Those values should be edited following the 
## analytical expression. MG5 ignores those values 
## but they are important for interfacing the output of MG5
## to external program such as Pythia.
DECAY  1 0.000000 # d : 0.0 
DECAY  2 0.000000 # u : 0.0 
DECAY  3 0.000000 # s : 0.0 
DECAY  4 0.000000 # c : 0.0 
DECAY  5 0.000000 # b : 0.0 
DECAY  11 0.000000 # e- : 0.0 
DECAY  12 0.000000 # ve : 0.0 
DECAY  13 0.000000 # mu- : 0.0 
DECAY  14 0.000000 # vm : 0.0 
DECAY  15 0.000000 # ta- : 0.0 
DECAY  16 0.000000 # vt : 0.0 
DECAY  21 0.000000 # g : 0.0 
DECAY  22 0.000000 # a : 0.0 
DECAY  10030 0.308725 # zph : (gz__exp__2*MZph*(5 + cmath.sqrt(1 - (4*MT__exp__2)/MZph__exp__2)))/(144.*cmath.pi) 
DECAY  10031 0.132629 # zpl : (5*gz__exp__2*MZpl)/(144.*cmath.pi) 
#===========================================================
# QUANTUM NUMBERS OF NEW STATE(S) (NON SM PDG CODE)
#===========================================================

Block QNUMBERS 10030  # zph 
        1 0  # 3 times electric charge
        2 3  # number of spin states (2S+1)
        3 1  # colour rep (1: singlet, 3: triplet, 8: octet)
        4 0  # Particle/Antiparticle distinction (0=own anti)
Block QNUMBERS 10031  # zpl 
        1 0  # 3 times electric charge
        2 3  # number of spin states (2S+1)
        3 1  # colour rep (1: singlet, 3: triplet, 8: octet)
        4 0  # Particle/Antiparticle distinction (0=own anti)
</slha>
## END BANNER##
<MGGenerationInfo>
#  Number of Events        :         3942
#  Integrated weight (pb)  :  0.29009E-02
#  Max wgt                 :  0.10364E-05
#  Average wgt             :  0.73590E-06
</MGGenerationInfo>
</header>
<init>
     2212     2212  0.40000000000E+04  0.40000000000E+04 0 0  247000  247000 2   1
  0.29020463234E-02  0.58166976258E-05  0.10363810000E-05   0
</init>
<event>
 5   0  0.9999162E-06  0.1800051E+04  0.7818609E-02  0.8706272E-01
       -2   -1    0    0    0  501  0.00000000000E+00  0.00000000000E+00  0.60461709793E+03  0.60461709793E+03  0.25500000920E-02 0.  1.
        2   -1    0    0  501    0  0.00000000000E+00  0.00000000000E+00 -0.13397667886E+04  0.13397667886E+04  0.25500000920E-02 0. -1.
    10030    2    1    2    0    0  0.00000000000E+00  0.00000000000E+00 -0.73514969065E+03  0.19443838865E+04  0.18000510077E+04 0.  0.
        1    1    3    3  502    0 -0.89583598085E+03 -0.10099868034E+02 -0.46063241334E+03  0.10073759637E+04  0.50400001928E-02 0.  1.
       -1    1    3    3    0  502  0.89583598085E+03  0.10099868034E+02 -0.27451727730E+03  0.93700792285E+03  0.50400001928E-02 0. -1.
</event>
<event>
 5   0  0.9999162E-06  0.1799571E+04  0.7818609E-02  0.8706528E-01
        2   -1    0    0  501    0  0.00000000000E+00  0.00000000000E+00  0.40313494452E+03  0.40313494453E+03  0.25500000920E-02 0. -1.
       -2   -1    0    0    0  501  0.00000000000E+00  0.00000000000E+00 -0.20082941359E+04  0.20082941359E+04  0.25500000920E-02 0.  1.
    10030    2    1    2    0    0  0.00000000000E+00  0.00000000000E+00 -0.16051591914E+04  0.24114290804E+04  0.17995705544E+04 0.  0.
        1    1    3    3  502    0 -0.87227204665E+03  0.21908271593E+03 -0.83946705048E+03  0.12302685433E+04  0.50400001928E-02 0.  1.
       -1    1    3    3    0  502  0.87227204665E+03 -0.21908271593E+03 -0.76569214088E+03  0.11811605371E+04  0.50400001928E-02 0. -1.
</event>
<event>
 5   0  0.1035018E-05  0.1800399E+04  0.7818609E-02  0.8706087E-01
        2   -1    0    0  501    0  0.00000000000E+00  0.00000000000E+00  0.26346484257E+04  0.26346484257E+04  0.25500000920E-02 0. -1.
       -2   -1    0    0    0  501  0.00000000000E+00  0.00000000000E+00 -0.30757788013E+03  0.30757788014E+03  0.25500000920E-02 0.  1.
    10030    2    1    2    0    0  0.00000000000E+00  0.00000000000E+00  0.23270705456E+04  0.29422263059E+04  0.18003994864E+04 0.  0.
        3    1    3    3  502    0 -0.37628698354E+03  0.70447014369E+02  0.24949931088E+04  0.25241920091E+04  0.10100000352E+00 0. -1.
       -3    1    3    3    0  502  0.37628698354E+03 -0.70447014369E+02 -0.16792256320E+03  0.41803429674E+03  0.10100000352E+00 0.  1.
</event>
<event>
 5   0  0.9999162E-06  0.1800386E+04  0.7818609E-02  0.8706094E-01
       -2   -1    0    0    0  501  0.00000000000E+00  0.00000000000E+00  0.91896551733E+03  0.91896551734E+03  0.25500000920E-02 0.  1.
        2   -1    0    0  501    0  0.00000000000E+00  0.00000000000E+00 -0.88180370462E+03  0.88180370462E+03  0.25500000920E-02 0. -1.
    10030    2    1    2    0    0  0.00000000000E+00  0.00000000000E+00  0.37161812714E+02  0.18007692220E+04  0.18003857338E+04 0.  0.
        1    1    3    3  502    0  0.49988000601E+03 -0.53161682623E+03  0.54580866180E+03  0.91126481643E+03  0.50400001928E-02 0.  1.
       -1    1    3    3    0  502 -0.49988000601E+03  0.53161682623E+03 -0.50864684908E+03  0.88950440553E+03  0.50400001928E-02 0. -1.
</event>
<event>
 5   0  0.1035018E-05  0.1799479E+04  0.7818609E-02  0.8706577E-01
       -2   -1    0    0    0  501  0.00000000000E+00  0.00000000000E+00  0.14680054014E+04  0.14680054014E+04  0.25500000920E-02 0.  1.
        2   -1    0    0  501    0  0.00000000000E+00  0.00000000000E+00 -0.55144958389E+03  0.55144958389E+03  0.25500000920E-02 0. -1.
    10030    2    1    2    0    0  0.00000000000E+00  0.00000000000E+00  0.91655581749E+03  0.20194549853E+04  0.17994787776E+04 0.  0.
        3    1    3    3  502    0 -0.24343131878E+02  0.86711977325E+03  0.72630800193E+03  0.11313764241E+04  0.10100000352E+00 0.  1.
       -3    1    3    3    0  502  0.24343131878E+02 -0.86711977325E+03  0.19024781556E+03  0.88807856113E+03  0.10100000352E+00 0. -1.
</event>
<event>
 5   0  0.4994123E-06  0.1800585E+04  0.7818609E-02  0.8705988E-01
       -1   -1    0    0    0  501  0.00000000000E+00  0.00000000000E+00  0.66515661224E+03  0.66515661226E+03  0.50400001928E-02 0. -1.
        1   -1    0    0  501    0  0.00000000000E+00  0.00000000000E+00 -0.12185501217E+04  0.12185501217E+04  0.50400001928E-02 0.  1.
    10030    2    1    2    0    0  0.00000000000E+00  0.00000000000E+00 -0.55339350948E+03  0.18837067340E+04  0.18005850947E+04 0.  0.
        1    1    3    3  502    0  0.89183421945E+01  0.51475161125E+03 -0.10493563897E+04  0.11688445538E+04  0.50400001928E-02 0.  1.
       -1    1    3    3    0  502 -0.89183421945E+01 -0.51475161125E+03  0.49596288026E+03  0.71486218024E+03  0.50400001928E-02 0. -1.
</event>
<event>
 5   0  0.4987456E-06  0.1802392E+04  0.7818609E-02  0.8705028E-01
        1   -1    0    0  501    0  0.00000000000E+00  0.00000000000E+00  0.11321377125E+04  0.11321377125E+04  0.50400001928E-02 0. -1.
       -1   -1    0    0    0  501  0.00000000000E+00  0.00000000000E+00 -0.71736341916E+03  0.71736341918E+03  0.50400001928E-02 0.  1.
    10030    2    1    2    0    0  0.00000000000E+00  0.00000000000E+00  0.41477429333E+03  0.18495011317E+04  0.18023919445E+04 0.  0.
        3    1    3    3  502    0  0.42078112457E+03  0.35742517610E+03 -0.52351108308E+03  0.76083728590E+03  0.10100000352E+00 0.  1.
       -3    1    3    3    0  502 -0.42078112457E+03 -0.35742517610E+03  0.93828537641E+03  0.10886638458E+04  0.10100000352E+00 0. -1.
</event>
<event>
 5   0  0.9999162E-06  0.1800008E+04  0.7818609E-02  0.8706295E-01
        2   -1    0    0  501    0  0.00000000000E+00  0.00000000000E+00  0.15458478684E+04  0.15458478684E+04  0.25500000920E-02 0.  1.
       -2   -1    0    0    0  501  0.00000000000E+00  0.00000000000E+00 -0.52398891667E+03  0.52398891667E+03  0.25500000920E-02 0. -1.
    10030    2    1    2    0    0  0.00000000000E+00  0.00000000000E+00  0.10218589517E+04  0.20698367851E+04  0.18000079443E+04 0.  0.
        1    1    3    3  502    0 -0.59915701863E+03 -0.19825783473E+03  0.12487629620E+04  0.13991798445E+04  0.50400001928E-02 0.  1.
       -1    1    3    3    0  502  0.59915701863E+03  0.19825783473E+03 -0.22690401028E+03  0.67065694055E+03  0.50400001928E-02 0. -1.
</event>
<event>
 5   0  0.4953155E-06  0.1800197E+04  0.7818609E-02  0.8706195E-01
        1   -1    0    0  501    0  0.00000000000E+00  0.00000000000E+00  0.14134497917E+04  0.14134497917E+04  0.50400001928E-02 0.  1.
       -1   -1    0    0    0  501  0.00000000000E+00  0.00000000000E+00 -0.57319156500E+03  0.57319156502E+03  0.50400001928E-02 0. -1.
    10030    2    1    2    0    0  0.00000000000E+00  0.00000000000E+00  0.84025822670E+03  0.19866413567E+04  0.18001972094E+04 0.  0.
        2    1    3    3  502    0 -0.41993757116E+03  0.48384850700E+03  0.11178434225E+04  0.12884218480E+04  0.25500000920E-02 0.  1.
       -2    1    3    3    0  502  0.41993757116E+03 -0.48384850700E+03 -0.27758519575E+03  0.69821950868E+03  0.25500000920E-02 0. -1.
</event>
<event>
 5   0  0.9999162E-06  0.1799070E+04  0.7818609E-02  0.8706794E-01
       -2   -1    0    0    0  501  0.00000000000E+00  0.00000000000E+00  0.17372724194E+04  0.17372724194E+04  0.25500000920E-02 0.  1.
        2   -1    0    0  501    0  0.00000000000E+00  0.00000000000E+00 -0.46576621344E+03  0.46576621344E+03  0.25500000920E-02 0. -1.
    10030    2    1    2    0    0  0.00000000000E+00  0.00000000000E+00  0.12715062060E+04  0.22030386329E+04  0.17990695334E+04 0.  0.
        1    1    3    3  502    0  0.79835327721E+02  0.18082218863E+03 -0.43884383250E+03  0.48130474006E+03  0.50400001928E-02 0. -1.
       -1    1    3    3    0  502 -0.79835327721E+02 -0.18082218863E+03  0.17103500385E+04  0.17217338928E+04  0.50400001928E-02 0.  1.
</event>
<event>
 5   0  0.3626125E-06  0.1800058E+04  0.7818609E-02  0.8706269E-01
        4   -1    0    0  501    0  0.00000000000E+00  0.00000000000E+00  0.58100141833E+03  0.58100280637E+03  0.12699999809E+01 0.  1.
       -4   -1    0    0    0  501  0.00000000000E+00  0.00000000000E+00 -0.13942314907E+04  0.13942320692E+04  0.12699999809E+01 0. -1.
    10030    2    1    2    0    0  0.00000000000E+00  0.00000000000E+00 -0.81323007241E+03  0.19752348755E+04  0.18000582387E+04 0.  0.
        5    1    3    3  502    0 -0.39902291465E+03 -0.80651279385E+03 -0.42708971220E+03  0.99604713007E+03  0.46999998093E+01 0. -1.
       -5    1    3    3    0  502  0.39902291465E+03  0.80651279385E+03 -0.38614036021E+03  0.97918774545E+03  0.46999998093E+01 0.  1.
</event>
<event>
 5   0  0.1000316E-05  0.1813016E+04  0.7818609E-02  0.8699408E-01
       -2   -1    0    0    0  501  0.00000000000E+00  0.00000000000E+00  0.97798080076E+03  0.97798080076E+03  0.25500000920E-02 0. -1.
        2   -1    0    0  501    0  0.00000000000E+00  0.00000000000E+00 -0.84025816734E+03  0.84025816734E+03  0.25500000920E-02 0.  1.
    10030    2    1    2    0    0  0.00000000000E+00  0.00000000000E+00  0.13772263342E+03  0.18182389681E+04  0.18130155602E+04 0.  0.
        5    1    3    3  502    0  0.31895404750E+03 -0.36898859583E+03  0.83516351424E+03  0.96716309575E+03  0.46999998093E+01 0. -1.
       -5    1    3    3    0  502 -0.31895404750E+03  0.36898859583E+03 -0.69744088082E+03  0.85107587235E+03  0.46999998093E+01 0.  1.
</event>
<event>
 5   0  0.4981384E-06  0.1799786E+04  0.7818609E-02  0.8706414E-01
       -1   -1    0    0    0  501  0.00000000000E+00  0.00000000000E+00  0.35707190929E+03  0.35707190933E+03  0.50400001928E-02 0. -1.
        1   -1    0    0  501    0  0.00000000000E+00  0.00000000000E+00 -0.22679100550E+04  0.22679100550E+04  0.50400001928E-02 0.  1.
    10030    2    1    2    0    0  0.00000000000E+00  0.00000000000E+00 -0.19108381458E+04  0.26249819644E+04  0.17997855133E+04 0.  0.
        5    1    3    3  502    0 -0.24375286948E+03 -0.62281009881E+03 -0.77315384885E+02  0.67328124829E+03  0.46999998093E+01 0. -1.
       -5    1    3    3    0  502  0.24375286948E+03  0.62281009881E+03 -0.18335227609E+04  0.19517007161E+04  0.46999998093E+01 0.  1.
</event>
<event>
 5   0  0.4994123E-06  0.1800591E+04  0.7818609E-02  0.8705985E-01
        1   -1    0    0  501    0  0.00000000000E+00  0.00000000000E+00  0.11380922353E+04  0.11380922353E+04  0.50400001928E-02 0.  1.
       -1   -1    0    0    0  501  0.00000000000E+00  0.00000000000E+00 -0.71218514745E+03  0.71218514747E+03  0.50400001928E-02 0. -1.
    10030    2    1    2    0    0  0.00000000000E+00  0.00000000000E+00  0.42590708784E+03  0.18502773828E+04  0.18005914433E+04 0.  0.
        1    1    3    3  502    0  0.53811173065E+03  0.68526076826E+03 -0.19986069966E+02  0.87151936192E+03  0.50400001928E-02 0. -1.
       -1    1    3    3    0  502 -0.53811173065E+03 -0.68526076826E+03  0.44589315781E+03  0.97875802086E+03  0.50400001928E-02 0.  1.
</event>
<event>
 5   0  0.4987456E-06  0.1800003E+04  0.7818609E-02  0.8706298E-01
       -1   -1    0    0    0  501  0.00000000000E+00  0.00000000000E+00  0.99253686588E+03  0.99253686589E+03  0.50400001928E-02 0. -1.
        1   -1    0    0  501    0  0.00000000000E+00  0.00000000000E+00 -0.81609304317E+03  0.81609304319E+03  0.50400001928E-02 0.  1.
    10030    2    1    2    0    0  0.00000000000E+00  0.00000000000E+00  0.17644382271E+03  0.18086299091E+04  0.18000027015E+04 0.  0.
        3    1    3    3  502    0  0.80010715744E+03  0.31580309078E+03 -0.17780991467E+03  0.87836178849E+03  0.10100000352E+00 0.  1.
       -3    1    3    3    0  502 -0.80010715744E+03 -0.31580309078E+03  0.35425373738E+03  0.93026812059E+03  0.10100000352E+00 0. -1.
</event>
<event>
 5   0  0.4987456E-06  0.1799441E+04  0.7818609E-02  0.8706597E-01
       -1   -1    0    0    0  501  0.00000000000E+00  0.00000000000E+00  0.70387142712E+03  0.70387142714E+03  0.50400001928E-02 0.  1.
        1   -1    0    0  501    0  0.00000000000E+00  0.00000000000E+00 -0.11500642844E+04  0.11500642844E+04  0.50400001928E-02 0. -1.
    10030    2    1    2    0    0  0.00000000000E+00  0.00000000000E+00 -0.44619285727E+03  0.18539357115E+04  0.17994414569E+04 0.  0.
        3    1    3    3  502    0 -0.35939125722E+03 -0.18771551628E+03 -0.10505999668E+04  0.11261258772E+04  0.10100000352E+00 0. -1.
       -3    1    3    3    0  502  0.35939125722E+03  0.18771551628E+03  0.60440710950E+03  0.72780983439E+03  0.10100000352E+00 0.  1.
</event>
<event>
 5   0  0.9999162E-06  0.1799840E+04  0.7818609E-02  0.8706384E-01
       -2   -1    0    0    0  501  0.00000000000E+00  0.00000000000E+00  0.89171260411E+03  0.89171260412E+03  0.25500000920E-02 0. -1.
        2   -1    0    0  501    0  0.00000000000E+00  0.00000000000E+00 -0.90820311329E+03  0.90820311330E+03  0.25500000920E-02 0.  1.
    10030    2    1    2    0    0  0.00000000000E+00  0.00000000000E+00 -0.16490509180E+02  0.17999157174E+04  0.17998401743E+04 0.  0.
        1    1    3    3  502    0 -0.48723670319E+02  0.46518922303E+03 -0.77709554746E+03  0.90700192899E+03  0.50400001928E-02 0.  1.
       -1    1    3    3    0  502  0.48723670319E+02 -0.46518922303E+03  0.76060503828E+03  0.89291378843E+03  0.50400001928E-02 0. -1.
</event>
<event>
 5   0  0.4983159E-06  0.1800168E+04  0.7818609E-02  0.8706210E-01
        1   -1    0    0  501    0  0.00000000000E+00  0.00000000000E+00  0.16465270573E+04  0.16465270573E+04  0.50400001928E-02 0. -1.
       -1   -1    0    0    0  501  0.00000000000E+00  0.00000000000E+00 -0.49203641996E+03  0.49203641999E+03  0.50400001928E-02 0.  1.
    10030    2    1    2    0    0  0.00000000000E+00  0.00000000000E+00  0.11544906374E+04  0.21385634773E+04  0.18001680796E+04 0.  0.
        4    1    3    3  502    0  0.13471127985E+03 -0.87160306872E+03  0.79078657088E+03  0.11845607000E+04  0.12699999809E+01 0.  1.
       -4    1    3    3    0  502 -0.13471127985E+03  0.87160306872E+03  0.36370406647E+03  0.95400277734E+03  0.12699999809E+01 0. -1.
</event>
<event>
 5   0  0.4994123E-06  0.1800288E+04  0.7818609E-02  0.8706146E-01
        1   -1    0    0  501    0  0.00000000000E+00  0.00000000000E+00  0.59998443018E+03  0.59998443021E+03  0.50400001928E-02 0. -1.
       -1   -1    0    0    0  501  0.00000000000E+00  0.00000000000E+00 -0.13504673847E+04  0.13504673847E+04  0.50400001928E-02 0.  1.
    10030    2    1    2    0    0  0.00000000000E+00  0.00000000000E+00 -0.75048295448E+03  0.19504518149E+04  0.18002882039E+04 0.  0.
        1    1    3    3  502    0 -0.22522379276E+03 -0.85411687091E+03 -0.18753286507E+03  0.90300053239E+03  0.50400001928E-02 0. -1.
       -1    1    3    3    0  502  0.22522379276E+03  0.85411687091E+03 -0.56295008941E+03  0.10474512825E+04  0.50400001928E-02 0.  1.
</event>
<event>
 5   0  0.9589963E-06  0.1800025E+04  0.7818609E-02  0.8706286E-01
       -2   -1    0    0    0  501  0.00000000000E+00  0.00000000000E+00  0.14725963219E+04  0.14725963219E+04  0.25500000920E-02 0.  1.
        2   -1    0    0  501    0  0.00000000000E+00  0.00000000000E+00 -0.55006419923E+03  0.55006419924E+03  0.25500000920E-02 0. -1.
    10030    2    1    2    0    0  0.00000000000E+00  0.00000000000E+00  0.92253212269E+03  0.20226605212E+04  0.18000250183E+04 0.  0.
        2    1    3    3  502    0  0.32123862262E+03  0.69995039661E+03 -0.62059485750E+02  0.77264234297E+03  0.25500000920E-02 0. -1.
       -2    1    3    3    0  502 -0.32123862262E+03 -0.69995039661E+03  0.98459160844E+03  0.12500181782E+04  0.25500000920E-02 0.  1.
</event>
<event>
 5   0  0.4987456E-06  0.1799832E+04  0.7818609E-02  0.8706389E-01
        1   -1    0    0  501    0  0.00000000000E+00  0.00000000000E+00  0.15350935579E+04  0.15350935579E+04  0.50400001928E-02 0.  1.
       -1   -1    0    0    0  501  0.00000000000E+00  0.00000000000E+00 -0.52755639438E+03  0.52755639441E+03  0.50400001928E-02 0. -1.
    10030    2    1    2    0    0  0.00000000000E+00  0.00000000000E+00  0.10075371635E+04  0.20626499523E+04  0.17998315727E+04 0.  0.
        3    1    3    3  502    0 -0.78034712286E+03  0.44655302933E+03  0.45942512631E+03  0.10096646458E+04  0.10100000352E+00 0.  1.
       -3    1    3    3    0  502  0.78034712286E+03 -0.44655302933E+03  0.54811203721E+03  0.10529853065E+04  0.10100000352E+00 0. -1.
</event>
<event>
 5   0  0.1035018E-05  0.1800126E+04  0.7818609E-02  0.8706232E-01
       -2   -1    0    0    0  501  0.00000000000E+00  0.00000000000E+00  0.10930246757E+04  0.10930246757E+04  0.25500000920E-02 0. -1.
        2   -1    0    0  501    0  0.00000000000E+00  0.00000000000E+00 -0.74116660237E+03  0.74116660238E+03  0.25500000920E-02 0.  1.
    10030    2    1    2    0    0  0.00000000000E+00  0.00000000000E+00  0.35185807334E+03  0.18341912781E+04  0.18001259792E+04 0.  0.
        3    1    3    3  502    0 -0.58049181670E+03 -0.47563043554E+03 -0.33038314475E+03  0.81996834878E+03  0.10100000352E+00 0.  1.
       -3    1    3    3    0  502  0.58049181670E+03  0.47563043554E+03  0.68224121810E+03  0.10142229293E+04  0.10100000352E+00 0. -1.
</event>
<event>
 5   0  0.4994123E-06  0.1801366E+04  0.7818609E-02  0.8705573E-01
       -1   -1    0    0    0  501  0.00000000000E+00  0.00000000000E+00  0.13360492051E+04  0.13360492052E+04  0.50400001928E-02 0.  1.
        1   -1    0    0  501    0  0.00000000000E+00  0.00000000000E+00 -0.60718578379E+03  0.60718578381E+03  0.50400001928E-02 0. -1.
    10030    2    1    2    0    0  0.00000000000E+00  0.00000000000E+00  0.72886342135E+03  0.19432349890E+04  0.18013662413E+04 0.  0.
        1    1    3    3  502    0 -0.72554125129E+03 -0.69501002503E+02  0.93524521892E+03  0.11857167099E+04  0.50400001928E-02 0.  1.
       -1    1    3    3    0  502  0.72554125129E+03  0.69501002503E+02 -0.20638179758E+03  0.75751827903E+03  0.50400001928E-02 0. -1.
</event>
<event>
 5   0  0.9589963E-06  0.1802087E+04  0.7818609E-02  0.8705191E-01
        2   -1    0    0  501    0  0.00000000000E+00  0.00000000000E+00  0.68164603287E+03  0.68164603288E+03  0.25500000920E-02 0. -1.
       -2   -1    0    0    0  501  0.00000000000E+00  0.00000000000E+00 -0.11910566861E+04  0.11910566861E+04  0.25500000920E-02 0.  1.
    10030    2    1    2    0    0  0.00000000000E+00  0.00000000000E+00 -0.50941065319E+03  0.18727027189E+04  0.18020866405E+04 0.  0.
        2    1    3    3  502    0  0.75387605792E+03  0.48954816794E+03 -0.18987025047E+03  0.91871498924E+03  0.25500000920E-02 0.  1.
       -2    1    3    3    0  502 -0.75387605792E+03 -0.48954816794E+03 -0.31954040272E+03  0.95398772970E+03  0.25500000920E-02 0. -1.
</event>
<event>
 5   0  0.4953155E-06  0.1799926E+04  0.7818609E-02  0.8706339E-01
       -1   -1    0    0    0  501  0.00000000000E+00  0.00000000000E+00  0.46250571064E+03  0.46250571067E+03  0.50400001928E-02 0. -1.
        1   -1    0    0  501    0  0.00000000000E+00  0.00000000000E+00 -0.17511852037E+04  0.17511852037E+04  0.50400001928E-02 0.  1.
    10030    2    1    2    0    0  0.00000000000E+00  0.00000000000E+00 -0.12886794930E+04  0.22136909144E+04  0.17999257286E+04 0.  0.
        2    1    3    3  502    0  0.71983744738E+03 -0.34560495602E+03 -0.13379264912E+03  0.80963523222E+03  0.25500000920E-02 0. -1.
       -2    1    3    3    0  502 -0.71983744738E+03  0.34560495602E+03 -0.11548868439E+04  0.14040556821E+04  0.25500000920E-02 0.  1.
</event>
<event>
 5   0  0.1035018E-05  0.1800219E+04  0.7818609E-02  0.8706183E-01
       -2   -1    0    0    0  501  0.00000000000E+00  0.00000000000E+00  0.57712850216E+03  0.57712850217E+03  0.25500000920E-02 0. -1.
        2   -1    0    0  501    0  0.00000000000E+00  0.00000000000E+00 -0.14038424143E+04  0.14038424143E+04  0.25500000920E-02 0.  1.
    10030    2    1    2    0    0  0.00000000000E+00  0.00000000000E+00 -0.82671391211E+03  0.19809709164E+04  0.18002193975E+04 0.  0.
        3    1    3    3  502    0 -0.66022172445E+02 -0.85169643481E+03 -0.72547603495E+03  0.11207413760E+04  0.10100000352E+00 0. -1.
       -3    1    3    3    0  502  0.66022172445E+02  0.85169643481E+03 -0.10123787716E+03  0.86022954047E+03  0.10100000352E+00 0.  1.
</event>
<event>
 5   0  0.1000316E-05  0.1799781E+04  0.7818609E-02  0.8706416E-01
       -2   -1    0    0    0  501  0.00000000000E+00  0.00000000000E+00  0.47726951659E+03  0.47726951660E+03  0.25500000920E-02 0.  1.
        2   -1    0    0  501    0  0.00000000000E+00  0.00000000000E+00 -0.16967405906E+04  0.16967405906E+04  0.25500000920E-02 0. -1.
    10030    2    1    2    0    0  0.00000000000E+00  0.00000000000E+00 -0.12194710740E+04  0.21740101072E+04  0.17997806105E+04 0.  0.
        5    1    3    3  502    0  0.51077497603E+03 -0.24322081675E+03  0.23558552097E+03  0.61283771876E+03  0.46999998093E+01 0.  1.
       -5    1    3    3    0  502 -0.51077497603E+03  0.24322081675E+03 -0.14550565950E+04  0.15611723884E+04  0.46999998093E+01 0. -1.
</event>
<event>
 5   0  0.4953155E-06  0.1799935E+04  0.7818609E-02  0.8706334E-01
        1   -1    0    0  501    0  0.00000000000E+00  0.00000000000E+00  0.15615351667E+04  0.15615351667E+04  0.50400001928E-02 0.  1.
       -1   -1    0    0    0  501  0.00000000000E+00  0.00000000000E+00 -0.51868303872E+03  0.51868303874E+03  0.50400001928E-02 0. -1.
    10030    2    1    2    0    0  0.00000000000E+00  0.00000000000E+00  0.10428521280E+04  0.20802182054E+04  0.17999353381E+04 0.  0.
        2    1    3    3  502    0 -0.31965858029E+03 -0.61748817264E+03 -0.13892163245E+03  0.70906450431E+03  0.25500000920E-02 0. -1.
       -2    1    3    3    0  502  0.31965858029E+03  0.61748817264E+03  0.11817737604E+04  0.13711537011E+04  0.25500000920E-02 0.  1.
</event>
<event>
 5   0  0.1035018E-05  0.1800031E+04  0.7818609E-02  0.8706283E-01
       -2   -1    0    0    0  501  0.00000000000E+00  0.00000000000E+00  0.13935199372E+04  0.13935199372E+04  0.25500000920E-02 0.  1.
        2   -1    0    0  501    0  0.00000000000E+00  0.00000000000E+00 -0.58128179408E+03  0.58128179408E+03  0.25500000920E-02 0. -1.
    10030    2    1    2    0    0  0.00000000000E+00  0.00000000000E+00  0.81223814309E+03  0.19748017313E+04  0.18000308544E+04 0.  0.
        3    1    3    3  502    0  0.68001759252E+02 -0.63248307214E+03 -0.29238452552E+03  0.70010556117E+03  0.10100000352E+00 0. -1.
       -3    1    3    3    0  502 -0.68001759252E+02  0.63248307214E+03  0.11046226686E+04  0.12746961701E+04  0.10100000352E+00 0.  1.
</event>
<event>
 5   0  0.9999162E-06  0.1800369E+04  0.7818609E-02  0.8706103E-01
        2   -1    0    0  501    0  0.00000000000E+00  0.00000000000E+00  0.62450939766E+03  0.62450939767E+03  0.25500000920E-02 0.  1.
       -2   -1    0    0    0  501  0.00000000000E+00  0.00000000000E+00 -0.12975506293E+04  0.12975506293E+04  0.25500000920E-02 0. -1.
    10030    2    1    2    0    0  0.00000000000E+00  0.00000000000E+00 -0.67304123160E+03  0.19220600269E+04  0.18003694753E+04 0.  0.
        1    1    3    3  502    0 -0.70103936368E+03 -0.53953189595E+02  0.26358140229E+03  0.75089432796E+03  0.50400001928E-02 0.  1.
       -1    1    3    3    0  502  0.70103936368E+03  0.53953189595E+02 -0.93662263389E+03  0.11711656990E+04  0.50400001928E-02 0. -1.
</event>
<event>
 5   0  0.4981384E-06  0.1792001E+04  0.7818609E-02  0.8710565E-01
        1   -1    0    0  501    0  0.00000000000E+00  0.00000000000E+00  0.10170283305E+04  0.10170283305E+04  0.50400001928E-02 0.  1.
       -1   -1    0    0    0  501  0.00000000000E+00  0.00000000000E+00 -0.78937476216E+03  0.78937476217E+03  0.50400001928E-02 0. -1.
    10030    2    1    2    0    0  0.00000000000E+00  0.00000000000E+00  0.22765356833E+03  0.18064030927E+04  0.17920005541E+04 0.  0.
        5    1    3    3  502    0 -0.34366579307E+03  0.80260424897E+03 -0.89073458914E+02  0.87763086140E+03  0.46999998093E+01 0. -1.
       -5    1    3    3    0  502  0.34366579307E+03 -0.80260424897E+03  0.31672702724E+03  0.92877223127E+03  0.46999998093E+01 0.  1.
</event>
<event>
 5   0  0.1035018E-05  0.1800296E+04  0.7818609E-02  0.8706142E-01
        2   -1    0    0  501    0  0.00000000000E+00  0.00000000000E+00  0.12655461140E+04  0.12655461140E+04  0.25500000920E-02 0.  1.
       -2   -1    0    0    0  501  0.00000000000E+00  0.00000000000E+00 -0.64025028887E+03  0.64025028887E+03  0.25500000920E-02 0. -1.
    10030    2    1    2    0    0  0.00000000000E+00  0.00000000000E+00  0.62529582513E+03  0.19057964029E+04  0.18002958258E+04 0.  0.
        3    1    3    3  502    0  0.21677904702E+03 -0.25948455270E+03 -0.57047021225E+03  0.66314527940E+03  0.10100000352E+00 0. -1.
       -3    1    3    3    0  502 -0.21677904702E+03  0.25948455270E+03  0.11957660374E+04  0.12426511235E+04  0.10100000352E+00 0.  1.
</event>
<event>
 5   0  0.4983159E-06  0.1800656E+04  0.7818609E-02  0.8705951E-01
        1   -1    0    0  501    0  0.00000000000E+00  0.00000000000E+00  0.15933283620E+04  0.15933283620E+04  0.50400001928E-02 0.  1.
       -1   -1    0    0    0  501  0.00000000000E+00  0.00000000000E+00 -0.50874023156E+03  0.50874023158E+03  0.50400001928E-02 0. -1.
    10030    2    1    2    0    0  0.00000000000E+00  0.00000000000E+00  0.10845881305E+04  0.21020685936E+04  0.18006557027E+04 0.  0.
        4    1    3    3  502    0  0.29952009989E+03  0.28596128393E+03 -0.39096336118E+03  0.56950865562E+03  0.12699999809E+01 0. -1.
       -4    1    3    3    0  502 -0.29952009989E+03 -0.28596128393E+03  0.14755514916E+04  0.15325599380E+04  0.12699999809E+01 0.  1.
</event>
<event>
 5   0  0.4994123E-06  0.1799943E+04  0.7818609E-02  0.8706330E-01
        1   -1    0    0  501    0  0.00000000000E+00  0.00000000000E+00  0.44668569627E+03  0.44668569630E+03  0.50400001928E-02 0.  1.
       -1   -1    0    0    0  501  0.00000000000E+00  0.00000000000E+00 -0.18132410264E+04  0.18132410264E+04  0.50400001928E-02 0. -1.
    10030    2    1    2    0    0  0.00000000000E+00  0.00000000000E+00 -0.13665553301E+04  0.22599267227E+04  0.17999431440E+04 0.  0.
        1    1    3    3  502    0 -0.69967407776E+03  0.62891309372E+01 -0.13939320096E+04  0.15596890125E+04  0.50400001928E-02 0. -1.
       -1    1    3    3    0  502  0.69967407776E+03 -0.62891309372E+01  0.27376679431E+02  0.70023771025E+03  0.50400001928E-02 0.  1.
</event>
<event>
 5   0  0.4987456E-06  0.1800133E+04  0.7818609E-02  0.8706229E-01
        1   -1    0    0  501    0  0.00000000000E+00  0.00000000000E+00  0.13630935150E+04  0.13630935150E+04  0.50400001928E-02 0.  1.
       -1   -1    0    0    0  501  0.00000000000E+00  0.00000000000E+00 -0.59432466453E+03  0.59432466455E+03  0.50400001928E-02 0. -1.
    10030    2    1    2    0    0  0.00000000000E+00  0.00000000000E+00  0.76876885051E+03  0.19574181796E+04  0.18001334351E+04 0.  0.
        3    1    3    3  502    0  0.64455903832E+03  0.34606722453E+03  0.95450569448E+03  0.12026221388E+04  0.10100000352E+00 0.  1.
       -3    1    3    3    0  502 -0.64455903832E+03 -0.34606722453E+03 -0.18573684397E+03  0.75479604078E+03  0.10100000352E+00 0. -1.
</event>
<event>
 5   0  0.1036381E-05  0.1801877E+04  0.7818609E-02  0.8705302E-01
        2   -1    0    0  501    0  0.00000000000E+00  0.00000000000E+00  0.13375191689E+04  0.13375191689E+04  0.25500000920E-02 0.  1.
       -2   -1    0    0    0  501  0.00000000000E+00  0.00000000000E+00 -0.60686279525E+03  0.60686279526E+03  0.25500000920E-02 0. -1.
    10030    2    1    2    0    0  0.00000000000E+00  0.00000000000E+00  0.73065637365E+03  0.19443819642E+04  0.18018774892E+04 0.  0.
        4    1    3    3  502    0 -0.36569147146E+02  0.62585193917E+03 -0.33288429238E+03  0.70981794659E+03  0.12699999809E+01 0. -1.
       -4    1    3    3    0  502  0.36569147146E+02 -0.62585193917E+03  0.10635406660E+04  0.12345640176E+04  0.12699999809E+01 0.  1.
</event>
<event>
 5   0  0.1036381E-05  0.1800221E+04  0.7818609E-02  0.8706182E-01
        2   -1    0    0  501    0  0.00000000000E+00  0.00000000000E+00  0.15293804200E+04  0.15293804200E+04  0.25500000920E-02 0.  1.
       -2   -1    0    0    0  501  0.00000000000E+00  0.00000000000E+00 -0.52975604352E+03  0.52975604352E+03  0.25500000920E-02 0. -1.
    10030    2    1    2    0    0  0.00000000000E+00  0.00000000000E+00  0.99962437647E+03  0.20591364635E+04  0.18002205646E+04 0.  0.
        4    1    3    3  502    0  0.36142834335E+03 -0.30386929342E+03  0.13763355497E+04  0.14550835554E+04  0.12699999809E+01 0.  1.
       -4    1    3    3    0  502 -0.36142834335E+03  0.30386929342E+03 -0.37671117324E+03  0.60405290812E+03  0.12699999809E+01 0. -1.
</event>
<event>
 5   0  0.4953155E-06  0.1796418E+04  0.7818609E-02  0.8708207E-01
        1   -1    0    0  501    0  0.00000000000E+00  0.00000000000E+00  0.75657849131E+03  0.75657849132E+03  0.50400001928E-02 0.  1.
       -1   -1    0    0    0  501  0.00000000000E+00  0.00000000000E+00 -0.10663523849E+04  0.10663523849E+04  0.50400001928E-02 0. -1.
    10030    2    1    2    0    0  0.00000000000E+00  0.00000000000E+00 -0.30977389359E+03  0.18229308762E+04  0.17964178563E+04 0.  0.
        2    1    3    3  502    0  0.32427900647E+03  0.34247572292E+03 -0.93058546911E+03  0.10432812709E+04  0.25500000920E-02 0. -1.
       -2    1    3    3    0  502 -0.32427900647E+03 -0.34247572292E+03  0.62081157552E+03  0.77964960536E+03  0.25500000920E-02 0.  1.
</event>
<event>
 5   0  0.4981384E-06  0.1802056E+04  0.7818609E-02  0.8705207E-01
       -1   -1    0    0    0  501  0.00000000000E+00  0.00000000000E+00  0.61627735736E+03  0.61627735738E+03  0.50400001928E-02 0.  1.
        1   -1    0    0  501    0  0.00000000000E+00  0.00000000000E+00 -0.13173479169E+04  0.13173479169E+04  0.50400001928E-02 0. -1.
    10030    2    1    2    0    0  0.00000000000E+00  0.00000000000E+00 -0.70107055958E+03  0.19336252743E+04  0.18020562622E+04 0.  0.
        5    1    3    3  502    0 -0.10069917482E+02  0.22717217745E+03 -0.12860386018E+04  0.13059961626E+04  0.46999998093E+01 0. -1.
       -5    1    3    3    0  502  0.10069917482E+02 -0.22717217745E+03  0.58496804222E+03  0.62762911171E+03  0.46999998093E+01 0.  1.
</event>
<event>
 5   0  0.4981384E-06  0.1800062E+04  0.7818609E-02  0.8706266E-01
        1   -1    0    0  501    0  0.00000000000E+00  0.00000000000E+00  0.52607346773E+03  0.52607346776E+03  0.50400001928E-02 0. -1.
       -1   -1    0    0    0  501  0.00000000000E+00  0.00000000000E+00 -0.15398151687E+04  0.15398151687E+04  0.50400001928E-02 0.  1.
    10030    2    1    2    0    0  0.00000000000E+00  0.00000000000E+00 -0.10137417010E+04  0.20658886365E+04  0.18000621161E+04 0.  0.
        5    1    3    3  502    0  0.56814207268E+03 -0.25132132893E+03 -0.12542592932E+04  0.13996914980E+04  0.46999998093E+01 0.  1.
       -5    1    3    3    0  502 -0.56814207268E+03  0.25132132893E+03  0.24051759219E+03  0.66619713845E+03  0.46999998093E+01 0. -1.
</event>
<event>
 5   0  0.9589963E-06  0.1798668E+04  0.7818609E-02  0.8707008E-01
       -2   -1    0    0    0  501  0.00000000000E+00  0.00000000000E+00  0.61396564132E+03  0.61396564133E+03  0.25500000920E-02 0.  1.
        2   -1    0    0  501    0  0.00000000000E+00  0.00000000000E+00 -0.13173406168E+04  0.13173406168E+04  0.25500000920E-02 0. -1.
    10030    2    1    2    0    0  0.00000000000E+00  0.00000000000E+00 -0.70337497552E+03  0.19313062582E+04  0.17986682592E+04 0.  0.
        2    1    3    3  502    0  0.28028267539E+02 -0.78665073133E+03 -0.81873074636E+03  0.11357486482E+04  0.25500000920E-02 0. -1.
       -2    1    3    3    0  502 -0.28028267539E+02  0.78665073133E+03  0.11535577084E+03  0.79555760996E+03  0.25500000920E-02 0.  1.
</event>
<event>
 5   0  0.1035018E-05  0.1798188E+04  0.7818609E-02  0.8707264E-01
       -2   -1    0    0    0  501  0.00000000000E+00  0.00000000000E+00  0.10311885240E+04  0.10311885240E+04  0.25500000920E-02 0. -1.
        2   -1    0    0  501    0  0.00000000000E+00  0.00000000000E+00 -0.78392069646E+03  0.78392069647E+03  0.25500000920E-02 0.  1.
    10030    2    1    2    0    0  0.00000000000E+00  0.00000000000E+00  0.24726782757E+03  0.18151092205E+04  0.17981880057E+04 0.  0.
        3    1    3    3  502    0 -0.66594775912E+03 -0.53277745920E+03 -0.16370559665E+03  0.86841106136E+03  0.10100000352E+00 0.  1.
       -3    1    3    3    0  502  0.66594775912E+03  0.53277745920E+03  0.41097342422E+03  0.94669815914E+03  0.10100000352E+00 0. -1.
</event>
<event>
 5   0  0.9999162E-06  0.1799789E+04  0.7818609E-02  0.8706412E-01
        2   -1    0    0  501    0  0.00000000000E+00  0.00000000000E+00  0.12768416795E+04  0.12768416795E+04  0.25500000920E-02 0.  1.
       -2   -1    0    0    0  501  0.00000000000E+00  0.00000000000E+00 -0.63422875292E+03  0.63422875293E+03  0.25500000920E-02 0. -1.
    10030    2    1    2    0    0  0.00000000000E+00  0.00000000000E+00  0.64261292654E+03  0.19110704324E+04  0.17997885499E+04 0.  0.
        1    1    3    3  502    0  0.10243560072E+03  0.21939743881E+03 -0.59898973233E+03  0.64607815929E+03  0.50400001928E-02 0. -1.
       -1    1    3    3    0  502 -0.10243560072E+03 -0.21939743881E+03  0.12416026589E+04  0.12649922731E+04  0.50400001928E-02 0.  1.
</event>
<event>
 5   0  0.9589963E-06  0.1800423E+04  0.7818609E-02  0.8706074E-01
        2   -1    0    0  501    0  0.00000000000E+00  0.00000000000E+00  0.18920229226E+04  0.18920229226E+04  0.25500000920E-02 0. -1.
       -2   -1    0    0    0  501  0.00000000000E+00  0.00000000000E+00 -0.42831461504E+03  0.42831461505E+03  0.25500000920E-02 0.  1.
    10030    2    1    2    0    0  0.00000000000E+00  0.00000000000E+00  0.14637083076E+04  0.23203375377E+04  0.18004233611E+04 0.  0.
        2    1    3    3  502    0 -0.60668879538E+02 -0.29308728277E+03 -0.36231376300E+03  0.46994907291E+03  0.25500000920E-02 0.  1.
       -2    1    3    3    0  502  0.60668879538E+02  0.29308728277E+03  0.18260220706E+04  0.18503884648E+04  0.25500000920E-02 0. -1.
</event>
<event>
 5   0  0.1035018E-05  0.1799484E+04  0.7818609E-02  0.8706574E-01
       -2   -1    0    0    0  501  0.00000000000E+00  0.00000000000E+00  0.58983021722E+03  0.58983021722E+03  0.25500000920E-02 0.  1.
        2   -1    0    0  501    0  0.00000000000E+00  0.00000000000E+00 -0.13724899811E+04  0.13724899811E+04  0.25500000920E-02 0. -1.
    10030    2    1    2    0    0  0.00000000000E+00  0.00000000000E+00 -0.78265976386E+03  0.19623201983E+04  0.17994844414E+04 0.  0.
        3    1    3    3  502    0 -0.26828265457E+03  0.85759591710E+03 -0.34147988057E+03  0.96127772199E+03  0.10100000352E+00 0. -1.
       -3    1    3    3    0  502  0.26828265457E+03 -0.85759591710E+03 -0.44117988329E+03  0.10010424763E+04  0.10100000352E+00 0.  1.
</event>
<event>
 5   0  0.4987456E-06  0.1799786E+04  0.7818609E-02  0.8706414E-01
        1   -1    0    0  501    0  0.00000000000E+00  0.00000000000E+00  0.78318603231E+03  0.78318603232E+03  0.50400001928E-02 0.  1.
       -1   -1    0    0    0  501  0.00000000000E+00  0.00000000000E+00 -0.10339905980E+04  0.10339905980E+04  0.50400001928E-02 0. -1.
    10030    2    1    2    0    0  0.00000000000E+00  0.00000000000E+00 -0.25080456572E+03  0.18171766304E+04  0.17997855360E+04 0.  0.
        3    1    3    3  502    0  0.50226516700E+03  0.40086821028E+03  0.51063833735E+03  0.82080274230E+03  0.10100000352E+00 0.  1.
       -3    1    3    3    0  502 -0.50226516700E+03 -0.40086821028E+03 -0.76144290306E+03  0.99637388807E+03  0.10100000352E+00 0. -1.
</event>
<event>
 5   0  0.1000316E-05  0.1799851E+04  0.7818609E-02  0.8706379E-01
       -2   -1    0    0    0  501  0.00000000000E+00  0.00000000000E+00  0.68393671671E+03  0.68393671671E+03  0.25500000920E-02 0. -1.
        2   -1    0    0  501    0  0.00000000000E+00  0.00000000000E+00 -0.11841243548E+04  0.11841243549E+04  0.25500000920E-02 0.  1.
    10030    2    1    2    0    0  0.00000000000E+00  0.00000000000E+00 -0.50018763814E+03  0.18680610716E+04  0.17998512421E+04 0.  0.
        5    1    3    3  502    0 -0.42557564429E+03  0.18204173032E+03  0.55089828404E+03  0.71955877449E+03  0.46999998093E+01 0. -1.
       -5    1    3    3    0  502  0.42557564429E+03 -0.18204173032E+03 -0.10510859222E+04  0.11485022971E+04  0.46999998093E+01 0.  1.
</event>
<event>
 5   0  0.4981384E-06  0.1799665E+04  0.7818609E-02  0.8706478E-01
       -1   -1    0    0    0  501  0.00000000000E+00  0.00000000000E+00  0.74101252851E+03  0.74101252853E+03  0.50400001928E-02 0. -1.
        1   -1    0    0  501    0  0.00000000000E+00  0.00000000000E+00 -0.10926923658E+04  0.10926923659E+04  0.50400001928E-02 0.  1.
    10030    2    1    2    0    0  0.00000000000E+00  0.00000000000E+00 -0.35167983733E+03  0.18337048944E+04  0.17996652277E+04 0.  0.
        5    1    3    3  502    0  0.28609209829E+02  0.60567046203E+03  0.50158222666E+03  0.78693202728E+03  0.46999998093E+01 0. -1.
       -5    1    3    3    0  502 -0.28609209829E+02 -0.60567046203E+03 -0.85326206399E+03  0.10467728671E+04  0.46999998093E+01 0.  1.
</event>
<event>
 5   0  0.4987456E-06  0.1801453E+04  0.7818609E-02  0.8705527E-01
        1   -1    0    0  501    0  0.00000000000E+00  0.00000000000E+00  0.15773570397E+04  0.15773570397E+04  0.50400001928E-02 0. -1.
       -1   -1    0    0    0  501  0.00000000000E+00  0.00000000000E+00 -0.51434651595E+03  0.51434651598E+03  0.50400001928E-02 0.  1.
    10030    2    1    2    0    0  0.00000000000E+00  0.00000000000E+00  0.10630105238E+04  0.20917035557E+04  0.18014528557E+04 0.  0.
        3    1    3    3  502    0 -0.66228043931E+02 -0.12091451393E+02 -0.51142110261E+03  0.51583322052E+03  0.10100000352E+00 0.  1.
       -3    1    3    3    0  502  0.66228043931E+02  0.12091451393E+02  0.15744316264E+04  0.15758703352E+04  0.10100000352E+00 0. -1.
</event>
<event>
 5   0  0.1035018E-05  0.1799398E+04  0.7818609E-02  0.8706620E-01
        2   -1    0    0  501    0  0.00000000000E+00  0.00000000000E+00  0.18502719673E+04  0.18502719673E+04  0.25500000920E-02 0.  1.
       -2   -1    0    0    0  501  0.00000000000E+00  0.00000000000E+00 -0.43748064825E+03  0.43748064825E+03  0.25500000920E-02 0. -1.
    10030    2    1    2    0    0  0.00000000000E+00  0.00000000000E+00  0.14127913190E+04  0.22877526155E+04  0.17993978767E+04 0.  0.
        3    1    3    3  502    0 -0.30683033564E+03  0.54966625643E+03  0.15236395287E+04  0.16485615767E+04  0.10100000352E+00 0.  1.
       -3    1    3    3    0  502  0.30683033564E+03 -0.54966625643E+03 -0.11084820974E+03  0.63919103884E+03  0.10100000352E+00 0. -1.
</event>
<event>
 5   0  0.4994123E-06  0.1799905E+04  0.7818609E-02  0.8706350E-01
       -1   -1    0    0    0  501  0.00000000000E+00  0.00000000000E+00  0.14564081551E+04  0.14564081551E+04  0.50400001928E-02 0. -1.
        1   -1    0    0  501    0  0.00000000000E+00  0.00000000000E+00 -0.55610382560E+03  0.55610382563E+03  0.50400001928E-02 0.  1.
    10030    2    1    2    0    0  0.00000000000E+00  0.00000000000E+00  0.90030432950E+03  0.20125119807E+04  0.17999046049E+04 0.  0.
        1    1    3    3  502    0  0.52746606041E+03  0.72874032784E+03  0.47824431626E+03  0.10188231134E+04  0.50400001928E-02 0. -1.
       -1    1    3    3    0  502 -0.52746606041E+03 -0.72874032784E+03  0.42206001324E+03  0.99368886736E+03  0.50400001928E-02 0.  1.
</event>
<event>
 5   0  0.4987456E-06  0.1801990E+04  0.7818609E-02  0.8705242E-01
        1   -1    0    0  501    0  0.00000000000E+00  0.00000000000E+00  0.11209321515E+04  0.11209321515E+04  0.50400001928E-02 0. -1.
       -1   -1    0    0    0  501  0.00000000000E+00  0.00000000000E+00 -0.72421172432E+03  0.72421172434E+03  0.50400001928E-02 0.  1.
    10030    2    1    2    0    0  0.00000000000E+00  0.00000000000E+00  0.39672042713E+03  0.18451438758E+04  0.18019902400E+04 0.  0.
        3    1    3    3  502    0 -0.11709260893E+03 -0.17011641305E+03 -0.69964951903E+03  0.72949279142E+03  0.10100000352E+00 0.  1.
       -3    1    3    3    0  502  0.11709260893E+03  0.17011641305E+03  0.10963699462E+04  0.11156510844E+04  0.10100000352E+00 0. -1.
</event>
<event>
 5   0  0.4953155E-06  0.1800739E+04  0.7818609E-02  0.8705906E-01
       -1   -1    0    0    0  501  0.00000000000E+00  0.00000000000E+00  0.93694561798E+03  0.93694561800E+03  0.50400001928E-02 0. -1.
        1   -1    0    0  501    0  0.00000000000E+00  0.00000000000E+00 -0.86522166060E+03  0.86522166061E+03  0.50400001928E-02 0.  1.
    10030    2    1    2    0    0  0.00000000000E+00  0.00000000000E+00  0.71723957386E+02  0.18021672786E+04  0.18007394520E+04 0.  0.
        2    1    3    3  502    0 -0.58951931284E+03  0.42765113810E+03 -0.49394149975E+03  0.87999813711E+03  0.25500000920E-02 0.  1.
       -2    1    3    3    0  502  0.58951931284E+03 -0.42765113810E+03  0.56566545714E+03  0.92216914150E+03  0.25500000920E-02 0. -1.
</event>
<event>
 5   0  0.4981384E-06  0.1801074E+04  0.7818609E-02  0.8705728E-01
       -1   -1    0    0    0  501  0.00000000000E+00  0.00000000000E+00  0.50023998477E+03  0.50023998480E+03  0.50400001928E-02 0.  1.
        1   -1    0    0  501    0  0.00000000000E+00  0.00000000000E+00 -0.16211565565E+04  0.16211565565E+04  0.50400001928E-02 0. -1.
    10030    2    1    2    0    0  0.00000000000E+00  0.00000000000E+00 -0.11209165717E+04  0.21213965413E+04  0.18010744917E+04 0.  0.
        5    1    3    3  502    0  0.35816545171E+03  0.37251600960E+03  0.30819715399E+03  0.60171275866E+03  0.46999998093E+01 0.  1.
       -5    1    3    3    0  502 -0.35816545171E+03 -0.37251600960E+03 -0.14291137257E+04  0.15196837826E+04  0.46999998093E+01 0. -1.
</event>
<event>
 5   0  0.1036381E-05  0.1800572E+04  0.7818609E-02  0.8705996E-01
        2   -1    0    0  501    0  0.00000000000E+00  0.00000000000E+00  0.11630758854E+04  0.11630758854E+04  0.25500000920E-02 0.  1.
       -2   -1    0    0    0  501  0.00000000000E+00  0.00000000000E+00 -0.69687156340E+03  0.69687156341E+03  0.25500000920E-02 0. -1.
    10030    2    1    2    0    0  0.00000000000E+00  0.00000000000E+00  0.46620432196E+03  0.18599474488E+04  0.18005715877E+04 0.  0.
        4    1    3    3  502    0  0.14554642294E+03 -0.53432633373E+03  0.96631476947E+03  0.11137568131E+04  0.12699999809E+01 0.  1.
       -4    1    3    3    0  502 -0.14554642294E+03  0.53432633373E+03 -0.50011044751E+03  0.74619063566E+03  0.12699999809E+01 0. -1.
</event>
<event>
 5   0  0.9999162E-06  0.1801344E+04  0.7818609E-02  0.8705585E-01
       -2   -1    0    0    0  501  0.00000000000E+00  0.00000000000E+00  0.70576724148E+03  0.70576724148E+03  0.25500000920E-02 0.  1.
        2   -1    0    0  501    0  0.00000000000E+00  0.00000000000E+00 -0.11494019361E+04  0.11494019361E+04  0.25500000920E-02 0. -1.
    10030    2    1    2    0    0  0.00000000000E+00  0.00000000000E+00 -0.44363469462E+03  0.18551691776E+04  0.18013442023E+04 0.  0.
        1    1    3    3  502    0  0.57392895133E+01  0.61452187679E+03 -0.89992942489E+03  0.10897444867E+04  0.50400001928E-02 0. -1.
       -1    1    3    3    0  502 -0.57392895133E+01 -0.61452187679E+03  0.45629473027E+03  0.76542469087E+03  0.50400001928E-02 0.  1.
</event>
<event>
 5   0  0.4983159E-06  0.1801662E+04  0.7818609E-02  0.8705416E-01
        1   -1    0    0  501    0  0.00000000000E+00  0.00000000000E+00  0.19234060255E+04  0.19234060255E+04  0.50400001928E-02 0. -1.
       -1   -1    0    0    0  501  0.00000000000E+00  0.00000000000E+00 -0.42190607542E+03  0.42190607545E+03  0.50400001928E-02 0.  1.
    10030    2    1    2    0    0  0.00000000000E+00  0.00000000000E+00  0.15014999501E+04  0.23453121010E+04  0.18016622189E+04 0.  0.
        4    1    3    3  502    0 -0.25787087099E+03  0.79082390289E+03  0.30057201761E+03  0.88444614429E+03  0.12699999809E+01 0.  1.
       -4    1    3    3    0  502  0.25787087099E+03 -0.79082390289E+03  0.12009279325E+04  0.14608659567E+04  0.12699999809E+01 0. -1.
</event>
<event>
 5   0  0.9589963E-06  0.1799797E+04  0.7818609E-02  0.8706408E-01
       -2   -1    0    0    0  501  0.00000000000E+00  0.00000000000E+00  0.48299297413E+03  0.48299297414E+03  0.25500000920E-02 0.  1.
        2   -1    0    0  501    0  0.00000000000E+00  0.00000000000E+00 -0.16766639207E+04  0.16766639207E+04  0.25500000920E-02 0. -1.
    10030    2    1    2    0    0  0.00000000000E+00  0.00000000000E+00 -0.11936709465E+04  0.21596568948E+04  0.17997965370E+04 0.  0.
        2    1    3    3  502    0 -0.63408617898E+03  0.43168296426E+03 -0.32221582229E+02  0.76775887776E+03  0.25500000920E-02 0.  1.
       -2    1    3    3    0  502  0.63408617898E+03 -0.43168296426E+03 -0.11614493643E+04  0.13918980170E+04  0.25500000920E-02 0. -1.
</event>
<event>
 5   0  0.4981384E-06  0.1799915E+04  0.7818609E-02  0.8706345E-01
       -1   -1    0    0    0  501  0.00000000000E+00  0.00000000000E+00  0.41580682439E+03  0.41580682442E+03  0.50400001928E-02 0.  1.
        1   -1    0    0  501    0  0.00000000000E+00  0.00000000000E+00 -0.19478352401E+04  0.19478352401E+04  0.50400001928E-02 0. -1.
    10030    2    1    2    0    0  0.00000000000E+00  0.00000000000E+00 -0.15320284157E+04  0.23636420646E+04  0.17999146487E+04 0.  0.
        5    1    3    3  502    0  0.25731220102E+01 -0.31542630748E+02 -0.19470881620E+04  0.19473510108E+04  0.46999998093E+01 0. -1.
       -5    1    3    3    0  502 -0.25731220102E+01  0.31542630748E+02  0.41505974626E+03  0.41629105380E+03  0.46999998093E+01 0.  1.
</event>
<event>
 5   0  0.9589963E-06  0.1798595E+04  0.7818609E-02  0.8707047E-01
        2   -1    0    0  501    0  0.00000000000E+00  0.00000000000E+00  0.19353124935E+04  0.19353124935E+04  0.25500000920E-02 0. -1.
       -2   -1    0    0    0  501  0.00000000000E+00  0.00000000000E+00 -0.41788395723E+03  0.41788395723E+03  0.25500000920E-02 0.  1.
    10030    2    1    2    0    0  0.00000000000E+00  0.00000000000E+00  0.15174285363E+04  0.23531964508E+04  0.17985950554E+04 0.  0.
        2    1    3    3  502    0  0.63932110931E+03  0.40915694153E+03  0.13897081175E+04  0.15834865126E+04  0.25500000920E-02 0. -1.
       -2    1    3    3    0  502 -0.63932110931E+03 -0.40915694153E+03  0.12772041883E+03  0.76970993823E+03  0.25500000920E-02 0.  1.
</event>
<event>
 5   0  0.4983159E-06  0.1799546E+04  0.7818609E-02  0.8706541E-01
       -1   -1    0    0    0  501  0.00000000000E+00  0.00000000000E+00  0.75278689865E+03  0.75278689867E+03  0.50400001928E-02 0. -1.
        1   -1    0    0  501    0  0.00000000000E+00  0.00000000000E+00 -0.10754591626E+04  0.10754591626E+04  0.50400001928E-02 0.  1.
    10030    2    1    2    0    0  0.00000000000E+00  0.00000000000E+00 -0.32267226398E+03  0.18282460613E+04  0.17995461291E+04 0.  0.
        4    1    3    3  502    0 -0.57663797334E+02 -0.71713763062E+03  0.38763191848E+03  0.81723412306E+03  0.12699999809E+01 0. -1.
       -4    1    3    3    0  502  0.57663797334E+02  0.71713763062E+03 -0.71030418245E+03  0.10110119382E+04  0.12699999809E+01 0.  1.
</event>
<event>
 5   0  0.4983159E-06  0.1797120E+04  0.7818609E-02  0.8707833E-01
       -1   -1    0    0    0  501  0.00000000000E+00  0.00000000000E+00  0.71929504190E+03  0.71929504191E+03  0.50400001928E-02 0. -1.
        1   -1    0    0  501    0  0.00000000000E+00  0.00000000000E+00 -0.11225014148E+04  0.11225014148E+04  0.50400001928E-02 0.  1.
    10030    2    1    2    0    0  0.00000000000E+00  0.00000000000E+00 -0.40320637292E+03  0.18417964567E+04  0.17971195867E+04 0.  0.
        4    1    3    3  502    0  0.69463254753E+03 -0.43363157210E+03 -0.58074244387E+03  0.10038994548E+04  0.12699999809E+01 0.  1.
       -4    1    3    3    0  502 -0.69463254753E+03  0.43363157210E+03  0.17753607095E+03  0.83789700190E+03  0.12699999809E+01 0. -1.
</event>
<event>
 5   0  0.4953155E-06  0.1799892E+04  0.7818609E-02  0.8706357E-01
        1   -1    0    0  501    0  0.00000000000E+00  0.00000000000E+00  0.17825439718E+04  0.17825439718E+04  0.50400001928E-02 0.  1.
       -1   -1    0    0    0  501  0.00000000000E+00  0.00000000000E+00 -0.45435223166E+03  0.45435223168E+03  0.50400001928E-02 0. -1.
    10030    2    1    2    0    0  0.00000000000E+00  0.00000000000E+00  0.13281917401E+04  0.22368962035E+04  0.17998920319E+04 0.  0.
        2    1    3    3  502    0 -0.75546232199E+03  0.19896041819E+03  0.10886525370E+03  0.78877133025E+03  0.25500000920E-02 0. -1.
       -2    1    3    3    0  502  0.75546232199E+03 -0.19896041819E+03  0.12193264864E+04  0.14481248732E+04  0.25500000920E-02 0.  1.
</event>
<event>
 5   0  0.9589963E-06  0.1801469E+04  0.7818609E-02  0.8705519E-01
        2   -1    0    0  501    0  0.00000000000E+00  0.00000000000E+00  0.91610025168E+03  0.91610025168E+03  0.25500000920E-02 0.  1.
       -2   -1    0    0    0  501  0.00000000000E+00  0.00000000000E+00 -0.88562676725E+03  0.88562676725E+03  0.25500000920E-02 0. -1.
    10030    2    1    2    0    0  0.00000000000E+00  0.00000000000E+00  0.30473484436E+02  0.18017270189E+04  0.18014692941E+04 0.  0.
        2    1    3    3  502    0  0.41128556626E+03 -0.77017295752E+03  0.23662943477E+03  0.90460803164E+03  0.25500000920E-02 0. -1.
       -2    1    3    3    0  502 -0.41128556626E+03  0.77017295752E+03 -0.20615595033E+03  0.89711898729E+03  0.25500000920E-02 0.  1.
</event>
<event>
 5   0  0.3626125E-06  0.1800770E+04  0.7818609E-02  0.8705890E-01
        3   -1    0    0  501    0  0.00000000000E+00  0.00000000000E+00  0.14429908869E+04  0.14429908904E+04  0.10100000352E+00 0.  1.
       -3   -1    0    0    0  501  0.00000000000E+00  0.00000000000E+00 -0.56181432409E+03  0.56181433317E+03  0.10100000352E+00 0. -1.
    10030    2    1    2    0    0  0.00000000000E+00  0.00000000000E+00  0.88117656281E+03  0.20048052236E+04  0.18007697937E+04 0.  0.
        2    1    3    3  502    0  0.21740128164E+03 -0.45106603542E+03  0.12736861251E+04  0.13685759865E+04  0.25500000920E-02 0.  1.
       -2    1    3    3    0  502 -0.21740128164E+03  0.45106603542E+03 -0.39250956232E+03  0.63622923706E+03  0.25500000920E-02 0. -1.
</event>
<event>
 5   0  0.1000316E-05  0.1799422E+04  0.7818609E-02  0.8706607E-01
        2   -1    0    0  501    0  0.00000000000E+00  0.00000000000E+00  0.10686805942E+04  0.10686805942E+04  0.25500000920E-02 0.  1.
       -2   -1    0    0    0  501  0.00000000000E+00  0.00000000000E+00 -0.75745719415E+03  0.75745719415E+03  0.25500000920E-02 0. -1.
    10030    2    1    2    0    0  0.00000000000E+00  0.00000000000E+00  0.31122340008E+03  0.18261377884E+04  0.17994219120E+04 0.  0.
        5    1    3    3  502    0 -0.39489502236E+03 -0.70449281922E+03  0.55798987036E+03  0.98164504605E+03  0.46999998093E+01 0.  1.
       -5    1    3    3    0  502  0.39489502236E+03  0.70449281922E+03 -0.24676647028E+03  0.84449274234E+03  0.46999998093E+01 0. -1.
</event>
<event>
 5   0  0.1000316E-05  0.1798033E+04  0.7818609E-02  0.8707346E-01
       -2   -1    0    0    0  501  0.00000000000E+00  0.00000000000E+00  0.39492432614E+03  0.39492432614E+03  0.25500000920E-02 0.  1.
        2   -1    0    0  501    0  0.00000000000E+00  0.00000000000E+00 -0.20465463542E+04  0.20465463542E+04  0.25500000920E-02 0. -1.
    10030    2    1    2    0    0  0.00000000000E+00  0.00000000000E+00 -0.16516220280E+04  0.24414706803E+04  0.17980333032E+04 0.  0.
        5    1    3    3  502    0  0.33191781252E+03 -0.46353049897E+03  0.11804937090E+03  0.58222650379E+03  0.46999998093E+01 0.  1.
       -5    1    3    3    0  502 -0.33191781252E+03  0.46353049897E+03 -0.17696713989E+04  0.18592441765E+04  0.46999998093E+01 0. -1.
</event>
<event>
 5   0  0.1036381E-05  0.1795779E+04  0.7818609E-02  0.8708547E-01
        2   -1    0    0  501    0  0.00000000000E+00  0.00000000000E+00  0.42823840329E+03  0.42823840330E+03  0.25500000920E-02 0. -1.
       -2   -1    0    0    0  501  0.00000000000E+00  0.00000000000E+00 -0.18826095731E+04  0.18826095731E+04  0.25500000920E-02 0.  1.
    10030    2    1    2    0    0  0.00000000000E+00  0.00000000000E+00 -0.14543711698E+04  0.23108479764E+04  0.17957791820E+04 0.  0.
        4    1    3    3  502    0 -0.63619465390E+03 -0.12286149279E+03 -0.15270522992E+04  0.16588336027E+04  0.12699999809E+01 0.  1.
       -4    1    3    3    0  502  0.63619465390E+03  0.12286149279E+03  0.72681129365E+02  0.65201437372E+03  0.12699999809E+01 0. -1.
</event>
<event>
 5   0  0.4983159E-06  0.1802819E+04  0.7818609E-02  0.8704802E-01
        1   -1    0    0  501    0  0.00000000000E+00  0.00000000000E+00  0.12202180185E+04  0.12202180185E+04  0.50400001928E-02 0.  1.
       -1   -1    0    0    0  501  0.00000000000E+00  0.00000000000E+00 -0.66589647335E+03  0.66589647337E+03  0.50400001928E-02 0. -1.
    10030    2    1    2    0    0  0.00000000000E+00  0.00000000000E+00  0.55432154513E+03  0.18861144919E+04  0.18028187654E+04 0.  0.
        4    1    3    3  502    0 -0.10243727158E+03  0.28580738161E+03 -0.61079263117E+03  0.68209127335E+03  0.12699999809E+01 0. -1.
       -4    1    3    3    0  502  0.10243727158E+03 -0.28580738161E+03  0.11651141763E+04  0.12040232185E+04  0.12699999809E+01 0.  1.
</event>
<event>
 5   0  0.4953155E-06  0.1799909E+04  0.7818609E-02  0.8706348E-01
       -1   -1    0    0    0  501  0.00000000000E+00  0.00000000000E+00  0.57201325575E+03  0.57201325577E+03  0.50400001928E-02 0.  1.
        1   -1    0    0  501    0  0.00000000000E+00  0.00000000000E+00 -0.14159083598E+04  0.14159083598E+04  0.50400001928E-02 0. -1.
    10030    2    1    2    0    0  0.00000000000E+00  0.00000000000E+00 -0.84389510404E+03  0.19879216156E+04  0.17999092763E+04 0.  0.
        2    1    3    3  502    0 -0.30322092360E+03 -0.22933268315E+03  0.47896812895E+03  0.61151195952E+03  0.25500000920E-02 0.  1.
       -2    1    3    3    0  502  0.30322092360E+03  0.22933268315E+03 -0.13228632330E+04  0.13764096561E+04  0.25500000920E-02 0. -1.
</event>
<event>
 5   0  0.9589963E-06  0.1800544E+04  0.7818609E-02  0.8706010E-01
        2   -1    0    0  501    0  0.00000000000E+00  0.00000000000E+00  0.17146944200E+04  0.17146944200E+04  0.25500000920E-02 0. -1.
       -2   -1    0    0    0  501  0.00000000000E+00  0.00000000000E+00 -0.47267303170E+03  0.47267303171E+03  0.25500000920E-02 0.  1.
    10030    2    1    2    0    0  0.00000000000E+00  0.00000000000E+00  0.12420213883E+04  0.21873674517E+04  0.18005441510E+04 0.  0.
        2    1    3    3  502    0  0.19114270294E+03 -0.29513462990E+03 -0.38580242752E+03  0.52199951699E+03  0.25500000920E-02 0.  1.
       -2    1    3    3    0  502 -0.19114270294E+03  0.29513462990E+03  0.16278238158E+04  0.16653679347E+04  0.25500000920E-02 0. -1.
</event>
<event>
 5   0  0.4953155E-06  0.1799328E+04  0.7818609E-02  0.8706657E-01
        1   -1    0    0  501    0  0.00000000000E+00  0.00000000000E+00  0.19844115182E+04  0.19844115182E+04  0.50400001928E-02 0. -1.
       -1   -1    0    0    0  501  0.00000000000E+00  0.00000000000E+00 -0.40787657467E+03  0.40787657471E+03  0.50400001928E-02 0.  1.
    10030    2    1    2    0    0  0.00000000000E+00  0.00000000000E+00  0.15765349435E+04  0.23922880929E+04  0.17993276220E+04 0.  0.
        2    1    3    3  502    0  0.19449765192E+03 -0.57935952608E+02 -0.37704647581E+03  0.42819383010E+03  0.25500000920E-02 0.  1.
       -2    1    3    3    0  502 -0.19449765192E+03  0.57935952608E+02  0.19535814194E+04  0.19640942628E+04  0.25500000920E-02 0. -1.
</event>
<event>
 5   0  0.1035018E-05  0.1799680E+04  0.7818609E-02  0.8706470E-01
       -2   -1    0    0    0  501  0.00000000000E+00  0.00000000000E+00  0.16224508317E+04  0.16224508317E+04  0.25500000920E-02 0.  1.
        2   -1    0    0  501    0  0.00000000000E+00  0.00000000000E+00 -0.49906701207E+03  0.49906701208E+03  0.25500000920E-02 0. -1.
    10030    2    1    2    0    0  0.00000000000E+00  0.00000000000E+00  0.11233838197E+04  0.21215178438E+04  0.17996796258E+04 0.  0.
        3    1    3    3  502    0 -0.44630153286E+03  0.35629749969E+03  0.13814488007E+04  0.14948356986E+04  0.10100000352E+00 0.  1.
       -3    1    3    3    0  502  0.44630153286E+03 -0.35629749969E+03 -0.25806498105E+03  0.62668214525E+03  0.10100000352E+00 0. -1.
</event>
<event>
 5   0  0.1000316E-05  0.1801593E+04  0.7818609E-02  0.8705453E-01
        2   -1    0    0  501    0  0.00000000000E+00  0.00000000000E+00  0.14711906369E+04  0.14711906369E+04  0.25500000920E-02 0.  1.
       -2   -1    0    0    0  501  0.00000000000E+00  0.00000000000E+00 -0.55154927342E+03  0.55154927342E+03  0.25500000920E-02 0. -1.
    10030    2    1    2    0    0  0.00000000000E+00  0.00000000000E+00  0.91964136350E+03  0.20227399103E+04  0.18015927696E+04 0.  0.
        5    1    3    3  502    0  0.63077405228E+03  0.61719113556E+03  0.66257356077E+03  0.11035518186E+04  0.46999998093E+01 0. -1.
       -5    1    3    3    0  502 -0.63077405228E+03 -0.61719113556E+03  0.25706780273E+03  0.91918809177E+03  0.46999998093E+01 0.  1.
</event>
<event>
 5   0  0.4981384E-06  0.1799085E+04  0.7818609E-02  0.8706786E-01
        1   -1    0    0  501    0  0.00000000000E+00  0.00000000000E+00  0.13332525441E+04  0.13332525441E+04  0.50400001928E-02 0. -1.
       -1   -1    0    0    0  501  0.00000000000E+00  0.00000000000E+00 -0.60691929430E+03  0.60691929432E+03  0.50400001928E-02 0.  1.
    10030    2    1    2    0    0  0.00000000000E+00  0.00000000000E+00  0.72633324978E+03  0.19401718384E+04  0.17990849821E+04 0.  0.
        5    1    3    3  502    0  0.22614654504E+03  0.74324655579E+03 -0.12581979712E+03  0.78702631079E+03  0.46999998093E+01 0. -1.
       -5    1    3    3    0  502 -0.22614654504E+03 -0.74324655579E+03  0.85215304690E+03  0.11531455276E+04  0.46999998093E+01 0.  1.
</event>
<event>
 5   0  0.4987456E-06  0.1802205E+04  0.7818609E-02  0.8705128E-01
       -1   -1    0    0    0  501  0.00000000000E+00  0.00000000000E+00  0.52620804268E+03  0.52620804270E+03  0.50400001928E-02 0. -1.
        1   -1    0    0  501    0  0.00000000000E+00  0.00000000000E+00 -0.15430890571E+04  0.15430890571E+04  0.50400001928E-02 0.  1.
    10030    2    1    2    0    0  0.00000000000E+00  0.00000000000E+00 -0.10168810145E+04  0.20692970998E+04  0.18022051742E+04 0.  0.
        3    1    3    3  502    0 -0.12966207921E+03 -0.12515765474E+03  0.50530567301E+03  0.53647975423E+03  0.10100000352E+00 0. -1.
       -3    1    3    3    0  502  0.12966207921E+03  0.12515765474E+03 -0.15221866875E+04  0.15328173456E+04  0.10100000352E+00 0.  1.
</event>
<event>
 5   0  0.1035018E-05  0.1800541E+04  0.7818609E-02  0.8706012E-01
        2   -1    0    0  501    0  0.00000000000E+00  0.00000000000E+00  0.99364159768E+03  0.99364159769E+03  0.25500000920E-02 0.  1.
       -2   -1    0    0    0  501  0.00000000000E+00  0.00000000000E+00 -0.81567312182E+03  0.81567312182E+03  0.25500000920E-02 0. -1.
    10030    2    1    2    0    0  0.00000000000E+00  0.00000000000E+00  0.17796847586E+03  0.18093147195E+04  0.18005407454E+04 0.  0.
        3    1    3    3  502    0 -0.62220830811E+03  0.39902593670E+02 -0.56360423340E+03  0.84046721398E+03  0.10100000352E+00 0. -1.
       -3    1    3    3    0  502  0.62220830811E+03 -0.39902593670E+02  0.74157270926E+03  0.96884750554E+03  0.10100000352E+00 0.  1.
</event>
<event>
 5   0  0.9999162E-06  0.1799403E+04  0.7818609E-02  0.8706617E-01
        2   -1    0    0  501    0  0.00000000000E+00  0.00000000000E+00  0.61869621239E+03  0.61869621239E+03  0.25500000920E-02 0. -1.
       -2   -1    0    0    0  501  0.00000000000E+00  0.00000000000E+00 -0.13083370794E+04  0.13083370794E+04  0.25500000920E-02 0.  1.
    10030    2    1    2    0    0  0.00000000000E+00  0.00000000000E+00 -0.68964086699E+03  0.19270332918E+04  0.17994034517E+04 0.  0.
        1    1    3    3  502    0  0.82780970686E+03  0.23653139600E+03 -0.62459165233E+03  0.10636403265E+04  0.50400001928E-02 0. -1.
       -1    1    3    3    0  502 -0.82780970686E+03 -0.23653139600E+03 -0.65049214662E+02  0.86339296523E+03  0.50400001928E-02 0.  1.
</event>
<event>
 5   0  0.9999162E-06  0.1800021E+04  0.7818609E-02  0.8706288E-01
        2   -1    0    0  501    0  0.00000000000E+00  0.00000000000E+00  0.22132569375E+04  0.22132569375E+04  0.25500000920E-02 0. -1.
       -2   -1    0    0    0  501  0.00000000000E+00  0.00000000000E+00 -0.36598516298E+03  0.36598516298E+03  0.25500000920E-02 0.  1.
    10030    2    1    2    0    0  0.00000000000E+00  0.00000000000E+00  0.18472717746E+04  0.25792421005E+04  0.18000213343E+04 0.  0.
        1    1    3    3  502    0 -0.30013187620E+03  0.41850634619E+03  0.19812567645E+04  0.20470967421E+04  0.50400001928E-02 0. -1.
       -1    1    3    3    0  502  0.30013187620E+03 -0.41850634619E+03 -0.13398498990E+03  0.53214535839E+03  0.50400001928E-02 0.  1.
</event>
<event>
 5   0  0.9589963E-06  0.1799847E+04  0.7818609E-02  0.8706381E-01
       -2   -1    0    0    0  501  0.00000000000E+00  0.00000000000E+00  0.98616986328E+03  0.98616986328E+03  0.25500000920E-02 0.  1.
        2   -1    0    0  501    0  0.00000000000E+00  0.00000000000E+00 -0.82121997601E+03  0.82121997602E+03  0.25500000920E-02 0. -1.
    10030    2    1    2    0    0  0.00000000000E+00  0.00000000000E+00  0.16494988727E+03  0.18073898393E+04  0.17998470951E+04 0.  0.
        2    1    3    3  502    0 -0.34404005833E+03  0.75680568838E+01  0.91748933989E+03  0.97990179408E+03  0.25500000920E-02 0.  1.
       -2    1    3    3    0  502  0.34404005833E+03 -0.75680568838E+01 -0.75253945262E+03  0.82748804522E+03  0.25500000920E-02 0. -1.
</event>
<event>
 5   0  0.4994123E-06  0.1799522E+04  0.7818609E-02  0.8706554E-01
       -1   -1    0    0    0  501  0.00000000000E+00  0.00000000000E+00  0.11989708586E+04  0.11989708586E+04  0.50400001928E-02 0.  1.
        1   -1    0    0  501    0  0.00000000000E+00  0.00000000000E+00 -0.67522088513E+03  0.67522088515E+03  0.50400001928E-02 0. -1.
    10030    2    1    2    0    0  0.00000000000E+00  0.00000000000E+00  0.52374997351E+03  0.18741917438E+04  0.17995223416E+04 0.  0.
        1    1    3    3  502    0  0.18274687197E+03 -0.43347699117E+02 -0.65457744300E+03  0.68098977315E+03  0.50400001928E-02 0. -1.
       -1    1    3    3    0  502 -0.18274687197E+03  0.43347699117E+02  0.11783274165E+04  0.11932019706E+04  0.50400001928E-02 0.  1.
</event>
<event>
 5   0  0.9999162E-06  0.1799872E+04  0.7818609E-02  0.8706368E-01
       -2   -1    0    0    0  501  0.00000000000E+00  0.00000000000E+00  0.62456634438E+03  0.62456634438E+03  0.25500000920E-02 0. -1.
        2   -1    0    0  501    0  0.00000000000E+00  0.00000000000E+00 -0.12967148546E+04  0.12967148546E+04  0.25500000920E-02 0.  1.
    10030    2    1    2    0    0  0.00000000000E+00  0.00000000000E+00 -0.67214851026E+03  0.19212811990E+04  0.17998716137E+04 0.  0.
        1    1    3    3  502    0  0.11902134713E+02 -0.73891642663E+03  0.21212921231E+03  0.76885495973E+03  0.50400001928E-02 0. -1.
       -1    1    3    3    0  502 -0.11902134713E+02  0.73891642663E+03 -0.88427772257E+03  0.11524262393E+04  0.50400001928E-02 0.  1.
</event>
<event>
 5   0  0.1036381E-05  0.1799950E+04  0.7818609E-02  0.8706326E-01
        2   -1    0    0  501    0  0.00000000000E+00  0.00000000000E+00  0.86659904922E+03  0.86659904923E+03  0.25500000920E-02 0.  1.
       -2   -1    0    0    0  501  0.00000000000E+00  0.00000000000E+00 -0.93463660118E+03  0.93463660119E+03  0.25500000920E-02 0. -1.
    10030    2    1    2    0    0  0.00000000000E+00  0.00000000000E+00 -0.68037551961E+02  0.18012356504E+04  0.17999502104E+04 0.  0.
        4    1    3    3  502    0  0.38045392036E+03 -0.30819167459E+03  0.72165379321E+03  0.87207402435E+03  0.12699999809E+01 0.  1.
       -4    1    3    3    0  502 -0.38045392036E+03  0.30819167459E+03 -0.78969134517E+03  0.92916162606E+03  0.12699999809E+01 0. -1.
</event>
<event>
 5   0  0.1035018E-05  0.1799300E+04  0.7818609E-02  0.8706672E-01
       -2   -1    0    0    0  501  0.00000000000E+00  0.00000000000E+00  0.85295727610E+03  0.85295727610E+03  0.25500000920E-02 0. -1.
        2   -1    0    0  501    0  0.00000000000E+00  0.00000000000E+00 -0.94889860819E+03  0.94889860819E+03  0.25500000920E-02 0.  1.
    10030    2    1    2    0    0  0.00000000000E+00  0.00000000000E+00 -0.95941332093E+02  0.18018558843E+04  0.17992998329E+04 0.  0.
        3    1    3    3  502    0 -0.24515184333E+02  0.75708230923E+03 -0.53404183860E+03  0.92680921056E+03  0.10100000352E+00 0.  1.
       -3    1    3    3    0  502  0.24515184333E+02 -0.75708230923E+03  0.43810050651E+03  0.87504667373E+03  0.10100000352E+00 0. -1.
</event>
<event>
 5   0  0.4981384E-06  0.1800437E+04  0.7818609E-02  0.8706067E-01
       -1   -1    0    0    0  501  0.00000000000E+00  0.00000000000E+00  0.11324008642E+04  0.11324008642E+04  0.50400001928E-02 0.  1.
        1   -1    0    0  501    0  0.00000000000E+00  0.00000000000E+00 -0.71564172087E+03  0.71564172089E+03  0.50400001928E-02 0. -1.
    10030    2    1    2    0    0  0.00000000000E+00  0.00000000000E+00  0.41675914328E+03  0.18480425851E+04  0.18004369505E+04 0.  0.
        5    1    3    3  502    0  0.66709427045E+03 -0.26234209991E+03  0.76732656475E+03  0.10500715642E+04  0.46999998093E+01 0.  1.
       -5    1    3    3    0  502 -0.66709427045E+03  0.26234209991E+03 -0.35056742147E+03  0.79797102081E+03  0.46999998093E+01 0. -1.
</event>
<event>
 5   0  0.4953155E-06  0.1800092E+04  0.7818609E-02  0.8706250E-01
        1   -1    0    0  501    0  0.00000000000E+00  0.00000000000E+00  0.92821045488E+03  0.92821045489E+03  0.50400001928E-02 0.  1.
       -1   -1    0    0    0  501  0.00000000000E+00  0.00000000000E+00 -0.87273644149E+03  0.87273644151E+03  0.50400001928E-02 0. -1.
    10030    2    1    2    0    0  0.00000000000E+00  0.00000000000E+00  0.55474013389E+02  0.18009468964E+04  0.18000923192E+04 0.  0.
        2    1    3    3  502    0  0.12621206700E+03  0.34141077162E+03 -0.79581372194E+03  0.87510586838E+03  0.25500000920E-02 0. -1.
       -2    1    3    3    0  502 -0.12621206700E+03 -0.34141077162E+03  0.85128773533E+03  0.92584102802E+03  0.25500000920E-02 0.  1.
</event>
<event>
 5   0  0.9999162E-06  0.1800042E+04  0.7818609E-02  0.8706277E-01
       -2   -1    0    0    0  501  0.00000000000E+00  0.00000000000E+00  0.72288695684E+03  0.72288695684E+03  0.25500000920E-02 0. -1.
        2   -1    0    0  501    0  0.00000000000E+00  0.00000000000E+00 -0.11205599246E+04  0.11205599246E+04  0.25500000920E-02 0.  1.
    10030    2    1    2    0    0  0.00000000000E+00  0.00000000000E+00 -0.39767296772E+03  0.18434468814E+04  0.18000423926E+04 0.  0.
        1    1    3    3  502    0  0.73152971717E+03 -0.41931626220E+03 -0.52119027500E+03  0.99126240604E+03  0.50400001928E-02 0.  1.
       -1    1    3    3    0  502 -0.73152971717E+03  0.41931626220E+03  0.12351730728E+03  0.85218447537E+03  0.50400001928E-02 0. -1.
</event>
<event>
 5   0  0.1036381E-05  0.1799682E+04  0.7818609E-02  0.8706469E-01
        2   -1    0    0  501    0  0.00000000000E+00  0.00000000000E+00  0.20241852064E+04  0.20241852064E+04  0.25500000920E-02 0. -1.
       -2   -1    0    0    0  501  0.00000000000E+00  0.00000000000E+00 -0.40001965612E+03  0.40001965613E+03  0.25500000920E-02 0.  1.
    10030    2    1    2    0    0  0.00000000000E+00  0.00000000000E+00  0.16241655502E+04  0.24242048625E+04  0.17996820499E+04 0.  0.
        4    1    3    3  502    0 -0.63372917298E+03  0.27146194675E+02 -0.47651321203E+02  0.63609892461E+03  0.12699999809E+01 0.  1.
       -4    1    3    3    0  502  0.63372917298E+03 -0.27146194675E+02  0.16718168714E+04  0.17881059379E+04  0.12699999809E+01 0. -1.
</event>
<event>
 5   0  0.1035018E-05  0.1795338E+04  0.7818609E-02  0.8708783E-01
       -2   -1    0    0    0  501  0.00000000000E+00  0.00000000000E+00  0.30736936344E+03  0.30736936345E+03  0.25500000920E-02 0. -1.
        2   -1    0    0  501    0  0.00000000000E+00  0.00000000000E+00 -0.26216326983E+04  0.26216326983E+04  0.25500000920E-02 0.  1.
    10030    2    1    2    0    0  0.00000000000E+00  0.00000000000E+00 -0.23142633349E+04  0.29290020618E+04  0.17953379333E+04 0.  0.
        3    1    3    3  502    0  0.43555893592E+02  0.78611465249E+03 -0.45364568743E+03  0.90866263412E+03  0.10100000352E+00 0. -1.
       -3    1    3    3    0  502 -0.43555893592E+02 -0.78611465249E+03 -0.18606176475E+04  0.20203394277E+04  0.10100000352E+00 0.  1.
</event>
<event>
 5   0  0.4994123E-06  0.1800072E+04  0.7818609E-02  0.8706261E-01
        1   -1    0    0  501    0  0.00000000000E+00  0.00000000000E+00  0.13782517316E+04  0.13782517316E+04  0.50400001928E-02 0.  1.
       -1   -1    0    0    0  501  0.00000000000E+00  0.00000000000E+00 -0.58774837748E+03  0.58774837750E+03  0.50400001928E-02 0. -1.
    10030    2    1    2    0    0  0.00000000000E+00  0.00000000000E+00  0.79050335410E+03  0.19660001091E+04  0.18000724641E+04 0.  0.
        1    1    3    3  502    0  0.61197467138E+03 -0.51311227721E+03 -0.58058917719E+02  0.80072969558E+03  0.50400001928E-02 0. -1.
       -1    1    3    3    0  502 -0.61197467138E+03  0.51311227721E+03  0.84856227182E+03  0.11652704135E+04  0.50400001928E-02 0.  1.
</event>
<event>
 5   0  0.9589963E-06  0.1800160E+04  0.7818609E-02  0.8706214E-01
       -2   -1    0    0    0  501  0.00000000000E+00  0.00000000000E+00  0.43816465881E+03  0.43816465882E+03  0.25500000920E-02 0.  1.
        2   -1    0    0  501    0  0.00000000000E+00  0.00000000000E+00 -0.18489489544E+04  0.18489489544E+04  0.25500000920E-02 0. -1.
    10030    2    1    2    0    0  0.00000000000E+00  0.00000000000E+00 -0.14107842956E+04  0.22871136132E+04  0.18001600904E+04 0.  0.
        2    1    3    3  502    0  0.28303897533E+03  0.27897616112E+03 -0.17314427528E+04  0.17764663708E+04  0.25500000920E-02 0. -1.
       -2    1    3    3    0  502 -0.28303897533E+03 -0.27897616112E+03  0.32065845726E+03  0.51064724247E+03  0.25500000920E-02 0.  1.
</event>
<event>
 5   0  0.4994123E-06  0.1800112E+04  0.7818609E-02  0.8706240E-01
        1   -1    0    0  501    0  0.00000000000E+00  0.00000000000E+00  0.15231640209E+04  0.15231640209E+04  0.50400001928E-02 0.  1.
       -1   -1    0    0    0  501  0.00000000000E+00  0.00000000000E+00 -0.53185377721E+03  0.53185377724E+03  0.50400001928E-02 0. -1.
    10030    2    1    2    0    0  0.00000000000E+00  0.00000000000E+00  0.99131024366E+03  0.20550177981E+04  0.18001117053E+04 0.  0.
        1    1    3    3  502    0  0.86679636292E+03  0.64286635958E+02  0.76248779789E+03  0.11562250422E+04  0.50400001928E-02 0.  1.
       -1    1    3    3    0  502 -0.86679636292E+03 -0.64286635958E+02  0.22882244577E+03  0.89879275589E+03  0.50400001928E-02 0. -1.
</event>
<event>
 5   0  0.4953155E-06  0.1797888E+04  0.7818609E-02  0.8707423E-01
        1   -1    0    0  501    0  0.00000000000E+00  0.00000000000E+00  0.92138732680E+03  0.92138732681E+03  0.50400001928E-02 0.  1.
       -1   -1    0    0    0  501  0.00000000000E+00  0.00000000000E+00 -0.87704722872E+03  0.87704722874E+03  0.50400001928E-02 0. -1.
    10030    2    1    2    0    0  0.00000000000E+00  0.00000000000E+00  0.44340098080E+02  0.17984345555E+04  0.17978878737E+04 0.  0.
        2    1    3    3  502    0  0.25775800312E+02 -0.27800910477E+03 -0.83257602130E+03  0.87814365879E+03  0.25500000920E-02 0. -1.
       -2    1    3    3    0  502 -0.25775800312E+02  0.27800910477E+03  0.87691611938E+03  0.92029089676E+03  0.25500000920E-02 0.  1.
</event>
<event>
 5   0  0.1000316E-05  0.1799750E+04  0.7818609E-02  0.8706432E-01
       -2   -1    0    0    0  501  0.00000000000E+00  0.00000000000E+00  0.10127637388E+04  0.10127637388E+04  0.25500000920E-02 0.  1.
        2   -1    0    0  501    0  0.00000000000E+00  0.00000000000E+00 -0.79956948151E+03  0.79956948151E+03  0.25500000920E-02 0. -1.
    10030    2    1    2    0    0  0.00000000000E+00  0.00000000000E+00  0.21319425728E+03  0.18123332203E+04  0.17997499577E+04 0.  0.
        5    1    3    3  502    0 -0.36634937038E+03 -0.17491061793E+03 -0.70210389785E+03  0.81103486905E+03  0.46999998093E+01 0. -1.
       -5    1    3    3    0  502  0.36634937038E+03  0.17491061793E+03  0.91529815513E+03  0.10012983513E+04  0.46999998093E+01 0.  1.
</event>
<event>
 5   0  0.4994123E-06  0.1802483E+04  0.7818609E-02  0.8704980E-01
       -1   -1    0    0    0  501  0.00000000000E+00  0.00000000000E+00  0.98833331425E+03  0.98833331426E+03  0.50400001928E-02 0. -1.
        1   -1    0    0  501    0  0.00000000000E+00  0.00000000000E+00 -0.82182459333E+03  0.82182459334E+03  0.50400001928E-02 0.  1.
    10030    2    1    2    0    0  0.00000000000E+00  0.00000000000E+00  0.16650872092E+03  0.18101579076E+04  0.18024834247E+04 0.  0.
        1    1    3    3  502    0 -0.61580356912E+03  0.16435573899E+03 -0.55664758318E+03  0.84621709777E+03  0.50400001928E-02 0.  1.
       -1    1    3    3    0  502  0.61580356912E+03 -0.16435573899E+03  0.72315630410E+03  0.96394080983E+03  0.50400001928E-02 0. -1.
</event>
<event>
 5   0  0.1036381E-05  0.1788484E+04  0.7818609E-02  0.8712447E-01
        2   -1    0    0  501    0  0.00000000000E+00  0.00000000000E+00  0.15605964345E+04  0.15605964345E+04  0.25500000920E-02 0. -1.
       -2   -1    0    0    0  501  0.00000000000E+00  0.00000000000E+00 -0.51241250805E+03  0.51241250806E+03  0.25500000920E-02 0.  1.
    10030    2    1    2    0    0  0.00000000000E+00  0.00000000000E+00  0.10481839265E+04  0.20730089426E+04  0.17884844233E+04 0.  0.
        4    1    3    3  502    0 -0.50459809594E+03 -0.66357274163E+03  0.89917704385E+03  0.12261602632E+04  0.12699999809E+01 0. -1.
       -4    1    3    3    0  502  0.50459809594E+03  0.66357274163E+03  0.14900688261E+03  0.84684867941E+03  0.12699999809E+01 0.  1.
</event>
<event>
 5   0  0.3626125E-06  0.1800461E+04  0.7818609E-02  0.8706055E-01
        3   -1    0    0  501    0  0.00000000000E+00  0.00000000000E+00  0.95390973303E+03  0.95390973838E+03  0.10100000352E+00 0.  1.
       -3   -1    0    0    0  501  0.00000000000E+00  0.00000000000E+00 -0.84957148635E+03  0.84957149235E+03  0.10100000352E+00 0. -1.
    10030    2    1    2    0    0  0.00000000000E+00  0.00000000000E+00  0.10433824668E+03  0.18034812307E+04  0.18004605188E+04 0.  0.
        4    1    3    3  502    0  0.20463388883E+01  0.36826654087E+02 -0.84881342950E+03  0.84961534882E+03  0.12699999809E+01 0. -1.
       -4    1    3    3    0  502 -0.20463388883E+01 -0.36826654087E+02  0.95315167618E+03  0.95386588191E+03  0.12699999809E+01 0.  1.
</event>
<event>
 5   0  0.1035018E-05  0.1800476E+04  0.7818609E-02  0.8706046E-01
       -2   -1    0    0    0  501  0.00000000000E+00  0.00000000000E+00  0.57449874961E+03  0.57449874962E+03  0.25500000920E-02 0.  1.
        2   -1    0    0  501    0  0.00000000000E+00  0.00000000000E+00 -0.14106709913E+04  0.14106709913E+04  0.25500000920E-02 0. -1.
    10030    2    1    2    0    0  0.00000000000E+00  0.00000000000E+00 -0.83617224167E+03  0.19851697409E+04  0.18004762932E+04 0.  0.
        3    1    3    3  502    0 -0.41061062707E+02 -0.63029661277E+03 -0.11253455340E+04  0.12904892142E+04  0.10100000352E+00 0. -1.
       -3    1    3    3    0  502  0.41061062707E+02  0.63029661277E+03  0.28917329233E+03  0.69468052667E+03  0.10100000352E+00 0.  1.
</event>
<event>
 5   0  0.1035018E-05  0.1799179E+04  0.7818609E-02  0.8706736E-01
       -2   -1    0    0    0  501  0.00000000000E+00  0.00000000000E+00  0.51975477006E+03  0.51975477006E+03  0.25500000920E-02 0. -1.
        2   -1    0    0  501    0  0.00000000000E+00  0.00000000000E+00 -0.15570066301E+04  0.15570066301E+04  0.25500000920E-02 0.  1.
    10030    2    1    2    0    0  0.00000000000E+00  0.00000000000E+00 -0.10372518601E+04  0.20767614002E+04  0.17991793941E+04 0.  0.
        3    1    3    3  502    0 -0.20530893842E+03 -0.42674109652E+03  0.36423189153E+03  0.59743167364E+03  0.10100000352E+00 0. -1.
       -3    1    3    3    0  502  0.20530893842E+03  0.42674109652E+03 -0.14014837516E+04  0.14793297266E+04  0.10100000352E+00 0.  1.
</event>
<event>
 5   0  0.4987456E-06  0.1798607E+04  0.7818609E-02  0.8707041E-01
       -1   -1    0    0    0  501  0.00000000000E+00  0.00000000000E+00  0.11092344877E+04  0.11092344877E+04  0.50400001928E-02 0.  1.
        1   -1    0    0  501    0  0.00000000000E+00  0.00000000000E+00 -0.72910317681E+03  0.72910317683E+03  0.50400001928E-02 0. -1.
    10030    2    1    2    0    0  0.00000000000E+00  0.00000000000E+00  0.38013131087E+03  0.18383376645E+04  0.17986065593E+04 0.  0.
        3    1    3    3  502    0 -0.68565699211E+03  0.91871242054E+02  0.77737221418E+03  0.10406120341E+04  0.10100000352E+00 0.  1.
       -3    1    3    3    0  502  0.68565699211E+03 -0.91871242054E+02 -0.39724090331E+03  0.79772563041E+03  0.10100000352E+00 0. -1.
</event>
<event>
 5   0  0.9589963E-06  0.1799758E+04  0.7818609E-02  0.8706428E-01
       -2   -1    0    0    0  501  0.00000000000E+00  0.00000000000E+00  0.91870513499E+03  0.91870513499E+03  0.25500000920E-02 0.  1.
        2   -1    0    0  501    0  0.00000000000E+00  0.00000000000E+00 -0.88143850168E+03  0.88143850168E+03  0.25500000920E-02 0. -1.
    10030    2    1    2    0    0  0.00000000000E+00  0.00000000000E+00  0.37266633312E+02  0.18001436367E+04  0.17997578478E+04 0.  0.
        2    1    3    3  502    0 -0.65023500349E+03  0.46962848386E+03  0.42667370847E+03  0.90851908407E+03  0.25500000920E-02 0. -1.
       -2    1    3    3    0  502  0.65023500349E+03 -0.46962848386E+03 -0.38940707516E+03  0.89162455260E+03  0.25500000920E-02 0.  1.
</event>
<event>
 5   0  0.1036381E-05  0.1800100E+04  0.7818609E-02  0.8706246E-01
        2   -1    0    0  501    0  0.00000000000E+00  0.00000000000E+00  0.60796327507E+03  0.60796327508E+03  0.25500000920E-02 0. -1.
       -2   -1    0    0    0  501  0.00000000000E+00  0.00000000000E+00 -0.13324649766E+04  0.13324649766E+04  0.25500000920E-02 0.  1.
    10030    2    1    2    0    0  0.00000000000E+00  0.00000000000E+00 -0.72450170155E+03  0.19404282517E+04  0.18000997429E+04 0.  0.
        4    1    3    3  502    0 -0.65614041253E+03 -0.28398313034E+03 -0.95160940969E+03  0.11902641475E+04  0.12699999809E+01 0.  1.
       -4    1    3    3    0  502  0.65614041253E+03  0.28398313034E+03  0.22710770814E+03  0.75016410423E+03  0.12699999809E+01 0. -1.
</event>
<event>
 5   0  0.1036381E-05  0.1799942E+04  0.7818609E-02  0.8706330E-01
       -2   -1    0    0    0  501  0.00000000000E+00  0.00000000000E+00  0.13696488556E+04  0.13696488556E+04  0.25500000920E-02 0. -1.
        2   -1    0    0  501    0  0.00000000000E+00  0.00000000000E+00 -0.59135427116E+03  0.59135427116E+03  0.25500000920E-02 0.  1.
    10030    2    1    2    0    0  0.00000000000E+00  0.00000000000E+00  0.77829458447E+03  0.19610031268E+04  0.17999418888E+04 0.  0.
        4    1    3    3  502    0  0.56851957559E+03  0.57117873754E+03 -0.47307192073E+02  0.80727891175E+03  0.12699999809E+01 0.  1.
       -4    1    3    3    0  502 -0.56851957559E+03 -0.57117873754E+03  0.82560177654E+03  0.11537242150E+04  0.12699999809E+01 0. -1.
</event>
<event>
 5   0  0.4983159E-06  0.1800469E+04  0.7818609E-02  0.8706050E-01
       -1   -1    0    0    0  501  0.00000000000E+00  0.00000000000E+00  0.59520302398E+03  0.59520302400E+03  0.50400001928E-02 0. -1.
        1   -1    0    0  501    0  0.00000000000E+00  0.00000000000E+00 -0.13615899548E+04  0.13615899548E+04  0.50400001928E-02 0.  1.
    10030    2    1    2    0    0  0.00000000000E+00  0.00000000000E+00 -0.76638693080E+03  0.19567929788E+04  0.18004693372E+04 0.  0.
        4    1    3    3  502    0 -0.41440171129E+03 -0.10192608470E+03  0.47828369354E+03  0.64099501517E+03  0.12699999809E+01 0. -1.
       -4    1    3    3    0  502  0.41440171129E+03  0.10192608470E+03 -0.12446706243E+04  0.13157979636E+04  0.12699999809E+01 0.  1.
</event>
<event>
 5   0  0.4987456E-06  0.1799666E+04  0.7818609E-02  0.8706477E-01
       -1   -1    0    0    0  501  0.00000000000E+00  0.00000000000E+00  0.75901503789E+03  0.75901503791E+03  0.50400001928E-02 0. -1.
        1   -1    0    0  501    0  0.00000000000E+00  0.00000000000E+00 -0.10667769574E+04  0.10667769574E+04  0.50400001928E-02 0.  1.
    10030    2    1    2    0    0  0.00000000000E+00  0.00000000000E+00 -0.30776191947E+03  0.18257919953E+04  0.17996663610E+04 0.  0.
        3    1    3    3  502    0  0.74150093315E+03 -0.44446927135E+03 -0.40715115575E+03  0.95558811256E+03  0.10100000352E+00 0.  1.
       -3    1    3    3    0  502 -0.74150093315E+03  0.44446927135E+03  0.99389236282E+02  0.87020388273E+03  0.10100000352E+00 0. -1.
</event>
<event>
 5   0  0.4994123E-06  0.1800014E+04  0.7818609E-02  0.8706292E-01
       -1   -1    0    0    0  501  0.00000000000E+00  0.00000000000E+00  0.38855613178E+03  0.38855613181E+03  0.50400001928E-02 0. -1.
        1   -1    0    0  501    0  0.00000000000E+00  0.00000000000E+00 -0.20846736546E+04  0.20846736546E+04  0.50400001928E-02 0.  1.
    10030    2    1    2    0    0  0.00000000000E+00  0.00000000000E+00 -0.16961175228E+04  0.24732297864E+04  0.18000141458E+04 0.  0.
        1    1    3    3  502    0 -0.71693242781E+02  0.34981353205E+03 -0.19831765482E+04  0.20150679020E+04  0.50400001928E-02 0.  1.
       -1    1    3    3    0  502  0.71693242781E+02 -0.34981353205E+03  0.28705902538E+03  0.45816188443E+03  0.50400001928E-02 0. -1.
</event>
<event>
 5   0  0.4983159E-06  0.1801456E+04  0.7818609E-02  0.8705525E-01
       -1   -1    0    0    0  501  0.00000000000E+00  0.00000000000E+00  0.98772611325E+03  0.98772611326E+03  0.50400001928E-02 0. -1.
        1   -1    0    0  501    0  0.00000000000E+00  0.00000000000E+00 -0.82139278395E+03  0.82139278397E+03  0.50400001928E-02 0.  1.
    10030    2    1    2    0    0  0.00000000000E+00  0.00000000000E+00  0.16633332930E+03  0.18091188972E+04  0.18014561909E+04 0.  0.
        4    1    3    3  502    0  0.70649110793E+03  0.46532348086E+03  0.39376180674E+03  0.93311607036E+03  0.12699999809E+01 0. -1.
       -4    1    3    3    0  502 -0.70649110793E+03 -0.46532348086E+03 -0.22742847745E+03  0.87600282686E+03  0.12699999809E+01 0.  1.
</event>
<event>
 5   0  0.4994123E-06  0.1799881E+04  0.7818609E-02  0.8706363E-01
       -1   -1    0    0    0  501  0.00000000000E+00  0.00000000000E+00  0.51790107715E+03  0.51790107718E+03  0.50400001928E-02 0.  1.
        1   -1    0    0  501    0  0.00000000000E+00  0.00000000000E+00 -0.15637982749E+04  0.15637982749E+04  0.50400001928E-02 0. -1.
    10030    2    1    2    0    0  0.00000000000E+00  0.00000000000E+00 -0.10458971977E+04  0.20816993521E+04  0.17998808972E+04 0.  0.
        1    1    3    3  502    0  0.93844003329E+02 -0.22387942716E+03  0.47931932594E+03  0.53728550242E+03  0.50400001928E-02 0.  1.
       -1    1    3    3    0  502 -0.93844003329E+02  0.22387942716E+03 -0.15252165237E+04  0.15444138497E+04  0.50400001928E-02 0. -1.
</event>
<event>
 5   0  0.9589963E-06  0.1800016E+04  0.7818609E-02  0.8706291E-01
        2   -1    0    0  501    0  0.00000000000E+00  0.00000000000E+00  0.16688344295E+04  0.16688344295E+04  0.25500000920E-02 0. -1.
       -2   -1    0    0    0  501  0.00000000000E+00  0.00000000000E+00 -0.48537727253E+03  0.48537727254E+03  0.25500000920E-02 0.  1.
    10030    2    1    2    0    0  0.00000000000E+00  0.00000000000E+00  0.11834571570E+04  0.21542117021E+04  0.18000158930E+04 0.  0.
        2    1    3    3  502    0 -0.10916171952E+03 -0.45933533134E+02  0.16594681482E+04  0.16636888848E+04  0.25500000920E-02 0. -1.
       -2    1    3    3    0  502  0.10916171952E+03  0.45933533134E+02 -0.47601099123E+03  0.49052281726E+03  0.25500000920E-02 0.  1.
</event>
<event>
 5   0  0.4983159E-06  0.1800080E+04  0.7818609E-02  0.8706257E-01
       -1   -1    0    0    0  501  0.00000000000E+00  0.00000000000E+00  0.49978752086E+03  0.49978752089E+03  0.50400001928E-02 0. -1.
        1   -1    0    0  501    0  0.00000000000E+00  0.00000000000E+00 -0.16208332620E+04  0.16208332620E+04  0.50400001928E-02 0.  1.
    10030    2    1    2    0    0  0.00000000000E+00  0.00000000000E+00 -0.11210457412E+04  0.21206207829E+04  0.18000802624E+04 0.  0.
        4    1    3    3  502    0 -0.21666857256E+03 -0.14485665542E+03  0.45435695735E+03  0.52380395049E+03  0.12699999809E+01 0. -1.
       -4    1    3    3    0  502  0.21666857256E+03  0.14485665542E+03 -0.15754026985E+04  0.15968168324E+04  0.12699999809E+01 0.  1.
</event>
<event>
 5   0  0.9589963E-06  0.1799324E+04  0.7818609E-02  0.8706659E-01
       -2   -1    0    0    0  501  0.00000000000E+00  0.00000000000E+00  0.87649139979E+03  0.87649139979E+03  0.25500000920E-02 0. -1.
        2   -1    0    0  501    0  0.00000000000E+00  0.00000000000E+00 -0.92344477526E+03  0.92344477526E+03  0.25500000920E-02 0.  1.
    10030    2    1    2    0    0  0.00000000000E+00  0.00000000000E+00 -0.46953375467E+02  0.17999361751E+04  0.17993236548E+04 0.  0.
        2    1    3    3  502    0 -0.41636557943E+03  0.67868967267E+03 -0.44244074650E+03  0.91089723992E+03  0.25500000920E-02 0.  1.
       -2    1    3    3    0  502  0.41636557943E+03 -0.67868967267E+03  0.39548737103E+03  0.88903893513E+03  0.25500000920E-02 0. -1.
</event>
<event>
 5   0  0.4994123E-06  0.1800176E+04  0.7818609E-02  0.8706206E-01
        1   -1    0    0  501    0  0.00000000000E+00  0.00000000000E+00  0.13193482333E+04  0.13193482333E+04  0.50400001928E-02 0.  1.
       -1   -1    0    0    0  501  0.00000000000E+00  0.00000000000E+00 -0.61405936428E+03  0.61405936430E+03  0.50400001928E-02 0. -1.
    10030    2    1    2    0    0  0.00000000000E+00  0.00000000000E+00  0.70528886899E+03  0.19334075976E+04  0.18001756997E+04 0.  0.
        1    1    3    3  502    0  0.21662715393E+03 -0.81434379597E+03  0.12885163891E+02  0.84276281914E+03  0.50400001928E-02 0. -1.
       -1    1    3    3    0  502 -0.21662715393E+03  0.81434379597E+03  0.69240370510E+03  0.10906447784E+04  0.50400001928E-02 0.  1.
</event>
<event>
 5   0  0.4987456E-06  0.1799990E+04  0.7818609E-02  0.8706305E-01
        1   -1    0    0  501    0  0.00000000000E+00  0.00000000000E+00  0.11493730432E+04  0.11493730432E+04  0.50400001928E-02 0. -1.
       -1   -1    0    0    0  501  0.00000000000E+00  0.00000000000E+00 -0.70472390390E+03  0.70472390392E+03  0.50400001928E-02 0.  1.
    10030    2    1    2    0    0  0.00000000000E+00  0.00000000000E+00  0.44464913925E+03  0.18540969471E+04  0.17999896200E+04 0.  0.
        3    1    3    3  502    0  0.45027500179E+03 -0.59870876143E+02 -0.57798519505E+03  0.73511835438E+03  0.10100000352E+00 0.  1.
       -3    1    3    3    0  502 -0.45027500179E+03  0.59870876143E+02  0.10226343343E+04  0.11189785927E+04  0.10100000352E+00 0. -1.
</event>
<event>
 5   0  0.9589963E-06  0.1800046E+04  0.7818609E-02  0.8706275E-01
        2   -1    0    0  501    0  0.00000000000E+00  0.00000000000E+00  0.11287983571E+04  0.11287983571E+04  0.25500000920E-02 0.  1.
       -2   -1    0    0    0  501  0.00000000000E+00  0.00000000000E+00 -0.71761412075E+03  0.71761412075E+03  0.25500000920E-02 0. -1.
    10030    2    1    2    0    0  0.00000000000E+00  0.00000000000E+00  0.41118423632E+03  0.18464124778E+04  0.18000462666E+04 0.  0.
        2    1    3    3  502    0  0.72655858201E+03  0.52725715321E+03  0.27170510266E+03  0.93792917724E+03  0.25500000920E-02 0.  1.
       -2    1    3    3    0  502 -0.72655858201E+03 -0.52725715321E+03  0.13947913366E+03  0.90848330058E+03  0.25500000920E-02 0. -1.
</event>
<event>
 5   0  0.9999162E-06  0.1800657E+04  0.7818609E-02  0.8705950E-01
       -2   -1    0    0    0  501  0.00000000000E+00  0.00000000000E+00  0.87820179578E+03  0.87820179578E+03  0.25500000920E-02 0. -1.
        2   -1    0    0  501    0  0.00000000000E+00  0.00000000000E+00 -0.92301284691E+03  0.92301284692E+03  0.25500000920E-02 0.  1.
    10030    2    1    2    0    0  0.00000000000E+00  0.00000000000E+00 -0.44811051134E+02  0.18012146427E+04  0.18006571464E+04 0.  0.
        1    1    3    3  502    0  0.19027914949E+03 -0.22208177940E+03 -0.87417668519E+03  0.92179788914E+03  0.50400001928E-02 0.  1.
       -1    1    3    3    0  502 -0.19027914949E+03  0.22208177940E+03  0.82936563406E+03  0.87941675356E+03  0.50400001928E-02 0. -1.
</event>
<event>
 5   0  0.1000316E-05  0.1800361E+04  0.7818609E-02  0.8706107E-01
        2   -1    0    0  501    0  0.00000000000E+00  0.00000000000E+00  0.83021259737E+03  0.83021259737E+03  0.25500000920E-02 0. -1.
       -2   -1    0    0    0  501  0.00000000000E+00  0.00000000000E+00 -0.97604561800E+03  0.97604561800E+03  0.25500000920E-02 0.  1.
    10030    2    1    2    0    0  0.00000000000E+00  0.00000000000E+00 -0.14583302063E+03  0.18062582154E+04  0.18003614833E+04 0.  0.
        5    1    3    3  502    0  0.54998094093E+03  0.57233185280E+03 -0.49887806060E+03  0.93752023683E+03  0.46999998093E+01 0.  1.
       -5    1    3    3    0  502 -0.54998094093E+03 -0.57233185280E+03  0.35304503997E+03  0.86873797855E+03  0.46999998093E+01 0. -1.
</event>
<event>
 5   0  0.4983159E-06  0.1799957E+04  0.7818609E-02  0.8706322E-01
        1   -1    0    0  501    0  0.00000000000E+00  0.00000000000E+00  0.15862067616E+04  0.15862067616E+04  0.50400001928E-02 0. -1.
       -1   -1    0    0    0  501  0.00000000000E+00  0.00000000000E+00 -0.51062807033E+03  0.51062807035E+03  0.50400001928E-02 0.  1.
    10030    2    1    2    0    0  0.00000000000E+00  0.00000000000E+00  0.10755786912E+04  0.20968348319E+04  0.17999574415E+04 0.  0.
        4    1    3    3  502    0 -0.56307043098E+03  0.44016222141E+03  0.11749666171E+04  0.13752597048E+04  0.12699999809E+01 0. -1.
       -4    1    3    3    0  502  0.56307043098E+03 -0.44016222141E+03 -0.99387925861E+02  0.72157512714E+03  0.12699999809E+01 0.  1.
</event>
<event>
 5   0  0.4994123E-06  0.1800420E+04  0.7818609E-02  0.8706076E-01
        1   -1    0    0  501    0  0.00000000000E+00  0.00000000000E+00  0.12891349161E+04  0.12891349161E+04  0.50400001928E-02 0. -1.
       -1   -1    0    0    0  501  0.00000000000E+00  0.00000000000E+00 -0.62862147366E+03  0.62862147368E+03  0.50400001928E-02 0.  1.
    10030    2    1    2    0    0  0.00000000000E+00  0.00000000000E+00  0.66051344242E+03  0.19177563898E+04  0.18004198296E+04 0.  0.
        1    1    3    3  502    0  0.55096431612E+03 -0.28565361249E+03  0.10248420198E+04  0.11981071861E+04  0.50400001928E-02 0. -1.
       -1    1    3    3    0  502 -0.55096431612E+03  0.28565361249E+03 -0.36432857736E+03  0.71964920362E+03  0.50400001928E-02 0.  1.
</event>
<event>
 5   0  0.4987456E-06  0.1800009E+04  0.7818609E-02  0.8706295E-01
       -1   -1    0    0    0  501  0.00000000000E+00  0.00000000000E+00  0.61287269080E+03  0.61287269082E+03  0.50400001928E-02 0. -1.
        1   -1    0    0  501    0  0.00000000000E+00  0.00000000000E+00 -0.13216585091E+04  0.13216585091E+04  0.50400001928E-02 0.  1.
    10030    2    1    2    0    0  0.00000000000E+00  0.00000000000E+00 -0.70878581832E+03  0.19345311999E+04  0.18000093409E+04 0.  0.
        3    1    3    3  502    0  0.43267001875E+03  0.15765943036E+03 -0.11854538859E+04  0.12717549949E+04  0.10100000352E+00 0.  1.
       -3    1    3    3    0  502 -0.43267001875E+03 -0.15765943036E+03  0.47666806762E+03  0.66277620506E+03  0.10100000352E+00 0. -1.
</event>
<event>
 5   0  0.1035018E-05  0.1800223E+04  0.7818609E-02  0.8706181E-01
       -2   -1    0    0    0  501  0.00000000000E+00  0.00000000000E+00  0.89413830629E+03  0.89413830629E+03  0.25500000920E-02 0.  1.
        2   -1    0    0  501    0  0.00000000000E+00  0.00000000000E+00 -0.90612473457E+03  0.90612473458E+03  0.25500000920E-02 0. -1.
    10030    2    1    2    0    0  0.00000000000E+00  0.00000000000E+00 -0.11986428287E+02  0.18002630409E+04  0.18002231367E+04 0.  0.
        3    1    3    3  502    0 -0.19968996172E+03 -0.82744071517E+03 -0.29868828617E+03  0.90208032925E+03  0.10100000352E+00 0. -1.
       -3    1    3    3    0  502  0.19968996172E+03  0.82744071517E+03  0.28670185788E+03  0.89818271161E+03  0.10100000352E+00 0.  1.
</event>
<event>
 5   0  0.9589963E-06  0.1800370E+04  0.7818609E-02  0.8706103E-01
       -2   -1    0    0    0  501  0.00000000000E+00  0.00000000000E+00  0.58028677191E+03  0.58028677192E+03  0.25500000920E-02 0.  1.
        2   -1    0    0  501    0  0.00000000000E+00  0.00000000000E+00 -0.13964357000E+04  0.13964357000E+04  0.25500000920E-02 0. -1.
    10030    2    1    2    0    0  0.00000000000E+00  0.00000000000E+00 -0.81614892810E+03  0.19767224719E+04  0.18003701448E+04 0.  0.
        2    1    3    3  502    0 -0.85522750469E+03 -0.11641241879E+02 -0.99896415272E+02  0.86112072155E+03  0.25500000920E-02 0.  1.
       -2    1    3    3    0  502  0.85522750469E+03  0.11641241879E+02 -0.71625251283E+03  0.11156017504E+04  0.25500000920E-02 0. -1.
</event>
<event>
 5   0  0.4953155E-06  0.1801051E+04  0.7818609E-02  0.8705741E-01
        1   -1    0    0  501    0  0.00000000000E+00  0.00000000000E+00  0.77641932506E+03  0.77641932508E+03  0.50400001928E-02 0. -1.
       -1   -1    0    0    0  501  0.00000000000E+00  0.00000000000E+00 -0.10444690820E+04  0.10444690820E+04  0.50400001928E-02 0.  1.
    10030    2    1    2    0    0  0.00000000000E+00  0.00000000000E+00 -0.26804975691E+03  0.18208884071E+04  0.18010507818E+04 0.  0.
        2    1    3    3  502    0 -0.35685298623E+03 -0.28160627287E+02  0.70139914736E+03  0.78746291255E+03  0.25500000920E-02 0. -1.
       -2    1    3    3    0  502  0.35685298623E+03  0.28160627287E+02 -0.96944890427E+03  0.10334254945E+04  0.25500000920E-02 0.  1.
</event>
<event>
 5   0  0.4953155E-06  0.1799889E+04  0.7818609E-02  0.8706359E-01
       -1   -1    0    0    0  501  0.00000000000E+00  0.00000000000E+00  0.99220252062E+03  0.99220252063E+03  0.50400001928E-02 0. -1.
        1   -1    0    0  501    0  0.00000000000E+00  0.00000000000E+00 -0.81626461939E+03  0.81626461940E+03  0.50400001928E-02 0.  1.
    10030    2    1    2    0    0  0.00000000000E+00  0.00000000000E+00  0.17593790123E+03  0.18084671400E+04  0.17998886775E+04 0.  0.
        2    1    3    3  502    0 -0.66116772913E+03 -0.19597694614E+03 -0.49301708635E+03  0.84771196577E+03  0.25500000920E-02 0.  1.
       -2    1    3    3    0  502  0.66116772913E+03  0.19597694614E+03  0.66895498759E+03  0.96075517427E+03  0.25500000920E-02 0. -1.
</event>
<event>
 5   0  0.1036381E-05  0.1799795E+04  0.7818609E-02  0.8706409E-01
        2   -1    0    0  501    0  0.00000000000E+00  0.00000000000E+00  0.10852477169E+04  0.10852477169E+04  0.25500000920E-02 0.  1.
       -2   -1    0    0    0  501  0.00000000000E+00  0.00000000000E+00 -0.74620306600E+03  0.74620306600E+03  0.25500000920E-02 0. -1.
    10030    2    1    2    0    0  0.00000000000E+00  0.00000000000E+00  0.33904465091E+03  0.18314507829E+04  0.17997946258E+04 0.  0.
        4    1    3    3  502    0  0.35747454912E+03 -0.45644210172E+03  0.86987635062E+03  0.10453774073E+04  0.12699999809E+01 0.  1.
       -4    1    3    3    0  502 -0.35747454912E+03  0.45644210172E+03 -0.53083169970E+03  0.78607337558E+03  0.12699999809E+01 0. -1.
</event>
<event>
 5   0  0.4987456E-06  0.1798901E+04  0.7818609E-02  0.8706884E-01
       -1   -1    0    0    0  501  0.00000000000E+00  0.00000000000E+00  0.60995101014E+03  0.60995101016E+03  0.50400001928E-02 0.  1.
        1   -1    0    0  501    0  0.00000000000E+00  0.00000000000E+00 -0.13263540200E+04  0.13263540200E+04  0.50400001928E-02 0. -1.
    10030    2    1    2    0    0  0.00000000000E+00  0.00000000000E+00 -0.71640300989E+03  0.19363050302E+04  0.17989007470E+04 0.  0.
        3    1    3    3  502    0 -0.75601260231E+03 -0.11140103725E+03  0.15242334789E+03  0.77922919166E+03  0.10100000352E+00 0.  1.
       -3    1    3    3    0  502  0.75601260231E+03  0.11140103725E+03 -0.86882635778E+03  0.11570758385E+04  0.10100000352E+00 0. -1.
</event>
<event>
 5   0  0.9999162E-06  0.1799684E+04  0.7818609E-02  0.8706467E-01
        2   -1    0    0  501    0  0.00000000000E+00  0.00000000000E+00  0.13306589949E+04  0.13306589949E+04  0.25500000920E-02 0. -1.
       -2   -1    0    0    0  501  0.00000000000E+00  0.00000000000E+00 -0.60850740455E+03  0.60850740456E+03  0.25500000920E-02 0.  1.
    10030    2    1    2    0    0  0.00000000000E+00  0.00000000000E+00  0.72215159039E+03  0.19391663995E+04  0.17996842516E+04 0.  0.
        1    1    3    3  502    0 -0.58102014930E+03 -0.64118044490E+03  0.62724117702E+03  0.10687040147E+04  0.50400001928E-02 0.  1.
       -1    1    3    3    0  502  0.58102014930E+03  0.64118044490E+03  0.94910413370E+02  0.87046238483E+03  0.50400001928E-02 0. -1.
</event>
<event>
 5   0  0.4953155E-06  0.1799647E+04  0.7818609E-02  0.8706487E-01
       -1   -1    0    0    0  501  0.00000000000E+00  0.00000000000E+00  0.57824249724E+03  0.57824249726E+03  0.50400001928E-02 0.  1.
        1   -1    0    0  501    0  0.00000000000E+00  0.00000000000E+00 -0.14002465436E+04  0.14002465436E+04  0.50400001928E-02 0. -1.
    10030    2    1    2    0    0  0.00000000000E+00  0.00000000000E+00 -0.82200404639E+03  0.19784890409E+04  0.17996466966E+04 0.  0.
        2    1    3    3  502    0  0.68522640288E+03  0.47014721640E+03 -0.31584272359E+02  0.83160759651E+03  0.25500000920E-02 0.  1.
       -2    1    3    3    0  502 -0.68522640288E+03 -0.47014721640E+03 -0.79041977403E+03  0.11468814444E+04  0.25500000920E-02 0. -1.
</event>
<event>
 5   0  0.4983159E-06  0.1799456E+04  0.7818609E-02  0.8706589E-01
       -1   -1    0    0    0  501  0.00000000000E+00  0.00000000000E+00  0.36561570864E+03  0.36561570868E+03  0.50400001928E-02 0.  1.
        1   -1    0    0  501    0  0.00000000000E+00  0.00000000000E+00 -0.22141016246E+04  0.22141016246E+04  0.50400001928E-02 0. -1.
    10030    2    1    2    0    0  0.00000000000E+00  0.00000000000E+00 -0.18484859160E+04  0.25797173333E+04  0.17994558450E+04 0.  0.
        4    1    3    3  502    0 -0.78095534175E+03  0.11869715279E+03 -0.15417418735E+04  0.17323249918E+04  0.12699999809E+01 0. -1.
       -4    1    3    3    0  502  0.78095534175E+03 -0.11869715279E+03 -0.30674404246E+03  0.84739234146E+03  0.12699999809E+01 0.  1.
</event>
<event>
 5   0  0.1036381E-05  0.1800000E+04  0.7818609E-02  0.8706299E-01
       -2   -1    0    0    0  501  0.00000000000E+00  0.00000000000E+00  0.60071758594E+03  0.60071758595E+03  0.25500000920E-02 0. -1.
        2   -1    0    0  501    0  0.00000000000E+00  0.00000000000E+00 -0.13483877021E+04  0.13483877021E+04  0.25500000920E-02 0.  1.
    10030    2    1    2    0    0  0.00000000000E+00  0.00000000000E+00 -0.74767011611E+03  0.19491052880E+04  0.18000002281E+04 0.  0.
        4    1    3    3  502    0  0.26374718026E+03 -0.19923367162E+03  0.53261066014E+03  0.62684316954E+03  0.12699999809E+01 0. -1.
       -4    1    3    3    0  502 -0.26374718026E+03  0.19923367162E+03 -0.12802807762E+04  0.13222621185E+04  0.12699999809E+01 0.  1.
</event>
<event>
 5   0  0.9589963E-06  0.1796172E+04  0.7818609E-02  0.8708338E-01
       -2   -1    0    0    0  501  0.00000000000E+00  0.00000000000E+00  0.46029271637E+03  0.46029271637E+03  0.25500000920E-02 0.  1.
        2   -1    0    0  501    0  0.00000000000E+00  0.00000000000E+00 -0.17522719613E+04  0.17522719613E+04  0.25500000920E-02 0. -1.
    10030    2    1    2    0    0  0.00000000000E+00  0.00000000000E+00 -0.12919792449E+04  0.22125646777E+04  0.17961715073E+04 0.  0.
        2    1    3    3  502    0 -0.32279451971E+02 -0.85878813322E+03 -0.32477194674E+03  0.91871423096E+03  0.25500000920E-02 0.  1.
       -2    1    3    3    0  502  0.32279451971E+02  0.85878813322E+03 -0.96720729817E+03  0.12938504467E+04  0.25500000920E-02 0. -1.
</event>
<event>
 5   0  0.4981384E-06  0.1799833E+04  0.7818609E-02  0.8706388E-01
       -1   -1    0    0    0  501  0.00000000000E+00  0.00000000000E+00  0.71928849257E+03  0.71928849258E+03  0.50400001928E-02 0. -1.
        1   -1    0    0  501    0  0.00000000000E+00  0.00000000000E+00 -0.11259034448E+04  0.11259034448E+04  0.50400001928E-02 0.  1.
    10030    2    1    2    0    0  0.00000000000E+00  0.00000000000E+00 -0.40661495227E+03  0.18451919374E+04  0.17998326496E+04 0.  0.
        5    1    3    3  502    0 -0.46091703995E+02 -0.23696404862E+03 -0.10920759089E+04  0.11184490540E+04  0.46999998093E+01 0.  1.
       -5    1    3    3    0  502  0.46091703995E+02  0.23696404862E+03  0.68546095666E+03  0.72674288344E+03  0.46999998093E+01 0. -1.
</event>
<event>
 5   0  0.1000316E-05  0.1799722E+04  0.7818609E-02  0.8706447E-01
        2   -1    0    0  501    0  0.00000000000E+00  0.00000000000E+00  0.14958509945E+04  0.14958509945E+04  0.25500000920E-02 0. -1.
       -2   -1    0    0    0  501  0.00000000000E+00  0.00000000000E+00 -0.54133038645E+03  0.54133038645E+03  0.25500000920E-02 0.  1.
    10030    2    1    2    0    0  0.00000000000E+00  0.00000000000E+00  0.95452060806E+03  0.20371813810E+04  0.17997217529E+04 0.  0.
        5    1    3    3  502    0 -0.47063384524E+03  0.12422438133E+03  0.13339542206E+04  0.14199943189E+04  0.46999998093E+01 0. -1.
       -5    1    3    3    0  502  0.47063384524E+03 -0.12422438133E+03 -0.37943361253E+03  0.61718706201E+03  0.46999998093E+01 0.  1.
</event>
<event>
 5   0  0.9589963E-06  0.1799758E+04  0.7818609E-02  0.8706428E-01
        2   -1    0    0  501    0  0.00000000000E+00  0.00000000000E+00  0.20126299571E+04  0.20126299571E+04  0.25500000920E-02 0.  1.
       -2   -1    0    0    0  501  0.00000000000E+00  0.00000000000E+00 -0.40235018053E+03  0.40235018054E+03  0.25500000920E-02 0. -1.
    10030    2    1    2    0    0  0.00000000000E+00  0.00000000000E+00  0.16102797765E+04  0.24149801376E+04  0.17997577910E+04 0.  0.
        2    1    3    3  502    0 -0.54709293207E+02 -0.42682584113E+03  0.18656223439E+04  0.19146070447E+04  0.25500000920E-02 0.  1.
       -2    1    3    3    0  502  0.54709293207E+02  0.42682584113E+03 -0.25534256737E+03  0.50037309294E+03  0.25500000920E-02 0. -1.
</event>
<event>
 5   0  0.3626125E-06  0.1798490E+04  0.7818609E-02  0.8707103E-01
        4   -1    0    0  501    0  0.00000000000E+00  0.00000000000E+00  0.31901936904E+03  0.31902189693E+03  0.12699999809E+01 0.  1.
       -4   -1    0    0    0  501  0.00000000000E+00  0.00000000000E+00 -0.25347612585E+04  0.25347615766E+04  0.12699999809E+01 0. -1.
    10030    2    1    2    0    0  0.00000000000E+00  0.00000000000E+00 -0.22157418894E+04  0.28537834735E+04  0.17984904763E+04 0.  0.
        4    1    3    3  502    0 -0.74546764835E+03 -0.33244136288E+03 -0.17066540869E+04  0.18918004809E+04  0.12699999809E+01 0. -1.
       -4    1    3    3    0  502  0.74546764835E+03  0.33244136288E+03 -0.50908780253E+03  0.96198299261E+03  0.12699999809E+01 0.  1.
</event>
<event>
 5   0  0.4987456E-06  0.1799671E+04  0.7818609E-02  0.8706474E-01
        1   -1    0    0  501    0  0.00000000000E+00  0.00000000000E+00  0.10460451609E+04  0.10460451609E+04  0.50400001928E-02 0. -1.
       -1   -1    0    0    0  501  0.00000000000E+00  0.00000000000E+00 -0.77406254180E+03  0.77406254181E+03  0.50400001928E-02 0.  1.
    10030    2    1    2    0    0  0.00000000000E+00  0.00000000000E+00  0.27198261914E+03  0.18201077028E+04  0.17996714991E+04 0.  0.
        3    1    3    3  502    0  0.40296569582E+03 -0.59414598340E+03 -0.41267587726E+03  0.82806533044E+03  0.10100000352E+00 0.  1.
       -3    1    3    3    0  502 -0.40296569582E+03  0.59414598340E+03  0.68465849640E+03  0.99204237233E+03  0.10100000352E+00 0. -1.
</event>
<event>
 5   0  0.9999162E-06  0.1802061E+04  0.7818609E-02  0.8705204E-01
        2   -1    0    0  501    0  0.00000000000E+00  0.00000000000E+00  0.18062355773E+04  0.18062355773E+04  0.25500000920E-02 0.  1.
       -2   -1    0    0    0  501  0.00000000000E+00  0.00000000000E+00 -0.44947408875E+03  0.44947408876E+03  0.25500000920E-02 0. -1.
    10030    2    1    2    0    0  0.00000000000E+00  0.00000000000E+00  0.13567614885E+04  0.22557096660E+04  0.18020611423E+04 0.  0.
        1    1    3    3  502    0  0.13881994407E+03 -0.88949889137E+03  0.63193406070E+03  0.10999181386E+04  0.50400001928E-02 0. -1.
       -1    1    3    3    0  502 -0.13881994407E+03  0.88949889137E+03  0.72482742781E+03  0.11557915274E+04  0.50400001928E-02 0.  1.
</event>
<event>
 5   0  0.4987456E-06  0.1800713E+04  0.7818609E-02  0.8705920E-01
       -1   -1    0    0    0  501  0.00000000000E+00  0.00000000000E+00  0.70758890066E+03  0.70758890068E+03  0.50400001928E-02 0. -1.
        1   -1    0    0  501    0  0.00000000000E+00  0.00000000000E+00 -0.11456397364E+04  0.11456397364E+04  0.50400001928E-02 0.  1.
    10030    2    1    2    0    0  0.00000000000E+00  0.00000000000E+00 -0.43805083575E+03  0.18532286371E+04  0.18007131495E+04 0.  0.
        3    1    3    3  502    0  0.36929041368E+03  0.25734966503E+03  0.58348322320E+03  0.73692397280E+03  0.10100000352E+00 0. -1.
       -3    1    3    3    0  502 -0.36929041368E+03 -0.25734966503E+03 -0.10215340590E+04  0.11163046643E+04  0.10100000352E+00 0.  1.
</event>
<event>
 5   0  0.9589963E-06  0.1799473E+04  0.7818609E-02  0.8706580E-01
       -2   -1    0    0    0  501  0.00000000000E+00  0.00000000000E+00  0.87258587599E+03  0.87258587599E+03  0.25500000920E-02 0.  1.
        2   -1    0    0  501    0  0.00000000000E+00  0.00000000000E+00 -0.92773216556E+03  0.92773216556E+03  0.25500000920E-02 0. -1.
    10030    2    1    2    0    0  0.00000000000E+00  0.00000000000E+00 -0.55146289567E+02  0.18003180416E+04  0.17994732389E+04 0.  0.
        2    1    3    3  502    0  0.68437853457E+03  0.36709258142E+03 -0.48209364093E+03  0.91408162685E+03  0.25500000920E-02 0. -1.
       -2    1    3    3    0  502 -0.68437853457E+03 -0.36709258142E+03  0.42694735136E+03  0.88623641471E+03  0.25500000920E-02 0.  1.
</event>
<event>
 5   0  0.1035018E-05  0.1799733E+04  0.7818609E-02  0.8706442E-01
       -2   -1    0    0    0  501  0.00000000000E+00  0.00000000000E+00  0.10057041565E+04  0.10057041565E+04  0.25500000920E-02 0.  1.
        2   -1    0    0  501    0  0.00000000000E+00  0.00000000000E+00 -0.80516661638E+03  0.80516661638E+03  0.25500000920E-02 0. -1.
    10030    2    1    2    0    0  0.00000000000E+00  0.00000000000E+00  0.20053754017E+03  0.18108707729E+04  0.17997326610E+04 0.  0.
        3    1    3    3  502    0  0.15246075606E+02 -0.80957219373E+03  0.49527933544E+03  0.94917922965E+03  0.10100000352E+00 0.  1.
       -3    1    3    3    0  502 -0.15246075606E+02  0.80957219373E+03 -0.29474179527E+03  0.86169154328E+03  0.10100000352E+00 0. -1.
</event>
<event>
 5   0  0.9999162E-06  0.1804612E+04  0.7818609E-02  0.8703850E-01
       -2   -1    0    0    0  501  0.00000000000E+00  0.00000000000E+00  0.85347012011E+03  0.85347012011E+03  0.25500000920E-02 0.  1.
        2   -1    0    0  501    0  0.00000000000E+00  0.00000000000E+00 -0.95393679469E+03  0.95393679469E+03  0.25500000920E-02 0. -1.
    10030    2    1    2    0    0  0.00000000000E+00  0.00000000000E+00 -0.10046667458E+03  0.18074069148E+04  0.18046124800E+04 0.  0.
        1    1    3    3  502    0 -0.50951168798E+03  0.21782707593E+02  0.69528474670E+03  0.86226302574E+03  0.50400001928E-02 0.  1.
       -1    1    3    3    0  502  0.50951168798E+03 -0.21782707593E+02 -0.79575142128E+03  0.94514388906E+03  0.50400001928E-02 0. -1.
</event>
<event>
 5   0  0.1000316E-05  0.1799539E+04  0.7818609E-02  0.8706545E-01
       -2   -1    0    0    0  501  0.00000000000E+00  0.00000000000E+00  0.42343282327E+03  0.42343282328E+03  0.25500000920E-02 0.  1.
        2   -1    0    0  501    0  0.00000000000E+00  0.00000000000E+00 -0.19119559140E+04  0.19119559140E+04  0.25500000920E-02 0. -1.
    10030    2    1    2    0    0  0.00000000000E+00  0.00000000000E+00 -0.14885230907E+04  0.23353887373E+04  0.17995387083E+04 0.  0.
        5    1    3    3  502    0  0.10581462247E+03  0.80133491700E+03 -0.12572150542E+04  0.14946391424E+04  0.46999998093E+01 0. -1.
       -5    1    3    3    0  502 -0.10581462247E+03 -0.80133491700E+03 -0.23130803653E+03  0.84074959488E+03  0.46999998093E+01 0.  1.
</event>
<event>
 5   0  0.4983159E-06  0.1800176E+04  0.7818609E-02  0.8706206E-01
        1   -1    0    0  501    0  0.00000000000E+00  0.00000000000E+00  0.14875453077E+04  0.14875453077E+04  0.50400001928E-02 0. -1.
       -1   -1    0    0    0  501  0.00000000000E+00  0.00000000000E+00 -0.54462743158E+03  0.54462743161E+03  0.50400001928E-02 0.  1.
    10030    2    1    2    0    0  0.00000000000E+00  0.00000000000E+00  0.94291787608E+03  0.20321727393E+04  0.18001755251E+04 0.  0.
        4    1    3    3  502    0  0.80505975023E+03  0.37697002356E+03  0.63082138388E+03  0.10900297388E+04  0.12699999809E+01 0.  1.
       -4    1    3    3    0  502 -0.80505975023E+03 -0.37697002356E+03  0.31209649219E+03  0.94214300053E+03  0.12699999809E+01 0. -1.
</event>
<event>
 5   0  0.4981384E-06  0.1802861E+04  0.7818609E-02  0.8704780E-01
        1   -1    0    0  501    0  0.00000000000E+00  0.00000000000E+00  0.86553887026E+03  0.86553887027E+03  0.50400001928E-02 0. -1.
       -1   -1    0    0    0  501  0.00000000000E+00  0.00000000000E+00 -0.93881008481E+03  0.93881008482E+03  0.50400001928E-02 0.  1.
    10030    2    1    2    0    0  0.00000000000E+00  0.00000000000E+00 -0.73271214551E+02  0.18043489551E+04  0.18028606382E+04 0.  0.
        5    1    3    3  502    0  0.25621439492E+03 -0.48434510613E+03 -0.75299079205E+03  0.93126431313E+03  0.46999998093E+01 0.  1.
       -5    1    3    3    0  502 -0.25621439492E+03  0.48434510613E+03  0.67971957750E+03  0.87308464196E+03  0.46999998093E+01 0. -1.
</event>
<event>
 5   0  0.1036381E-05  0.1799246E+04  0.7818609E-02  0.8706701E-01
       -2   -1    0    0    0  501  0.00000000000E+00  0.00000000000E+00  0.16464422205E+04  0.16464422205E+04  0.25500000920E-02 0.  1.
        2   -1    0    0  501    0  0.00000000000E+00  0.00000000000E+00 -0.49155778431E+03  0.49155778432E+03  0.25500000920E-02 0. -1.
    10030    2    1    2    0    0  0.00000000000E+00  0.00000000000E+00  0.11548844362E+04  0.21380000048E+04  0.17992459420E+04 0.  0.
        4    1    3    3  502    0  0.63242896303E+03 -0.56812374874E+03  0.22778036424E+03  0.88012299959E+03  0.12699999809E+01 0. -1.
       -4    1    3    3    0  502 -0.63242896303E+03  0.56812374874E+03  0.92710407194E+03  0.12578770052E+04  0.12699999809E+01 0.  1.
</event>
<event>
 5   0  0.4983159E-06  0.1800646E+04  0.7818609E-02  0.8705956E-01
        1   -1    0    0  501    0  0.00000000000E+00  0.00000000000E+00  0.98875370588E+03  0.98875370590E+03  0.50400001928E-02 0. -1.
       -1   -1    0    0    0  501  0.00000000000E+00  0.00000000000E+00 -0.81980108549E+03  0.81980108551E+03  0.50400001928E-02 0.  1.
    10030    2    1    2    0    0  0.00000000000E+00  0.00000000000E+00  0.16895262039E+03  0.18085547914E+04  0.18006458412E+04 0.  0.
        4    1    3    3  502    0  0.51995177209E+03  0.69519224855E+03  0.32414047504E+03  0.92666648165E+03  0.12699999809E+01 0. -1.
       -4    1    3    3    0  502 -0.51995177209E+03 -0.69519224855E+03 -0.15518785465E+03  0.88188830976E+03  0.12699999809E+01 0.  1.
</event>
<event>
 5   0  0.4994123E-06  0.1799424E+04  0.7818609E-02  0.8706606E-01
        1   -1    0    0  501    0  0.00000000000E+00  0.00000000000E+00  0.12808116639E+04  0.12808116639E+04  0.50400001928E-02 0.  1.
       -1   -1    0    0    0  501  0.00000000000E+00  0.00000000000E+00 -0.63200694464E+03  0.63200694466E+03  0.50400001928E-02 0. -1.
    10030    2    1    2    0    0  0.00000000000E+00  0.00000000000E+00  0.64880471923E+03  0.19128186086E+04  0.17994242039E+04 0.  0.
        1    1    3    3  502    0  0.51782303580E+03  0.68913386277E+03  0.59839629639E+03  0.10493447026E+04  0.50400001928E-02 0. -1.
       -1    1    3    3    0  502 -0.51782303580E+03 -0.68913386277E+03  0.50408422845E+02  0.86347390600E+03  0.50400001928E-02 0.  1.
</event>
<event>
 5   0  0.9999162E-06  0.1801091E+04  0.7818609E-02  0.8705720E-01
       -2   -1    0    0    0  501  0.00000000000E+00  0.00000000000E+00  0.44696495442E+03  0.44696495442E+03  0.25500000920E-02 0. -1.
        2   -1    0    0  501    0  0.00000000000E+00  0.00000000000E+00 -0.18144194026E+04  0.18144194026E+04  0.25500000920E-02 0.  1.
    10030    2    1    2    0    0  0.00000000000E+00  0.00000000000E+00 -0.13674544482E+04  0.22613843571E+04  0.18010906536E+04 0.  0.
        1    1    3    3  502    0 -0.11839056706E+03 -0.72360781841E+03 -0.13401809789E+04  0.15276484077E+04  0.50400001928E-02 0. -1.
       -1    1    3    3    0  502  0.11839056706E+03  0.72360781841E+03 -0.27273469281E+02  0.73373594936E+03  0.50400001928E-02 0.  1.
</event>
<event>
 5   0  0.4981384E-06  0.1799336E+04  0.7818609E-02  0.8706653E-01
       -1   -1    0    0    0  501  0.00000000000E+00  0.00000000000E+00  0.10000778621E+04  0.10000778621E+04  0.50400001928E-02 0.  1.
        1   -1    0    0  501    0  0.00000000000E+00  0.00000000000E+00 -0.80933963811E+03  0.80933963812E+03  0.50400001928E-02 0. -1.
    10030    2    1    2    0    0  0.00000000000E+00  0.00000000000E+00  0.19073822396E+03  0.18094175002E+04  0.17993361609E+04 0.  0.
        5    1    3    3  502    0  0.34894245485E+02  0.64396081349E+03  0.72616142168E+03  0.97120319090E+03  0.46999998093E+01 0.  1.
       -5    1    3    3    0  502 -0.34894245485E+02 -0.64396081349E+03 -0.53542319772E+03  0.83821430931E+03  0.46999998093E+01 0. -1.
</event>
<event>
 5   0  0.1036381E-05  0.1799645E+04  0.7818609E-02  0.8706488E-01
       -2   -1    0    0    0  501  0.00000000000E+00  0.00000000000E+00  0.73642545247E+03  0.73642545247E+03  0.25500000920E-02 0. -1.
        2   -1    0    0  501    0  0.00000000000E+00  0.00000000000E+00 -0.10994742181E+04  0.10994742181E+04  0.25500000920E-02 0.  1.
    10030    2    1    2    0    0  0.00000000000E+00  0.00000000000E+00 -0.36304876565E+03  0.18358996706E+04  0.17996452968E+04 0.  0.
        4    1    3    3  502    0 -0.47908327866E+03 -0.24195626682E+03 -0.91830348363E+03  0.10636477443E+04  0.12699999809E+01 0.  1.
       -4    1    3    3    0  502  0.47908327866E+03  0.24195626682E+03  0.55525471799E+03  0.77225192631E+03  0.12699999809E+01 0. -1.
</event>
<event>
 5   0  0.9999162E-06  0.1800489E+04  0.7818609E-02  0.8706040E-01
        2   -1    0    0  501    0  0.00000000000E+00  0.00000000000E+00  0.63345030254E+03  0.63345030255E+03  0.25500000920E-02 0. -1.
       -2   -1    0    0    0  501  0.00000000000E+00  0.00000000000E+00 -0.12794054641E+04  0.12794054641E+04  0.25500000920E-02 0.  1.
    10030    2    1    2    0    0  0.00000000000E+00  0.00000000000E+00 -0.64595516159E+03  0.19128557667E+04  0.18004885763E+04 0.  0.
        1    1    3    3  502    0  0.66108490056E+02  0.40420881892E+03  0.52873061610E+03  0.66881325210E+03  0.50400001928E-02 0. -1.
       -1    1    3    3    0  502 -0.66108490056E+02 -0.40420881892E+03 -0.11746857777E+04  0.12440425146E+04  0.50400001928E-02 0.  1.
</event>
<event>
 5   0  0.1035018E-05  0.1799442E+04  0.7818609E-02  0.8706596E-01
        2   -1    0    0  501    0  0.00000000000E+00  0.00000000000E+00  0.20866108483E+04  0.20866108483E+04  0.25500000920E-02 0. -1.
       -2   -1    0    0    0  501  0.00000000000E+00  0.00000000000E+00 -0.38794855589E+03  0.38794855590E+03  0.25500000920E-02 0.  1.
    10030    2    1    2    0    0  0.00000000000E+00  0.00000000000E+00  0.16986622924E+04  0.24745594042E+04  0.17994417638E+04 0.  0.
        3    1    3    3  502    0  0.65726464964E+03 -0.10502339436E+03  0.16818227239E+04  0.18087438784E+04  0.10100000352E+00 0. -1.
       -3    1    3    3    0  502 -0.65726464964E+03  0.10502339436E+03  0.16839568493E+02  0.66581552573E+03  0.10100000352E+00 0.  1.
</event>
<event>
 5   0  0.9589963E-06  0.1799545E+04  0.7818609E-02  0.8706542E-01
       -2   -1    0    0    0  501  0.00000000000E+00  0.00000000000E+00  0.10955221143E+04  0.10955221143E+04  0.25500000920E-02 0. -1.
        2   -1    0    0  501    0  0.00000000000E+00  0.00000000000E+00 -0.73899958039E+03  0.73899958040E+03  0.25500000920E-02 0.  1.
    10030    2    1    2    0    0  0.00000000000E+00  0.00000000000E+00  0.35652253386E+03  0.18345216947E+04  0.17995448122E+04 0.  0.
        2    1    3    3  502    0 -0.37390756714E+03  0.81264484181E+03  0.79465954372E+02  0.89806088078E+03  0.25500000920E-02 0.  1.
       -2    1    3    3    0  502  0.37390756714E+03 -0.81264484181E+03  0.27705657949E+03  0.93646081388E+03  0.25500000920E-02 0. -1.
</event>
<event>
 5   0  0.9999162E-06  0.1796835E+04  0.7818609E-02  0.8707985E-01
        2   -1    0    0  501    0  0.00000000000E+00  0.00000000000E+00  0.11847930471E+04  0.11847930471E+04  0.25500000920E-02 0. -1.
       -2   -1    0    0    0  501  0.00000000000E+00  0.00000000000E+00 -0.68126125020E+03  0.68126125020E+03  0.25500000920E-02 0.  1.
    10030    2    1    2    0    0  0.00000000000E+00  0.00000000000E+00  0.50353179692E+03  0.18660542973E+04  0.17968345416E+04 0.  0.
        1    1    3    3  502    0 -0.72733008914E+03  0.46202887207E+03 -0.12341497989E+02  0.86176101664E+03  0.50400001928E-02 0.  1.
       -1    1    3    3    0  502  0.72733008914E+03 -0.46202887207E+03  0.51587329491E+03  0.10042932807E+04  0.50400001928E-02 0. -1.
</event>
<event>
 5   0  0.1000316E-05  0.1800340E+04  0.7818609E-02  0.8706119E-01
       -2   -1    0    0    0  501  0.00000000000E+00  0.00000000000E+00  0.74758593470E+03  0.74758593470E+03  0.25500000920E-02 0. -1.
        2   -1    0    0  501    0  0.00000000000E+00  0.00000000000E+00 -0.10838965578E+04  0.10838965578E+04  0.25500000920E-02 0.  1.
    10030    2    1    2    0    0  0.00000000000E+00  0.00000000000E+00 -0.33631062312E+03  0.18314824925E+04  0.18003397694E+04 0.  0.
        5    1    3    3  502    0 -0.30799000003E+03  0.50917967509E+03  0.51892550715E+03  0.78957428632E+03  0.46999998093E+01 0. -1.
       -5    1    3    3    0  502  0.30799000003E+03 -0.50917967509E+03 -0.85523613027E+03  0.10419082062E+04  0.46999998093E+01 0.  1.
</event>
<event>
 5   0  0.9589963E-06  0.1799264E+04  0.7818609E-02  0.8706691E-01
        2   -1    0    0  501    0  0.00000000000E+00  0.00000000000E+00  0.93052051887E+03  0.93052051887E+03  0.25500000920E-02 0. -1.
       -2   -1    0    0    0  501  0.00000000000E+00  0.00000000000E+00 -0.86976885748E+03  0.86976885749E+03  0.25500000920E-02 0.  1.
    10030    2    1    2    0    0  0.00000000000E+00  0.00000000000E+00  0.60751661385E+02  0.18002893764E+04  0.17992640368E+04 0.  0.
        2    1    3    3  502    0 -0.75923959324E+03 -0.17669314020E+03  0.47971140796E+03  0.91530774096E+03  0.25500000920E-02 0. -1.
       -2    1    3    3    0  502  0.75923959324E+03  0.17669314020E+03 -0.41895974657E+03  0.88498163539E+03  0.25500000920E-02 0.  1.
</event>
<event>
 5   0  0.4987456E-06  0.1799931E+04  0.7818609E-02  0.8706336E-01
       -1   -1    0    0    0  501  0.00000000000E+00  0.00000000000E+00  0.11330931705E+04  0.11330931705E+04  0.50400001928E-02 0. -1.
        1   -1    0    0  501    0  0.00000000000E+00  0.00000000000E+00 -0.71480254734E+03  0.71480254736E+03  0.50400001928E-02 0.  1.
    10030    2    1    2    0    0  0.00000000000E+00  0.00000000000E+00  0.41829062319E+03  0.18478957179E+04  0.17999309817E+04 0.  0.
        3    1    3    3  502    0  0.66795276146E+02 -0.86141809418E+03 -0.49429687985E+02  0.86541668932E+03  0.10100000352E+00 0. -1.
       -3    1    3    3    0  502 -0.66795276146E+02  0.86141809418E+03  0.46772031118E+03  0.98247902858E+03  0.10100000352E+00 0.  1.
</event>
<event>
 5   0  0.4994123E-06  0.1799841E+04  0.7818609E-02  0.8706384E-01
        1   -1    0    0  501    0  0.00000000000E+00  0.00000000000E+00  0.11450821248E+04  0.11450821248E+04  0.50400001928E-02 0. -1.
       -1   -1    0    0    0  501  0.00000000000E+00  0.00000000000E+00 -0.70724752891E+03  0.70724752892E+03  0.50400001928E-02 0.  1.
    10030    2    1    2    0    0  0.00000000000E+00  0.00000000000E+00  0.43783459593E+03  0.18523296538E+04  0.17998405521E+04 0.  0.
        1    1    3    3  502    0 -0.87477090598E+03 -0.26287760013E+02  0.31822076527E+01  0.87517158931E+03  0.50400001928E-02 0. -1.
       -1    1    3    3    0  502  0.87477090598E+03  0.26287760013E+02  0.43465238828E+03  0.97715806446E+03  0.50400001928E-02 0.  1.
</event>
<event>
 5   0  0.9589963E-06  0.1799243E+04  0.7818609E-02  0.8706702E-01
        2   -1    0    0  501    0  0.00000000000E+00  0.00000000000E+00  0.18601593657E+04  0.18601593657E+04  0.25500000920E-02 0. -1.
       -2   -1    0    0    0  501  0.00000000000E+00  0.00000000000E+00 -0.43508046063E+03  0.43508046064E+03  0.25500000920E-02 0.  1.
    10030    2    1    2    0    0  0.00000000000E+00  0.00000000000E+00  0.14250789050E+04  0.22952398263E+04  0.17992431672E+04 0.  0.
        2    1    3    3  502    0  0.74839421018E+03 -0.10557233788E+03  0.90096887085E+02  0.76115495231E+03  0.25500000920E-02 0.  1.
       -2    1    3    3    0  502 -0.74839421018E+03  0.10557233788E+03  0.13349820179E+04  0.15340848740E+04  0.25500000920E-02 0. -1.
</event>
<event>
 5   0  0.1000316E-05  0.1800108E+04  0.7818609E-02  0.8706242E-01
        2   -1    0    0  501    0  0.00000000000E+00  0.00000000000E+00  0.71670341237E+03  0.71670341238E+03  0.25500000920E-02 0. -1.
       -2   -1    0    0    0  501  0.00000000000E+00  0.00000000000E+00 -0.11303104708E+04  0.11303104708E+04  0.25500000920E-02 0.  1.
    10030    2    1    2    0    0  0.00000000000E+00  0.00000000000E+00 -0.41360705845E+03  0.18470138832E+04  0.18001081873E+04 0.  0.
        5    1    3    3  502    0  0.27878332551E+03  0.63219573805E+03  0.38501329356E+03  0.79097972161E+03  0.46999998093E+01 0. -1.
       -5    1    3    3    0  502 -0.27878332551E+03 -0.63219573805E+03 -0.79862035201E+03  0.10560341616E+04  0.46999998093E+01 0.  1.
</event>
<event>
 5   0  0.1000316E-05  0.1800063E+04  0.7818609E-02  0.8706266E-01
        2   -1    0    0  501    0  0.00000000000E+00  0.00000000000E+00  0.99203442714E+03  0.99203442715E+03  0.25500000920E-02 0. -1.
       -2   -1    0    0    0  501  0.00000000000E+00  0.00000000000E+00 -0.81656076366E+03  0.81656076367E+03  0.25500000920E-02 0.  1.
    10030    2    1    2    0    0  0.00000000000E+00  0.00000000000E+00  0.17547366348E+03  0.18085951908E+04  0.18000626538E+04 0.  0.
        5    1    3    3  502    0 -0.54419863572E+03  0.64440859347E+03 -0.22778949994E+03  0.87368457508E+03  0.46999998093E+01 0.  1.
       -5    1    3    3    0  502  0.54419863572E+03 -0.64440859347E+03  0.40326316342E+03  0.93491061574E+03  0.46999998093E+01 0. -1.
</event>
<event>
 5   0  0.4983159E-06  0.1797004E+04  0.7818609E-02  0.8707895E-01
       -1   -1    0    0    0  501  0.00000000000E+00  0.00000000000E+00  0.89674197241E+03  0.89674197243E+03  0.50400001928E-02 0.  1.
        1   -1    0    0  501    0  0.00000000000E+00  0.00000000000E+00 -0.90026508203E+03  0.90026508205E+03  0.50400001928E-02 0. -1.
    10030    2    1    2    0    0  0.00000000000E+00  0.00000000000E+00 -0.35231096169E+01  0.17970070545E+04  0.17970036009E+04 0.  0.
        4    1    3    3  502    0  0.71030172852E+02 -0.56751004838E+03 -0.69472098922E+03  0.89986210401E+03  0.12699999809E+01 0. -1.
       -4    1    3    3    0  502 -0.71030172852E+02  0.56751004838E+03  0.69119787960E+03  0.89714495046E+03  0.12699999809E+01 0.  1.
</event>
<event>
 5   0  0.4981384E-06  0.1800077E+04  0.7818609E-02  0.8706259E-01
        1   -1    0    0  501    0  0.00000000000E+00  0.00000000000E+00  0.80878674302E+03  0.80878674303E+03  0.50400001928E-02 0.  1.
       -1   -1    0    0    0  501  0.00000000000E+00  0.00000000000E+00 -0.10015857631E+04  0.10015857631E+04  0.50400001928E-02 0. -1.
    10030    2    1    2    0    0  0.00000000000E+00  0.00000000000E+00 -0.19279902008E+03  0.18103725061E+04  0.18000769842E+04 0.  0.
        5    1    3    3  502    0  0.46119435225E+03  0.77245049443E+03 -0.12237746700E+03  0.90795282439E+03  0.46999998093E+01 0. -1.
       -5    1    3    3    0  502 -0.46119435225E+03 -0.77245049443E+03 -0.70421553082E+02  0.90241968176E+03  0.46999998093E+01 0.  1.
</event>
<event>
 5   0  0.9999162E-06  0.1799115E+04  0.7818609E-02  0.8706770E-01
       -2   -1    0    0    0  501  0.00000000000E+00  0.00000000000E+00  0.10853062292E+04  0.10853062292E+04  0.25500000920E-02 0.  1.
        2   -1    0    0  501    0  0.00000000000E+00  0.00000000000E+00 -0.74559937338E+03  0.74559937339E+03  0.25500000920E-02 0. -1.
    10030    2    1    2    0    0  0.00000000000E+00  0.00000000000E+00  0.33970685583E+03  0.18309056026E+04  0.17991149429E+04 0.  0.
        1    1    3    3  502    0  0.36486268323E+03 -0.78029241737E+03  0.43370806364E+03  0.96440848125E+03  0.50400001928E-02 0.  1.
       -1    1    3    3    0  502 -0.36486268323E+03  0.78029241737E+03 -0.94001207810E+02  0.86649712135E+03  0.50400001928E-02 0. -1.
</event>
<event>
 5   0  0.1036381E-05  0.1799758E+04  0.7818609E-02  0.8706428E-01
        2   -1    0    0  501    0  0.00000000000E+00  0.00000000000E+00  0.11639208040E+04  0.11639208040E+04  0.25500000920E-02 0.  1.
       -2   -1    0    0    0  501  0.00000000000E+00  0.00000000000E+00 -0.69573659687E+03  0.69573659688E+03  0.25500000920E-02 0. -1.
    10030    2    1    2    0    0  0.00000000000E+00  0.00000000000E+00  0.46818420715E+03  0.18596574009E+04  0.17997580940E+04 0.  0.
        4    1    3    3  502    0 -0.28854944357E+02  0.72711356215E+03 -0.31291715319E+03  0.79211457361E+03  0.12699999809E+01 0. -1.
       -4    1    3    3    0  502  0.28854944357E+02 -0.72711356215E+03  0.78110136034E+03  0.10675428273E+04  0.12699999809E+01 0.  1.
</event>
<event>
 5   0  0.9589963E-06  0.1802220E+04  0.7818609E-02  0.8705120E-01
        2   -1    0    0  501    0  0.00000000000E+00  0.00000000000E+00  0.16729077395E+04  0.16729077395E+04  0.25500000920E-02 0. -1.
       -2   -1    0    0    0  501  0.00000000000E+00  0.00000000000E+00 -0.48538194355E+03  0.48538194355E+03  0.25500000920E-02 0.  1.
    10030    2    1    2    0    0  0.00000000000E+00  0.00000000000E+00  0.11875257959E+04  0.21582896830E+04  0.18022199754E+04 0.  0.
        2    1    3    3  502    0  0.22913526899E+03  0.16291320170E+03 -0.43151299918E+03  0.51502150563E+03  0.25500000920E-02 0.  1.
       -2    1    3    3    0  502 -0.22913526899E+03 -0.16291320170E+03  0.16190387951E+04  0.16432681774E+04  0.25500000920E-02 0. -1.
</event>
<event>
 5   0  0.9589963E-06  0.1799944E+04  0.7818609E-02  0.8706330E-01
        2   -1    0    0  501    0  0.00000000000E+00  0.00000000000E+00  0.67831243792E+03  0.67831243792E+03  0.25500000920E-02 0.  1.
       -2   -1    0    0    0  501  0.00000000000E+00  0.00000000000E+00 -0.11940650147E+04  0.11940650147E+04  0.25500000920E-02 0. -1.
    10030    2    1    2    0    0  0.00000000000E+00  0.00000000000E+00 -0.51575257675E+03  0.18723774526E+04  0.17999435004E+04 0.  0.
        2    1    3    3  502    0  0.28569973146E+03  0.95271688018E+02  0.62433761415E+03  0.69317998207E+03  0.25500000920E-02 0.  1.
       -2    1    3    3    0  502 -0.28569973146E+03 -0.95271688018E+02 -0.11400901909E+04  0.11791974705E+04  0.25500000920E-02 0. -1.
</event>
<event>
 5   0  0.4953155E-06  0.1798798E+04  0.7818609E-02  0.8706939E-01
        1   -1    0    0  501    0  0.00000000000E+00  0.00000000000E+00  0.11717771050E+04  0.11717771050E+04  0.50400001928E-02 0. -1.
       -1   -1    0    0    0  501  0.00000000000E+00  0.00000000000E+00 -0.69033453711E+03  0.69033453713E+03  0.50400001928E-02 0.  1.
    10030    2    1    2    0    0  0.00000000000E+00  0.00000000000E+00  0.48144256792E+03  0.18621116422E+04  0.17987976044E+04 0.  0.
        2    1    3    3  502    0  0.15967273624E+03 -0.65599567563E+03 -0.37440977952E+03  0.77201579786E+03  0.25500000920E-02 0.  1.
       -2    1    3    3    0  502 -0.15967273624E+03  0.65599567563E+03  0.85585234743E+03  0.10900958443E+04  0.25500000920E-02 0. -1.
</event>
<event>
 5   0  0.4987456E-06  0.1797327E+04  0.7818609E-02  0.8707722E-01
       -1   -1    0    0    0  501  0.00000000000E+00  0.00000000000E+00  0.33975535055E+03  0.33975535059E+03  0.50400001928E-02 0.  1.
        1   -1    0    0  501    0  0.00000000000E+00  0.00000000000E+00 -0.23769942510E+04  0.23769942510E+04  0.50400001928E-02 0. -1.
    10030    2    1    2    0    0  0.00000000000E+00  0.00000000000E+00 -0.20372389005E+04  0.27167496016E+04  0.17973274772E+04 0.  0.
        3    1    3    3  502    0 -0.83329240017E+03  0.23645732706E+03 -0.65676757124E+03  0.10870289529E+04  0.10100000352E+00 0.  1.
       -3    1    3    3    0  502  0.83329240017E+03 -0.23645732706E+03 -0.13804713292E+04  0.16297206487E+04  0.10100000352E+00 0. -1.
</event>
<event>
 5   0  0.1000316E-05  0.1799353E+04  0.7818609E-02  0.8706643E-01
       -2   -1    0    0    0  501  0.00000000000E+00  0.00000000000E+00  0.65168999237E+03  0.65168999238E+03  0.25500000920E-02 0.  1.
        2   -1    0    0  501    0  0.00000000000E+00  0.00000000000E+00 -0.12420293462E+04  0.12420293462E+04  0.25500000920E-02 0. -1.
    10030    2    1    2    0    0  0.00000000000E+00  0.00000000000E+00 -0.59033935383E+03  0.18937193386E+04  0.17993533229E+04 0.  0.
        5    1    3    3  502    0 -0.85466903492E+03 -0.25633501117E+03 -0.41622003697E+03  0.98459535159E+03  0.46999998093E+01 0. -1.
       -5    1    3    3    0  502  0.85466903492E+03  0.25633501117E+03 -0.17411931686E+03  0.90912398698E+03  0.46999998093E+01 0.  1.
</event>
<event>
 5   0  0.9999162E-06  0.1800383E+04  0.7818609E-02  0.8706096E-01
       -2   -1    0    0    0  501  0.00000000000E+00  0.00000000000E+00  0.98088779037E+03  0.98088779037E+03  0.25500000920E-02 0. -1.
        2   -1    0    0  501    0  0.00000000000E+00  0.00000000000E+00 -0.82613367697E+03  0.82613367698E+03  0.25500000920E-02 0.  1.
    10030    2    1    2    0    0  0.00000000000E+00  0.00000000000E+00  0.15475411339E+03  0.18070214673E+04  0.18003826671E+04 0.  0.
        1    1    3    3  502    0 -0.68297435505E+03  0.41958814524E+03 -0.33381184088E+03  0.86829633560E+03  0.50400001928E-02 0.  1.
       -1    1    3    3    0  502  0.68297435505E+03 -0.41958814524E+03  0.48856595427E+03  0.93872513175E+03  0.50400001928E-02 0. -1.
</event>
<event>
 5   0  0.4983159E-06  0.1805618E+04  0.7818609E-02  0.8703318E-01
       -1   -1    0    0    0  501  0.00000000000E+00  0.00000000000E+00  0.11172920623E+04  0.11172920623E+04  0.50400001928E-02 0.  1.
        1   -1    0    0  501    0  0.00000000000E+00  0.00000000000E+00 -0.72949941825E+03  0.72949941827E+03  0.50400001928E-02 0. -1.
    10030    2    1    2    0    0  0.00000000000E+00  0.00000000000E+00  0.38779264403E+03  0.18467914806E+04  0.18056177995E+04 0.  0.
        4    1    3    3  502    0  0.10477401125E+03  0.29631101915E+03 -0.67173867571E+03  0.74162812436E+03  0.12699999809E+01 0. -1.
       -4    1    3    3    0  502 -0.10477401125E+03 -0.29631101915E+03  0.10595313197E+04  0.11051633562E+04  0.12699999809E+01 0.  1.
</event>
<event>
 5   0  0.4987456E-06  0.1800216E+04  0.7818609E-02  0.8706185E-01
        1   -1    0    0  501    0  0.00000000000E+00  0.00000000000E+00  0.50256593984E+03  0.50256593987E+03  0.50400001928E-02 0. -1.
       -1   -1    0    0    0  501  0.00000000000E+00  0.00000000000E+00 -0.16121154148E+04  0.16121154148E+04  0.50400001928E-02 0.  1.
    10030    2    1    2    0    0  0.00000000000E+00  0.00000000000E+00 -0.11095494749E+04  0.21146813547E+04  0.18002158744E+04 0.  0.
        3    1    3    3  502    0  0.29552263972E+03  0.28965645456E+03  0.38420693488E+03  0.56466757590E+03  0.10100000352E+00 0. -1.
       -3    1    3    3    0  502 -0.29552263972E+03 -0.28965645456E+03 -0.14937564098E+04  0.15500137788E+04  0.10100000352E+00 0.  1.
</event>
<event>
 5   0  0.1000316E-05  0.1803760E+04  0.7818609E-02  0.8704303E-01
       -2   -1    0    0    0  501  0.00000000000E+00  0.00000000000E+00  0.55250956995E+03  0.55250956996E+03  0.25500000920E-02 0.  1.
        2   -1    0    0  501    0  0.00000000000E+00  0.00000000000E+00 -0.14721689689E+04  0.14721689689E+04  0.25500000920E-02 0. -1.
    10030    2    1    2    0    0  0.00000000000E+00  0.00000000000E+00 -0.91965939893E+03  0.20246785388E+04  0.18037598997E+04 0.  0.
        5    1    3    3  502    0  0.87040084569E+03  0.21673300605E+03 -0.56509459550E+03  0.10601532059E+04  0.46999998093E+01 0.  1.
       -5    1    3    3    0  502 -0.87040084569E+03 -0.21673300605E+03 -0.35456480343E+03  0.96452533296E+03  0.46999998093E+01 0. -1.
</event>
<event>
 5   0  0.3626125E-06  0.1797459E+04  0.7818609E-02  0.8707652E-01
        4   -1    0    0  501    0  0.00000000000E+00  0.00000000000E+00  0.17386981295E+04  0.17386985933E+04  0.12699999809E+01 0.  1.
       -4   -1    0    0    0  501  0.00000000000E+00  0.00000000000E+00 -0.46455022205E+03  0.46455195803E+03  0.12699999809E+01 0. -1.
    10030    2    1    2    0    0  0.00000000000E+00  0.00000000000E+00  0.12741479074E+04  0.22032505514E+04  0.17974593464E+04 0.  0.
        2    1    3    3  502    0 -0.20130523358E+03 -0.64151917074E+03 -0.93918320877E+02  0.67888975136E+03  0.25500000920E-02 0. -1.
       -2    1    3    3    0  502  0.20130523358E+03  0.64151917074E+03  0.13680662283E+04  0.15243608000E+04  0.25500000920E-02 0.  1.
</event>
<event>
 5   0  0.9589963E-06  0.1799158E+04  0.7818609E-02  0.8706747E-01
       -2   -1    0    0    0  501  0.00000000000E+00  0.00000000000E+00  0.43606849954E+03  0.43606849955E+03  0.25500000920E-02 0. -1.
        2   -1    0    0  501    0  0.00000000000E+00  0.00000000000E+00 -0.18557693193E+04  0.18557693193E+04  0.25500000920E-02 0.  1.
    10030    2    1    2    0    0  0.00000000000E+00  0.00000000000E+00 -0.14197008198E+04  0.22918378189E+04  0.17991581838E+04 0.  0.
        2    1    3    3  502    0 -0.94306495040E+02  0.64146477429E+03  0.84510275724E+02  0.65384459803E+03  0.25500000920E-02 0. -1.
       -2    1    3    3    0  502  0.94306495040E+02 -0.64146477429E+03 -0.15042110955E+04  0.16379932208E+04  0.25500000920E-02 0.  1.
</event>
<event>
 5   0  0.1036381E-05  0.1799120E+04  0.7818609E-02  0.8706768E-01
       -2   -1    0    0    0  501  0.00000000000E+00  0.00000000000E+00  0.83575082597E+03  0.83575082597E+03  0.25500000920E-02 0. -1.
        2   -1    0    0  501    0  0.00000000000E+00  0.00000000000E+00 -0.96824108896E+03  0.96824108896E+03  0.25500000920E-02 0.  1.
    10030    2    1    2    0    0  0.00000000000E+00  0.00000000000E+00 -0.13249026299E+03  0.18039919149E+04  0.17991201070E+04 0.  0.
        4    1    3    3  502    0  0.10417913227E+03 -0.78154215260E+03 -0.50048276883E+03  0.93388759639E+03  0.12699999809E+01 0.  1.
       -4    1    3    3    0  502 -0.10417913227E+03  0.78154215260E+03  0.36799250584E+03  0.87010431854E+03  0.12699999809E+01 0. -1.
</event>
<event>
 5   0  0.4994123E-06  0.1800614E+04  0.7818609E-02  0.8705973E-01
        1   -1    0    0  501    0  0.00000000000E+00  0.00000000000E+00  0.11856049987E+04  0.11856049987E+04  0.50400001928E-02 0. -1.
       -1   -1    0    0    0  501  0.00000000000E+00  0.00000000000E+00 -0.68366183903E+03  0.68366183905E+03  0.50400001928E-02 0.  1.
    10030    2    1    2    0    0  0.00000000000E+00  0.00000000000E+00  0.50194315963E+03  0.18692668377E+04  0.18006142216E+04 0.  0.
        1    1    3    3  502    0 -0.54429740077E+03  0.64357040600E+03  0.57943737385E+03  0.10228343943E+04  0.50400001928E-02 0. -1.
       -1    1    3    3    0  502  0.54429740077E+03 -0.64357040600E+03 -0.77494214227E+02  0.84643244340E+03  0.50400001928E-02 0.  1.
</event>
<event>
 5   0  0.4994123E-06  0.1800292E+04  0.7818609E-02  0.8706144E-01
        1   -1    0    0  501    0  0.00000000000E+00  0.00000000000E+00  0.19227627563E+04  0.19227627563E+04  0.50400001928E-02 0. -1.
       -1   -1    0    0    0  501  0.00000000000E+00  0.00000000000E+00 -0.42140569327E+03  0.42140569330E+03  0.50400001928E-02 0.  1.
    10030    2    1    2    0    0  0.00000000000E+00  0.00000000000E+00  0.15013570630E+04  0.23441684496E+04  0.18002923900E+04 0.  0.
        1    1    3    3  502    0 -0.89732950167E+03 -0.69368629858E+02  0.77130490634E+03  0.11852946891E+04  0.50400001928E-02 0. -1.
       -1    1    3    3    0  502  0.89732950167E+03  0.69368629858E+02  0.73005215670E+03  0.11588737606E+04  0.50400001928E-02 0.  1.
</event>
<event>
 5   0  0.4981384E-06  0.1800217E+04  0.7818609E-02  0.8706184E-01
       -1   -1    0    0    0  501  0.00000000000E+00  0.00000000000E+00  0.10520612276E+04  0.10520612276E+04  0.50400001928E-02 0. -1.
        1   -1    0    0  501    0  0.00000000000E+00  0.00000000000E+00 -0.77010288124E+03  0.77010288125E+03  0.50400001928E-02 0.  1.
    10030    2    1    2    0    0  0.00000000000E+00  0.00000000000E+00  0.28195834636E+03  0.18221641089E+04  0.18002170787E+04 0.  0.
        5    1    3    3  502    0 -0.34741000863E+03  0.42224145030E+03 -0.58271407829E+03  0.79909908239E+03  0.46999998093E+01 0.  1.
       -5    1    3    3    0  502  0.34741000863E+03 -0.42224145030E+03  0.86467242465E+03  0.10230650265E+04  0.46999998093E+01 0. -1.
</event>
<event>
 5   0  0.9999162E-06  0.1800643E+04  0.7818609E-02  0.8705958E-01
        2   -1    0    0  501    0  0.00000000000E+00  0.00000000000E+00  0.10208125931E+04  0.10208125931E+04  0.25500000920E-02 0. -1.
       -2   -1    0    0    0  501  0.00000000000E+00  0.00000000000E+00 -0.79405218049E+03  0.79405218049E+03  0.25500000920E-02 0.  1.
    10030    2    1    2    0    0  0.00000000000E+00  0.00000000000E+00  0.22676041265E+03  0.18148647736E+04  0.18006426247E+04 0.  0.
        1    1    3    3  502    0  0.24594380077E+03 -0.36084179630E+03 -0.68016508023E+03  0.80828193812E+03  0.50400001928E-02 0.  1.
       -1    1    3    3    0  502 -0.24594380077E+03  0.36084179630E+03  0.90692549288E+03  0.10065828355E+04  0.50400001928E-02 0. -1.
</event>
<event>
 5   0  0.9589963E-06  0.1799890E+04  0.7818609E-02  0.8706358E-01
        2   -1    0    0  501    0  0.00000000000E+00  0.00000000000E+00  0.13294994841E+04  0.13294994841E+04  0.25500000920E-02 0.  1.
       -2   -1    0    0    0  501  0.00000000000E+00  0.00000000000E+00 -0.60917751376E+03  0.60917751376E+03  0.25500000920E-02 0. -1.
    10030    2    1    2    0    0  0.00000000000E+00  0.00000000000E+00  0.72032197033E+03  0.19386769979E+04  0.17998902081E+04 0.  0.
        2    1    3    3  502    0  0.47493776498E+03 -0.48463143464E+03  0.99690218730E+03  0.12059218379E+04  0.25500000920E-02 0.  1.
       -2    1    3    3    0  502 -0.47493776498E+03  0.48463143464E+03 -0.27658021696E+03  0.73275515997E+03  0.25500000920E-02 0. -1.
</event>
<event>
 5   0  0.4983159E-06  0.1800222E+04  0.7818609E-02  0.8706181E-01
        1   -1    0    0  501    0  0.00000000000E+00  0.00000000000E+00  0.66183273909E+03  0.66183273911E+03  0.50400001928E-02 0. -1.
       -1   -1    0    0    0  501  0.00000000000E+00  0.00000000000E+00 -0.12241763069E+04  0.12241763069E+04  0.50400001928E-02 0.  1.
    10030    2    1    2    0    0  0.00000000000E+00  0.00000000000E+00 -0.56234356780E+03  0.18860090460E+04  0.18002221622E+04 0.  0.
        4    1    3    3  502    0 -0.64074293773E+03 -0.26127164304E+03 -0.88426356555E+03  0.11228259215E+04  0.12699999809E+01 0.  1.
       -4    1    3    3    0  502  0.64074293773E+03  0.26127164304E+03  0.32191999776E+03  0.76318312453E+03  0.12699999809E+01 0. -1.
</event>
<event>
 5   0  0.4981384E-06  0.1794921E+04  0.7818609E-02  0.8709005E-01
        1   -1    0    0  501    0  0.00000000000E+00  0.00000000000E+00  0.14678549039E+04  0.14678549039E+04  0.50400001928E-02 0. -1.
       -1   -1    0    0    0  501  0.00000000000E+00  0.00000000000E+00 -0.54871605153E+03  0.54871605156E+03  0.50400001928E-02 0.  1.
    10030    2    1    2    0    0  0.00000000000E+00  0.00000000000E+00  0.91913885232E+03  0.20165709554E+04  0.17949212207E+04 0.  0.
        5    1    3    3  502    0 -0.46222781264E+03  0.42647130703E+03 -0.25970907294E+03  0.68044339887E+03  0.46999998093E+01 0.  1.
       -5    1    3    3    0  502  0.46222781264E+03 -0.42647130703E+03  0.11788479253E+04  0.13361275566E+04  0.46999998093E+01 0. -1.
</event>
<event>
 5   0  0.9999162E-06  0.1799846E+04  0.7818609E-02  0.8706381E-01
       -2   -1    0    0    0  501  0.00000000000E+00  0.00000000000E+00  0.87634116036E+03  0.87634116037E+03  0.25500000920E-02 0. -1.
        2   -1    0    0  501    0  0.00000000000E+00  0.00000000000E+00 -0.92413966101E+03  0.92413966101E+03  0.25500000920E-02 0.  1.
    10030    2    1    2    0    0  0.00000000000E+00  0.00000000000E+00 -0.47798500648E+02  0.18004808214E+04  0.17998462411E+04 0.  0.
        1    1    3    3  502    0  0.14878997126E+00 -0.89986414132E+03 -0.13593779395E+02  0.89996682485E+03  0.50400001928E-02 0. -1.
       -1    1    3    3    0  502 -0.14878997126E+00  0.89986414132E+03 -0.34204721254E+02  0.90051399653E+03  0.50400001928E-02 0.  1.
</event>
<event>
 5   0  0.4987456E-06  0.1800135E+04  0.7818609E-02  0.8706228E-01
        1   -1    0    0  501    0  0.00000000000E+00  0.00000000000E+00  0.10416531020E+04  0.10416531020E+04  0.50400001928E-02 0. -1.
       -1   -1    0    0    0  501  0.00000000000E+00  0.00000000000E+00 -0.77772646471E+03  0.77772646473E+03  0.50400001928E-02 0.  1.
    10030    2    1    2    0    0  0.00000000000E+00  0.00000000000E+00  0.26392663724E+03  0.18193795667E+04  0.18001346444E+04 0.  0.
        3    1    3    3  502    0 -0.10601367634E+03  0.10617778628E+03  0.10289242652E+04  0.10398066049E+04  0.10100000352E+00 0. -1.
       -3    1    3    3    0  502  0.10601367634E+03 -0.10617778628E+03 -0.76499762793E+03  0.77957296183E+03  0.10100000352E+00 0.  1.
</event>
<event>
 5   0  0.9589963E-06  0.1799773E+04  0.7818609E-02  0.8706420E-01
        2   -1    0    0  501    0  0.00000000000E+00  0.00000000000E+00  0.13899089474E+04  0.13899089474E+04  0.25500000920E-02 0. -1.
       -2   -1    0    0    0  501  0.00000000000E+00  0.00000000000E+00 -0.58262506105E+03  0.58262506106E+03  0.25500000920E-02 0.  1.
    10030    2    1    2    0    0  0.00000000000E+00  0.00000000000E+00  0.80728388639E+03  0.19725340085E+04  0.17997730806E+04 0.  0.
        2    1    3    3  502    0  0.71913138497E+02 -0.89586374024E+03  0.35398928654E+03  0.96594604175E+03  0.25500000920E-02 0. -1.
       -2    1    3    3    0  502 -0.71913138497E+02  0.89586374024E+03  0.45329459985E+03  0.10065879668E+04  0.25500000920E-02 0.  1.
</event>
<event>
 5   0  0.9589963E-06  0.1800187E+04  0.7818609E-02  0.8706200E-01
        2   -1    0    0  501    0  0.00000000000E+00  0.00000000000E+00  0.17910695466E+04  0.17910695466E+04  0.25500000920E-02 0.  1.
       -2   -1    0    0    0  501  0.00000000000E+00  0.00000000000E+00 -0.45233776818E+03  0.45233776819E+03  0.25500000920E-02 0. -1.
    10030    2    1    2    0    0  0.00000000000E+00  0.00000000000E+00  0.13387317784E+04  0.22434073148E+04  0.18001871029E+04 0.  0.
        2    1    3    3  502    0  0.82320090296E+03 -0.34551674557E+02  0.21777266467E+03  0.85221973594E+03  0.25500000920E-02 0.  1.
       -2    1    3    3    0  502 -0.82320090296E+03  0.34551674557E+02  0.11209591137E+04  0.13911875788E+04  0.25500000920E-02 0. -1.
</event>
<event>
 5   0  0.9589963E-06  0.1799797E+04  0.7818609E-02  0.8706407E-01
       -2   -1    0    0    0  501  0.00000000000E+00  0.00000000000E+00  0.52992584881E+03  0.52992584882E+03  0.25500000920E-02 0.  1.
        2   -1    0    0  501    0  0.00000000000E+00  0.00000000000E+00 -0.15281713417E+04  0.15281713417E+04  0.25500000920E-02 0. -1.
    10030    2    1    2    0    0  0.00000000000E+00  0.00000000000E+00 -0.99824549288E+03  0.20580971905E+04  0.17997972057E+04 0.  0.
        2    1    3    3  502    0  0.36311486752E+03 -0.56448597289E+03  0.18633929477E+03  0.69657673905E+03  0.25500000920E-02 0.  1.
       -2    1    3    3    0  502 -0.36311486752E+03  0.56448597289E+03 -0.11845847877E+04  0.13615204515E+04  0.25500000920E-02 0. -1.
</event>
<event>
 5   0  0.1000316E-05  0.1799263E+04  0.7818609E-02  0.8706692E-01
        2   -1    0    0  501    0  0.00000000000E+00  0.00000000000E+00  0.17234839160E+04  0.17234839160E+04  0.25500000920E-02 0.  1.
       -2   -1    0    0    0  501  0.00000000000E+00  0.00000000000E+00 -0.46959324389E+03  0.46959324390E+03  0.25500000920E-02 0. -1.
    10030    2    1    2    0    0  0.00000000000E+00  0.00000000000E+00  0.12538906721E+04  0.21930771599E+04  0.17992625189E+04 0.  0.
        5    1    3    3  502    0 -0.18592001306E+03  0.23778531423E+03  0.16599064093E+04  0.16871335112E+04  0.46999998093E+01 0.  1.
       -5    1    3    3    0  502  0.18592001306E+03 -0.23778531423E+03 -0.40601573715E+03  0.50594364876E+03  0.46999998093E+01 0. -1.
</event>
<event>
 5   0  0.9999162E-06  0.1800512E+04  0.7818609E-02  0.8706027E-01
        2   -1    0    0  501    0  0.00000000000E+00  0.00000000000E+00  0.91131629534E+03  0.91131629534E+03  0.25500000920E-02 0.  1.
       -2   -1    0    0    0  501  0.00000000000E+00  0.00000000000E+00 -0.88932965587E+03  0.88932965588E+03  0.25500000920E-02 0. -1.
    10030    2    1    2    0    0  0.00000000000E+00  0.00000000000E+00  0.21986639466E+02  0.18006459512E+04  0.18005117132E+04 0.  0.
        1    1    3    3  502    0 -0.23155034997E+03 -0.61460653256E+03 -0.60476668507E+03  0.89280428866E+03  0.50400001928E-02 0. -1.
       -1    1    3    3    0  502  0.23155034997E+03  0.61460653256E+03  0.62675332454E+03  0.90784166256E+03  0.50400001928E-02 0.  1.
</event>
<event>
 5   0  0.1000316E-05  0.1801303E+04  0.7818609E-02  0.8705607E-01
       -2   -1    0    0    0  501  0.00000000000E+00  0.00000000000E+00  0.63992795713E+03  0.63992795714E+03  0.25500000920E-02 0.  1.
        2   -1    0    0  501    0  0.00000000000E+00  0.00000000000E+00 -0.12676004300E+04  0.12676004300E+04  0.25500000920E-02 0. -1.
    10030    2    1    2    0    0  0.00000000000E+00  0.00000000000E+00 -0.62767247285E+03  0.19075283871E+04  0.18013028103E+04 0.  0.
        5    1    3    3  502    0  0.73307393991E+03 -0.44857132867E+03 -0.59904623909E+03  0.10476125834E+04  0.46999998093E+01 0. -1.
       -5    1    3    3    0  502 -0.73307393991E+03  0.44857132867E+03 -0.28626233763E+02  0.85991580375E+03  0.46999998093E+01 0.  1.
</event>
<event>
 5   0  0.4983159E-06  0.1798534E+04  0.7818609E-02  0.8707080E-01
        1   -1    0    0  501    0  0.00000000000E+00  0.00000000000E+00  0.21101159400E+04  0.21101159400E+04  0.50400001928E-02 0. -1.
       -1   -1    0    0    0  501  0.00000000000E+00  0.00000000000E+00 -0.38323997601E+03  0.38323997605E+03  0.50400001928E-02 0.  1.
    10030    2    1    2    0    0  0.00000000000E+00  0.00000000000E+00  0.17268759640E+04  0.24933559161E+04  0.17985336052E+04 0.  0.
        4    1    3    3  502    0  0.23431703381E+03  0.50714824540E+03 -0.11348044217E+03  0.57007301182E+03  0.12699999809E+01 0.  1.
       -4    1    3    3    0  502 -0.23431703381E+03 -0.50714824540E+03  0.18403564062E+04  0.19232829043E+04  0.12699999809E+01 0. -1.
</event>
<event>
 5   0  0.4981384E-06  0.1800164E+04  0.7818609E-02  0.8706212E-01
       -1   -1    0    0    0  501  0.00000000000E+00  0.00000000000E+00  0.72176413296E+03  0.72176413297E+03  0.50400001928E-02 0.  1.
        1   -1    0    0  501    0  0.00000000000E+00  0.00000000000E+00 -0.11224548131E+04  0.11224548131E+04  0.50400001928E-02 0. -1.
    10030    2    1    2    0    0  0.00000000000E+00  0.00000000000E+00 -0.40069068015E+03  0.18442189461E+04  0.18001640203E+04 0.  0.
        5    1    3    3  502    0  0.47344607143E+03  0.24321977946E+03  0.54324015105E+03  0.76055177036E+03  0.46999998093E+01 0.  1.
       -5    1    3    3    0  502 -0.47344607143E+03 -0.24321977946E+03 -0.94393083120E+03  0.10836671757E+04  0.46999998093E+01 0. -1.
</event>
<event>
 5   0  0.1036381E-05  0.1797571E+04  0.7818609E-02  0.8707592E-01
       -2   -1    0    0    0  501  0.00000000000E+00  0.00000000000E+00  0.43612109210E+03  0.43612109210E+03  0.25500000920E-02 0. -1.
        2   -1    0    0  501    0  0.00000000000E+00  0.00000000000E+00 -0.18522737925E+04  0.18522737925E+04  0.25500000920E-02 0.  1.
    10030    2    1    2    0    0  0.00000000000E+00  0.00000000000E+00 -0.14161527004E+04  0.22883948846E+04  0.17975713274E+04 0.  0.
        4    1    3    3  502    0  0.33568411919E+03 -0.48998827773E+03  0.15068095097E+03  0.61276316964E+03  0.12699999809E+01 0. -1.
       -4    1    3    3    0  502 -0.33568411919E+03  0.48998827773E+03 -0.15668336513E+04  0.16756317149E+04  0.12699999809E+01 0.  1.
</event>
<event>
 5   0  0.9589963E-06  0.1799050E+04  0.7818609E-02  0.8706805E-01
       -2   -1    0    0    0  501  0.00000000000E+00  0.00000000000E+00  0.44529908459E+03  0.44529908460E+03  0.25500000920E-02 0.  1.
        2   -1    0    0  501    0  0.00000000000E+00  0.00000000000E+00 -0.18170833853E+04  0.18170833853E+04  0.25500000920E-02 0. -1.
    10030    2    1    2    0    0  0.00000000000E+00  0.00000000000E+00 -0.13717843007E+04  0.22623824699E+04  0.17990503808E+04 0.  0.
        2    1    3    3  502    0 -0.65685113697E+03  0.34540268669E+03 -0.13251260913E+04  0.15187875395E+04  0.25500000920E-02 0.  1.
       -2    1    3    3    0  502  0.65685113697E+03 -0.34540268669E+03 -0.46658209420E+02  0.74359493047E+03  0.25500000920E-02 0. -1.
</event>
<event>
 5   0  0.4981384E-06  0.1800325E+04  0.7818609E-02  0.8706127E-01
        1   -1    0    0  501    0  0.00000000000E+00  0.00000000000E+00  0.18381329916E+04  0.18381329916E+04  0.50400001928E-02 0.  1.
       -1   -1    0    0    0  501  0.00000000000E+00  0.00000000000E+00 -0.44082347646E+03  0.44082347649E+03  0.50400001928E-02 0. -1.
    10030    2    1    2    0    0  0.00000000000E+00  0.00000000000E+00  0.13973095152E+04  0.22789564681E+04  0.18003246103E+04 0.  0.
        5    1    3    3  502    0  0.67631316754E+03 -0.37865142642E+02  0.14490824274E+04  0.15995922109E+04  0.46999998093E+01 0.  1.
       -5    1    3    3    0  502 -0.67631316754E+03  0.37865142642E+02 -0.51772912242E+02  0.67936425727E+03  0.46999998093E+01 0. -1.
</event>
<event>
 5   0  0.4953155E-06  0.1799721E+04  0.7818609E-02  0.8706448E-01
       -1   -1    0    0    0  501  0.00000000000E+00  0.00000000000E+00  0.11985131641E+04  0.11985131641E+04  0.50400001928E-02 0. -1.
        1   -1    0    0  501    0  0.00000000000E+00  0.00000000000E+00 -0.67562786849E+03  0.67562786851E+03  0.50400001928E-02 0.  1.
    10030    2    1    2    0    0  0.00000000000E+00  0.00000000000E+00  0.52288529564E+03  0.18741410326E+04  0.17997209722E+04 0.  0.
        2    1    3    3  502    0 -0.39561895768E+03  0.51109089920E+03 -0.39056329093E+03  0.75516087766E+03  0.25500000920E-02 0.  1.
       -2    1    3    3    0  502  0.39561895768E+03 -0.51109089920E+03  0.91344858657E+03  0.11189801550E+04  0.25500000920E-02 0. -1.
</event>
<event>
 5   0  0.1000316E-05  0.1799936E+04  0.7818609E-02  0.8706334E-01
        2   -1    0    0  501    0  0.00000000000E+00  0.00000000000E+00  0.11685745408E+04  0.11685745408E+04  0.25500000920E-02 0.  1.
       -2   -1    0    0    0  501  0.00000000000E+00  0.00000000000E+00 -0.69310274066E+03  0.69310274067E+03  0.25500000920E-02 0. -1.
    10030    2    1    2    0    0  0.00000000000E+00  0.00000000000E+00  0.47547180015E+03  0.18616772815E+04  0.17999357954E+04 0.  0.
        5    1    3    3  502    0 -0.27334850697E+03  0.72727650274E+03 -0.23201217376E+03  0.81086512841E+03  0.46999998093E+01 0.  1.
       -5    1    3    3    0  502  0.27334850697E+03 -0.72727650274E+03  0.70748397390E+03  0.10508121531E+04  0.46999998093E+01 0. -1.
</event>
<event>
 5   0  0.4953155E-06  0.1800169E+04  0.7818609E-02  0.8706210E-01
       -1   -1    0    0    0  501  0.00000000000E+00  0.00000000000E+00  0.13068301963E+04  0.13068301963E+04  0.50400001928E-02 0.  1.
        1   -1    0    0  501    0  0.00000000000E+00  0.00000000000E+00 -0.61993689047E+03  0.61993689049E+03  0.50400001928E-02 0. -1.
    10030    2    1    2    0    0  0.00000000000E+00  0.00000000000E+00  0.68689330580E+03  0.19267670868E+04  0.18001691568E+04 0.  0.
        2    1    3    3  502    0  0.97341208399E+02  0.69916086099E+03 -0.25426193043E+03  0.75030017304E+03  0.25500000920E-02 0. -1.
       -2    1    3    3    0  502 -0.97341208399E+02 -0.69916086099E+03  0.94115523622E+03  0.11764669137E+04  0.25500000920E-02 0.  1.
</event>
<event>
 5   0  0.4987456E-06  0.1799529E+04  0.7818609E-02  0.8706550E-01
       -1   -1    0    0    0  501  0.00000000000E+00  0.00000000000E+00  0.83806669915E+03  0.83806669917E+03  0.50400001928E-02 0. -1.
        1   -1    0    0  501    0  0.00000000000E+00  0.00000000000E+00 -0.96600496704E+03  0.96600496705E+03  0.50400001928E-02 0.  1.
    10030    2    1    2    0    0  0.00000000000E+00  0.00000000000E+00 -0.12793826789E+03  0.18040716662E+04  0.17995294875E+04 0.  0.
        3    1    3    3  502    0 -0.40023029979E+03 -0.14379075137E+03 -0.85888698730E+03  0.95840854555E+03  0.10100000352E+00 0.  1.
       -3    1    3    3    0  502  0.40023029979E+03  0.14379075137E+03  0.73094871941E+03  0.84566312066E+03  0.10100000352E+00 0. -1.
</event>
<event>
 5   0  0.4994123E-06  0.1800356E+04  0.7818609E-02  0.8706110E-01
       -1   -1    0    0    0  501  0.00000000000E+00  0.00000000000E+00  0.11850559654E+04  0.11850559655E+04  0.50400001928E-02 0. -1.
        1   -1    0    0  501    0  0.00000000000E+00  0.00000000000E+00 -0.68378221743E+03  0.68378221745E+03  0.50400001928E-02 0.  1.
    10030    2    1    2    0    0  0.00000000000E+00  0.00000000000E+00  0.50127374801E+03  0.18688381829E+04  0.18003557380E+04 0.  0.
        1    1    3    3  502    0  0.88058129912E+03  0.18680373717E+03  0.25174288607E+03  0.93471575428E+03  0.50400001928E-02 0.  1.
       -1    1    3    3    0  502 -0.88058129912E+03 -0.18680373717E+03  0.24953086193E+03  0.93412242863E+03  0.50400001928E-02 0. -1.
</event>
<event>
 5   0  0.9999162E-06  0.1799715E+04  0.7818609E-02  0.8706451E-01
        2   -1    0    0  501    0  0.00000000000E+00  0.00000000000E+00  0.17245026222E+04  0.17245026223E+04  0.25500000920E-02 0.  1.
       -2   -1    0    0    0  501  0.00000000000E+00  0.00000000000E+00 -0.46955166912E+03  0.46955166913E+03  0.25500000920E-02 0. -1.
    10030    2    1    2    0    0  0.00000000000E+00  0.00000000000E+00  0.12549509531E+04  0.21940542914E+04  0.17997145159E+04 0.  0.
        1    1    3    3  502    0  0.45270305080E+03  0.44132221354E+03  0.14081242182E+04  0.15435411113E+04  0.50400001928E-02 0.  1.
       -1    1    3    3    0  502 -0.45270305080E+03 -0.44132221354E+03 -0.15317326502E+03  0.65051318012E+03  0.50400001928E-02 0. -1.
</event>
<event>
 5   0  0.1035018E-05  0.1800488E+04  0.7818609E-02  0.8706040E-01
        2   -1    0    0  501    0  0.00000000000E+00  0.00000000000E+00  0.16092680293E+04  0.16092680293E+04  0.25500000920E-02 0.  1.
       -2   -1    0    0    0  501  0.00000000000E+00  0.00000000000E+00 -0.50360728679E+03  0.50360728680E+03  0.25500000920E-02 0. -1.
    10030    2    1    2    0    0  0.00000000000E+00  0.00000000000E+00  0.11056607426E+04  0.21128753161E+04  0.18004878294E+04 0.  0.
        3    1    3    3  502    0 -0.78748744211E+03 -0.41288810035E+03  0.38759551076E+03  0.96997079598E+03  0.10100000352E+00 0. -1.
       -3    1    3    3    0  502  0.78748744211E+03  0.41288810035E+03  0.71806523180E+03  0.11429045202E+04  0.10100000352E+00 0.  1.
</event>
<event>
 5   0  0.1000316E-05  0.1800434E+04  0.7818609E-02  0.8706069E-01
        2   -1    0    0  501    0  0.00000000000E+00  0.00000000000E+00  0.14461082816E+04  0.14461082816E+04  0.25500000920E-02 0. -1.
       -2   -1    0    0    0  501  0.00000000000E+00  0.00000000000E+00 -0.56039409657E+03  0.56039409657E+03  0.25500000920E-02 0.  1.
    10030    2    1    2    0    0  0.00000000000E+00  0.00000000000E+00  0.88571418502E+03  0.20065023782E+04  0.18004338855E+04 0.  0.
        5    1    3    3  502    0 -0.46702491007E+03  0.62408188560E+03  0.94470590974E+03  0.12247782707E+04  0.46999998093E+01 0. -1.
       -5    1    3    3    0  502  0.46702491007E+03 -0.62408188560E+03 -0.58991724716E+02  0.78172410743E+03  0.46999998093E+01 0.  1.
</event>
<event>
 5   0  0.1036381E-05  0.1799968E+04  0.7818609E-02  0.8706316E-01
       -2   -1    0    0    0  501  0.00000000000E+00  0.00000000000E+00  0.71708671635E+03  0.71708671635E+03  0.25500000920E-02 0. -1.
        2   -1    0    0  501    0  0.00000000000E+00  0.00000000000E+00 -0.11295303287E+04  0.11295303287E+04  0.25500000920E-02 0.  1.
    10030    2    1    2    0    0  0.00000000000E+00  0.00000000000E+00 -0.41244361237E+03  0.18466170451E+04  0.17999679935E+04 0.  0.
        4    1    3    3  502    0  0.38824991707E+03 -0.79327896127E+03 -0.28705404887E+02  0.88366007133E+03  0.12699999809E+01 0. -1.
       -4    1    3    3    0  502 -0.38824991707E+03  0.79327896127E+03 -0.38373820748E+03  0.96295697374E+03  0.12699999809E+01 0.  1.
</event>
<event>
 5   0  0.9999162E-06  0.1799282E+04  0.7818609E-02  0.8706681E-01
       -2   -1    0    0    0  501  0.00000000000E+00  0.00000000000E+00  0.42687118733E+03  0.42687118733E+03  0.25500000920E-02 0.  1.
        2   -1    0    0  501    0  0.00000000000E+00  0.00000000000E+00 -0.18960143561E+04  0.18960143561E+04  0.25500000920E-02 0. -1.
    10030    2    1    2    0    0  0.00000000000E+00  0.00000000000E+00 -0.14691431687E+04  0.23228855434E+04  0.17992819672E+04 0.  0.
        1    1    3    3  502    0 -0.66711084076E+01 -0.70243248123E+03 -0.89636460929E+01  0.70252134583E+03  0.50400001928E-02 0.  1.
       -1    1    3    3    0  502  0.66711084076E+01  0.70243248123E+03 -0.14601795226E+04  0.16203641976E+04  0.50400001928E-02 0. -1.
</event>
<event>
 5   0  0.4953155E-06  0.1797471E+04  0.7818609E-02  0.8707645E-01
       -1   -1    0    0    0  501  0.00000000000E+00  0.00000000000E+00  0.12354212369E+04  0.12354212369E+04  0.50400001928E-02 0. -1.
        1   -1    0    0  501    0  0.00000000000E+00  0.00000000000E+00 -0.65380579412E+03  0.65380579414E+03  0.50400001928E-02 0.  1.
    10030    2    1    2    0    0  0.00000000000E+00  0.00000000000E+00  0.58161544276E+03  0.18892270310E+04  0.17974710711E+04 0.  0.
        2    1    3    3  502    0 -0.28164025115E+03 -0.84907624841E+02 -0.60177526212E+03  0.66982385889E+03  0.25500000920E-02 0.  1.
       -2    1    3    3    0  502  0.28164025115E+03  0.84907624841E+02  0.11833907049E+04  0.12194031721E+04  0.25500000920E-02 0. -1.
</event>
<event>
 5   0  0.4987456E-06  0.1800210E+04  0.7818609E-02  0.8706188E-01
       -1   -1    0    0    0  501  0.00000000000E+00  0.00000000000E+00  0.11831469301E+04  0.11831469301E+04  0.50400001928E-02 0. -1.
        1   -1    0    0  501    0  0.00000000000E+00  0.00000000000E+00 -0.68477453765E+03  0.68477453767E+03  0.50400001928E-02 0.  1.
    10030    2    1    2    0    0  0.00000000000E+00  0.00000000000E+00  0.49837239245E+03  0.18679214678E+04  0.18002098678E+04 0.  0.
        3    1    3    3  502    0  0.10438359076E+02  0.75571659269E+02 -0.68141390726E+03  0.68567117354E+03  0.10100000352E+00 0.  1.
       -3    1    3    3    0  502 -0.10438359076E+02 -0.75571659269E+02  0.11797862997E+04  0.11822502942E+04  0.10100000352E+00 0. -1.
</event>
<event>
 5   0  0.1035018E-05  0.1800059E+04  0.7818609E-02  0.8706268E-01
        2   -1    0    0  501    0  0.00000000000E+00  0.00000000000E+00  0.12258820326E+04  0.12258820326E+04  0.25500000920E-02 0.  1.
       -2   -1    0    0    0  501  0.00000000000E+00  0.00000000000E+00 -0.66079186893E+03  0.66079186894E+03  0.25500000920E-02 0. -1.
    10030    2    1    2    0    0  0.00000000000E+00  0.00000000000E+00  0.56509016368E+03  0.18866739015E+04  0.18000587540E+04 0.  0.
        3    1    3    3  502    0 -0.47088581427E+03 -0.52300118116E+03  0.87060294546E+03  0.11194700462E+04  0.10100000352E+00 0.  1.
       -3    1    3    3    0  502  0.47088581427E+03  0.52300118116E+03 -0.30551278178E+03  0.76720385531E+03  0.10100000352E+00 0. -1.
</event>
<event>
 5   0  0.1035018E-05  0.1801891E+04  0.7818609E-02  0.8705294E-01
        2   -1    0    0  501    0  0.00000000000E+00  0.00000000000E+00  0.95532336144E+03  0.95532336145E+03  0.25500000920E-02 0.  1.
       -2   -1    0    0    0  501  0.00000000000E+00  0.00000000000E+00 -0.84966310067E+03  0.84966310067E+03  0.25500000920E-02 0. -1.
    10030    2    1    2    0    0  0.00000000000E+00  0.00000000000E+00  0.10566026077E+03  0.18049864621E+04  0.18018912392E+04 0.  0.
        3    1    3    3  502    0 -0.45089449370E+03 -0.65387287453E+03  0.47882221782E+03  0.92742994720E+03  0.10100000352E+00 0.  1.
       -3    1    3    3    0  502  0.45089449370E+03  0.65387287453E+03 -0.37316195705E+03  0.87755651492E+03  0.10100000352E+00 0. -1.
</event>
<event>
 5   0  0.4953155E-06  0.1802988E+04  0.7818609E-02  0.8704712E-01
        1   -1    0    0  501    0  0.00000000000E+00  0.00000000000E+00  0.18700999656E+04  0.18700999656E+04  0.50400001928E-02 0. -1.
       -1   -1    0    0    0  501  0.00000000000E+00  0.00000000000E+00 -0.43457121672E+03  0.43457121675E+03  0.50400001928E-02 0.  1.
    10030    2    1    2    0    0  0.00000000000E+00  0.00000000000E+00  0.14355287489E+04  0.23046711824E+04  0.18029882057E+04 0.  0.
        2    1    3    3  502    0  0.78874218812E+03 -0.14818495518E+03  0.19287374259E+03  0.82539281609E+03  0.25500000920E-02 0.  1.
       -2    1    3    3    0  502 -0.78874218812E+03  0.14818495518E+03  0.12426550063E+04  0.14792783663E+04  0.25500000920E-02 0. -1.
</event>
<event>
 5   0  0.4994123E-06  0.1798680E+04  0.7818609E-02  0.8707002E-01
        1   -1    0    0  501    0  0.00000000000E+00  0.00000000000E+00  0.15839299011E+04  0.15839299011E+04  0.50400001928E-02 0.  1.
       -1   -1    0    0    0  501  0.00000000000E+00  0.00000000000E+00 -0.51063634107E+03  0.51063634110E+03  0.50400001928E-02 0. -1.
    10030    2    1    2    0    0  0.00000000000E+00  0.00000000000E+00  0.10732935600E+04  0.20945662422E+04  0.17986797038E+04 0.  0.
        1    1    3    3  502    0  0.63232892651E+03 -0.12540568552E+03 -0.19360439341E+03  0.67308923512E+03  0.50400001928E-02 0. -1.
       -1    1    3    3    0  502 -0.63232892651E+03  0.12540568552E+03  0.12668979535E+04  0.14214770071E+04  0.50400001928E-02 0.  1.
</event>
<event>
 5   0  0.1000316E-05  0.1798989E+04  0.7818609E-02  0.8706837E-01
       -2   -1    0    0    0  501  0.00000000000E+00  0.00000000000E+00  0.54575911789E+03  0.54575911789E+03  0.25500000920E-02 0. -1.
        2   -1    0    0  501    0  0.00000000000E+00  0.00000000000E+00 -0.14825047836E+04  0.14825047836E+04  0.25500000920E-02 0.  1.
    10030    2    1    2    0    0  0.00000000000E+00  0.00000000000E+00 -0.93674566576E+03  0.20282639015E+04  0.17989891639E+04 0.  0.
        5    1    3    3  502    0  0.27643169284E+03  0.79395926899E+03 -0.10779683208E+03  0.84760135006E+03  0.46999998093E+01 0. -1.
       -5    1    3    3    0  502 -0.27643169284E+03 -0.79395926899E+03 -0.82894883368E+03  0.11806625515E+04  0.46999998093E+01 0.  1.
</event>
<event>
 5   0  0.4983159E-06  0.1797200E+04  0.7818609E-02  0.8707790E-01
        1   -1    0    0  501    0  0.00000000000E+00  0.00000000000E+00  0.58777923416E+03  0.58777923418E+03  0.50400001928E-02 0. -1.
       -1   -1    0    0    0  501  0.00000000000E+00  0.00000000000E+00 -0.13737842877E+04  0.13737842877E+04  0.50400001928E-02 0.  1.
    10030    2    1    2    0    0  0.00000000000E+00  0.00000000000E+00 -0.78600505352E+03  0.19615635219E+04  0.17971999071E+04 0.  0.
        4    1    3    3  502    0 -0.68757807005E+03 -0.21540722349E+02  0.23801790893E+03  0.72792976516E+03  0.12699999809E+01 0. -1.
       -4    1    3    3    0  502  0.68757807005E+03  0.21540722349E+02 -0.10240229625E+04  0.12336337567E+04  0.12699999809E+01 0.  1.
</event>
<event>
 5   0  0.4994123E-06  0.1799383E+04  0.7818609E-02  0.8706628E-01
        1   -1    0    0  501    0  0.00000000000E+00  0.00000000000E+00  0.10132008836E+04  0.10132008836E+04  0.50400001928E-02 0. -1.
       -1   -1    0    0    0  501  0.00000000000E+00  0.00000000000E+00 -0.79889864637E+03  0.79889864638E+03  0.50400001928E-02 0.  1.
    10030    2    1    2    0    0  0.00000000000E+00  0.00000000000E+00  0.21430223722E+03  0.18120995300E+04  0.17993830214E+04 0.  0.
        1    1    3    3  502    0 -0.11084211043E+03  0.55388864218E+03 -0.59805926610E+03  0.82265028243E+03  0.50400001928E-02 0.  1.
       -1    1    3    3    0  502  0.11084211043E+03 -0.55388864218E+03  0.81236150332E+03  0.98944924755E+03  0.50400001928E-02 0. -1.
</event>
<event>
 5   0  0.1036381E-05  0.1800373E+04  0.7818609E-02  0.8706101E-01
        2   -1    0    0  501    0  0.00000000000E+00  0.00000000000E+00  0.10530394492E+04  0.10530394492E+04  0.25500000920E-02 0. -1.
       -2   -1    0    0    0  501  0.00000000000E+00  0.00000000000E+00 -0.76952104442E+03  0.76952104442E+03  0.25500000920E-02 0.  1.
    10030    2    1    2    0    0  0.00000000000E+00  0.00000000000E+00  0.28351840481E+03  0.18225604937E+04  0.18003733133E+04 0.  0.
        4    1    3    3  502    0  0.37441772687E+02  0.42083160672E+03  0.94643443231E+03  0.10364559205E+04  0.12699999809E+01 0. -1.
       -4    1    3    3    0  502 -0.37441772687E+02 -0.42083160672E+03 -0.66291602750E+03  0.78610457317E+03  0.12699999809E+01 0.  1.
</event>
<event>
 5   0  0.4987456E-06  0.1797690E+04  0.7818609E-02  0.8707529E-01
       -1   -1    0    0    0  501  0.00000000000E+00  0.00000000000E+00  0.46948599565E+03  0.46948599568E+03  0.50400001928E-02 0. -1.
        1   -1    0    0  501    0  0.00000000000E+00  0.00000000000E+00 -0.17208650140E+04  0.17208650140E+04  0.50400001928E-02 0.  1.
    10030    2    1    2    0    0  0.00000000000E+00  0.00000000000E+00 -0.12513790184E+04  0.21903510097E+04  0.17976896557E+04 0.  0.
        3    1    3    3  502    0  0.63902516150E+03  0.63031601385E+03 -0.68374822142E+03  0.11283452818E+04  0.10100000352E+00 0. -1.
       -3    1    3    3    0  502 -0.63902516150E+03 -0.63031601385E+03 -0.56763079693E+03  0.10620057279E+04  0.10100000352E+00 0.  1.
</event>
<event>
 5   0  0.4994123E-06  0.1800108E+04  0.7818609E-02  0.8706242E-01
        1   -1    0    0  501    0  0.00000000000E+00  0.00000000000E+00  0.55110039471E+03  0.55110039473E+03  0.50400001928E-02 0. -1.
       -1   -1    0    0    0  501  0.00000000000E+00  0.00000000000E+00 -0.14699624024E+04  0.14699624024E+04  0.50400001928E-02 0.  1.
    10030    2    1    2    0    0  0.00000000000E+00  0.00000000000E+00 -0.91886200769E+03  0.20210627971E+04  0.18001076192E+04 0.  0.
        1    1    3    3  502    0  0.22680713515E+03  0.44710119065E+03 -0.12986830373E+04  0.13920914419E+04  0.50400001928E-02 0.  1.
       -1    1    3    3    0  502 -0.22680713515E+03 -0.44710119065E+03  0.37982102956E+03  0.62897135528E+03  0.50400001928E-02 0. -1.
</event>
<event>
 5   0  0.4994123E-06  0.1800635E+04  0.7818609E-02  0.8705962E-01
       -1   -1    0    0    0  501  0.00000000000E+00  0.00000000000E+00  0.63669501568E+03  0.63669501570E+03  0.50400001928E-02 0. -1.
        1   -1    0    0  501    0  0.00000000000E+00  0.00000000000E+00 -0.12730929597E+04  0.12730929597E+04  0.50400001928E-02 0.  1.
    10030    2    1    2    0    0  0.00000000000E+00  0.00000000000E+00 -0.63639794405E+03  0.19097879754E+04  0.18006353790E+04 0.  0.
        1    1    3    3  502    0 -0.46272553650E+03  0.25113729003E+02 -0.11368884669E+04  0.12277055867E+04  0.50400001928E-02 0.  1.
       -1    1    3    3    0  502  0.46272553650E+03 -0.25113729003E+02  0.50049052284E+03  0.68208238871E+03  0.50400001928E-02 0. -1.
</event>
<event>
 5   0  0.4981384E-06  0.1800689E+04  0.7818609E-02  0.8705933E-01
        1   -1    0    0  501    0  0.00000000000E+00  0.00000000000E+00  0.88883380415E+03  0.88883380417E+03  0.50400001928E-02 0. -1.
       -1   -1    0    0    0  501  0.00000000000E+00  0.00000000000E+00 -0.91200442972E+03  0.91200442974E+03  0.50400001928E-02 0.  1.
    10030    2    1    2    0    0  0.00000000000E+00  0.00000000000E+00 -0.23170625569E+02  0.18008382339E+04  0.18006891644E+04 0.  0.
        5    1    3    3  502    0 -0.14966008099E+03  0.52086724597E+03  0.70743001033E+03  0.89116785023E+03  0.46999998093E+01 0. -1.
       -5    1    3    3    0  502  0.14966008099E+03 -0.52086724597E+03 -0.73060063590E+03  0.90967038368E+03  0.46999998093E+01 0.  1.
</event>
<event>
 5   0  0.4981384E-06  0.1800306E+04  0.7818609E-02  0.8706137E-01
       -1   -1    0    0    0  501  0.00000000000E+00  0.00000000000E+00  0.40665780831E+03  0.40665780834E+03  0.50400001928E-02 0. -1.
        1   -1    0    0  501    0  0.00000000000E+00  0.00000000000E+00 -0.19925237562E+04  0.19925237562E+04  0.50400001928E-02 0.  1.
    10030    2    1    2    0    0  0.00000000000E+00  0.00000000000E+00 -0.15858659479E+04  0.23991815645E+04  0.18003059115E+04 0.  0.
        5    1    3    3  502    0  0.39883220023E+02  0.48158498558E+03 -0.18049930054E+04  0.18685653879E+04  0.46999998093E+01 0.  1.
       -5    1    3    3    0  502 -0.39883220023E+02 -0.48158498558E+03  0.21912705747E+03  0.53061617662E+03  0.46999998093E+01 0. -1.
</event>
<event>
 5   0  0.4953155E-06  0.1801364E+04  0.7818609E-02  0.8705574E-01
        1   -1    0    0  501    0  0.00000000000E+00  0.00000000000E+00  0.91949389456E+03  0.91949389458E+03  0.50400001928E-02 0.  1.
       -1   -1    0    0    0  501  0.00000000000E+00  0.00000000000E+00 -0.88225505415E+03  0.88225505416E+03  0.50400001928E-02 0. -1.
    10030    2    1    2    0    0  0.00000000000E+00  0.00000000000E+00  0.37238840416E+02  0.18017489487E+04  0.18013640784E+04 0.  0.
        2    1    3    3  502    0 -0.30937287838E+01 -0.17488038301E+03 -0.86510509856E+03  0.88260951223E+03  0.25500000920E-02 0. -1.
       -2    1    3    3    0  502  0.30937287838E+01  0.17488038301E+03  0.90234393898E+03  0.91913943651E+03  0.25500000920E-02 0.  1.
</event>
<event>
 5   0  0.4953155E-06  0.1792401E+04  0.7818609E-02  0.8710351E-01
        1   -1    0    0  501    0  0.00000000000E+00  0.00000000000E+00  0.67109632253E+03  0.67109632255E+03  0.50400001928E-02 0.  1.
       -1   -1    0    0    0  501  0.00000000000E+00  0.00000000000E+00 -0.11968111159E+04  0.11968111159E+04  0.50400001928E-02 0. -1.
    10030    2    1    2    0    0  0.00000000000E+00  0.00000000000E+00 -0.52571479338E+03  0.18679074385E+04  0.17924012259E+04 0.  0.
        2    1    3    3  502    0 -0.50269846624E+03 -0.38185240047E+03 -0.92578251031E+03  0.11205312401E+04  0.25500000920E-02 0. -1.
       -2    1    3    3    0  502  0.50269846624E+03  0.38185240047E+03  0.40006771693E+03  0.74737619834E+03  0.25500000920E-02 0.  1.
</event>
<event>
 5   0  0.4953155E-06  0.1799998E+04  0.7818609E-02  0.8706300E-01
        1   -1    0    0  501    0  0.00000000000E+00  0.00000000000E+00  0.15972342152E+04  0.15972342152E+04  0.50400001928E-02 0. -1.
       -1   -1    0    0    0  501  0.00000000000E+00  0.00000000000E+00 -0.50712566950E+03  0.50712566953E+03  0.50400001928E-02 0.  1.
    10030    2    1    2    0    0  0.00000000000E+00  0.00000000000E+00  0.10901085457E+04  0.21043598847E+04  0.17999983009E+04 0.  0.
        2    1    3    3  502    0  0.39781326922E+03 -0.50624876152E+03 -0.19013066389E+03  0.67133663319E+03  0.25500000920E-02 0.  1.
       -2    1    3    3    0  502 -0.39781326922E+03  0.50624876152E+03  0.12802392096E+04  0.14330232516E+04  0.25500000920E-02 0. -1.
</event>
<event>
 5   0  0.1000316E-05  0.1805643E+04  0.7818609E-02  0.8703304E-01
       -2   -1    0    0    0  501  0.00000000000E+00  0.00000000000E+00  0.52773468154E+03  0.52773468155E+03  0.25500000920E-02 0.  1.
        2   -1    0    0  501    0  0.00000000000E+00  0.00000000000E+00 -0.15445016200E+04  0.15445016200E+04  0.25500000920E-02 0. -1.
    10030    2    1    2    0    0  0.00000000000E+00  0.00000000000E+00 -0.10167669384E+04  0.20722363015E+04  0.18056434538E+04 0.  0.
        5    1    3    3  502    0 -0.28432672774E+03 -0.49955860165E+03  0.29058176684E+03  0.64409652833E+03  0.46999998093E+01 0.  1.
       -5    1    3    3    0  502  0.28432672774E+03  0.49955860165E+03 -0.13073487053E+04  0.14281397732E+04  0.46999998093E+01 0. -1.
</event>
<event>
 5   0  0.4994123E-06  0.1800634E+04  0.7818609E-02  0.8705962E-01
       -1   -1    0    0    0  501  0.00000000000E+00  0.00000000000E+00  0.80501570149E+03  0.80501570150E+03  0.50400001928E-02 0.  1.
        1   -1    0    0  501    0  0.00000000000E+00  0.00000000000E+00 -0.10069007893E+04  0.10069007893E+04  0.50400001928E-02 0. -1.
    10030    2    1    2    0    0  0.00000000000E+00  0.00000000000E+00 -0.20188508781E+03  0.18119164908E+04  0.18006342719E+04 0.  0.
        1    1    3    3  502    0  0.29562153948E+03  0.89974718928E+02  0.74998192866E+03  0.81114760555E+03  0.50400001928E-02 0.  1.
       -1    1    3    3    0  502 -0.29562153948E+03 -0.89974718928E+02 -0.95186701647E+03  0.10007688853E+04  0.50400001928E-02 0. -1.
</event>
<event>
 5   0  0.3626125E-06  0.1800251E+04  0.7818609E-02  0.8706166E-01
        3   -1    0    0  501    0  0.00000000000E+00  0.00000000000E+00  0.20864533995E+04  0.20864534019E+04  0.10100000352E+00 0. -1.
       -3   -1    0    0    0  501  0.00000000000E+00  0.00000000000E+00 -0.38832690929E+03  0.38832692242E+03  0.10100000352E+00 0.  1.
    10030    2    1    2    0    0  0.00000000000E+00  0.00000000000E+00  0.16981264902E+04  0.24747803243E+04  0.18002511150E+04 0.  0.
        1    1    3    3  502    0  0.43099852010E+03 -0.47140792404E+03 -0.22796568699E+02  0.63914383260E+03  0.50400001928E-02 0. -1.
       -1    1    3    3    0  502 -0.43099852010E+03  0.47140792404E+03  0.17209230589E+04  0.18356364917E+04  0.50400001928E-02 0.  1.
</event>
<event>
 5   0  0.1000316E-05  0.1799353E+04  0.7818609E-02  0.8706644E-01
        2   -1    0    0  501    0  0.00000000000E+00  0.00000000000E+00  0.92965429101E+03  0.92965429102E+03  0.25500000920E-02 0.  1.
       -2   -1    0    0    0  501  0.00000000000E+00  0.00000000000E+00 -0.87066544372E+03  0.87066544373E+03  0.25500000920E-02 0. -1.
    10030    2    1    2    0    0  0.00000000000E+00  0.00000000000E+00  0.58988847288E+02  0.18003197347E+04  0.17993530680E+04 0.  0.
        5    1    3    3  502    0  0.39252268846E+03 -0.43798155638E+03 -0.65167516661E+03  0.87784082695E+03  0.46999998093E+01 0. -1.
       -5    1    3    3    0  502 -0.39252268846E+03  0.43798155638E+03  0.71066401390E+03  0.92247890780E+03  0.46999998093E+01 0.  1.
</event>
<event>
 5   0  0.4983159E-06  0.1800930E+04  0.7818609E-02  0.8705805E-01
        1   -1    0    0  501    0  0.00000000000E+00  0.00000000000E+00  0.20555158648E+04  0.20555158648E+04  0.50400001928E-02 0. -1.
       -1   -1    0    0    0  501  0.00000000000E+00  0.00000000000E+00 -0.39446902712E+03  0.39446902715E+03  0.50400001928E-02 0.  1.
    10030    2    1    2    0    0  0.00000000000E+00  0.00000000000E+00  0.16610468376E+04  0.24499848919E+04  0.18009301413E+04 0.  0.
        4    1    3    3  502    0 -0.29610773927E+03  0.26970787734E+03  0.19276616422E+04  0.19688329416E+04  0.12699999809E+01 0. -1.
       -4    1    3    3    0  502  0.29610773927E+03 -0.26970787734E+03 -0.26661480456E+03  0.48115195028E+03  0.12699999809E+01 0.  1.
</event>
<event>
 5   0  0.1036381E-05  0.1799974E+04  0.7818609E-02  0.8706313E-01
       -2   -1    0    0    0  501  0.00000000000E+00  0.00000000000E+00  0.68647068379E+03  0.68647068380E+03  0.25500000920E-02 0.  1.
        2   -1    0    0  501    0  0.00000000000E+00  0.00000000000E+00 -0.11799148857E+04  0.11799148857E+04  0.25500000920E-02 0. -1.
    10030    2    1    2    0    0  0.00000000000E+00  0.00000000000E+00 -0.49344420192E+03  0.18663855695E+04  0.17999744203E+04 0.  0.
        4    1    3    3  502    0  0.46332157175E+02  0.55984344980E+03 -0.97580351331E+03  0.11259509166E+04  0.12699999809E+01 0. -1.
       -4    1    3    3    0  502 -0.46332157175E+02 -0.55984344980E+03  0.48235931139E+03  0.74043465293E+03  0.12699999809E+01 0.  1.
</event>
<event>
 5   0  0.9999162E-06  0.1799318E+04  0.7818609E-02  0.8706662E-01
        2   -1    0    0  501    0  0.00000000000E+00  0.00000000000E+00  0.72640049512E+03  0.72640049513E+03  0.25500000920E-02 0.  1.
       -2   -1    0    0    0  501  0.00000000000E+00  0.00000000000E+00 -0.11142427569E+04  0.11142427569E+04  0.25500000920E-02 0. -1.
    10030    2    1    2    0    0  0.00000000000E+00  0.00000000000E+00 -0.38784226176E+03  0.18406432520E+04  0.17993181934E+04 0.  0.
        1    1    3    3  502    0 -0.25344906351E+03  0.86283306283E+03 -0.16745872750E+03  0.91474572836E+03  0.50400001928E-02 0. -1.
       -1    1    3    3    0  502  0.25344906351E+03 -0.86283306283E+03 -0.22038353426E+03  0.92589752365E+03  0.50400001928E-02 0.  1.
</event>
<event>
 5   0  0.4987456E-06  0.1799088E+04  0.7818609E-02  0.8706784E-01
        1   -1    0    0  501    0  0.00000000000E+00  0.00000000000E+00  0.74021532958E+03  0.74021532960E+03  0.50400001928E-02 0. -1.
       -1   -1    0    0    0  501  0.00000000000E+00  0.00000000000E+00 -0.10931678969E+04  0.10931678969E+04  0.50400001928E-02 0.  1.
    10030    2    1    2    0    0  0.00000000000E+00  0.00000000000E+00 -0.35295256735E+03  0.18333832265E+04  0.17990882526E+04 0.  0.
        3    1    3    3  502    0 -0.45184797239E+03 -0.41724226413E+03  0.49248361277E+03  0.78790723831E+03  0.10100000352E+00 0. -1.
       -3    1    3    3    0  502  0.45184797239E+03  0.41724226413E+03 -0.84543618011E+03  0.10454759882E+04  0.10100000352E+00 0.  1.
</event>
<event>
 5   0  0.1035018E-05  0.1800785E+04  0.7818609E-02  0.8705882E-01
       -2   -1    0    0    0  501  0.00000000000E+00  0.00000000000E+00  0.53595470308E+03  0.53595470308E+03  0.25500000920E-02 0. -1.
        2   -1    0    0  501    0  0.00000000000E+00  0.00000000000E+00 -0.15126408573E+04  0.15126408573E+04  0.25500000920E-02 0.  1.
    10030    2    1    2    0    0  0.00000000000E+00  0.00000000000E+00 -0.97668615421E+03  0.20485955604E+04  0.18007853637E+04 0.  0.
        3    1    3    3  502    0  0.13919816102E+03  0.30004580969E+03 -0.14410234838E+04  0.14784966375E+04  0.10100000352E+00 0.  1.
       -3    1    3    3    0  502 -0.13919816102E+03 -0.30004580969E+03  0.46433732964E+03  0.57009892286E+03  0.10100000352E+00 0. -1.
</event>
<event>
 5   0  0.4983159E-06  0.1796175E+04  0.7818609E-02  0.8708336E-01
       -1   -1    0    0    0  501  0.00000000000E+00  0.00000000000E+00  0.11540317690E+04  0.11540317690E+04  0.50400001928E-02 0. -1.
        1   -1    0    0  501    0  0.00000000000E+00  0.00000000000E+00 -0.69890723773E+03  0.69890723775E+03  0.50400001928E-02 0.  1.
    10030    2    1    2    0    0  0.00000000000E+00  0.00000000000E+00  0.45512453124E+03  0.18529390067E+04  0.17961749981E+04 0.  0.
        4    1    3    3  502    0  0.88899802604E+03  0.69720887411E+02  0.11750881756E+03  0.89943783973E+03  0.12699999809E+01 0.  1.
       -4    1    3    3    0  502 -0.88899802604E+03 -0.69720887411E+02  0.33761571369E+03  0.95350116700E+03  0.12699999809E+01 0. -1.
</event>
<event>
 5   0  0.9589963E-06  0.1800008E+04  0.7818609E-02  0.8706295E-01
        2   -1    0    0  501    0  0.00000000000E+00  0.00000000000E+00  0.15066748893E+04  0.15066748893E+04  0.25500000920E-02 0.  1.
       -2   -1    0    0    0  501  0.00000000000E+00  0.00000000000E+00 -0.53761245578E+03  0.53761245578E+03  0.25500000920E-02 0. -1.
    10030    2    1    2    0    0  0.00000000000E+00  0.00000000000E+00  0.96906243349E+03  0.20442873451E+04  0.18000079859E+04 0.  0.
        2    1    3    3  502    0 -0.60062104856E+03 -0.65743303115E+03  0.63279839629E+03  0.10924274094E+04  0.25500000920E-02 0. -1.
       -2    1    3    3    0  502  0.60062104856E+03  0.65743303115E+03  0.33626403720E+03  0.95185993567E+03  0.25500000920E-02 0.  1.
</event>
<event>
 5   0  0.4983159E-06  0.1798352E+04  0.7818609E-02  0.8707176E-01
        1   -1    0    0  501    0  0.00000000000E+00  0.00000000000E+00  0.11529659270E+04  0.11529659270E+04  0.50400001928E-02 0.  1.
       -1   -1    0    0    0  501  0.00000000000E+00  0.00000000000E+00 -0.70125040967E+03  0.70125040969E+03  0.50400001928E-02 0. -1.
    10030    2    1    2    0    0  0.00000000000E+00  0.00000000000E+00  0.45171551735E+03  0.18542163367E+04  0.17983523889E+04 0.  0.
        4    1    3    3  502    0 -0.30776367432E+03  0.83958491788E+03  0.32310027669E+03  0.95079793608E+03  0.12699999809E+01 0. -1.
       -4    1    3    3    0  502  0.30776367432E+03 -0.83958491788E+03  0.12861524066E+03  0.90341840063E+03  0.12699999809E+01 0.  1.
</event>
<event>
 5   0  0.4983159E-06  0.1808854E+04  0.7818609E-02  0.8701605E-01
       -1   -1    0    0    0  501  0.00000000000E+00  0.00000000000E+00  0.50078295301E+03  0.50078295304E+03  0.50400001928E-02 0. -1.
        1   -1    0    0  501    0  0.00000000000E+00  0.00000000000E+00 -0.16334180872E+04  0.16334180872E+04  0.50400001928E-02 0.  1.
    10030    2    1    2    0    0  0.00000000000E+00  0.00000000000E+00 -0.11326351342E+04  0.21342010402E+04  0.18088537069E+04 0.  0.
        4    1    3    3  502    0  0.50321550696E+03  0.42380073562E+03 -0.12985496554E+04  0.14557011130E+04  0.12699999809E+01 0.  1.
       -4    1    3    3    0  502 -0.50321550696E+03 -0.42380073562E+03  0.16591452124E+03  0.67849992721E+03  0.12699999809E+01 0. -1.
</event>
<event>
 5   0  0.4953155E-06  0.1800577E+04  0.7818609E-02  0.8705993E-01
        1   -1    0    0  501    0  0.00000000000E+00  0.00000000000E+00  0.22616504214E+04  0.22616504215E+04  0.50400001928E-02 0.  1.
       -1   -1    0    0    0  501  0.00000000000E+00  0.00000000000E+00 -0.35837531342E+03  0.35837531345E+03  0.50400001928E-02 0. -1.
    10030    2    1    2    0    0  0.00000000000E+00  0.00000000000E+00  0.19032751080E+04  0.26200257349E+04  0.18005773282E+04 0.  0.
        2    1    3    3  502    0  0.44461838364E+02 -0.26876544932E+03  0.22002381173E+04  0.22170384513E+04  0.25500000920E-02 0.  1.
       -2    1    3    3    0  502 -0.44461838364E+02  0.26876544932E+03 -0.29696300929E+03  0.40298728356E+03  0.25500000920E-02 0. -1.
</event>
<event>
 5   0  0.9589963E-06  0.1798265E+04  0.7818609E-02  0.8707222E-01
       -2   -1    0    0    0  501  0.00000000000E+00  0.00000000000E+00  0.57560186644E+03  0.57560186644E+03  0.25500000920E-02 0.  1.
        2   -1    0    0  501    0  0.00000000000E+00  0.00000000000E+00 -0.14045119262E+04  0.14045119262E+04  0.25500000920E-02 0. -1.
    10030    2    1    2    0    0  0.00000000000E+00  0.00000000000E+00 -0.82891005974E+03  0.19801137926E+04  0.17982654822E+04 0.  0.
        2    1    3    3  502    0  0.84366696908E+03 -0.29754315841E+03 -0.31514729099E+03  0.94848495026E+03  0.25500000920E-02 0.  1.
       -2    1    3    3    0  502 -0.84366696908E+03  0.29754315841E+03 -0.51376276875E+03  0.10316288424E+04  0.25500000920E-02 0. -1.
</event>
<event>
 5   0  0.9999162E-06  0.1799967E+04  0.7818609E-02  0.8706317E-01
        2   -1    0    0  501    0  0.00000000000E+00  0.00000000000E+00  0.11065557035E+04  0.11065557035E+04  0.25500000920E-02 0.  1.
       -2   -1    0    0    0  501  0.00000000000E+00  0.00000000000E+00 -0.73197461839E+03  0.73197461839E+03  0.25500000920E-02 0. -1.
    10030    2    1    2    0    0  0.00000000000E+00  0.00000000000E+00  0.37458108510E+03  0.18385303219E+04  0.17999674317E+04 0.  0.
        1    1    3    3  502    0 -0.51347895416E+03 -0.48102811342E+03  0.76049248658E+03  0.10360489875E+04  0.50400001928E-02 0.  1.
       -1    1    3    3    0  502  0.51347895416E+03  0.48102811342E+03 -0.38591140149E+03  0.80248133441E+03  0.50400001928E-02 0. -1.
</event>
<event>
 5   0  0.3626125E-06  0.1800156E+04  0.7818609E-02  0.8706217E-01
        4   -1    0    0  501    0  0.00000000000E+00  0.00000000000E+00  0.16142684417E+04  0.16142689412E+04  0.12699999809E+01 0. -1.
       -4   -1    0    0    0  501  0.00000000000E+00  0.00000000000E+00 -0.50186066604E+03  0.50186227296E+03  0.12699999809E+01 0.  1.
    10030    2    1    2    0    0  0.00000000000E+00  0.00000000000E+00  0.11124077756E+04  0.21161312142E+04  0.18001556201E+04 0.  0.
        4    1    3    3  502    0 -0.85712356724E+02 -0.44564980957E+02 -0.49574865844E+03  0.50507523288E+03  0.12699999809E+01 0.  1.
       -4    1    3    3    0  502  0.85712356724E+02  0.44564980957E+02  0.16081564341E+04  0.16110559813E+04  0.12699999809E+01 0. -1.
</event>
<event>
 5   0  0.9999162E-06  0.1800086E+04  0.7818609E-02  0.8706254E-01
       -2   -1    0    0    0  501  0.00000000000E+00  0.00000000000E+00  0.47084232328E+03  0.47084232329E+03  0.25500000920E-02 0. -1.
        2   -1    0    0  501    0  0.00000000000E+00  0.00000000000E+00 -0.17204853860E+04  0.17204853860E+04  0.25500000920E-02 0.  1.
    10030    2    1    2    0    0  0.00000000000E+00  0.00000000000E+00 -0.12496430627E+04  0.21913277093E+04  0.18000859272E+04 0.  0.
        1    1    3    3  502    0 -0.67038233630E+03 -0.41417748312E+03 -0.11542227939E+04  0.13975642105E+04  0.50400001928E-02 0.  1.
       -1    1    3    3    0  502  0.67038233630E+03  0.41417748312E+03 -0.95420268793E+02  0.79376349882E+03  0.50400001928E-02 0. -1.
</event>
<event>
 5   0  0.4994123E-06  0.1799270E+04  0.7818609E-02  0.8706688E-01
       -1   -1    0    0    0  501  0.00000000000E+00  0.00000000000E+00  0.64443975632E+03  0.64443975634E+03  0.50400001928E-02 0.  1.
        1   -1    0    0  501    0  0.00000000000E+00  0.00000000000E+00 -0.12558860339E+04  0.12558860339E+04  0.50400001928E-02 0. -1.
    10030    2    1    2    0    0  0.00000000000E+00  0.00000000000E+00 -0.61144627755E+03  0.19003257902E+04  0.17992697293E+04 0.  0.
        1    1    3    3  502    0  0.42297769470E+03  0.77049532399E+03 -0.50824733699E+03  0.10153268095E+04  0.50400001928E-02 0.  1.
       -1    1    3    3    0  502 -0.42297769470E+03 -0.77049532399E+03 -0.10319894056E+03  0.88499898071E+03  0.50400001928E-02 0. -1.
</event>
<event>
 5   0  0.1000316E-05  0.1799612E+04  0.7818609E-02  0.8706506E-01
       -2   -1    0    0    0  501  0.00000000000E+00  0.00000000000E+00  0.49823312548E+03  0.49823312548E+03  0.25500000920E-02 0.  1.
        2   -1    0    0  501    0  0.00000000000E+00  0.00000000000E+00 -0.16250450217E+04  0.16250450217E+04  0.25500000920E-02 0. -1.
    10030    2    1    2    0    0  0.00000000000E+00  0.00000000000E+00 -0.11268118962E+04  0.21232781472E+04  0.17996124696E+04 0.  0.
        5    1    3    3  502    0 -0.19774512124E+03  0.10987528159E+03  0.46411897482E+03  0.51633731539E+03  0.46999998093E+01 0.  1.
       -5    1    3    3    0  502  0.19774512124E+03 -0.10987528159E+03 -0.15909308710E+04  0.16069408318E+04  0.46999998093E+01 0. -1.
</event>
<event>
 5   0  0.3626125E-06  0.1799979E+04  0.7818609E-02  0.8706311E-01
       -3   -1    0    0    0  501  0.00000000000E+00  0.00000000000E+00  0.87278618461E+03  0.87278619045E+03  0.10100000352E+00 0. -1.
        3   -1    0    0  501    0  0.00000000000E+00  0.00000000000E+00 -0.92804020572E+03  0.92804021122E+03  0.10100000352E+00 0.  1.
    10030    2    1    2    0    0  0.00000000000E+00  0.00000000000E+00 -0.55254021117E+02  0.18008264017E+04  0.17999785338E+04 0.  0.
        5    1    3    3  502    0 -0.68730097414E+03  0.41341605762E+03 -0.43606326368E+03  0.91294508360E+03  0.46999998093E+01 0.  1.
       -5    1    3    3    0  502  0.68730097414E+03 -0.41341605762E+03  0.38080924256E+03  0.88788131806E+03  0.46999998093E+01 0. -1.
</event>
<event>
 5   0  0.1036381E-05  0.1799323E+04  0.7818609E-02  0.8706660E-01
        2   -1    0    0  501    0  0.00000000000E+00  0.00000000000E+00  0.45971675699E+03  0.45971675700E+03  0.25500000920E-02 0. -1.
       -2   -1    0    0    0  501  0.00000000000E+00  0.00000000000E+00 -0.17606291012E+04  0.17606291012E+04  0.25500000920E-02 0.  1.
    10030    2    1    2    0    0  0.00000000000E+00  0.00000000000E+00 -0.13009123442E+04  0.22203458582E+04  0.17993228734E+04 0.  0.
        4    1    3    3  502    0  0.29187843525E+03 -0.61140593593E+03  0.79976966673E+02  0.68220830217E+03  0.12699999809E+01 0. -1.
       -4    1    3    3    0  502 -0.29187843525E+03  0.61140593593E+03 -0.13808893109E+04  0.15381375560E+04  0.12699999809E+01 0.  1.
</event>
<event>
 5   0  0.1036381E-05  0.1800294E+04  0.7818609E-02  0.8706143E-01
        2   -1    0    0  501    0  0.00000000000E+00  0.00000000000E+00  0.72778644968E+03  0.72778644969E+03  0.25500000920E-02 0. -1.
       -2   -1    0    0    0  501  0.00000000000E+00  0.00000000000E+00 -0.11133276688E+04  0.11133276688E+04  0.25500000920E-02 0.  1.
    10030    2    1    2    0    0  0.00000000000E+00  0.00000000000E+00 -0.38554121911E+03  0.18411141185E+04  0.18002941886E+04 0.  0.
        4    1    3    3  502    0  0.79584119533E+03 -0.13937214265E+03 -0.59860005634E+03  0.10055403735E+04  0.12699999809E+01 0.  1.
       -4    1    3    3    0  502 -0.79584119533E+03  0.13937214265E+03  0.21305883724E+03  0.83557374501E+03  0.12699999809E+01 0. -1.
</event>
<event>
 5   0  0.4953155E-06  0.1799843E+04  0.7818609E-02  0.8706383E-01
        1   -1    0    0  501    0  0.00000000000E+00  0.00000000000E+00  0.97324275754E+03  0.97324275756E+03  0.50400001928E-02 0. -1.
       -1   -1    0    0    0  501  0.00000000000E+00  0.00000000000E+00 -0.83212430298E+03  0.83212430300E+03  0.50400001928E-02 0.  1.
    10030    2    1    2    0    0  0.00000000000E+00  0.00000000000E+00  0.14111845456E+03  0.18053670606E+04  0.17998432724E+04 0.  0.
        2    1    3    3  502    0  0.86392830938E+03 -0.24151194222E+03  0.14260451206E+03  0.90831502731E+03  0.25500000920E-02 0. -1.
       -2    1    3    3    0  502 -0.86392830938E+03  0.24151194222E+03 -0.14860574995E+01  0.89705203324E+03  0.25500000920E-02 0.  1.
</event>
<event>
 5   0  0.4987456E-06  0.1802399E+04  0.7818609E-02  0.8705025E-01
        1   -1    0    0  501    0  0.00000000000E+00  0.00000000000E+00  0.13305122183E+04  0.13305122183E+04  0.50400001928E-02 0.  1.
       -1   -1    0    0    0  501  0.00000000000E+00  0.00000000000E+00 -0.61041175175E+03  0.61041175178E+03  0.50400001928E-02 0. -1.
    10030    2    1    2    0    0  0.00000000000E+00  0.00000000000E+00  0.72010046654E+03  0.19409239701E+04  0.18023987283E+04 0.  0.
        3    1    3    3  502    0  0.56577772959E+03  0.28104949874E+03  0.10521487428E+04  0.12272368342E+04  0.10100000352E+00 0.  1.
       -3    1    3    3    0  502 -0.56577772959E+03 -0.28104949874E+03 -0.33204827622E+03  0.71368713592E+03  0.10100000352E+00 0. -1.
</event>
<event>
 5   0  0.4981384E-06  0.1799708E+04  0.7818609E-02  0.8706455E-01
        1   -1    0    0  501    0  0.00000000000E+00  0.00000000000E+00  0.80734572135E+03  0.80734572137E+03  0.50400001928E-02 0.  1.
       -1   -1    0    0    0  501  0.00000000000E+00  0.00000000000E+00 -0.10029626744E+04  0.10029626744E+04  0.50400001928E-02 0. -1.
    10030    2    1    2    0    0  0.00000000000E+00  0.00000000000E+00 -0.19561695301E+03  0.18103083957E+04  0.17997084473E+04 0.  0.
        5    1    3    3  502    0 -0.39209500789E+03  0.32158444992E+03 -0.84553075492E+03  0.98595101357E+03  0.46999998093E+01 0. -1.
       -5    1    3    3    0  502  0.39209500789E+03 -0.32158444992E+03  0.64991380190E+03  0.82435738218E+03  0.46999998093E+01 0.  1.
</event>
<event>
 5   0  0.1036381E-05  0.1798231E+04  0.7818609E-02  0.8707241E-01
        2   -1    0    0  501    0  0.00000000000E+00  0.00000000000E+00  0.22013709926E+04  0.22013709926E+04  0.25500000920E-02 0.  1.
       -2   -1    0    0    0  501  0.00000000000E+00  0.00000000000E+00 -0.36722950936E+03  0.36722950937E+03  0.25500000920E-02 0. -1.
    10030    2    1    2    0    0  0.00000000000E+00  0.00000000000E+00  0.18341414832E+04  0.25686005020E+04  0.17982306744E+04 0.  0.
        4    1    3    3  502    0 -0.68896132685E+03 -0.22269000550E+03  0.15565186802E+03  0.74059953103E+03  0.12699999809E+01 0. -1.
       -4    1    3    3    0  502  0.68896132685E+03  0.22269000550E+03  0.16784896152E+04  0.18280009709E+04  0.12699999809E+01 0.  1.
</event>
<event>
 5   0  0.1000316E-05  0.1792558E+04  0.7818609E-02  0.8710267E-01
        2   -1    0    0  501    0  0.00000000000E+00  0.00000000000E+00  0.88344162504E+03  0.88344162504E+03  0.25500000920E-02 0. -1.
       -2   -1    0    0    0  501  0.00000000000E+00  0.00000000000E+00 -0.90930319360E+03  0.90930319360E+03  0.25500000920E-02 0.  1.
    10030    2    1    2    0    0  0.00000000000E+00  0.00000000000E+00 -0.25861568562E+02  0.17927448186E+04  0.17925582735E+04 0.  0.
        5    1    3    3  502    0 -0.45526443789E+03  0.50929054116E+03 -0.59320805352E+03  0.90474330529E+03  0.46999998093E+01 0.  1.
       -5    1    3    3    0  502  0.45526443789E+03 -0.50929054116E+03  0.56734648495E+03  0.88800151335E+03  0.46999998093E+01 0. -1.
</event>
<event>
 5   0  0.9999162E-06  0.1800257E+04  0.7818609E-02  0.8706163E-01
       -2   -1    0    0    0  501  0.00000000000E+00  0.00000000000E+00  0.57888738802E+03  0.57888738802E+03  0.25500000920E-02 0.  1.
        2   -1    0    0  501    0  0.00000000000E+00  0.00000000000E+00 -0.13996347198E+04  0.13996347198E+04  0.25500000920E-02 0. -1.
    10030    2    1    2    0    0  0.00000000000E+00  0.00000000000E+00 -0.82074733183E+03  0.19785221079E+04  0.18002565230E+04 0.  0.
        1    1    3    3  502    0 -0.63878148561E+03 -0.16629317219E+03 -0.10829678592E+04  0.12682722853E+04  0.50400001928E-02 0. -1.
       -1    1    3    3    0  502  0.63878148561E+03  0.16629317219E+03  0.26222052739E+03  0.71024982259E+03  0.50400001928E-02 0.  1.
</event>
<event>
 5   0  0.9999162E-06  0.1800494E+04  0.7818609E-02  0.8706037E-01
        2   -1    0    0  501    0  0.00000000000E+00  0.00000000000E+00  0.18523223607E+04  0.18523223607E+04  0.25500000920E-02 0.  1.
       -2   -1    0    0    0  501  0.00000000000E+00  0.00000000000E+00 -0.43752919098E+03  0.43752919099E+03  0.25500000920E-02 0. -1.
    10030    2    1    2    0    0  0.00000000000E+00  0.00000000000E+00  0.14147931697E+04  0.22898515517E+04  0.18004944920E+04 0.  0.
        1    1    3    3  502    0 -0.64527238348E+03  0.10709271469E+03 -0.79264929448E+02  0.65888407742E+03  0.50400001928E-02 0. -1.
       -1    1    3    3    0  502  0.64527238348E+03 -0.10709271469E+03  0.14940580992E+04  0.16309674743E+04  0.50400001928E-02 0.  1.
</event>
<event>
 5   0  0.3626125E-06  0.1800496E+04  0.7818609E-02  0.8706036E-01
        3   -1    0    0  501    0  0.00000000000E+00  0.00000000000E+00  0.58204718117E+03  0.58204718993E+03  0.10100000352E+00 0.  1.
       -3   -1    0    0    0  501  0.00000000000E+00  0.00000000000E+00 -0.13924061562E+04  0.13924061598E+04  0.10100000352E+00 0. -1.
    10030    2    1    2    0    0  0.00000000000E+00  0.00000000000E+00 -0.81035897498E+03  0.19744533498E+04  0.18004955879E+04 0.  0.
        2    1    3    3  502    0  0.71597631223E+03  0.54503706441E+03 -0.43538344704E+03  0.99962304256E+03  0.25500000920E-02 0.  1.
       -2    1    3    3    0  502 -0.71597631223E+03 -0.54503706441E+03 -0.37497552795E+03  0.97483030719E+03  0.25500000920E-02 0. -1.
</event>
<event>
 5   0  0.3626125E-06  0.1799938E+04  0.7818609E-02  0.8706332E-01
        3   -1    0    0  501    0  0.00000000000E+00  0.00000000000E+00  0.70668139102E+03  0.70668139824E+03  0.10100000352E+00 0.  1.
       -3   -1    0    0    0  501  0.00000000000E+00  0.00000000000E+00 -0.11461241564E+04  0.11461241609E+04  0.10100000352E+00 0. -1.
    10030    2    1    2    0    0  0.00000000000E+00  0.00000000000E+00 -0.43944276539E+03  0.18528055591E+04  0.17999384700E+04 0.  0.
        2    1    3    3  502    0 -0.59597880033E+03  0.60452148062E+03 -0.52734280271E+03  0.99936348870E+03  0.25500000920E-02 0. -1.
       -2    1    3    3    0  502  0.59597880033E+03 -0.60452148062E+03  0.87900037320E+02  0.85344207040E+03  0.25500000920E-02 0.  1.
</event>
<event>
 5   0  0.1036381E-05  0.1797889E+04  0.7818609E-02  0.8707423E-01
       -2   -1    0    0    0  501  0.00000000000E+00  0.00000000000E+00  0.65868815960E+03  0.65868815961E+03  0.25500000920E-02 0.  1.
        2   -1    0    0  501    0  0.00000000000E+00  0.00000000000E+00 -0.12268338810E+04  0.12268338811E+04  0.25500000920E-02 0. -1.
    10030    2    1    2    0    0  0.00000000000E+00  0.00000000000E+00 -0.56814572144E+03  0.18855220407E+04  0.17978887076E+04 0.  0.
        4    1    3    3  502    0 -0.68524872352E+03 -0.28953115261E+03  0.24520989658E+03  0.78327747810E+03  0.12699999809E+01 0.  1.
       -4    1    3    3    0  502  0.68524872352E+03  0.28953115261E+03 -0.81335561803E+03  0.11022445626E+04  0.12699999809E+01 0. -1.
</event>
<event>
 5   0  0.4983159E-06  0.1800113E+04  0.7818609E-02  0.8706240E-01
        1   -1    0    0  501    0  0.00000000000E+00  0.00000000000E+00  0.83304441442E+03  0.83304441443E+03  0.50400001928E-02 0.  1.
       -1   -1    0    0    0  501  0.00000000000E+00  0.00000000000E+00 -0.97245866279E+03  0.97245866280E+03  0.50400001928E-02 0. -1.
    10030    2    1    2    0    0  0.00000000000E+00  0.00000000000E+00 -0.13941424837E+03  0.18055030772E+04  0.18001125046E+04 0.  0.
        4    1    3    3  502    0  0.70380597496E+03  0.39677195910E+03  0.32812761950E+03  0.87203221586E+03  0.12699999809E+01 0.  1.
       -4    1    3    3    0  502 -0.70380597496E+03 -0.39677195910E+03 -0.46754186787E+03  0.93347086137E+03  0.12699999809E+01 0. -1.
</event>
<event>
 5   0  0.1036381E-05  0.1800429E+04  0.7818609E-02  0.8706071E-01
       -2   -1    0    0    0  501  0.00000000000E+00  0.00000000000E+00  0.47290541304E+03  0.47290541305E+03  0.25500000920E-02 0. -1.
        2   -1    0    0  501    0  0.00000000000E+00  0.00000000000E+00 -0.17136325658E+04  0.17136325658E+04  0.25500000920E-02 0.  1.
    10030    2    1    2    0    0  0.00000000000E+00  0.00000000000E+00 -0.12407271527E+04  0.21865379788E+04  0.18004289670E+04 0.  0.
        4    1    3    3  502    0  0.55032758375E+03  0.56398266422E+03 -0.91765477178E+02  0.79332175735E+03  0.12699999809E+01 0. -1.
       -4    1    3    3    0  502 -0.55032758375E+03 -0.56398266422E+03 -0.11489616756E+04  0.13932162215E+04  0.12699999809E+01 0.  1.
</event>
<event>
 5   0  0.4987456E-06  0.1795029E+04  0.7818609E-02  0.8708948E-01
       -1   -1    0    0    0  501  0.00000000000E+00  0.00000000000E+00  0.48222963196E+03  0.48222963198E+03  0.50400001928E-02 0. -1.
        1   -1    0    0  501    0  0.00000000000E+00  0.00000000000E+00 -0.16704321333E+04  0.16704321333E+04  0.50400001928E-02 0.  1.
    10030    2    1    2    0    0  0.00000000000E+00  0.00000000000E+00 -0.11882025014E+04  0.21526617653E+04  0.17950285490E+04 0.  0.
        3    1    3    3  502    0  0.39951199133E+03  0.58797104076E+03 -0.12511816668E+04  0.14390188844E+04  0.10100000352E+00 0.  1.
       -3    1    3    3    0  502 -0.39951199133E+03 -0.58797104076E+03  0.62979165488E+02  0.71364288091E+03  0.10100000352E+00 0. -1.
</event>
<event>
 5   0  0.4983159E-06  0.1800374E+04  0.7818609E-02  0.8706100E-01
        1   -1    0    0  501    0  0.00000000000E+00  0.00000000000E+00  0.10933038943E+04  0.10933038943E+04  0.50400001928E-02 0.  1.
       -1   -1    0    0    0  501  0.00000000000E+00  0.00000000000E+00 -0.74118184830E+03  0.74118184832E+03  0.50400001928E-02 0. -1.
    10030    2    1    2    0    0  0.00000000000E+00  0.00000000000E+00  0.35212204603E+03  0.18344857427E+04  0.18003744068E+04 0.  0.
        4    1    3    3  502    0 -0.27390997898E+02 -0.55950013557E+01  0.10928605335E+04  0.10932187931E+04  0.12699999809E+01 0.  1.
       -4    1    3    3    0  502  0.27390997898E+02  0.55950013557E+01 -0.74073848751E+03  0.74126694961E+03  0.12699999809E+01 0. -1.
</event>
<event>
 5   0  0.4953155E-06  0.1788110E+04  0.7818609E-02  0.8712648E-01
       -1   -1    0    0    0  501  0.00000000000E+00  0.00000000000E+00  0.65807864337E+03  0.65807864339E+03  0.50400001928E-02 0.  1.
        1   -1    0    0  501    0  0.00000000000E+00  0.00000000000E+00 -0.12146488654E+04  0.12146488654E+04  0.50400001928E-02 0. -1.
    10030    2    1    2    0    0  0.00000000000E+00  0.00000000000E+00 -0.55657022202E+03  0.18727275088E+04  0.17881101504E+04 0.  0.
        2    1    3    3  502    0 -0.59243141221E+03 -0.32618601997E+03  0.33416308505E+03  0.75434558738E+03  0.25500000920E-02 0.  1.
       -2    1    3    3    0  502  0.59243141221E+03  0.32618601997E+03 -0.89073330707E+03  0.11183819214E+04  0.25500000920E-02 0. -1.
</event>
<event>
 5   0  0.9999162E-06  0.1800205E+04  0.7818609E-02  0.8706190E-01
       -2   -1    0    0    0  501  0.00000000000E+00  0.00000000000E+00  0.70620821235E+03  0.70620821235E+03  0.25500000920E-02 0. -1.
        2   -1    0    0  501    0  0.00000000000E+00  0.00000000000E+00 -0.11472320324E+04  0.11472320324E+04  0.25500000920E-02 0.  1.
    10030    2    1    2    0    0  0.00000000000E+00  0.00000000000E+00 -0.44102382008E+03  0.18534402448E+04  0.18002051914E+04 0.  0.
        1    1    3    3  502    0  0.18806860453E+03 -0.72119327101E+03 -0.74010924563E+03  0.10503576675E+04  0.50400001928E-02 0.  1.
       -1    1    3    3    0  502 -0.18806860453E+03  0.72119327101E+03  0.29908542555E+03  0.80308257729E+03  0.50400001928E-02 0. -1.
</event>
<event>
 5   0  0.4994123E-06  0.1800468E+04  0.7818609E-02  0.8706050E-01
        1   -1    0    0  501    0  0.00000000000E+00  0.00000000000E+00  0.21148906386E+04  0.21148906386E+04  0.50400001928E-02 0.  1.
       -1   -1    0    0    0  501  0.00000000000E+00  0.00000000000E+00 -0.38319787251E+03  0.38319787255E+03  0.50400001928E-02 0. -1.
    10030    2    1    2    0    0  0.00000000000E+00  0.00000000000E+00  0.17316927661E+04  0.24980885112E+04  0.18004683761E+04 0.  0.
        1    1    3    3  502    0 -0.50694144960E+03  0.42760009723E+03  0.21211058058E+02  0.66353702646E+03  0.50400001928E-02 0.  1.
       -1    1    3    3    0  502  0.50694144960E+03 -0.42760009723E+03  0.17104817081E+04  0.18345514847E+04  0.50400001928E-02 0. -1.
</event>
<event>
 5   0  0.9999162E-06  0.1800338E+04  0.7818609E-02  0.8706120E-01
       -2   -1    0    0    0  501  0.00000000000E+00  0.00000000000E+00  0.40114617752E+03  0.40114617753E+03  0.25500000920E-02 0.  1.
        2   -1    0    0  501    0  0.00000000000E+00  0.00000000000E+00 -0.20199732153E+04  0.20199732153E+04  0.25500000920E-02 0. -1.
    10030    2    1    2    0    0  0.00000000000E+00  0.00000000000E+00 -0.16188270378E+04  0.24211193928E+04  0.18003383393E+04 0.  0.
        1    1    3    3  502    0 -0.41630407434E+03  0.36312538776E+03 -0.17652112178E+04  0.18496323346E+04  0.50400001928E-02 0. -1.
       -1    1    3    3    0  502  0.41630407434E+03 -0.36312538776E+03  0.14638418005E+03  0.57148705825E+03  0.50400001928E-02 0.  1.
</event>
<event>
 5   0  0.9589963E-06  0.1800951E+04  0.7818609E-02  0.8705794E-01
       -2   -1    0    0    0  501  0.00000000000E+00  0.00000000000E+00  0.10397204745E+04  0.10397204745E+04  0.25500000920E-02 0.  1.
        2   -1    0    0  501    0  0.00000000000E+00  0.00000000000E+00 -0.77987918545E+03  0.77987918545E+03  0.25500000920E-02 0. -1.
    10030    2    1    2    0    0  0.00000000000E+00  0.00000000000E+00  0.25984128909E+03  0.18195996600E+04  0.18009512562E+04 0.  0.
        2    1    3    3  502    0  0.40668346706E+03 -0.55923907855E+02  0.93967912252E+03  0.10254344344E+04  0.25500000920E-02 0.  1.
       -2    1    3    3    0  502 -0.40668346706E+03  0.55923907855E+02 -0.67983783343E+03  0.79416522564E+03  0.25500000920E-02 0. -1.
</event>
<event>
 5   0  0.1036381E-05  0.1801543E+04  0.7818609E-02  0.8705479E-01
       -2   -1    0    0    0  501  0.00000000000E+00  0.00000000000E+00  0.49394771429E+03  0.49394771430E+03  0.25500000920E-02 0.  1.
        2   -1    0    0  501    0  0.00000000000E+00  0.00000000000E+00 -0.16426621749E+04  0.16426621749E+04  0.25500000920E-02 0. -1.
    10030    2    1    2    0    0  0.00000000000E+00  0.00000000000E+00 -0.11487144606E+04  0.21366098892E+04  0.18015429239E+04 0.  0.
        4    1    3    3  502    0 -0.44566600210E+03  0.35829219281E+03  0.25107410881E+03  0.62452486089E+03  0.12699999809E+01 0.  1.
       -4    1    3    3    0  502  0.44566600210E+03 -0.35829219281E+03 -0.13997885694E+04  0.15120850283E+04  0.12699999809E+01 0. -1.
</event>
<event>
 5   0  0.4983159E-06  0.1799833E+04  0.7818609E-02  0.8706388E-01
       -1   -1    0    0    0  501  0.00000000000E+00  0.00000000000E+00  0.45673138409E+03  0.45673138412E+03  0.50400001928E-02 0.  1.
        1   -1    0    0  501    0  0.00000000000E+00  0.00000000000E+00 -0.17731431216E+04  0.17731431216E+04  0.50400001928E-02 0. -1.
    10030    2    1    2    0    0  0.00000000000E+00  0.00000000000E+00 -0.13164117375E+04  0.22298745057E+04  0.17998334502E+04 0.  0.
        4    1    3    3  502    0  0.18787592605E+03  0.76245968157E+03 -0.11362946035E+03  0.79344527017E+03  0.12699999809E+01 0.  1.
       -4    1    3    3    0  502 -0.18787592605E+03 -0.76245968157E+03 -0.12027822771E+04  0.14364292355E+04  0.12699999809E+01 0. -1.
</event>
<event>
 5   0  0.4994123E-06  0.1799982E+04  0.7818609E-02  0.8706309E-01
        1   -1    0    0  501    0  0.00000000000E+00  0.00000000000E+00  0.17280335633E+04  0.17280335633E+04  0.50400001928E-02 0. -1.
       -1   -1    0    0    0  501  0.00000000000E+00  0.00000000000E+00 -0.46873154669E+03  0.46873154672E+03  0.50400001928E-02 0.  1.
    10030    2    1    2    0    0  0.00000000000E+00  0.00000000000E+00  0.12593020166E+04  0.21967651100E+04  0.17999820498E+04 0.  0.
        1    1    3    3  502    0  0.76538676796E+03  0.22061055769E+03  0.11837968112E+03  0.80529477315E+03  0.50400001928E-02 0.  1.
       -1    1    3    3    0  502 -0.76538676796E+03 -0.22061055769E+03  0.11409223355E+04  0.13914703368E+04  0.50400001928E-02 0. -1.
</event>
<event>
 5   0  0.1036381E-05  0.1799976E+04  0.7818609E-02  0.8706312E-01
        2   -1    0    0  501    0  0.00000000000E+00  0.00000000000E+00  0.63882045251E+03  0.63882045252E+03  0.25500000920E-02 0.  1.
       -2   -1    0    0    0  501  0.00000000000E+00  0.00000000000E+00 -0.12679280548E+04  0.12679280548E+04  0.25500000920E-02 0. -1.
    10030    2    1    2    0    0  0.00000000000E+00  0.00000000000E+00 -0.62910760226E+03  0.19067485073E+04  0.17999759706E+04 0.  0.
        4    1    3    3  502    0 -0.85273601529E+03  0.13773842196E+03 -0.58222038337E+03  0.10416874639E+04  0.12699999809E+01 0.  1.
       -4    1    3    3    0  502  0.85273601529E+03 -0.13773842196E+03 -0.46887218883E+02  0.86506104343E+03  0.12699999809E+01 0. -1.
</event>
<event>
 5   0  0.1000316E-05  0.1801323E+04  0.7818609E-02  0.8705596E-01
       -2   -1    0    0    0  501  0.00000000000E+00  0.00000000000E+00  0.42553486817E+03  0.42553486818E+03  0.25500000920E-02 0.  1.
        2   -1    0    0  501    0  0.00000000000E+00  0.00000000000E+00 -0.19062863427E+04  0.19062863427E+04  0.25500000920E-02 0. -1.
    10030    2    1    2    0    0  0.00000000000E+00  0.00000000000E+00 -0.14807514745E+04  0.23318212109E+04  0.18013231887E+04 0.  0.
        5    1    3    3  502    0  0.70016372961E+03  0.50108221804E+03 -0.10825184297E+04  0.13831778187E+04  0.46999998093E+01 0. -1.
       -5    1    3    3    0  502 -0.70016372961E+03 -0.50108221804E+03 -0.39823304475E+03  0.94864339212E+03  0.46999998093E+01 0.  1.
</event>
<event>
 5   0  0.4953155E-06  0.1799560E+04  0.7818609E-02  0.8706533E-01
       -1   -1    0    0    0  501  0.00000000000E+00  0.00000000000E+00  0.13524053659E+04  0.13524053659E+04  0.50400001928E-02 0. -1.
        1   -1    0    0  501    0  0.00000000000E+00  0.00000000000E+00 -0.59864030570E+03  0.59864030572E+03  0.50400001928E-02 0.  1.
    10030    2    1    2    0    0  0.00000000000E+00  0.00000000000E+00  0.75376506017E+03  0.19510456716E+04  0.17995603482E+04 0.  0.
        2    1    3    3  502    0 -0.31921578235E+01 -0.32071448543E+03  0.12883260207E+04  0.13276490149E+04  0.25500000920E-02 0. -1.
       -2    1    3    3    0  502  0.31921578235E+01  0.32071448543E+03 -0.53456096056E+03  0.62339665671E+03  0.25500000920E-02 0.  1.
</event>
<event>
 5   0  0.4987456E-06  0.1802285E+04  0.7818609E-02  0.8705085E-01
       -1   -1    0    0    0  501  0.00000000000E+00  0.00000000000E+00  0.81352014044E+03  0.81352014046E+03  0.50400001928E-02 0. -1.
        1   -1    0    0  501    0  0.00000000000E+00  0.00000000000E+00 -0.99820203304E+03  0.99820203305E+03  0.50400001928E-02 0.  1.
    10030    2    1    2    0    0  0.00000000000E+00  0.00000000000E+00 -0.18468189259E+03  0.18117221735E+04  0.18022846147E+04 0.  0.
        3    1    3    3  502    0 -0.73201698830E+03  0.60230799396E+02 -0.61716759311E+03  0.95936044766E+03  0.10100000352E+00 0.  1.
       -3    1    3    3    0  502  0.73201698830E+03 -0.60230799396E+02  0.43248570051E+03  0.85236172585E+03  0.10100000352E+00 0. -1.
</event>
<event>
 5   0  0.9589963E-06  0.1800170E+04  0.7818609E-02  0.8706209E-01
       -2   -1    0    0    0  501  0.00000000000E+00  0.00000000000E+00  0.11080312684E+04  0.11080312684E+04  0.25500000920E-02 0.  1.
        2   -1    0    0  501    0  0.00000000000E+00  0.00000000000E+00 -0.73116416231E+03  0.73116416232E+03  0.25500000920E-02 0. -1.
    10030    2    1    2    0    0  0.00000000000E+00  0.00000000000E+00  0.37686710609E+03  0.18391954307E+04  0.18001697189E+04 0.  0.
        2    1    3    3  502    0  0.33208334829E+03  0.49895985762E+03 -0.49762399612E+03  0.77901856926E+03  0.25500000920E-02 0. -1.
       -2    1    3    3    0  502 -0.33208334829E+03 -0.49895985762E+03  0.87449110222E+03  0.10601768615E+04  0.25500000920E-02 0.  1.
</event>
<event>
 5   0  0.1036381E-05  0.1799891E+04  0.7818609E-02  0.8706357E-01
        2   -1    0    0  501    0  0.00000000000E+00  0.00000000000E+00  0.78280644887E+03  0.78280644888E+03  0.25500000920E-02 0. -1.
       -2   -1    0    0    0  501  0.00000000000E+00  0.00000000000E+00 -0.10346135929E+04  0.10346135929E+04  0.25500000920E-02 0.  1.
    10030    2    1    2    0    0  0.00000000000E+00  0.00000000000E+00 -0.25180714406E+03  0.18174200418E+04  0.17998913219E+04 0.  0.
        4    1    3    3  502    0 -0.33776422913E+03 -0.57719080049E+03  0.48217942680E+03  0.82445891782E+03  0.12699999809E+01 0. -1.
       -4    1    3    3    0  502  0.33776422913E+03  0.57719080049E+03 -0.73398657086E+03  0.99296112399E+03  0.12699999809E+01 0.  1.
</event>
<event>
 5   0  0.4994123E-06  0.1800014E+04  0.7818609E-02  0.8706292E-01
       -1   -1    0    0    0  501  0.00000000000E+00  0.00000000000E+00  0.74956536215E+03  0.74956536216E+03  0.50400001928E-02 0. -1.
        1   -1    0    0  501    0  0.00000000000E+00  0.00000000000E+00 -0.10806430326E+04  0.10806430326E+04  0.50400001928E-02 0.  1.
    10030    2    1    2    0    0  0.00000000000E+00  0.00000000000E+00 -0.33107767049E+03  0.18302083948E+04  0.18000139845E+04 0.  0.
        1    1    3    3  502    0 -0.47721186491E+03 -0.44695189117E+03 -0.79439184317E+03  0.10288612917E+04  0.50400001928E-02 0.  1.
       -1    1    3    3    0  502  0.47721186491E+03  0.44695189117E+03  0.46331417269E+03  0.80134710311E+03  0.50400001928E-02 0. -1.
</event>
<event>
 5   0  0.4994123E-06  0.1799523E+04  0.7818609E-02  0.8706553E-01
       -1   -1    0    0    0  501  0.00000000000E+00  0.00000000000E+00  0.25226561737E+04  0.25226561737E+04  0.50400001928E-02 0.  1.
        1   -1    0    0  501    0  0.00000000000E+00  0.00000000000E+00 -0.32091997500E+03  0.32091997504E+03  0.50400001928E-02 0. -1.
    10030    2    1    2    0    0  0.00000000000E+00  0.00000000000E+00  0.22017361987E+04  0.28435761487E+04  0.17995229993E+04 0.  0.
        1    1    3    3  502    0 -0.77525754962E+03 -0.39070496684E+03  0.72727548638E+03  0.11325212018E+04  0.50400001928E-02 0. -1.
       -1    1    3    3    0  502  0.77525754962E+03  0.39070496684E+03  0.14744607123E+04  0.17110549469E+04  0.50400001928E-02 0.  1.
</event>
<event>
 5   0  0.1035018E-05  0.1801847E+04  0.7818609E-02  0.8705318E-01
        2   -1    0    0  501    0  0.00000000000E+00  0.00000000000E+00  0.20528636655E+04  0.20528636655E+04  0.25500000920E-02 0.  1.
       -2   -1    0    0    0  501  0.00000000000E+00  0.00000000000E+00 -0.39538110423E+03  0.39538110424E+03  0.25500000920E-02 0. -1.
    10030    2    1    2    0    0  0.00000000000E+00  0.00000000000E+00  0.16574825612E+04  0.24482447697E+04  0.18018473886E+04 0.  0.
        3    1    3    3  502    0 -0.88671685386E+02  0.45289388764E+03  0.18800665176E+04  0.19358785246E+04  0.10100000352E+00 0.  1.
       -3    1    3    3    0  502  0.88671685386E+02 -0.45289388764E+03 -0.22258395639E+03  0.51236624508E+03  0.10100000352E+00 0. -1.
</event>
<event>
 5   0  0.4983159E-06  0.1799508E+04  0.7818609E-02  0.8706561E-01
       -1   -1    0    0    0  501  0.00000000000E+00  0.00000000000E+00  0.63783811224E+03  0.63783811226E+03  0.50400001928E-02 0. -1.
        1   -1    0    0  501    0  0.00000000000E+00  0.00000000000E+00 -0.12692206640E+04  0.12692206641E+04  0.50400001928E-02 0.  1.
    10030    2    1    2    0    0  0.00000000000E+00  0.00000000000E+00 -0.63138255180E+03  0.19070587763E+04  0.17995080577E+04 0.  0.
        4    1    3    3  502    0  0.41290061682E+03  0.78718888189E+03 -0.46330900025E+03  0.10024021637E+04  0.12699999809E+01 0.  1.
       -4    1    3    3    0  502 -0.41290061682E+03 -0.78718888189E+03 -0.16807355155E+03  0.90465661263E+03  0.12699999809E+01 0. -1.
</event>
<event>
 5   0  0.4994123E-06  0.1800012E+04  0.7818609E-02  0.8706293E-01
       -1   -1    0    0    0  501  0.00000000000E+00  0.00000000000E+00  0.79522140559E+03  0.79522140561E+03  0.50400001928E-02 0. -1.
        1   -1    0    0  501    0  0.00000000000E+00  0.00000000000E+00 -0.10185973381E+04  0.10185973381E+04  0.50400001928E-02 0.  1.
    10030    2    1    2    0    0  0.00000000000E+00  0.00000000000E+00 -0.22337593248E+03  0.18138187437E+04  0.18000115632E+04 0.  0.
        1    1    3    3  502    0 -0.25023143766E+03  0.61790245967E+03  0.49759136859E+03  0.83187522633E+03  0.50400001928E-02 0. -1.
       -1    1    3    3    0  502  0.25023143766E+03 -0.61790245967E+03 -0.72096730107E+03  0.98194351737E+03  0.50400001928E-02 0.  1.
</event>
<event>
 5   0  0.4994123E-06  0.1800056E+04  0.7818609E-02  0.8706270E-01
       -1   -1    0    0    0  501  0.00000000000E+00  0.00000000000E+00  0.92080621860E+03  0.92080621861E+03  0.50400001928E-02 0.  1.
        1   -1    0    0  501    0  0.00000000000E+00  0.00000000000E+00 -0.87971874412E+03  0.87971874413E+03  0.50400001928E-02 0. -1.
    10030    2    1    2    0    0  0.00000000000E+00  0.00000000000E+00  0.41087474481E+02  0.18005249627E+04  0.18000560994E+04 0.  0.
        1    1    3    3  502    0  0.40150857381E+03 -0.79877873533E+03 -0.83376958825E+02  0.89789104024E+03  0.50400001928E-02 0. -1.
       -1    1    3    3    0  502 -0.40150857381E+03  0.79877873533E+03  0.12446443331E+03  0.90263392250E+03  0.50400001928E-02 0.  1.
</event>
<event>
 5   0  0.4987456E-06  0.1800805E+04  0.7818609E-02  0.8705872E-01
        1   -1    0    0  501    0  0.00000000000E+00  0.00000000000E+00  0.11907730981E+04  0.11907730981E+04  0.50400001928E-02 0.  1.
       -1   -1    0    0    0  501  0.00000000000E+00  0.00000000000E+00 -0.68083858844E+03  0.68083858846E+03  0.50400001928E-02 0. -1.
    10030    2    1    2    0    0  0.00000000000E+00  0.00000000000E+00  0.50993450965E+03  0.18716116866E+04  0.18008045705E+04 0.  0.
        3    1    3    3  502    0 -0.77817508680E+03  0.41895920992E+03  0.76032195463E+02  0.88705365691E+03  0.10100000352E+00 0. -1.
       -3    1    3    3    0  502  0.77817508680E+03 -0.41895920992E+03  0.43390231419E+03  0.98455802965E+03  0.10100000352E+00 0.  1.
</event>
<event>
 5   0  0.1000316E-05  0.1800596E+04  0.7818609E-02  0.8705983E-01
        2   -1    0    0  501    0  0.00000000000E+00  0.00000000000E+00  0.87705111603E+03  0.87705111603E+03  0.25500000920E-02 0. -1.
       -2   -1    0    0    0  501  0.00000000000E+00  0.00000000000E+00 -0.92416091480E+03  0.92416091480E+03  0.25500000920E-02 0.  1.
    10030    2    1    2    0    0  0.00000000000E+00  0.00000000000E+00 -0.47109798771E+02  0.18012120308E+04  0.18005958588E+04 0.  0.
        5    1    3    3  502    0  0.32379109707E+03  0.66008744203E+03 -0.54330768626E+03  0.91419988931E+03  0.46999998093E+01 0.  1.
       -5    1    3    3    0  502 -0.32379109707E+03 -0.66008744203E+03  0.49619788749E+03  0.88701214152E+03  0.46999998093E+01 0. -1.
</event>
<event>
 5   0  0.4983159E-06  0.1799891E+04  0.7818609E-02  0.8706357E-01
        1   -1    0    0  501    0  0.00000000000E+00  0.00000000000E+00  0.19335736576E+04  0.19335736576E+04  0.50400001928E-02 0. -1.
       -1   -1    0    0    0  501  0.00000000000E+00  0.00000000000E+00 -0.41886273538E+03  0.41886273541E+03  0.50400001928E-02 0.  1.
    10030    2    1    2    0    0  0.00000000000E+00  0.00000000000E+00  0.15147109222E+04  0.23524363930E+04  0.17998910537E+04 0.  0.
        4    1    3    3  502    0  0.33132339321E+03 -0.51205699565E+03  0.16222645084E+04  0.17331247231E+04  0.12699999809E+01 0. -1.
       -4    1    3    3    0  502 -0.33132339321E+03  0.51205699565E+03 -0.10755358618E+03  0.61931166991E+03  0.12699999809E+01 0.  1.
</event>
<event>
 5   0  0.4994123E-06  0.1799754E+04  0.7818609E-02  0.8706430E-01
       -1   -1    0    0    0  501  0.00000000000E+00  0.00000000000E+00  0.53873599626E+03  0.53873599628E+03  0.50400001928E-02 0.  1.
        1   -1    0    0  501    0  0.00000000000E+00  0.00000000000E+00 -0.15031086200E+04  0.15031086200E+04  0.50400001928E-02 0. -1.
    10030    2    1    2    0    0  0.00000000000E+00  0.00000000000E+00 -0.96437262369E+03  0.20418446162E+04  0.17997541164E+04 0.  0.
        1    1    3    3  502    0  0.47414784848E+03  0.74543835488E+03 -0.67633129458E+03  0.11126178783E+04  0.50400001928E-02 0. -1.
       -1    1    3    3    0  502 -0.47414784848E+03 -0.74543835488E+03 -0.28804132911E+03  0.92922673791E+03  0.50400001928E-02 0.  1.
</event>
<event>
 5   0  0.4994123E-06  0.1799595E+04  0.7818609E-02  0.8706515E-01
       -1   -1    0    0    0  501  0.00000000000E+00  0.00000000000E+00  0.89433720873E+03  0.89433720874E+03  0.50400001928E-02 0.  1.
        1   -1    0    0  501    0  0.00000000000E+00  0.00000000000E+00 -0.90529131973E+03  0.90529131974E+03  0.50400001928E-02 0. -1.
    10030    2    1    2    0    0  0.00000000000E+00  0.00000000000E+00 -0.10954111002E+02  0.17996285285E+04  0.17995951900E+04 0.  0.
        1    1    3    3  502    0 -0.37521903281E+03 -0.76813495324E+02  0.80875303447E+03  0.89485814878E+03  0.50400001928E-02 0.  1.
       -1    1    3    3    0  502  0.37521903281E+03  0.76813495324E+02 -0.81970714547E+03  0.90477037971E+03  0.50400001928E-02 0. -1.
</event>
<event>
 5   0  0.1000316E-05  0.1803346E+04  0.7818609E-02  0.8704522E-01
        2   -1    0    0  501    0  0.00000000000E+00  0.00000000000E+00  0.16220318887E+04  0.16220318887E+04  0.25500000920E-02 0.  1.
       -2   -1    0    0    0  501  0.00000000000E+00  0.00000000000E+00 -0.50123218580E+03  0.50123218581E+03  0.25500000920E-02 0. -1.
    10030    2    1    2    0    0  0.00000000000E+00  0.00000000000E+00  0.11207997029E+04  0.21232640745E+04  0.18033464326E+04 0.  0.
        5    1    3    3  502    0 -0.29691410169E+03  0.51091432537E+03  0.13622453924E+04  0.14848993335E+04  0.46999998093E+01 0.  1.
       -5    1    3    3    0  502  0.29691410169E+03 -0.51091432537E+03 -0.24144568943E+03  0.63836474103E+03  0.46999998093E+01 0. -1.
</event>
<event>
 5   0  0.1036381E-05  0.1800032E+04  0.7818609E-02  0.8706283E-01
        2   -1    0    0  501    0  0.00000000000E+00  0.00000000000E+00  0.21920581034E+04  0.21920581034E+04  0.25500000920E-02 0.  1.
       -2   -1    0    0    0  501  0.00000000000E+00  0.00000000000E+00 -0.36952879976E+03  0.36952879977E+03  0.25500000920E-02 0. -1.
    10030    2    1    2    0    0  0.00000000000E+00  0.00000000000E+00  0.18225293036E+04  0.25615869031E+04  0.18000317775E+04 0.  0.
        4    1    3    3  502    0 -0.71157515429E+03  0.16705349597E+03  0.16585922611E+04  0.18125054406E+04  0.12699999809E+01 0.  1.
       -4    1    3    3    0  502  0.71157515429E+03 -0.16705349597E+03  0.16393704251E+03  0.74908146254E+03  0.12699999809E+01 0. -1.
</event>
<event>
 5   0  0.4981384E-06  0.1800301E+04  0.7818609E-02  0.8706139E-01
       -1   -1    0    0    0  501  0.00000000000E+00  0.00000000000E+00  0.64897067735E+03  0.64897067737E+03  0.50400001928E-02 0. -1.
        1   -1    0    0  501    0  0.00000000000E+00  0.00000000000E+00 -0.12485482253E+04  0.12485482253E+04  0.50400001928E-02 0.  1.
    10030    2    1    2    0    0  0.00000000000E+00  0.00000000000E+00 -0.59957754797E+03  0.18975189027E+04  0.18003012943E+04 0.  0.
        5    1    3    3  502    0  0.38976466173E+02  0.46379890553E+03  0.51228477594E+03  0.69216065429E+03  0.46999998093E+01 0. -1.
       -5    1    3    3    0  502 -0.38976466173E+02 -0.46379890553E+03 -0.11118623239E+04  0.12053582484E+04  0.46999998093E+01 0.  1.
</event>
<event>
 5   0  0.1036381E-05  0.1799489E+04  0.7818609E-02  0.8706571E-01
        2   -1    0    0  501    0  0.00000000000E+00  0.00000000000E+00  0.12352628165E+04  0.12352628165E+04  0.25500000920E-02 0.  1.
       -2   -1    0    0    0  501  0.00000000000E+00  0.00000000000E+00 -0.65535857248E+03  0.65535857248E+03  0.25500000920E-02 0. -1.
    10030    2    1    2    0    0  0.00000000000E+00  0.00000000000E+00  0.57990424404E+03  0.18906213890E+04  0.17994889009E+04 0.  0.
        4    1    3    3  502    0  0.34591174316E+03  0.74907029130E+03  0.66698127330E+03  0.10609556387E+04  0.12699999809E+01 0.  1.
       -4    1    3    3    0  502 -0.34591174316E+03 -0.74907029130E+03 -0.87077029257E+02  0.82966575034E+03  0.12699999809E+01 0. -1.
</event>
<event>
 5   0  0.4987456E-06  0.1801937E+04  0.7818609E-02  0.8705270E-01
       -1   -1    0    0    0  501  0.00000000000E+00  0.00000000000E+00  0.13708410488E+04  0.13708410489E+04  0.50400001928E-02 0. -1.
        1   -1    0    0  501    0  0.00000000000E+00  0.00000000000E+00 -0.59215028919E+03  0.59215028921E+03  0.50400001928E-02 0.  1.
    10030    2    1    2    0    0  0.00000000000E+00  0.00000000000E+00  0.77869075966E+03  0.19629913381E+04  0.18019366510E+04 0.  0.
        3    1    3    3  502    0  0.64465779554E+03 -0.60859399190E+03  0.21445482821E+03  0.91211907330E+03  0.10100000352E+00 0.  1.
       -3    1    3    3    0  502 -0.64465779554E+03  0.60859399190E+03  0.56423593145E+03  0.10508722648E+04  0.10100000352E+00 0. -1.
</event>
<event>
 5   0  0.9589963E-06  0.1799379E+04  0.7818609E-02  0.8706630E-01
        2   -1    0    0  501    0  0.00000000000E+00  0.00000000000E+00  0.12427875762E+04  0.12427875762E+04  0.25500000920E-02 0. -1.
       -2   -1    0    0    0  501  0.00000000000E+00  0.00000000000E+00 -0.65131067481E+03  0.65131067482E+03  0.25500000920E-02 0.  1.
    10030    2    1    2    0    0  0.00000000000E+00  0.00000000000E+00  0.59147690136E+03  0.18940982510E+04  0.17993785759E+04 0.  0.
        2    1    3    3  502    0 -0.44763385102E+03 -0.50134532289E+03  0.92531728993E+03  0.11436499834E+04  0.25500000920E-02 0. -1.
       -2    1    3    3    0  502  0.44763385102E+03  0.50134532289E+03 -0.33384038857E+03  0.75044826764E+03  0.25500000920E-02 0.  1.
</event>
<event>
 5   0  0.9999162E-06  0.1808678E+04  0.7818609E-02  0.8701698E-01
        2   -1    0    0  501    0  0.00000000000E+00  0.00000000000E+00  0.14239992152E+04  0.14239992152E+04  0.25500000920E-02 0.  1.
       -2   -1    0    0    0  501  0.00000000000E+00  0.00000000000E+00 -0.57431829309E+03  0.57431829310E+03  0.25500000920E-02 0. -1.
    10030    2    1    2    0    0  0.00000000000E+00  0.00000000000E+00  0.84968092215E+03  0.19983175083E+04  0.18086777476E+04 0.  0.
        1    1    3    3  502    0 -0.82144016383E+03  0.32756071439E+03  0.21588405439E+03  0.91031087511E+03  0.50400001928E-02 0. -1.
       -1    1    3    3    0  502  0.82144016383E+03 -0.32756071439E+03  0.63379686776E+03  0.10880066332E+04  0.50400001928E-02 0.  1.
</event>
<event>
 5   0  0.4983159E-06  0.1799938E+04  0.7818609E-02  0.8706333E-01
       -1   -1    0    0    0  501  0.00000000000E+00  0.00000000000E+00  0.76191887516E+03  0.76191887518E+03  0.50400001928E-02 0. -1.
        1   -1    0    0  501    0  0.00000000000E+00  0.00000000000E+00 -0.10630315417E+04  0.10630315418E+04  0.50400001928E-02 0.  1.
    10030    2    1    2    0    0  0.00000000000E+00  0.00000000000E+00 -0.30111266658E+03  0.18249504169E+04  0.17999375507E+04 0.  0.
        4    1    3    3  502    0  0.85734752664E+03 -0.25888940159E+03 -0.60589483960E+02  0.89763088303E+03  0.12699999809E+01 0.  1.
       -4    1    3    3    0  502 -0.85734752664E+03  0.25888940159E+03 -0.24052318262E+03  0.92731953391E+03  0.12699999809E+01 0. -1.
</event>
<event>
 5   0  0.9999162E-06  0.1799172E+04  0.7818609E-02  0.8706740E-01
       -2   -1    0    0    0  501  0.00000000000E+00  0.00000000000E+00  0.40849388423E+03  0.40849388424E+03  0.25500000920E-02 0. -1.
        2   -1    0    0  501    0  0.00000000000E+00  0.00000000000E+00 -0.19810701054E+04  0.19810701054E+04  0.25500000920E-02 0.  1.
    10030    2    1    2    0    0  0.00000000000E+00  0.00000000000E+00 -0.15725762212E+04  0.23895639896E+04  0.17991720566E+04 0.  0.
        1    1    3    3  502    0 -0.67365280726E+03 -0.31693130075E+03 -0.14569711256E+04  0.16361596545E+04  0.50400001928E-02 0.  1.
       -1    1    3    3    0  502  0.67365280726E+03  0.31693130075E+03 -0.11560509562E+03  0.75340433519E+03  0.50400001928E-02 0. -1.
</event>
<event>
 5   0  0.4953155E-06  0.1800422E+04  0.7818609E-02  0.8706075E-01
       -1   -1    0    0    0  501  0.00000000000E+00  0.00000000000E+00  0.35513663700E+03  0.35513663704E+03  0.50400001928E-02 0. -1.
        1   -1    0    0  501    0  0.00000000000E+00  0.00000000000E+00 -0.22818812906E+04  0.22818812906E+04  0.50400001928E-02 0.  1.
    10030    2    1    2    0    0  0.00000000000E+00  0.00000000000E+00 -0.19267446536E+04  0.26370179276E+04  0.18004217813E+04 0.  0.
        2    1    3    3  502    0 -0.26639623255E+03  0.59710407013E+03 -0.18696678571E+04  0.19806963723E+04  0.25500000920E-02 0.  1.
       -2    1    3    3    0  502  0.26639623255E+03 -0.59710407013E+03 -0.57076796461E+02  0.65632155532E+03  0.25500000920E-02 0. -1.
</event>
<event>
 5   0  0.1036381E-05  0.1799492E+04  0.7818609E-02  0.8706569E-01
       -2   -1    0    0    0  501  0.00000000000E+00  0.00000000000E+00  0.81561554828E+03  0.81561554828E+03  0.25500000920E-02 0. -1.
        2   -1    0    0  501    0  0.00000000000E+00  0.00000000000E+00 -0.99255502420E+03  0.99255502421E+03  0.25500000920E-02 0.  1.
    10030    2    1    2    0    0  0.00000000000E+00  0.00000000000E+00 -0.17693947592E+03  0.18081705725E+04  0.17994924954E+04 0.  0.
        4    1    3    3  502    0  0.22197271013E+03  0.13611165961E+03  0.77692890745E+03  0.81940124973E+03  0.12699999809E+01 0. -1.
       -4    1    3    3    0  502 -0.22197271013E+03 -0.13611165961E+03 -0.95386838338E+03  0.98876932276E+03  0.12699999809E+01 0.  1.
</event>
<event>
 5   0  0.1035018E-05  0.1800616E+04  0.7818609E-02  0.8705972E-01
        2   -1    0    0  501    0  0.00000000000E+00  0.00000000000E+00  0.33331134400E+04  0.33331134400E+04  0.25500000920E-02 0. -1.
       -2   -1    0    0    0  501  0.00000000000E+00  0.00000000000E+00 -0.24318233998E+03  0.24318234000E+03  0.25500000920E-02 0.  1.
    10030    2    1    2    0    0  0.00000000000E+00  0.00000000000E+00  0.30899311000E+04  0.35762957800E+04  0.18006158122E+04 0.  0.
        3    1    3    3  502    0 -0.44365503454E+03  0.77169897561E+03  0.12769806646E+04  0.15566080839E+04  0.10100000352E+00 0. -1.
       -3    1    3    3    0  502  0.44365503454E+03 -0.77169897561E+03  0.18129504353E+04  0.20196876961E+04  0.10100000352E+00 0.  1.
</event>
<event>
 5   0  0.4953155E-06  0.1805464E+04  0.7818609E-02  0.8703399E-01
        1   -1    0    0  501    0  0.00000000000E+00  0.00000000000E+00  0.15603491006E+04  0.15603491006E+04  0.50400001928E-02 0.  1.
       -1   -1    0    0    0  501  0.00000000000E+00  0.00000000000E+00 -0.52227107320E+03  0.52227107323E+03  0.50400001928E-02 0. -1.
    10030    2    1    2    0    0  0.00000000000E+00  0.00000000000E+00  0.10380780274E+04  0.20826201738E+04  0.18054641502E+04 0.  0.
        2    1    3    3  502    0  0.52129957566E+03  0.23160620657E+02 -0.33067996386E+03  0.61776929386E+03  0.25500000920E-02 0. -1.
       -2    1    3    3    0  502 -0.52129957566E+03 -0.23160620657E+02  0.13687579913E+04  0.14648508800E+04  0.25500000920E-02 0.  1.
</event>
<event>
 5   0  0.4983159E-06  0.1800353E+04  0.7818609E-02  0.8706112E-01
       -1   -1    0    0    0  501  0.00000000000E+00  0.00000000000E+00  0.76463192245E+03  0.76463192247E+03  0.50400001928E-02 0. -1.
        1   -1    0    0  501    0  0.00000000000E+00  0.00000000000E+00 -0.10597485122E+04  0.10597485122E+04  0.50400001928E-02 0.  1.
    10030    2    1    2    0    0  0.00000000000E+00  0.00000000000E+00 -0.29511658977E+03  0.18243804347E+04  0.18003527901E+04 0.  0.
        4    1    3    3  502    0 -0.73074295597E+03 -0.37569027038E+03  0.22502727436E+03  0.85191979321E+03  0.12699999809E+01 0. -1.
       -4    1    3    3    0  502  0.73074295597E+03  0.37569027038E+03 -0.52014386412E+03  0.97246064149E+03  0.12699999809E+01 0.  1.
</event>
<event>
 5   0  0.4987456E-06  0.1799936E+04  0.7818609E-02  0.8706334E-01
        1   -1    0    0  501    0  0.00000000000E+00  0.00000000000E+00  0.11131303967E+04  0.11131303967E+04  0.50400001928E-02 0. -1.
       -1   -1    0    0    0  501  0.00000000000E+00  0.00000000000E+00 -0.72762563975E+03  0.72762563977E+03  0.50400001928E-02 0.  1.
    10030    2    1    2    0    0  0.00000000000E+00  0.00000000000E+00  0.38550475693E+03  0.18407560365E+04  0.17999357956E+04 0.  0.
        3    1    3    3  502    0 -0.40976966273E+03 -0.74799510474E+03 -0.10105087227E+03  0.85884756633E+03  0.10100000352E+00 0.  1.
       -3    1    3    3    0  502  0.40976966273E+03  0.74799510474E+03  0.48655562919E+03  0.98190847013E+03  0.10100000352E+00 0. -1.
</event>
<event>
 5   0  0.4987456E-06  0.1800109E+04  0.7818609E-02  0.8706242E-01
       -1   -1    0    0    0  501  0.00000000000E+00  0.00000000000E+00  0.46123460551E+03  0.46123460554E+03  0.50400001928E-02 0.  1.
        1   -1    0    0  501    0  0.00000000000E+00  0.00000000000E+00 -0.17563679606E+04  0.17563679606E+04  0.50400001928E-02 0. -1.
    10030    2    1    2    0    0  0.00000000000E+00  0.00000000000E+00 -0.12951333551E+04  0.22176025661E+04  0.18001085339E+04 0.  0.
        3    1    3    3  502    0  0.19128235037E+03  0.36188670232E+03 -0.16350673282E+04  0.16855254673E+04  0.10100000352E+00 0. -1.
       -3    1    3    3    0  502 -0.19128235037E+03 -0.36188670232E+03  0.33993397310E+03  0.53207709888E+03  0.10100000352E+00 0.  1.
</event>
<event>
 5   0  0.9999162E-06  0.1806952E+04  0.7818609E-02  0.8702611E-01
       -2   -1    0    0    0  501  0.00000000000E+00  0.00000000000E+00  0.80584670240E+03  0.80584670241E+03  0.25500000920E-02 0.  1.
        2   -1    0    0  501    0  0.00000000000E+00  0.00000000000E+00 -0.10129327056E+04  0.10129327056E+04  0.25500000920E-02 0. -1.
    10030    2    1    2    0    0  0.00000000000E+00  0.00000000000E+00 -0.20708600323E+03  0.18187794080E+04  0.18069515551E+04 0.  0.
        1    1    3    3  502    0  0.89634238437E+03  0.29302006906E+01  0.10469020139E+02  0.89640830903E+03  0.50400001928E-02 0.  1.
       -1    1    3    3    0  502 -0.89634238437E+03 -0.29302006906E+01 -0.21755502337E+03  0.92237109902E+03  0.50400001928E-02 0. -1.
</event>
<event>
 5   0  0.1000316E-05  0.1798706E+04  0.7818609E-02  0.8706988E-01
        2   -1    0    0  501    0  0.00000000000E+00  0.00000000000E+00  0.14162869142E+04  0.14162869142E+04  0.25500000920E-02 0.  1.
       -2   -1    0    0    0  501  0.00000000000E+00  0.00000000000E+00 -0.57109627399E+03  0.57109627399E+03  0.25500000920E-02 0. -1.
    10030    2    1    2    0    0  0.00000000000E+00  0.00000000000E+00  0.84519064026E+03  0.19873831882E+04  0.17987064014E+04 0.  0.
        5    1    3    3  502    0 -0.20290437433E+03 -0.14361151295E+03  0.13775600697E+04  0.13998172335E+04  0.46999998093E+01 0.  1.
       -5    1    3    3    0  502  0.20290437433E+03  0.14361151295E+03 -0.53236942940E+03  0.58756595471E+03  0.46999998093E+01 0. -1.
</event>
<event>
 5   0  0.9589963E-06  0.1799878E+04  0.7818609E-02  0.8706364E-01
        2   -1    0    0  501    0  0.00000000000E+00  0.00000000000E+00  0.10846208256E+04  0.10846208256E+04  0.25500000920E-02 0. -1.
       -2   -1    0    0    0  501  0.00000000000E+00  0.00000000000E+00 -0.74670341353E+03  0.74670341353E+03  0.25500000920E-02 0.  1.
    10030    2    1    2    0    0  0.00000000000E+00  0.00000000000E+00  0.33791741202E+03  0.18313242391E+04  0.17998778546E+04 0.  0.
        2    1    3    3  502    0 -0.83765555734E+03  0.18757198795E+03 -0.10602221422E+03  0.86492242040E+03  0.25500000920E-02 0.  1.
       -2    1    3    3    0  502  0.83765555734E+03 -0.18757198795E+03  0.44393962625E+03  0.96640181869E+03  0.25500000920E-02 0. -1.
</event>
<event>
 5   0  0.4994123E-06  0.1800462E+04  0.7818609E-02  0.8706054E-01
       -1   -1    0    0    0  501  0.00000000000E+00  0.00000000000E+00  0.73691092621E+03  0.73691092623E+03  0.50400001928E-02 0. -1.
        1   -1    0    0  501    0  0.00000000000E+00  0.00000000000E+00 -0.10997475275E+04  0.10997475275E+04  0.50400001928E-02 0.  1.
    10030    2    1    2    0    0  0.00000000000E+00  0.00000000000E+00 -0.36283660127E+03  0.18366584537E+04  0.18004621286E+04 0.  0.
        1    1    3    3  502    0 -0.27167892041E+03  0.38951979540E+03  0.59873170679E+03  0.76420858641E+03  0.50400001928E-02 0. -1.
       -1    1    3    3    0  502  0.27167892041E+03 -0.38951979540E+03 -0.96156830806E+03  0.10724498673E+04  0.50400001928E-02 0.  1.
</event>
<event>
 5   0  0.9589963E-06  0.1792227E+04  0.7818609E-02  0.8710444E-01
       -2   -1    0    0    0  501  0.00000000000E+00  0.00000000000E+00  0.11901905834E+04  0.11901905834E+04  0.25500000920E-02 0.  1.
        2   -1    0    0  501    0  0.00000000000E+00  0.00000000000E+00 -0.67469793661E+03  0.67469793661E+03  0.25500000920E-02 0. -1.
    10030    2    1    2    0    0  0.00000000000E+00  0.00000000000E+00  0.51549264682E+03  0.18648885200E+04  0.17922266942E+04 0.  0.
        2    1    3    3  502    0 -0.22540313952E+03 -0.32344852396E+03  0.10951043942E+04  0.11639068507E+04  0.25500000920E-02 0.  1.
       -2    1    3    3    0  502  0.22540313952E+03  0.32344852396E+03 -0.57961174740E+03  0.70098166930E+03  0.25500000920E-02 0. -1.
</event>
<event>
 5   0  0.4994123E-06  0.1799525E+04  0.7818609E-02  0.8706552E-01
       -1   -1    0    0    0  501  0.00000000000E+00  0.00000000000E+00  0.81976492654E+03  0.81976492655E+03  0.50400001928E-02 0.  1.
        1   -1    0    0  501    0  0.00000000000E+00  0.00000000000E+00 -0.98756692403E+03  0.98756692404E+03  0.50400001928E-02 0. -1.
    10030    2    1    2    0    0  0.00000000000E+00  0.00000000000E+00 -0.16780199749E+03  0.18073318506E+04  0.17995251895E+04 0.  0.
        1    1    3    3  502    0  0.32389949702E+03  0.52138922224E+03  0.57683989259E+03  0.84231933787E+03  0.50400001928E-02 0.  1.
       -1    1    3    3    0  502 -0.32389949702E+03 -0.52138922224E+03 -0.74464189008E+03  0.96501251273E+03  0.50400001928E-02 0. -1.
</event>
<event>
 5   0  0.4981384E-06  0.1802536E+04  0.7818609E-02  0.8704952E-01
       -1   -1    0    0    0  501  0.00000000000E+00  0.00000000000E+00  0.52232774781E+03  0.52232774783E+03  0.50400001928E-02 0. -1.
        1   -1    0    0  501    0  0.00000000000E+00  0.00000000000E+00 -0.15551230814E+04  0.15551230814E+04  0.50400001928E-02 0.  1.
    10030    2    1    2    0    0  0.00000000000E+00  0.00000000000E+00 -0.10327953336E+04  0.20774508293E+04  0.18025359211E+04 0.  0.
        5    1    3    3  502    0 -0.28788591291E+03  0.16183604470E+03  0.45006255609E+03  0.55825406278E+03  0.46999998093E+01 0. -1.
       -5    1    3    3    0  502  0.28788591291E+03 -0.16183604470E+03 -0.14828578897E+04  0.15191967665E+04  0.46999998093E+01 0.  1.
</event>
<event>
 5   0  0.1036381E-05  0.1801649E+04  0.7818609E-02  0.8705423E-01
        2   -1    0    0  501    0  0.00000000000E+00  0.00000000000E+00  0.17004768213E+04  0.17004768213E+04  0.25500000920E-02 0.  1.
       -2   -1    0    0    0  501  0.00000000000E+00  0.00000000000E+00 -0.47721024340E+03  0.47721024340E+03  0.25500000920E-02 0. -1.
    10030    2    1    2    0    0  0.00000000000E+00  0.00000000000E+00  0.12232665779E+04  0.21776870647E+04  0.18016491976E+04 0.  0.
        4    1    3    3  502    0 -0.72070503780E+03 -0.18401799162E+03  0.12258300747E+04  0.14338547199E+04  0.12699999809E+01 0.  1.
       -4    1    3    3    0  502  0.72070503780E+03  0.18401799162E+03 -0.25634968332E+01  0.74383234480E+03  0.12699999809E+01 0. -1.
</event>
<event>
 5   0  0.4987456E-06  0.1800104E+04  0.7818609E-02  0.8706244E-01
       -1   -1    0    0    0  501  0.00000000000E+00  0.00000000000E+00  0.15162964164E+04  0.15162964164E+04  0.50400001928E-02 0.  1.
        1   -1    0    0  501    0  0.00000000000E+00  0.00000000000E+00 -0.53425786985E+03  0.53425786988E+03  0.50400001928E-02 0. -1.
    10030    2    1    2    0    0  0.00000000000E+00  0.00000000000E+00  0.98203854657E+03  0.20505542863E+04  0.18001036565E+04 0.  0.
        3    1    3    3  502    0 -0.64608284804E+03 -0.44692527570E+03  0.99136641987E+03  0.12649002479E+04  0.10100000352E+00 0.  1.
       -3    1    3    3    0  502  0.64608284804E+03  0.44692527570E+03 -0.93278732994E+01  0.78565403837E+03  0.10100000352E+00 0. -1.
</event>
<event>
 5   0  0.3626125E-06  0.1800106E+04  0.7818609E-02  0.8706243E-01
       -3   -1    0    0    0  501  0.00000000000E+00  0.00000000000E+00  0.18286382463E+04  0.18286382491E+04  0.10100000352E+00 0.  1.
        3   -1    0    0  501    0  0.00000000000E+00  0.00000000000E+00 -0.44300469709E+03  0.44300470860E+03  0.10100000352E+00 0. -1.
    10030    2    1    2    0    0  0.00000000000E+00  0.00000000000E+00  0.13856335493E+04  0.22716429577E+04  0.18001059398E+04 0.  0.
        1    1    3    3  502    0  0.63857826178E+03  0.36878505975E+03  0.41583860942E+02  0.73858908348E+03  0.50400001928E-02 0. -1.
       -1    1    3    3    0  502 -0.63857826178E+03 -0.36878505975E+03  0.13440496883E+04  0.15330538743E+04  0.50400001928E-02 0.  1.
</event>
<event>
 5   0  0.4994123E-06  0.1798908E+04  0.7818609E-02  0.8706880E-01
       -1   -1    0    0    0  501  0.00000000000E+00  0.00000000000E+00  0.66703565547E+03  0.66703565549E+03  0.50400001928E-02 0.  1.
        1   -1    0    0  501    0  0.00000000000E+00  0.00000000000E+00 -0.12128548014E+04  0.12128548014E+04  0.50400001928E-02 0. -1.
    10030    2    1    2    0    0  0.00000000000E+00  0.00000000000E+00 -0.54581914590E+03  0.18798904569E+04  0.17989078881E+04 0.  0.
        1    1    3    3  502    0 -0.22694419927E+03 -0.80580322126E+01  0.63658530351E+03  0.67587680101E+03  0.50400001928E-02 0.  1.
       -1    1    3    3    0  502  0.22694419927E+03  0.80580322126E+01 -0.11824044494E+04  0.12040136559E+04  0.50400001928E-02 0. -1.
</event>
<event>
 5   0  0.4953155E-06  0.1799990E+04  0.7818609E-02  0.8706305E-01
       -1   -1    0    0    0  501  0.00000000000E+00  0.00000000000E+00  0.53443425012E+03  0.53443425014E+03  0.50400001928E-02 0.  1.
        1   -1    0    0  501    0  0.00000000000E+00  0.00000000000E+00 -0.15156040675E+04  0.15156040675E+04  0.50400001928E-02 0. -1.
    10030    2    1    2    0    0  0.00000000000E+00  0.00000000000E+00 -0.98116981735E+03  0.20500383176E+04  0.17999896925E+04 0.  0.
        2    1    3    3  502    0  0.26133453117E+03  0.39101542249E+03  0.38334493696E+03  0.60674717840E+03  0.25500000920E-02 0.  1.
       -2    1    3    3    0  502 -0.26133453117E+03 -0.39101542249E+03 -0.13645147543E+04  0.14432911392E+04  0.25500000920E-02 0. -1.
</event>
<event>
 5   0  0.4983159E-06  0.1801638E+04  0.7818609E-02  0.8705429E-01
        1   -1    0    0  501    0  0.00000000000E+00  0.00000000000E+00  0.12118482879E+04  0.12118482879E+04  0.50400001928E-02 0. -1.
       -1   -1    0    0    0  501  0.00000000000E+00  0.00000000000E+00 -0.66961727670E+03  0.66961727672E+03  0.50400001928E-02 0.  1.
    10030    2    1    2    0    0  0.00000000000E+00  0.00000000000E+00  0.54223101122E+03  0.18814655646E+04  0.18016376443E+04 0.  0.
        4    1    3    3  502    0  0.31716735421E+03  0.37126080995E+03  0.10616530765E+04  0.11685626159E+04  0.12699999809E+01 0. -1.
       -4    1    3    3    0  502 -0.31716735421E+03 -0.37126080995E+03 -0.51942206525E+03  0.71290294876E+03  0.12699999809E+01 0.  1.
</event>
<event>
 5   0  0.3626125E-06  0.1798895E+04  0.7818609E-02  0.8706888E-01
       -3   -1    0    0    0  501  0.00000000000E+00  0.00000000000E+00  0.10771380794E+04  0.10771380842E+04  0.10100000352E+00 0.  1.
        3   -1    0    0  501    0  0.00000000000E+00  0.00000000000E+00 -0.75106931921E+03  0.75106932600E+03  0.10100000352E+00 0. -1.
    10030    2    1    2    0    0  0.00000000000E+00  0.00000000000E+00  0.32606876021E+03  0.18282074102E+04  0.17988945211E+04 0.  0.
        2    1    3    3  502    0  0.32353159260E+02  0.22242991453E+03  0.10481354338E+04  0.10719653359E+04  0.25500000920E-02 0.  1.
       -2    1    3    3    0  502 -0.32353159260E+02 -0.22242991453E+03 -0.72206667358E+03  0.75624207427E+03  0.25500000920E-02 0. -1.
</event>
<event>
 5   0  0.9999162E-06  0.1800078E+04  0.7818609E-02  0.8706258E-01
        2   -1    0    0  501    0  0.00000000000E+00  0.00000000000E+00  0.98406517176E+03  0.98406517176E+03  0.25500000920E-02 0.  1.
       -2   -1    0    0    0  501  0.00000000000E+00  0.00000000000E+00 -0.82318726854E+03  0.82318726854E+03  0.25500000920E-02 0. -1.
    10030    2    1    2    0    0  0.00000000000E+00  0.00000000000E+00  0.16087790322E+03  0.18072524403E+04  0.18000776881E+04 0.  0.
        1    1    3    3  502    0  0.12243043467E+03 -0.33508314523E+03  0.91004961510E+03  0.97747645881E+03  0.50400001928E-02 0.  1.
       -1    1    3    3    0  502 -0.12243043467E+03  0.33508314523E+03 -0.74917171188E+03  0.82977598149E+03  0.50400001928E-02 0. -1.
</event>
<event>
 5   0  0.4953155E-06  0.1799048E+04  0.7818609E-02  0.8706806E-01
       -1   -1    0    0    0  501  0.00000000000E+00  0.00000000000E+00  0.10452229817E+04  0.10452229817E+04  0.50400001928E-02 0. -1.
        1   -1    0    0  501    0  0.00000000000E+00  0.00000000000E+00 -0.77413488949E+03  0.77413488951E+03  0.50400001928E-02 0.  1.
    10030    2    1    2    0    0  0.00000000000E+00  0.00000000000E+00  0.27108809221E+03  0.18193578712E+04  0.17990481677E+04 0.  0.
        2    1    3    3  502    0 -0.34355874646E+03  0.36619312937E+03 -0.61921482379E+03  0.79721830027E+03  0.25500000920E-02 0.  1.
       -2    1    3    3    0  502  0.34355874646E+03 -0.36619312937E+03  0.89030291600E+03  0.10221395710E+04  0.25500000920E-02 0. -1.
</event>
<event>
 5   0  0.1035018E-05  0.1800181E+04  0.7818609E-02  0.8706203E-01
        2   -1    0    0  501    0  0.00000000000E+00  0.00000000000E+00  0.10791033666E+04  0.10791033667E+04  0.25500000920E-02 0. -1.
       -2   -1    0    0    0  501  0.00000000000E+00  0.00000000000E+00 -0.75077392492E+03  0.75077392492E+03  0.25500000920E-02 0.  1.
    10030    2    1    2    0    0  0.00000000000E+00  0.00000000000E+00  0.32832944173E+03  0.18298772916E+04  0.18001807353E+04 0.  0.
        3    1    3    3  502    0  0.59012183320E+03  0.22143480562E+03 -0.48899693002E+03  0.79774379279E+03  0.10100000352E+00 0.  1.
       -3    1    3    3    0  502 -0.59012183320E+03 -0.22143480562E+03  0.81732637175E+03  0.10321334988E+04  0.10100000352E+00 0. -1.
</event>
<event>
 5   0  0.4983159E-06  0.1799568E+04  0.7818609E-02  0.8706529E-01
        1   -1    0    0  501    0  0.00000000000E+00  0.00000000000E+00  0.91269118158E+03  0.91269118159E+03  0.50400001928E-02 0. -1.
       -1   -1    0    0    0  501  0.00000000000E+00  0.00000000000E+00 -0.88705983378E+03  0.88705983379E+03  0.50400001928E-02 0.  1.
    10030    2    1    2    0    0  0.00000000000E+00  0.00000000000E+00  0.25631347803E+02  0.17997510154E+04  0.17995684903E+04 0.  0.
        4    1    3    3  502    0  0.81257881952E+03  0.24606362332E+03  0.31080298956E+03  0.90411932612E+03  0.12699999809E+01 0.  1.
       -4    1    3    3    0  502 -0.81257881952E+03 -0.24606362332E+03 -0.28517164176E+03  0.89563168926E+03  0.12699999809E+01 0. -1.
</event>
<event>
 5   0  0.9999162E-06  0.1800329E+04  0.7818609E-02  0.8706124E-01
        2   -1    0    0  501    0  0.00000000000E+00  0.00000000000E+00  0.66337047244E+03  0.66337047244E+03  0.25500000920E-02 0. -1.
       -2   -1    0    0    0  501  0.00000000000E+00  0.00000000000E+00 -0.12214838702E+04  0.12214838702E+04  0.25500000920E-02 0.  1.
    10030    2    1    2    0    0  0.00000000000E+00  0.00000000000E+00 -0.55811339775E+03  0.18848543426E+04  0.18003292277E+04 0.  0.
        1    1    3    3  502    0 -0.71262499700E+03 -0.51925530533E+03 -0.89342363075E+02  0.88625194856E+03  0.50400001928E-02 0. -1.
       -1    1    3    3    0  502  0.71262499700E+03  0.51925530533E+03 -0.46877103467E+03  0.99860239407E+03  0.50400001928E-02 0.  1.
</event>
<event>
 5   0  0.4987456E-06  0.1802749E+04  0.7818609E-02  0.8704839E-01
       -1   -1    0    0    0  501  0.00000000000E+00  0.00000000000E+00  0.95102100975E+03  0.95102100977E+03  0.50400001928E-02 0. -1.
        1   -1    0    0  501    0  0.00000000000E+00  0.00000000000E+00 -0.85431970976E+03  0.85431970977E+03  0.50400001928E-02 0.  1.
    10030    2    1    2    0    0  0.00000000000E+00  0.00000000000E+00  0.96701299995E+02  0.18053407195E+04  0.18027490042E+04 0.  0.
        3    1    3    3  502    0 -0.49469149455E+03 -0.14232931805E+03  0.78934594262E+03  0.94236104381E+03  0.10100000352E+00 0. -1.
       -3    1    3    3    0  502  0.49469149455E+03  0.14232931805E+03 -0.69264464263E+03  0.86297967573E+03  0.10100000352E+00 0.  1.
</event>
<event>
 5   0  0.1036381E-05  0.1795219E+04  0.7818609E-02  0.8708846E-01
        2   -1    0    0  501    0  0.00000000000E+00  0.00000000000E+00  0.70191467738E+03  0.70191467739E+03  0.25500000920E-02 0. -1.
       -2   -1    0    0    0  501  0.00000000000E+00  0.00000000000E+00 -0.11478648254E+04  0.11478648254E+04  0.25500000920E-02 0.  1.
    10030    2    1    2    0    0  0.00000000000E+00  0.00000000000E+00 -0.44595014797E+03  0.18497795027E+04  0.17952193945E+04 0.  0.
        4    1    3    3  502    0  0.54469589507E+03  0.32131080136E+03  0.43338318952E+03  0.76665301867E+03  0.12699999809E+01 0. -1.
       -4    1    3    3    0  502 -0.54469589507E+03 -0.32131080136E+03 -0.87933333749E+03  0.10831264841E+04  0.12699999809E+01 0.  1.
</event>
<event>
 5   0  0.9589963E-06  0.1798015E+04  0.7818609E-02  0.8707356E-01
        2   -1    0    0  501    0  0.00000000000E+00  0.00000000000E+00  0.19251603176E+04  0.19251603176E+04  0.25500000920E-02 0. -1.
       -2   -1    0    0    0  501  0.00000000000E+00  0.00000000000E+00 -0.41981682151E+03  0.41981682152E+03  0.25500000920E-02 0.  1.
    10030    2    1    2    0    0  0.00000000000E+00  0.00000000000E+00  0.15053434961E+04  0.23449771392E+04  0.17980152229E+04 0.  0.
        2    1    3    3  502    0  0.86903250128E+03 -0.22802538054E+03  0.79394772830E+03  0.11989854285E+04  0.25500000920E-02 0.  1.
       -2    1    3    3    0  502 -0.86903250128E+03  0.22802538054E+03  0.71139576783E+03  0.11459917107E+04  0.25500000920E-02 0. -1.
</event>
<event>
 5   0  0.1000316E-05  0.1799577E+04  0.7818609E-02  0.8706524E-01
       -2   -1    0    0    0  501  0.00000000000E+00  0.00000000000E+00  0.75840762291E+03  0.75840762292E+03  0.25500000920E-02 0.  1.
        2   -1    0    0  501    0  0.00000000000E+00  0.00000000000E+00 -0.10675252993E+04  0.10675252993E+04  0.25500000920E-02 0. -1.
    10030    2    1    2    0    0  0.00000000000E+00  0.00000000000E+00 -0.30911767639E+03  0.18259329222E+04  0.17995769777E+04 0.  0.
        5    1    3    3  502    0 -0.16635493934E+03 -0.86316367270E+03  0.40273581544E+02  0.87998269476E+03  0.46999998093E+01 0.  1.
       -5    1    3    3    0  502  0.16635493934E+03  0.86316367270E+03 -0.34939125793E+03  0.94595022746E+03  0.46999998093E+01 0. -1.
</event>
<event>
 5   0  0.9589963E-06  0.1799911E+04  0.7818609E-02  0.8706347E-01
       -2   -1    0    0    0  501  0.00000000000E+00  0.00000000000E+00  0.86281600783E+03  0.86281600783E+03  0.25500000920E-02 0.  1.
        2   -1    0    0  501    0  0.00000000000E+00  0.00000000000E+00 -0.93869404825E+03  0.93869404825E+03  0.25500000920E-02 0. -1.
    10030    2    1    2    0    0  0.00000000000E+00  0.00000000000E+00 -0.75878040415E+02  0.18015100561E+04  0.17999113881E+04 0.  0.
        2    1    3    3  502    0 -0.24082851986E+03  0.13364610603E+03  0.81959532143E+03  0.86463642564E+03  0.25500000920E-02 0.  1.
       -2    1    3    3    0  502  0.24082851986E+03 -0.13364610603E+03 -0.89547336185E+03  0.93687363044E+03  0.25500000920E-02 0. -1.
</event>
<event>
 5   0  0.1035018E-05  0.1798645E+04  0.7818609E-02  0.8707020E-01
       -2   -1    0    0    0  501  0.00000000000E+00  0.00000000000E+00  0.93503909236E+03  0.93503909236E+03  0.25500000920E-02 0.  1.
        2   -1    0    0  501    0  0.00000000000E+00  0.00000000000E+00 -0.86497035735E+03  0.86497035735E+03  0.25500000920E-02 0. -1.
    10030    2    1    2    0    0  0.00000000000E+00  0.00000000000E+00  0.70068735006E+02  0.18000094497E+04  0.17986451544E+04 0.  0.
        3    1    3    3  502    0  0.36542782615E+03 -0.11336887324E+03 -0.77945709066E+03  0.86829912123E+03  0.10100000352E+00 0. -1.
       -3    1    3    3    0  502 -0.36542782615E+03  0.11336887324E+03  0.84952582566E+03  0.93171032849E+03  0.10100000352E+00 0.  1.
</event>
<event>
 5   0  0.1035018E-05  0.1800382E+04  0.7818609E-02  0.8706096E-01
        2   -1    0    0  501    0  0.00000000000E+00  0.00000000000E+00  0.26942334343E+04  0.26942334343E+04  0.25500000920E-02 0. -1.
       -2   -1    0    0    0  501  0.00000000000E+00  0.00000000000E+00 -0.30076979025E+03  0.30076979026E+03  0.25500000920E-02 0.  1.
    10030    2    1    2    0    0  0.00000000000E+00  0.00000000000E+00  0.23934636440E+04  0.29950032245E+04  0.18003822093E+04 0.  0.
        3    1    3    3  502    0 -0.59448149858E+03 -0.66967521144E+03  0.10436242440E+04  0.13751453428E+04  0.10100000352E+00 0.  1.
       -3    1    3    3    0  502  0.59448149858E+03  0.66967521144E+03  0.13498394000E+04  0.16198578817E+04  0.10100000352E+00 0. -1.
</event>
<event>
 5   0  0.9589963E-06  0.1800304E+04  0.7818609E-02  0.8706138E-01
        2   -1    0    0  501    0  0.00000000000E+00  0.00000000000E+00  0.16015639935E+04  0.16015639935E+04  0.25500000920E-02 0. -1.
       -2   -1    0    0    0  501  0.00000000000E+00  0.00000000000E+00 -0.50592620812E+03  0.50592620813E+03  0.25500000920E-02 0.  1.
    10030    2    1    2    0    0  0.00000000000E+00  0.00000000000E+00  0.10956377854E+04  0.21074902016E+04  0.18003035281E+04 0.  0.
        2    1    3    3  502    0  0.74621157220E+03  0.34557195889E+03  0.97637440276E+03  0.12765416811E+04  0.25500000920E-02 0. -1.
       -2    1    3    3    0  502 -0.74621157220E+03 -0.34557195889E+03  0.11926338259E+03  0.83094852049E+03  0.25500000920E-02 0.  1.
</event>
<event>
 5   0  0.3626125E-06  0.1797792E+04  0.7818609E-02  0.8707474E-01
        3   -1    0    0  501    0  0.00000000000E+00  0.00000000000E+00  0.80781017855E+03  0.80781018486E+03  0.10100000352E+00 0. -1.
       -3   -1    0    0    0  501  0.00000000000E+00  0.00000000000E+00 -0.10002527408E+04  0.10002527459E+04  0.10100000352E+00 0.  1.
    10030    2    1    2    0    0  0.00000000000E+00  0.00000000000E+00 -0.19244256229E+03  0.18080629308E+04  0.17977923745E+04 0.  0.
        5    1    3    3  502    0 -0.48061282195E+03  0.27772035636E+03 -0.80727876244E+03  0.97971341281E+03  0.46999998093E+01 0.  1.
       -5    1    3    3    0  502  0.48061282195E+03 -0.27772035636E+03  0.61483620014E+03  0.82834951800E+03  0.46999998093E+01 0. -1.
</event>
<event>
 5   0  0.3626125E-06  0.1799287E+04  0.7818609E-02  0.8706679E-01
        4   -1    0    0  501    0  0.00000000000E+00  0.00000000000E+00  0.15429917579E+04  0.15429922806E+04  0.12699999809E+01 0.  1.
       -4   -1    0    0    0  501  0.00000000000E+00  0.00000000000E+00 -0.52453674522E+03  0.52453828267E+03  0.12699999809E+01 0. -1.
    10030    2    1    2    0    0  0.00000000000E+00  0.00000000000E+00  0.10184550127E+04  0.20675305633E+04  0.17992865300E+04 0.  0.
        4    1    3    3  502    0 -0.26089784908E+03 -0.71788913468E+03 -0.36948593601E+02  0.76472171985E+03  0.12699999809E+01 0. -1.
       -4    1    3    3    0  502  0.26089784908E+03  0.71788913468E+03  0.10554036063E+04  0.13028088434E+04  0.12699999809E+01 0.  1.
</event>
<event>
 5   0  0.1035018E-05  0.1799561E+04  0.7818609E-02  0.8706533E-01
       -2   -1    0    0    0  501  0.00000000000E+00  0.00000000000E+00  0.12330040645E+04  0.12330040645E+04  0.25500000920E-02 0. -1.
        2   -1    0    0  501    0  0.00000000000E+00  0.00000000000E+00 -0.65661165602E+03  0.65661165603E+03  0.25500000920E-02 0.  1.
    10030    2    1    2    0    0  0.00000000000E+00  0.00000000000E+00  0.57639240848E+03  0.18896157205E+04  0.17995608805E+04 0.  0.
        3    1    3    3  502    0  0.28063950231E+03  0.77887194492E+03  0.65825959893E+03  0.10576888704E+04  0.10100000352E+00 0. -1.
       -3    1    3    3    0  502 -0.28063950231E+03 -0.77887194492E+03 -0.81867190450E+02  0.83192685010E+03  0.10100000352E+00 0.  1.
</event>
<event>
 5   0  0.4983159E-06  0.1800261E+04  0.7818609E-02  0.8706160E-01
        1   -1    0    0  501    0  0.00000000000E+00  0.00000000000E+00  0.10760506552E+04  0.10760506552E+04  0.50400001928E-02 0. -1.
       -1   -1    0    0    0  501  0.00000000000E+00  0.00000000000E+00 -0.75297132643E+03  0.75297132645E+03  0.50400001928E-02 0.  1.
    10030    2    1    2    0    0  0.00000000000E+00  0.00000000000E+00  0.32307932876E+03  0.18290219816E+04  0.18002614134E+04 0.  0.
        4    1    3    3  502    0  0.38442277733E+03 -0.80869193047E+03  0.68035852487E+02  0.89799443220E+03  0.12699999809E+01 0. -1.
       -4    1    3    3    0  502 -0.38442277733E+03  0.80869193047E+03  0.25504347627E+03  0.93102754944E+03  0.12699999809E+01 0.  1.
</event>
<event>
 5   0  0.9999162E-06  0.1800195E+04  0.7818609E-02  0.8706196E-01
        2   -1    0    0  501    0  0.00000000000E+00  0.00000000000E+00  0.10247646733E+04  0.10247646733E+04  0.25500000920E-02 0. -1.
       -2   -1    0    0    0  501  0.00000000000E+00  0.00000000000E+00 -0.79059630197E+03  0.79059630198E+03  0.25500000920E-02 0.  1.
    10030    2    1    2    0    0  0.00000000000E+00  0.00000000000E+00  0.23416837132E+03  0.18153609753E+04  0.18001946129E+04 0.  0.
        1    1    3    3  502    0  0.37533904530E+03 -0.53225000866E+03  0.74361205043E+03  0.98849802843E+03  0.50400001928E-02 0. -1.
       -1    1    3    3    0  502 -0.37533904530E+03  0.53225000866E+03 -0.50944367911E+03  0.82686294684E+03  0.50400001928E-02 0.  1.
</event>
<event>
 5   0  0.9589963E-06  0.1805690E+04  0.7818609E-02  0.8703280E-01
       -2   -1    0    0    0  501  0.00000000000E+00  0.00000000000E+00  0.79337892354E+03  0.79337892354E+03  0.25500000920E-02 0.  1.
        2   -1    0    0  501    0  0.00000000000E+00  0.00000000000E+00 -0.10274140595E+04  0.10274140595E+04  0.25500000920E-02 0. -1.
    10030    2    1    2    0    0  0.00000000000E+00  0.00000000000E+00 -0.23403513600E+03  0.18207929831E+04  0.18056895199E+04 0.  0.
        2    1    3    3  502    0 -0.29712941675E+03 -0.84950069588E+03 -0.18967116931E+03  0.91973500263E+03  0.25500000920E-02 0.  1.
       -2    1    3    3    0  502  0.29712941675E+03  0.84950069588E+03 -0.44363966692E+02  0.90105798045E+03  0.25500000920E-02 0. -1.
</event>
<event>
 5   0  0.4953155E-06  0.1796555E+04  0.7818609E-02  0.8708134E-01
        1   -1    0    0  501    0  0.00000000000E+00  0.00000000000E+00  0.92468222109E+03  0.92468222110E+03  0.50400001928E-02 0.  1.
       -1   -1    0    0    0  501  0.00000000000E+00  0.00000000000E+00 -0.87262645360E+03  0.87262645361E+03  0.50400001928E-02 0. -1.
    10030    2    1    2    0    0  0.00000000000E+00  0.00000000000E+00  0.52055767493E+02  0.17973086747E+04  0.17965546664E+04 0.  0.
        2    1    3    3  502    0  0.84686064276E+01  0.24875592658E+03  0.88949553071E+03  0.92366310280E+03  0.25500000920E-02 0.  1.
       -2    1    3    3    0  502 -0.84686064276E+01 -0.24875592658E+03 -0.83743976322E+03  0.87364557192E+03  0.25500000920E-02 0. -1.
</event>
<event>
 5   0  0.1000316E-05  0.1800587E+04  0.7818609E-02  0.8705987E-01
        2   -1    0    0  501    0  0.00000000000E+00  0.00000000000E+00  0.90324582996E+03  0.90324582996E+03  0.25500000920E-02 0. -1.
       -2   -1    0    0    0  501  0.00000000000E+00  0.00000000000E+00 -0.89735069215E+03  0.89735069215E+03  0.25500000920E-02 0.  1.
    10030    2    1    2    0    0  0.00000000000E+00  0.00000000000E+00  0.58951378096E+01  0.18005965221E+04  0.18005868718E+04 0.  0.
        5    1    3    3  502    0 -0.81972616362E+03 -0.34173958857E+03 -0.14459728642E+03  0.89981520045E+03  0.46999998093E+01 0. -1.
       -5    1    3    3    0  502  0.81972616362E+03  0.34173958857E+03  0.15049242423E+03  0.90078132167E+03  0.46999998093E+01 0.  1.
</event>
<event>
 5   0  0.4987456E-06  0.1799153E+04  0.7818609E-02  0.8706750E-01
        1   -1    0    0  501    0  0.00000000000E+00  0.00000000000E+00  0.12917803488E+04  0.12917803488E+04  0.50400001928E-02 0.  1.
       -1   -1    0    0    0  501  0.00000000000E+00  0.00000000000E+00 -0.62645184841E+03  0.62645184843E+03  0.50400001928E-02 0. -1.
    10030    2    1    2    0    0  0.00000000000E+00  0.00000000000E+00  0.66532850041E+03  0.19182321973E+04  0.17991533423E+04 0.  0.
        3    1    3    3  502    0 -0.31920541080E+03 -0.57329397650E+03  0.98876304124E+03  0.11866804286E+04  0.10100000352E+00 0.  1.
       -3    1    3    3    0  502  0.31920541080E+03  0.57329397650E+03 -0.32343454083E+03  0.73155176863E+03  0.10100000352E+00 0. -1.
</event>
<event>
 5   0  0.4987456E-06  0.1799775E+04  0.7818609E-02  0.8706419E-01
       -1   -1    0    0    0  501  0.00000000000E+00  0.00000000000E+00  0.43070911355E+03  0.43070911358E+03  0.50400001928E-02 0. -1.
        1   -1    0    0  501    0  0.00000000000E+00  0.00000000000E+00 -0.18801491038E+04  0.18801491038E+04  0.50400001928E-02 0.  1.
    10030    2    1    2    0    0  0.00000000000E+00  0.00000000000E+00 -0.14494399903E+04  0.23108582174E+04  0.17997748236E+04 0.  0.
        3    1    3    3  502    0  0.22336889603E+03 -0.60083940304E+03  0.86212681497E+02  0.64678766888E+03  0.10100000352E+00 0. -1.
       -3    1    3    3    0  502 -0.22336889603E+03  0.60083940304E+03 -0.15356526718E+04  0.16640705485E+04  0.10100000352E+00 0.  1.
</event>
<event>
 5   0  0.4983159E-06  0.1799684E+04  0.7818609E-02  0.8706467E-01
       -1   -1    0    0    0  501  0.00000000000E+00  0.00000000000E+00  0.70823582690E+03  0.70823582692E+03  0.50400001928E-02 0. -1.
        1   -1    0    0  501    0  0.00000000000E+00  0.00000000000E+00 -0.11432857752E+04  0.11432857752E+04  0.50400001928E-02 0.  1.
    10030    2    1    2    0    0  0.00000000000E+00  0.00000000000E+00 -0.43504994827E+03  0.18515216021E+04  0.17996843572E+04 0.  0.
        4    1    3    3  502    0 -0.76835729991E+03 -0.46706596987E+03 -0.18202345624E+03  0.91741904932E+03  0.12699999809E+01 0. -1.
       -4    1    3    3    0  502  0.76835729991E+03  0.46706596987E+03 -0.25302649203E+03  0.93410255277E+03  0.12699999809E+01 0.  1.
</event>
<event>
 5   0  0.1036381E-05  0.1798934E+04  0.7818609E-02  0.8706866E-01
       -2   -1    0    0    0  501  0.00000000000E+00  0.00000000000E+00  0.65785638175E+03  0.65785638175E+03  0.25500000920E-02 0. -1.
        2   -1    0    0  501    0  0.00000000000E+00  0.00000000000E+00 -0.12298145106E+04  0.12298145106E+04  0.25500000920E-02 0.  1.
    10030    2    1    2    0    0  0.00000000000E+00  0.00000000000E+00 -0.57195812881E+03  0.18876708923E+04  0.17989344892E+04 0.  0.
        4    1    3    3  502    0 -0.39924545745E+03 -0.73428577045E+03  0.62781660032E+02  0.83816208320E+03  0.12699999809E+01 0. -1.
       -4    1    3    3    0  502  0.39924545745E+03  0.73428577045E+03 -0.63473978885E+03  0.10495088091E+04  0.12699999809E+01 0.  1.
</event>
<event>
 5   0  0.9589963E-06  0.1799587E+04  0.7818609E-02  0.8706519E-01
       -2   -1    0    0    0  501  0.00000000000E+00  0.00000000000E+00  0.70331041738E+03  0.70331041739E+03  0.25500000920E-02 0.  1.
        2   -1    0    0  501    0  0.00000000000E+00  0.00000000000E+00 -0.11511682958E+04  0.11511682958E+04  0.25500000920E-02 0. -1.
    10030    2    1    2    0    0  0.00000000000E+00  0.00000000000E+00 -0.44785787846E+03  0.18544787132E+04  0.17995873467E+04 0.  0.
        2    1    3    3  502    0  0.17212520257E+03  0.37391126033E+03 -0.10484543078E+04  0.11263627974E+04  0.25500000920E-02 0. -1.
       -2    1    3    3    0  502 -0.17212520257E+03 -0.37391126033E+03  0.60059642930E+03  0.72811591581E+03  0.25500000920E-02 0.  1.
</event>
<event>
 5   0  0.1036381E-05  0.1799624E+04  0.7818609E-02  0.8706499E-01
        2   -1    0    0  501    0  0.00000000000E+00  0.00000000000E+00  0.10247943511E+04  0.10247943511E+04  0.25500000920E-02 0. -1.
       -2   -1    0    0    0  501  0.00000000000E+00  0.00000000000E+00 -0.79007251889E+03  0.79007251889E+03  0.25500000920E-02 0.  1.
    10030    2    1    2    0    0  0.00000000000E+00  0.00000000000E+00  0.23472183220E+03  0.18148668700E+04  0.17996242434E+04 0.  0.
        4    1    3    3  502    0 -0.14550039897E+03 -0.52651388675E+03 -0.60372890975E+03  0.81417286150E+03  0.12699999809E+01 0.  1.
       -4    1    3    3    0  502  0.14550039897E+03  0.52651388675E+03  0.83845074196E+03  0.10006940085E+04  0.12699999809E+01 0. -1.
</event>
<event>
 5   0  0.9999162E-06  0.1801114E+04  0.7818609E-02  0.8705707E-01
       -2   -1    0    0    0  501  0.00000000000E+00  0.00000000000E+00  0.10998663527E+04  0.10998663527E+04  0.25500000920E-02 0.  1.
        2   -1    0    0  501    0  0.00000000000E+00  0.00000000000E+00 -0.73736494253E+03  0.73736494254E+03  0.25500000920E-02 0. -1.
    10030    2    1    2    0    0  0.00000000000E+00  0.00000000000E+00  0.36250141022E+03  0.18372312953E+04  0.18011139775E+04 0.  0.
        1    1    3    3  502    0  0.31645994997E+02 -0.26822779624E+03 -0.69507808708E+03  0.74570849992E+03  0.50400001928E-02 0. -1.
       -1    1    3    3    0  502 -0.31645994997E+02  0.26822779624E+03  0.10575794973E+04  0.10915227954E+04  0.50400001928E-02 0.  1.
</event>
<event>
 5   0  0.1035018E-05  0.1799223E+04  0.7818609E-02  0.8706713E-01
        2   -1    0    0  501    0  0.00000000000E+00  0.00000000000E+00  0.14279633792E+04  0.14279633792E+04  0.25500000920E-02 0.  1.
       -2   -1    0    0    0  501  0.00000000000E+00  0.00000000000E+00 -0.56675160451E+03  0.56675160451E+03  0.25500000920E-02 0. -1.
    10030    2    1    2    0    0  0.00000000000E+00  0.00000000000E+00  0.86121177469E+03  0.19947149837E+04  0.17992226503E+04 0.  0.
        3    1    3    3  502    0  0.82725244738E+02  0.50574566426E+03 -0.38910724123E+03  0.64344898665E+03  0.10100000352E+00 0. -1.
       -3    1    3    3    0  502 -0.82725244738E+02 -0.50574566426E+03  0.12503190159E+04  0.13512659971E+04  0.10100000352E+00 0.  1.
</event>
<event>
 5   0  0.4994123E-06  0.1801471E+04  0.7818609E-02  0.8705518E-01
       -1   -1    0    0    0  501  0.00000000000E+00  0.00000000000E+00  0.40865363015E+03  0.40865363018E+03  0.50400001928E-02 0.  1.
        1   -1    0    0  501    0  0.00000000000E+00  0.00000000000E+00 -0.19853588765E+04  0.19853588765E+04  0.50400001928E-02 0. -1.
    10030    2    1    2    0    0  0.00000000000E+00  0.00000000000E+00 -0.15767052463E+04  0.23940125066E+04  0.18014706349E+04 0.  0.
        1    1    3    3  502    0  0.70290068965E+03  0.52591873240E+03 -0.10563345144E+04  0.13735000906E+04  0.50400001928E-02 0.  1.
       -1    1    3    3    0  502 -0.70290068965E+03 -0.52591873240E+03 -0.52037073190E+03  0.10205124160E+04  0.50400001928E-02 0. -1.
</event>
<event>
 5   0  0.9589963E-06  0.1799446E+04  0.7818609E-02  0.8706594E-01
        2   -1    0    0  501    0  0.00000000000E+00  0.00000000000E+00  0.14992625951E+04  0.14992625951E+04  0.25500000920E-02 0.  1.
       -2   -1    0    0    0  501  0.00000000000E+00  0.00000000000E+00 -0.53993308590E+03  0.53993308591E+03  0.25500000920E-02 0. -1.
    10030    2    1    2    0    0  0.00000000000E+00  0.00000000000E+00  0.95932950918E+03  0.20391956810E+04  0.17994460031E+04 0.  0.
        2    1    3    3  502    0  0.43326755692E+03 -0.30727303254E+03 -0.34328878616E+03  0.63244342286E+03  0.25500000920E-02 0. -1.
       -2    1    3    3    0  502 -0.43326755692E+03  0.30727303254E+03  0.13026182953E+04  0.14067522581E+04  0.25500000920E-02 0.  1.
</event>
<event>
 5   0  0.4953155E-06  0.1800604E+04  0.7818609E-02  0.8705978E-01
       -1   -1    0    0    0  501  0.00000000000E+00  0.00000000000E+00  0.67332617002E+03  0.67332617004E+03  0.50400001928E-02 0.  1.
        1   -1    0    0  501    0  0.00000000000E+00  0.00000000000E+00 -0.12037910796E+04  0.12037910796E+04  0.50400001928E-02 0. -1.
    10030    2    1    2    0    0  0.00000000000E+00  0.00000000000E+00 -0.53046490958E+03  0.18771172497E+04  0.18006043843E+04 0.  0.
        2    1    3    3  502    0 -0.42219756954E+03 -0.33079287771E+03 -0.10190559647E+04  0.11515857653E+04  0.25500000920E-02 0. -1.
       -2    1    3    3    0  502  0.42219756954E+03  0.33079287771E+03  0.48859105510E+03  0.72553148436E+03  0.25500000920E-02 0.  1.
</event>
<event>
 5   0  0.9589963E-06  0.1801803E+04  0.7818609E-02  0.8705341E-01
       -2   -1    0    0    0  501  0.00000000000E+00  0.00000000000E+00  0.44670440735E+03  0.44670440736E+03  0.25500000920E-02 0. -1.
        2   -1    0    0  501    0  0.00000000000E+00  0.00000000000E+00 -0.18169149499E+04  0.18169149499E+04  0.25500000920E-02 0.  1.
    10030    2    1    2    0    0  0.00000000000E+00  0.00000000000E+00 -0.13702105426E+04  0.22636193573E+04  0.18018034476E+04 0.  0.
        2    1    3    3  502    0  0.71506675323E+03  0.23448248634E+03 -0.13073535711E+04  0.15084680500E+04  0.25500000920E-02 0.  1.
       -2    1    3    3    0  502 -0.71506675323E+03 -0.23448248634E+03 -0.62856971423E+02  0.75515130725E+03  0.25500000920E-02 0. -1.
</event>
<event>
 5   0  0.1036381E-05  0.1800404E+04  0.7818609E-02  0.8706085E-01
        2   -1    0    0  501    0  0.00000000000E+00  0.00000000000E+00  0.17934690039E+04  0.17934690039E+04  0.25500000920E-02 0. -1.
       -2   -1    0    0    0  501  0.00000000000E+00  0.00000000000E+00 -0.45184138805E+03  0.45184138806E+03  0.25500000920E-02 0.  1.
    10030    2    1    2    0    0  0.00000000000E+00  0.00000000000E+00  0.13416276158E+04  0.22453103919E+04  0.18004038704E+04 0.  0.
        4    1    3    3  502    0  0.87991479958E+03 -0.76978163819E+02  0.45413780877E+03  0.99318601203E+03  0.12699999809E+01 0. -1.
       -4    1    3    3    0  502 -0.87991479958E+03  0.76978163819E+02  0.88748980706E+03  0.12521243799E+04  0.12699999809E+01 0.  1.
</event>
<event>
 5   0  0.4994123E-06  0.1800134E+04  0.7818609E-02  0.8706228E-01
        1   -1    0    0  501    0  0.00000000000E+00  0.00000000000E+00  0.19449288796E+04  0.19449288796E+04  0.50400001928E-02 0.  1.
       -1   -1    0    0    0  501  0.00000000000E+00  0.00000000000E+00 -0.41652960089E+03  0.41652960092E+03  0.50400001928E-02 0. -1.
    10030    2    1    2    0    0  0.00000000000E+00  0.00000000000E+00  0.15283992787E+04  0.23614584805E+04  0.18001338284E+04 0.  0.
        1    1    3    3  502    0 -0.56526257052E+03 -0.21395262355E+03 -0.11072191217E+03  0.61445654087E+03  0.50400001928E-02 0. -1.
       -1    1    3    3    0  502  0.56526257052E+03  0.21395262355E+03  0.16391211909E+04  0.17470019396E+04  0.50400001928E-02 0.  1.
</event>
<event>
 5   0  0.4987456E-06  0.1799969E+04  0.7818609E-02  0.8706316E-01
       -1   -1    0    0    0  501  0.00000000000E+00  0.00000000000E+00  0.59273078311E+03  0.59273078313E+03  0.50400001928E-02 0. -1.
        1   -1    0    0  501    0  0.00000000000E+00  0.00000000000E+00 -0.13665089167E+04  0.13665089167E+04  0.50400001928E-02 0.  1.
    10030    2    1    2    0    0  0.00000000000E+00  0.00000000000E+00 -0.77377813355E+03  0.19592396998E+04  0.17999687779E+04 0.  0.
        3    1    3    3  502    0  0.71347630503E+03  0.49273627064E+03 -0.12444348139E+03  0.87597012535E+03  0.10100000352E+00 0.  1.
       -3    1    3    3    0  502 -0.71347630503E+03 -0.49273627064E+03 -0.64933465216E+03  0.10832695745E+04  0.10100000352E+00 0. -1.
</event>
<event>
 5   0  0.1035018E-05  0.1799536E+04  0.7818609E-02  0.8706546E-01
        2   -1    0    0  501    0  0.00000000000E+00  0.00000000000E+00  0.68307200006E+03  0.68307200007E+03  0.25500000920E-02 0.  1.
       -2   -1    0    0    0  501  0.00000000000E+00  0.00000000000E+00 -0.11852076035E+04  0.11852076035E+04  0.25500000920E-02 0. -1.
    10030    2    1    2    0    0  0.00000000000E+00  0.00000000000E+00 -0.50213560340E+03  0.18682796035E+04  0.17995356381E+04 0.  0.
        3    1    3    3  502    0 -0.30443897295E+03 -0.18597742617E+03 -0.11086440475E+04  0.11646296946E+04  0.10100000352E+00 0. -1.
       -3    1    3    3    0  502  0.30443897295E+03  0.18597742617E+03  0.60650844413E+03  0.70364990890E+03  0.10100000352E+00 0.  1.
</event>
<event>
 5   0  0.4981384E-06  0.1799769E+04  0.7818609E-02  0.8706422E-01
       -1   -1    0    0    0  501  0.00000000000E+00  0.00000000000E+00  0.73378230985E+03  0.73378230986E+03  0.50400001928E-02 0.  1.
        1   -1    0    0  501    0  0.00000000000E+00  0.00000000000E+00 -0.11035863900E+04  0.11035863901E+04  0.50400001928E-02 0. -1.
    10030    2    1    2    0    0  0.00000000000E+00  0.00000000000E+00 -0.36980408020E+03  0.18373686999E+04  0.17997690634E+04 0.  0.
        5    1    3    3  502    0 -0.60323794882E+03 -0.31672708473E+03  0.41522060446E+03  0.79789868370E+03  0.46999998093E+01 0.  1.
       -5    1    3    3    0  502  0.60323794882E+03  0.31672708473E+03 -0.78502468466E+03  0.10394700162E+04  0.46999998093E+01 0. -1.
</event>
<event>
 5   0  0.4983159E-06  0.1800194E+04  0.7818609E-02  0.8706196E-01
        1   -1    0    0  501    0  0.00000000000E+00  0.00000000000E+00  0.10881393712E+04  0.10881393712E+04  0.50400001928E-02 0.  1.
       -1   -1    0    0    0  501  0.00000000000E+00  0.00000000000E+00 -0.74455076453E+03  0.74455076454E+03  0.50400001928E-02 0. -1.
    10030    2    1    2    0    0  0.00000000000E+00  0.00000000000E+00  0.34358860670E+03  0.18326901358E+04  0.18001944348E+04 0.  0.
        4    1    3    3  502    0  0.50241954641E+03 -0.57733120514E+03 -0.31050488681E+03  0.82592470521E+03  0.12699999809E+01 0. -1.
       -4    1    3    3    0  502 -0.50241954641E+03  0.57733120514E+03  0.65409349351E+03  0.10067654306E+04  0.12699999809E+01 0.  1.
</event>
<event>
 5   0  0.1036381E-05  0.1799484E+04  0.7818609E-02  0.8706574E-01
        2   -1    0    0  501    0  0.00000000000E+00  0.00000000000E+00  0.22185910588E+04  0.22185910588E+04  0.25500000920E-02 0.  1.
       -2   -1    0    0    0  501  0.00000000000E+00  0.00000000000E+00 -0.36488719562E+03  0.36488719563E+03  0.25500000920E-02 0. -1.
    10030    2    1    2    0    0  0.00000000000E+00  0.00000000000E+00  0.18537038632E+04  0.25834782544E+04  0.17994837812E+04 0.  0.
        4    1    3    3  502    0 -0.58853794241E+03  0.15904622647E+03 -0.23151398080E+02  0.61009033097E+03  0.12699999809E+01 0. -1.
       -4    1    3    3    0  502  0.58853794241E+03 -0.15904622647E+03  0.18768552613E+04  0.19733879235E+04  0.12699999809E+01 0.  1.
</event>
<event>
 5   0  0.9999162E-06  0.1800013E+04  0.7818609E-02  0.8706292E-01
       -2   -1    0    0    0  501  0.00000000000E+00  0.00000000000E+00  0.66002319344E+03  0.66002319344E+03  0.25500000920E-02 0.  1.
        2   -1    0    0  501    0  0.00000000000E+00  0.00000000000E+00 -0.12272479387E+04  0.12272479387E+04  0.25500000920E-02 0. -1.
    10030    2    1    2    0    0  0.00000000000E+00  0.00000000000E+00 -0.56722474526E+03  0.18872711321E+04  0.18000134484E+04 0.  0.
        1    1    3    3  502    0 -0.15167438760E+03 -0.70342330026E+02 -0.12108227629E+04  0.12223113051E+04  0.50400001928E-02 0. -1.
       -1    1    3    3    0  502  0.15167438760E+03  0.70342330026E+02  0.64359801767E+03  0.66495982707E+03  0.50400001928E-02 0.  1.
</event>
<event>
 5   0  0.4953155E-06  0.1798960E+04  0.7818609E-02  0.8706853E-01
        1   -1    0    0  501    0  0.00000000000E+00  0.00000000000E+00  0.21865181899E+04  0.21865181899E+04  0.50400001928E-02 0. -1.
       -1   -1    0    0    0  501  0.00000000000E+00  0.00000000000E+00 -0.37002412993E+03  0.37002412996E+03  0.50400001928E-02 0.  1.
    10030    2    1    2    0    0  0.00000000000E+00  0.00000000000E+00  0.18164940600E+04  0.25565423199E+04  0.17989602451E+04 0.  0.
        2    1    3    3  502    0  0.20194773226E+03 -0.36211996303E+03  0.20426112379E+04  0.20842683185E+04  0.25500000920E-02 0. -1.
       -2    1    3    3    0  502 -0.20194773226E+03  0.36211996303E+03 -0.22611717795E+03  0.47227400136E+03  0.25500000920E-02 0.  1.
</event>
<event>
 5   0  0.9589963E-06  0.1800427E+04  0.7818609E-02  0.8706072E-01
        2   -1    0    0  501    0  0.00000000000E+00  0.00000000000E+00  0.10021604854E+04  0.10021604854E+04  0.25500000920E-02 0.  1.
       -2   -1    0    0    0  501  0.00000000000E+00  0.00000000000E+00 -0.80863739583E+03  0.80863739584E+03  0.25500000920E-02 0. -1.
    10030    2    1    2    0    0  0.00000000000E+00  0.00000000000E+00  0.19352308956E+03  0.18107978812E+04  0.18004271106E+04 0.  0.
        2    1    3    3  502    0  0.59157336020E+03  0.49566753278E+03  0.56283031120E+03  0.95520851272E+03  0.25500000920E-02 0. -1.
       -2    1    3    3    0  502 -0.59157336020E+03 -0.49566753278E+03 -0.36930722164E+03  0.85558936852E+03  0.25500000920E-02 0.  1.
</event>
<event>
 5   0  0.9999162E-06  0.1800584E+04  0.7818609E-02  0.8705989E-01
        2   -1    0    0  501    0  0.00000000000E+00  0.00000000000E+00  0.23653279781E+04  0.23653279781E+04  0.25500000920E-02 0. -1.
       -2   -1    0    0    0  501  0.00000000000E+00  0.00000000000E+00 -0.34266956513E+03  0.34266956514E+03  0.25500000920E-02 0.  1.
    10030    2    1    2    0    0  0.00000000000E+00  0.00000000000E+00  0.20226584130E+04  0.27079975433E+04  0.18005842493E+04 0.  0.
        1    1    3    3  502    0  0.58153718174E+03  0.24504868224E+03  0.19770176652E+04  0.20752911119E+04  0.50400001928E-02 0. -1.
       -1    1    3    3    0  502 -0.58153718174E+03 -0.24504868224E+03  0.45640747750E+02  0.63270643137E+03  0.50400001928E-02 0.  1.
</event>
<event>
 5   0  0.1035018E-05  0.1800057E+04  0.7818609E-02  0.8706269E-01
        2   -1    0    0  501    0  0.00000000000E+00  0.00000000000E+00  0.22381258555E+04  0.22381258555E+04  0.25500000920E-02 0. -1.
       -2   -1    0    0    0  501  0.00000000000E+00  0.00000000000E+00 -0.36193273501E+03  0.36193273502E+03  0.25500000920E-02 0.  1.
    10030    2    1    2    0    0  0.00000000000E+00  0.00000000000E+00  0.18761931205E+04  0.26000585905E+04  0.18000566793E+04 0.  0.
        3    1    3    3  502    0  0.49644013501E+03 -0.69652236013E+03  0.53351442353E+03  0.10080842505E+04  0.10100000352E+00 0.  1.
       -3    1    3    3    0  502 -0.49644013501E+03  0.69652236013E+03  0.13426786970E+04  0.15919743400E+04  0.10100000352E+00 0. -1.
</event>
<event>
 5   0  0.9589963E-06  0.1799766E+04  0.7818609E-02  0.8706424E-01
        2   -1    0    0  501    0  0.00000000000E+00  0.00000000000E+00  0.11525459563E+04  0.11525459563E+04  0.25500000920E-02 0.  1.
       -2   -1    0    0    0  501  0.00000000000E+00  0.00000000000E+00 -0.70260895920E+03  0.70260895920E+03  0.25500000920E-02 0. -1.
    10030    2    1    2    0    0  0.00000000000E+00  0.00000000000E+00  0.44993699708E+03  0.18551549155E+04  0.17997656678E+04 0.  0.
        2    1    3    3  502    0  0.31183534693E+03 -0.69942711296E+03 -0.26217482446E+03  0.80942893976E+03  0.25500000920E-02 0. -1.
       -2    1    3    3    0  502 -0.31183534693E+03  0.69942711296E+03  0.71211182154E+03  0.10457259757E+04  0.25500000920E-02 0.  1.
</event>
<event>
 5   0  0.4981384E-06  0.1800070E+04  0.7818609E-02  0.8706262E-01
       -1   -1    0    0    0  501  0.00000000000E+00  0.00000000000E+00  0.13157696563E+04  0.13157696563E+04  0.50400001928E-02 0. -1.
        1   -1    0    0  501    0  0.00000000000E+00  0.00000000000E+00 -0.61565696166E+03  0.61565696168E+03  0.50400001928E-02 0.  1.
    10030    2    1    2    0    0  0.00000000000E+00  0.00000000000E+00  0.70011269462E+03  0.19314266180E+04  0.18000697196E+04 0.  0.
        5    1    3    3  502    0  0.44268029905E+03  0.22404001345E+03  0.11557734307E+04  0.12577734645E+04  0.46999998093E+01 0. -1.
       -5    1    3    3    0  502 -0.44268029905E+03 -0.22404001345E+03 -0.45566073610E+03  0.67365315350E+03  0.46999998093E+01 0.  1.
</event>
<event>
 5   0  0.1036381E-05  0.1799131E+04  0.7818609E-02  0.8706762E-01
        2   -1    0    0  501    0  0.00000000000E+00  0.00000000000E+00  0.65491322334E+03  0.65491322335E+03  0.25500000920E-02 0.  1.
       -2   -1    0    0    0  501  0.00000000000E+00  0.00000000000E+00 -0.12356111239E+04  0.12356111239E+04  0.25500000920E-02 0. -1.
    10030    2    1    2    0    0  0.00000000000E+00  0.00000000000E+00 -0.58069790060E+03  0.18905243473E+04  0.17991309724E+04 0.  0.
        4    1    3    3  502    0 -0.65333180770E+03  0.38485925213E+03  0.21823905511E+03  0.78904308690E+03  0.12699999809E+01 0. -1.
       -4    1    3    3    0  502  0.65333180770E+03 -0.38485925213E+03 -0.79893695571E+03  0.11014812604E+04  0.12699999809E+01 0.  1.
</event>
<event>
 5   0  0.4987456E-06  0.1799232E+04  0.7818609E-02  0.8706708E-01
       -1   -1    0    0    0  501  0.00000000000E+00  0.00000000000E+00  0.25154781439E+03  0.25154781444E+03  0.50400001928E-02 0.  1.
        1   -1    0    0  501    0  0.00000000000E+00  0.00000000000E+00 -0.32173149653E+04  0.32173149653E+04  0.50400001928E-02 0. -1.
    10030    2    1    2    0    0  0.00000000000E+00  0.00000000000E+00 -0.29657671509E+04  0.34688627797E+04  0.17992315558E+04 0.  0.
        3    1    3    3  502    0 -0.67084513880E+03  0.68027352701E+02 -0.33473369765E+03  0.75279982699E+03  0.10100000352E+00 0.  1.
       -3    1    3    3    0  502  0.67084513880E+03 -0.68027352701E+02 -0.26310334532E+04  0.27160629527E+04  0.10100000352E+00 0. -1.
</event>
<event>
 5   0  0.4994123E-06  0.1800085E+04  0.7818609E-02  0.8706254E-01
        1   -1    0    0  501    0  0.00000000000E+00  0.00000000000E+00  0.13448304130E+04  0.13448304130E+04  0.50400001928E-02 0. -1.
       -1   -1    0    0    0  501  0.00000000000E+00  0.00000000000E+00 -0.60236333648E+03  0.60236333650E+03  0.50400001928E-02 0.  1.
    10030    2    1    2    0    0  0.00000000000E+00  0.00000000000E+00  0.74246707651E+03  0.19471937495E+04  0.18000850364E+04 0.  0.
        1    1    3    3  502    0 -0.85778775052E+03  0.21101532231E+03  0.55780882054E+03  0.10447382311E+04  0.50400001928E-02 0.  1.
       -1    1    3    3    0  502  0.85778775052E+03 -0.21101532231E+03  0.18465825597E+03  0.90245551841E+03  0.50400001928E-02 0. -1.
</event>
<event>
 5   0  0.1035018E-05  0.1811521E+04  0.7818609E-02  0.8700197E-01
        2   -1    0    0  501    0  0.00000000000E+00  0.00000000000E+00  0.16943765414E+04  0.16943765414E+04  0.25500000920E-02 0. -1.
       -2   -1    0    0    0  501  0.00000000000E+00  0.00000000000E+00 -0.48419123712E+03  0.48419123712E+03  0.25500000920E-02 0.  1.
    10030    2    1    2    0    0  0.00000000000E+00  0.00000000000E+00  0.12101853043E+04  0.21785677785E+04  0.18115212102E+04 0.  0.
        3    1    3    3  502    0  0.79937549648E+03  0.29230840207E+03  0.23255883214E+03  0.88234290777E+03  0.10100000352E+00 0.  1.
       -3    1    3    3    0  502 -0.79937549648E+03 -0.29230840207E+03  0.97762647212E+03  0.12962248707E+04  0.10100000352E+00 0. -1.
</event>
<event>
 5   0  0.3626125E-06  0.1799478E+04  0.7818609E-02  0.8706577E-01
        3   -1    0    0  501    0  0.00000000000E+00  0.00000000000E+00  0.81214311469E+03  0.81214312097E+03  0.10100000352E+00 0. -1.
       -3   -1    0    0    0  501  0.00000000000E+00  0.00000000000E+00 -0.99678290154E+03  0.99678290665E+03  0.10100000352E+00 0.  1.
    10030    2    1    2    0    0  0.00000000000E+00  0.00000000000E+00 -0.18463978685E+03  0.18089260276E+04  0.17994781250E+04 0.  0.
        1    1    3    3  502    0  0.45599402091E+03 -0.15973441884E+03  0.67066761016E+03  0.82658373744E+03  0.50400001928E-02 0. -1.
       -1    1    3    3    0  502 -0.45599402091E+03  0.15973441884E+03 -0.85530739701E+03  0.98234229017E+03  0.50400001928E-02 0.  1.
</event>
<event>
 5   0  0.4987456E-06  0.1800461E+04  0.7818609E-02  0.8706054E-01
        1   -1    0    0  501    0  0.00000000000E+00  0.00000000000E+00  0.12612376597E+04  0.12612376597E+04  0.50400001928E-02 0.  1.
       -1   -1    0    0    0  501  0.00000000000E+00  0.00000000000E+00 -0.64255558837E+03  0.64255558839E+03  0.50400001928E-02 0. -1.
    10030    2    1    2    0    0  0.00000000000E+00  0.00000000000E+00  0.61868207133E+03  0.19037932481E+04  0.18004613926E+04 0.  0.
        3    1    3    3  502    0  0.42650248849E+03 -0.78530830409E+03  0.19447015991E+03  0.91456665063E+03  0.10100000352E+00 0. -1.
       -3    1    3    3    0  502 -0.42650248849E+03  0.78530830409E+03  0.42421191142E+03  0.98922659747E+03  0.10100000352E+00 0.  1.
</event>
<event>
 5   0  0.4983159E-06  0.1799547E+04  0.7818609E-02  0.8706540E-01
        1   -1    0    0  501    0  0.00000000000E+00  0.00000000000E+00  0.15707659350E+04  0.15707659350E+04  0.50400001928E-02 0.  1.
       -1   -1    0    0    0  501  0.00000000000E+00  0.00000000000E+00 -0.51541249905E+03  0.51541249908E+03  0.50400001928E-02 0. -1.
    10030    2    1    2    0    0  0.00000000000E+00  0.00000000000E+00  0.10553534359E+04  0.20861784341E+04  0.17995470497E+04 0.  0.
        4    1    3    3  502    0 -0.85803474918E+03 -0.26476351437E+03  0.59394285317E+03  0.10766118498E+04  0.12699999809E+01 0.  1.
       -4    1    3    3    0  502  0.85803474918E+03  0.26476351437E+03  0.46141058276E+03  0.10095665843E+04  0.12699999809E+01 0. -1.
</event>
<event>
 5   0  0.4981384E-06  0.1799581E+04  0.7818609E-02  0.8706522E-01
        1   -1    0    0  501    0  0.00000000000E+00  0.00000000000E+00  0.70635298958E+03  0.70635298960E+03  0.50400001928E-02 0.  1.
       -1   -1    0    0    0  501  0.00000000000E+00  0.00000000000E+00 -0.11462015973E+04  0.11462015973E+04  0.50400001928E-02 0. -1.
    10030    2    1    2    0    0  0.00000000000E+00  0.00000000000E+00 -0.43984860775E+03  0.18525545869E+04  0.17995809790E+04 0.  0.
        5    1    3    3  502    0 -0.37825172225E+03  0.39711669664E+03  0.51439298646E+03  0.75192969795E+03  0.46999998093E+01 0.  1.
       -5    1    3    3    0  502  0.37825172225E+03 -0.39711669664E+03 -0.95424159422E+03  0.11006248890E+04  0.46999998093E+01 0. -1.
</event>
<event>
 5   0  0.4983159E-06  0.1800487E+04  0.7818609E-02  0.8706041E-01
       -1   -1    0    0    0  501  0.00000000000E+00  0.00000000000E+00  0.48768618786E+03  0.48768618789E+03  0.50400001928E-02 0. -1.
        1   -1    0    0  501    0  0.00000000000E+00  0.00000000000E+00 -0.16618022216E+04  0.16618022216E+04  0.50400001928E-02 0.  1.
    10030    2    1    2    0    0  0.00000000000E+00  0.00000000000E+00 -0.11741160337E+04  0.21494884095E+04  0.18004865903E+04 0.  0.
        4    1    3    3  502    0  0.75998060319E+03  0.24723631589E+03 -0.92313457260E+02  0.80449965842E+03  0.12699999809E+01 0.  1.
       -4    1    3    3    0  502 -0.75998060319E+03 -0.24723631589E+03 -0.10818025765E+04  0.13449887511E+04  0.12699999809E+01 0. -1.
</event>
<event>
 5   0  0.1035018E-05  0.1800584E+04  0.7818609E-02  0.8705989E-01
       -2   -1    0    0    0  501  0.00000000000E+00  0.00000000000E+00  0.60033378051E+03  0.60033378051E+03  0.25500000920E-02 0. -1.
        2   -1    0    0  501    0  0.00000000000E+00  0.00000000000E+00 -0.13501252732E+04  0.13501252732E+04  0.25500000920E-02 0.  1.
    10030    2    1    2    0    0  0.00000000000E+00  0.00000000000E+00 -0.74979149274E+03  0.19504590538E+04  0.18005841379E+04 0.  0.
        3    1    3    3  502    0 -0.43397464775E+03 -0.52692797887E+02 -0.12274349767E+04  0.13029609196E+04  0.10100000352E+00 0.  1.
       -3    1    3    3    0  502  0.43397464775E+03  0.52692797887E+02  0.47764348391E+03  0.64749813418E+03  0.10100000352E+00 0. -1.
</event>
<event>
 5   0  0.4994123E-06  0.1799592E+04  0.7818609E-02  0.8706517E-01
       -1   -1    0    0    0  501  0.00000000000E+00  0.00000000000E+00  0.62223360001E+03  0.62223360003E+03  0.50400001928E-02 0.  1.
        1   -1    0    0  501    0  0.00000000000E+00  0.00000000000E+00 -0.13011717089E+04  0.13011717089E+04  0.50400001928E-02 0. -1.
    10030    2    1    2    0    0  0.00000000000E+00  0.00000000000E+00 -0.67893810885E+03  0.19234053089E+04  0.17995919056E+04 0.  0.
        1    1    3    3  502    0 -0.14821374935E+01 -0.17046168732E+03  0.60481715158E+03  0.62838138932E+03  0.50400001928E-02 0.  1.
       -1    1    3    3    0  502  0.14821374935E+01  0.17046168732E+03 -0.12837552604E+04  0.12950239196E+04  0.50400001928E-02 0. -1.
</event>
<event>
 5   0  0.1035018E-05  0.1803420E+04  0.7818609E-02  0.8704483E-01
       -2   -1    0    0    0  501  0.00000000000E+00  0.00000000000E+00  0.12162650310E+04  0.12162650310E+04  0.25500000920E-02 0. -1.
        2   -1    0    0  501    0  0.00000000000E+00  0.00000000000E+00 -0.66850618775E+03  0.66850618775E+03  0.25500000920E-02 0.  1.
    10030    2    1    2    0    0  0.00000000000E+00  0.00000000000E+00  0.54775884324E+03  0.18847712187E+04  0.18034197505E+04 0.  0.
        3    1    3    3  502    0  0.52618966329E+03 -0.68895336072E+03  0.53316011662E+03  0.10177386772E+04  0.10100000352E+00 0. -1.
       -3    1    3    3    0  502 -0.52618966329E+03  0.68895336072E+03  0.14598726620E+02  0.86703254150E+03  0.10100000352E+00 0.  1.
</event>
<event>
 5   0  0.1036381E-05  0.1800315E+04  0.7818609E-02  0.8706132E-01
        2   -1    0    0  501    0  0.00000000000E+00  0.00000000000E+00  0.11966981318E+04  0.11966981318E+04  0.25500000920E-02 0.  1.
       -2   -1    0    0    0  501  0.00000000000E+00  0.00000000000E+00 -0.67709955040E+03  0.67709955041E+03  0.25500000920E-02 0. -1.
    10030    2    1    2    0    0  0.00000000000E+00  0.00000000000E+00  0.51959858143E+03  0.18737976822E+04  0.18003152691E+04 0.  0.
        4    1    3    3  502    0  0.20015027922E+03 -0.72883094619E+03 -0.24906039041E+03  0.79579354946E+03  0.12699999809E+01 0. -1.
       -4    1    3    3    0  502 -0.20015027922E+03  0.72883094619E+03  0.76865897185E+03  0.10780041328E+04  0.12699999809E+01 0.  1.
</event>
<event>
 5   0  0.4983159E-06  0.1799729E+04  0.7818609E-02  0.8706443E-01
        1   -1    0    0  501    0  0.00000000000E+00  0.00000000000E+00  0.18534358835E+04  0.18534358835E+04  0.50400001928E-02 0. -1.
       -1   -1    0    0    0  501  0.00000000000E+00  0.00000000000E+00 -0.43689472993E+03  0.43689472996E+03  0.50400001928E-02 0.  1.
    10030    2    1    2    0    0  0.00000000000E+00  0.00000000000E+00  0.14165411536E+04  0.22903306134E+04  0.17997292794E+04 0.  0.
        4    1    3    3  502    0  0.27694538863E+03 -0.74291249287E+03  0.16665066131E+03  0.81018008872E+03  0.12699999809E+01 0.  1.
       -4    1    3    3    0  502 -0.27694538863E+03  0.74291249287E+03  0.12498904922E+04  0.14801505247E+04  0.12699999809E+01 0. -1.
</event>
<event>
 5   0  0.4994123E-06  0.1799909E+04  0.7818609E-02  0.8706348E-01
        1   -1    0    0  501    0  0.00000000000E+00  0.00000000000E+00  0.16830290374E+04  0.16830290374E+04  0.50400001928E-02 0.  1.
       -1   -1    0    0    0  501  0.00000000000E+00  0.00000000000E+00 -0.48122647122E+03  0.48122647125E+03  0.50400001928E-02 0. -1.
    10030    2    1    2    0    0  0.00000000000E+00  0.00000000000E+00  0.12018025662E+04  0.21642555087E+04  0.17999090251E+04 0.  0.
        1    1    3    3  502    0  0.47979677210E+03  0.31199380750E+03 -0.23421988736E+03  0.61838825514E+03  0.50400001928E-02 0. -1.
       -1    1    3    3    0  502 -0.47979677210E+03 -0.31199380750E+03  0.14360224535E+04  0.15458672535E+04  0.50400001928E-02 0.  1.
</event>
<event>
 5   0  0.9589963E-06  0.1800427E+04  0.7818609E-02  0.8706073E-01
        2   -1    0    0  501    0  0.00000000000E+00  0.00000000000E+00  0.15774771081E+04  0.15774771081E+04  0.25500000920E-02 0. -1.
       -2   -1    0    0    0  501  0.00000000000E+00  0.00000000000E+00 -0.51372159661E+03  0.51372159662E+03  0.25500000920E-02 0.  1.
    10030    2    1    2    0    0  0.00000000000E+00  0.00000000000E+00  0.10637555115E+04  0.20911987047E+04  0.18004266812E+04 0.  0.
        2    1    3    3  502    0 -0.22839282849E+03  0.74051456901E+03 -0.21041786453E+00  0.77493558138E+03  0.25500000920E-02 0.  1.
       -2    1    3    3    0  502  0.22839282849E+03 -0.74051456901E+03  0.10639659294E+04  0.13162631233E+04  0.25500000920E-02 0. -1.
</event>
<event>
 5   0  0.1035018E-05  0.1799834E+04  0.7818609E-02  0.8706388E-01
        2   -1    0    0  501    0  0.00000000000E+00  0.00000000000E+00  0.14322794549E+04  0.14322794549E+04  0.25500000920E-02 0.  1.
       -2   -1    0    0    0  501  0.00000000000E+00  0.00000000000E+00 -0.56542788207E+03  0.56542788208E+03  0.25500000920E-02 0. -1.
    10030    2    1    2    0    0  0.00000000000E+00  0.00000000000E+00  0.86685157287E+03  0.19977073370E+04  0.17998341465E+04 0.  0.
        3    1    3    3  502    0  0.37190962945E+03  0.76288394121E+03  0.10129212737E+03  0.85473316626E+03  0.10100000352E+00 0. -1.
       -3    1    3    3    0  502 -0.37190962945E+03 -0.76288394121E+03  0.76555944550E+03  0.11429741708E+04  0.10100000352E+00 0.  1.
</event>
<event>
 5   0  0.4983159E-06  0.1800111E+04  0.7818609E-02  0.8706241E-01
       -1   -1    0    0    0  501  0.00000000000E+00  0.00000000000E+00  0.51573532906E+03  0.51573532908E+03  0.50400001928E-02 0.  1.
        1   -1    0    0  501    0  0.00000000000E+00  0.00000000000E+00 -0.15707659610E+04  0.15707659611E+04  0.50400001928E-02 0. -1.
    10030    2    1    2    0    0  0.00000000000E+00  0.00000000000E+00 -0.10550306320E+04  0.20865012901E+04  0.18001105520E+04 0.  0.
        4    1    3    3  502    0  0.10521939271E+03  0.71755428538E+03  0.90341248904E+02  0.73083406271E+03  0.12699999809E+01 0.  1.
       -4    1    3    3    0  502 -0.10521939271E+03 -0.71755428538E+03 -0.11453718809E+04  0.13556672274E+04  0.12699999809E+01 0. -1.
</event>
<event>
 5   0  0.4953155E-06  0.1802552E+04  0.7818609E-02  0.8704943E-01
        1   -1    0    0  501    0  0.00000000000E+00  0.00000000000E+00  0.23821970861E+04  0.23821970861E+04  0.50400001928E-02 0. -1.
       -1   -1    0    0    0  501  0.00000000000E+00  0.00000000000E+00 -0.34098721951E+03  0.34098721955E+03  0.50400001928E-02 0.  1.
    10030    2    1    2    0    0  0.00000000000E+00  0.00000000000E+00  0.20412098666E+04  0.27231843056E+04  0.18025523690E+04 0.  0.
        2    1    3    3  502    0  0.67051968941E+03 -0.59552995879E+03  0.11561188453E+04  0.14631689480E+04  0.25500000920E-02 0.  1.
       -2    1    3    3    0  502 -0.67051968941E+03  0.59552995879E+03  0.88509102121E+03  0.12600153577E+04  0.25500000920E-02 0. -1.
</event>
<event>
 5   0  0.4994123E-06  0.1800392E+04  0.7818609E-02  0.8706091E-01
       -1   -1    0    0    0  501  0.00000000000E+00  0.00000000000E+00  0.70383621039E+03  0.70383621040E+03  0.50400001928E-02 0. -1.
        1   -1    0    0  501    0  0.00000000000E+00  0.00000000000E+00 -0.11513371678E+04  0.11513371678E+04  0.50400001928E-02 0.  1.
    10030    2    1    2    0    0  0.00000000000E+00  0.00000000000E+00 -0.44750095737E+03  0.18551733782E+04  0.18003919452E+04 0.  0.
        1    1    3    3  502    0  0.22975544348E+03 -0.82493301839E+03  0.62275743748E+02  0.85859205501E+03  0.50400001928E-02 0.  1.
       -1    1    3    3    0  502 -0.22975544348E+03  0.82493301839E+03 -0.50977670112E+03  0.99658132316E+03  0.50400001928E-02 0. -1.
</event>
<event>
 5   0  0.9589963E-06  0.1800059E+04  0.7818609E-02  0.8706268E-01
        2   -1    0    0  501    0  0.00000000000E+00  0.00000000000E+00  0.10587496256E+04  0.10587496256E+04  0.25500000920E-02 0.  1.
       -2   -1    0    0    0  501  0.00000000000E+00  0.00000000000E+00 -0.76510340187E+03  0.76510340187E+03  0.25500000920E-02 0. -1.
    10030    2    1    2    0    0  0.00000000000E+00  0.00000000000E+00  0.29364622374E+03  0.18238530275E+04  0.18000588216E+04 0.  0.
        2    1    3    3  502    0  0.28719592059E+03  0.21661086378E+03  0.98274450771E+03  0.10465125563E+04  0.25500000920E-02 0.  1.
       -2    1    3    3    0  502 -0.28719592059E+03 -0.21661086378E+03 -0.68909828397E+03  0.77734047115E+03  0.25500000920E-02 0. -1.
</event>
<event>
 5   0  0.4981384E-06  0.1799797E+04  0.7818609E-02  0.8706407E-01
        1   -1    0    0  501    0  0.00000000000E+00  0.00000000000E+00  0.11363229149E+04  0.11363229149E+04  0.50400001928E-02 0. -1.
       -1   -1    0    0    0  501  0.00000000000E+00  0.00000000000E+00 -0.71266496712E+03  0.71266496714E+03  0.50400001928E-02 0.  1.
    10030    2    1    2    0    0  0.00000000000E+00  0.00000000000E+00  0.42365794773E+03  0.18489878820E+04  0.17997972472E+04 0.  0.
        5    1    3    3  502    0 -0.61509296658E+03  0.46712448547E+03 -0.26258319082E+03  0.81579204737E+03  0.46999998093E+01 0.  1.
       -5    1    3    3    0  502  0.61509296658E+03 -0.46712448547E+03  0.68624113855E+03  0.10331958346E+04  0.46999998093E+01 0. -1.
</event>
<event>
 5   0  0.4987456E-06  0.1801061E+04  0.7818609E-02  0.8705735E-01
        1   -1    0    0  501    0  0.00000000000E+00  0.00000000000E+00  0.13056759670E+04  0.13056759670E+04  0.50400001928E-02 0.  1.
       -1   -1    0    0    0  501  0.00000000000E+00  0.00000000000E+00 -0.62109999037E+03  0.62109999039E+03  0.50400001928E-02 0. -1.
    10030    2    1    2    0    0  0.00000000000E+00  0.00000000000E+00  0.68457597660E+03  0.19267759574E+04  0.18010611656E+04 0.  0.
        3    1    3    3  502    0 -0.37118028180E+03  0.78801228795E+03  0.58674885670E+03  0.10502439710E+04  0.10100000352E+00 0.  1.
       -3    1    3    3    0  502  0.37118028180E+03 -0.78801228795E+03  0.97827119902E+02  0.87653198638E+03  0.10100000352E+00 0. -1.
</event>
<event>
 5   0  0.1035018E-05  0.1799876E+04  0.7818609E-02  0.8706366E-01
       -2   -1    0    0    0  501  0.00000000000E+00  0.00000000000E+00  0.98172260602E+03  0.98172260603E+03  0.25500000920E-02 0.  1.
        2   -1    0    0  501    0  0.00000000000E+00  0.00000000000E+00 -0.82496620412E+03  0.82496620413E+03  0.25500000920E-02 0. -1.
    10030    2    1    2    0    0  0.00000000000E+00  0.00000000000E+00  0.15675640190E+03  0.18066888102E+04  0.17998755199E+04 0.  0.
        3    1    3    3  502    0 -0.24899689004E+02 -0.24604724011E+03  0.94694481409E+03  0.97870512925E+03  0.10100000352E+00 0.  1.
       -3    1    3    3    0  502  0.24899689004E+02  0.24604724011E+03 -0.79018841219E+03  0.82798368090E+03  0.10100000352E+00 0. -1.
</event>
<event>
 5   0  0.1035018E-05  0.1799459E+04  0.7818609E-02  0.8706587E-01
       -2   -1    0    0    0  501  0.00000000000E+00  0.00000000000E+00  0.86011741949E+03  0.86011741949E+03  0.25500000920E-02 0.  1.
        2   -1    0    0  501    0  0.00000000000E+00  0.00000000000E+00 -0.94116568390E+03  0.94116568391E+03  0.25500000920E-02 0. -1.
    10030    2    1    2    0    0  0.00000000000E+00  0.00000000000E+00 -0.81048264414E+02  0.18012831034E+04  0.17994588068E+04 0.  0.
        3    1    3    3  502    0 -0.38213682818E+03 -0.12390210832E+03 -0.84640720378E+03  0.93690205076E+03  0.10100000352E+00 0. -1.
       -3    1    3    3    0  502  0.38213682818E+03  0.12390210832E+03  0.76535893937E+03  0.86438105264E+03  0.10100000352E+00 0.  1.
</event>
<event>
 5   0  0.4994123E-06  0.1801248E+04  0.7818609E-02  0.8705636E-01
        1   -1    0    0  501    0  0.00000000000E+00  0.00000000000E+00  0.14164271860E+04  0.14164271860E+04  0.50400001928E-02 0.  1.
       -1   -1    0    0    0  501  0.00000000000E+00  0.00000000000E+00 -0.57265474286E+03  0.57265474289E+03  0.50400001928E-02 0. -1.
    10030    2    1    2    0    0  0.00000000000E+00  0.00000000000E+00  0.84377244317E+03  0.19890819289E+04  0.18012481739E+04 0.  0.
        1    1    3    3  502    0 -0.54970268100E+02 -0.64759745626E+03 -0.26660326054E+03  0.70248238006E+03  0.50400001928E-02 0. -1.
       -1    1    3    3    0  502  0.54970268100E+02  0.64759745626E+03  0.11103757037E+04  0.12865995489E+04  0.50400001928E-02 0.  1.
</event>
<event>
 5   0  0.9999162E-06  0.1799228E+04  0.7818609E-02  0.8706710E-01
        2   -1    0    0  501    0  0.00000000000E+00  0.00000000000E+00  0.75999681354E+03  0.75999681354E+03  0.25500000920E-02 0. -1.
       -2   -1    0    0    0  501  0.00000000000E+00  0.00000000000E+00 -0.10648793501E+04  0.10648793501E+04  0.25500000920E-02 0.  1.
    10030    2    1    2    0    0  0.00000000000E+00  0.00000000000E+00 -0.30488253653E+03  0.18248761636E+04  0.17992275152E+04 0.  0.
        1    1    3    3  502    0  0.42416084294E+03 -0.58404284906E+03 -0.69701842986E+03  0.10034207302E+04  0.50400001928E-02 0.  1.
       -1    1    3    3    0  502 -0.42416084294E+03  0.58404284906E+03  0.39213589332E+03  0.82145543341E+03  0.50400001928E-02 0. -1.
</event>
<event>
 5   0  0.4953155E-06  0.1798019E+04  0.7818609E-02  0.8707353E-01
       -1   -1    0    0    0  501  0.00000000000E+00  0.00000000000E+00  0.51133976055E+03  0.51133976057E+03  0.50400001928E-02 0. -1.
        1   -1    0    0  501    0  0.00000000000E+00  0.00000000000E+00 -0.15805896751E+04  0.15805896751E+04  0.50400001928E-02 0.  1.
    10030    2    1    2    0    0  0.00000000000E+00  0.00000000000E+00 -0.10692499145E+04  0.20919294357E+04  0.17980192947E+04 0.  0.
        2    1    3    3  502    0  0.29179930452E+03  0.82592739572E+03 -0.76996527915E+03  0.11662544440E+04  0.25500000920E-02 0. -1.
       -2    1    3    3    0  502 -0.29179930452E+03 -0.82592739572E+03 -0.29928463536E+03  0.92567499161E+03  0.25500000920E-02 0.  1.
</event>
<event>
 5   0  0.4994123E-06  0.1801226E+04  0.7818609E-02  0.8705648E-01
        1   -1    0    0  501    0  0.00000000000E+00  0.00000000000E+00  0.17040260584E+04  0.17040260584E+04  0.50400001928E-02 0.  1.
       -1   -1    0    0    0  501  0.00000000000E+00  0.00000000000E+00 -0.47599265929E+03  0.47599265932E+03  0.50400001928E-02 0. -1.
    10030    2    1    2    0    0  0.00000000000E+00  0.00000000000E+00  0.12280333991E+04  0.21800187177E+04  0.18012261325E+04 0.  0.
        1    1    3    3  502    0  0.39949176136E+03 -0.15922019374E+03 -0.34369402692E+03  0.55051823008E+03  0.50400001928E-02 0. -1.
       -1    1    3    3    0  502 -0.39949176136E+03  0.15922019374E+03  0.15717274260E+04  0.16295004876E+04  0.50400001928E-02 0.  1.
</event>
<event>
 5   0  0.3626125E-06  0.1795758E+04  0.7818609E-02  0.8708558E-01
       -4   -1    0    0    0  501  0.00000000000E+00  0.00000000000E+00  0.98797105923E+03  0.98797187549E+03  0.12699999809E+01 0. -1.
        4   -1    0    0  501    0  0.00000000000E+00  0.00000000000E+00 -0.81600101291E+03  0.81600200120E+03  0.12699999809E+01 0.  1.
    10030    2    1    2    0    0  0.00000000000E+00  0.00000000000E+00  0.17197004632E+03  0.18039738767E+04  0.17957583498E+04 0.  0.
        3    1    3    3  502    0  0.19279565714E+03  0.67152956938E+03 -0.48056753524E+03  0.84797835709E+03  0.10100000352E+00 0. -1.
       -3    1    3    3    0  502 -0.19279565714E+03 -0.67152956938E+03  0.65253758156E+03  0.95599551961E+03  0.10100000352E+00 0.  1.
</event>
<event>
 5   0  0.9999162E-06  0.1800069E+04  0.7818609E-02  0.8706263E-01
        2   -1    0    0  501    0  0.00000000000E+00  0.00000000000E+00  0.12547773262E+04  0.12547773262E+04  0.25500000920E-02 0. -1.
       -2   -1    0    0    0  501  0.00000000000E+00  0.00000000000E+00 -0.64558211433E+03  0.64558211433E+03  0.25500000920E-02 0.  1.
    10030    2    1    2    0    0  0.00000000000E+00  0.00000000000E+00  0.60919521189E+03  0.19003594406E+04  0.18000686646E+04 0.  0.
        1    1    3    3  502    0 -0.66776313831E+03 -0.37590603082E+03  0.80296758807E+03  0.11099413950E+04  0.50400001928E-02 0. -1.
       -1    1    3    3    0  502  0.66776313831E+03  0.37590603082E+03 -0.19377237617E+03  0.79041804552E+03  0.50400001928E-02 0.  1.
</event>
<event>
 5   0  0.4983159E-06  0.1802985E+04  0.7818609E-02  0.8704714E-01
        1   -1    0    0  501    0  0.00000000000E+00  0.00000000000E+00  0.82466270091E+03  0.82466270092E+03  0.50400001928E-02 0. -1.
       -1   -1    0    0    0  501  0.00000000000E+00  0.00000000000E+00 -0.98547996892E+03  0.98547996893E+03  0.50400001928E-02 0.  1.
    10030    2    1    2    0    0  0.00000000000E+00  0.00000000000E+00 -0.16081726801E+03  0.18101426699E+04  0.18029848284E+04 0.  0.
        4    1    3    3  502    0 -0.32026491619E+03 -0.14075229910E+03 -0.91455372803E+03  0.97917871739E+03  0.12699999809E+01 0.  1.
       -4    1    3    3    0  502  0.32026491619E+03  0.14075229910E+03  0.75373646001E+03  0.83096395247E+03  0.12699999809E+01 0. -1.
</event>
<event>
 5   0  0.4953155E-06  0.1799607E+04  0.7818609E-02  0.8706509E-01
       -1   -1    0    0    0  501  0.00000000000E+00  0.00000000000E+00  0.70180251175E+03  0.70180251177E+03  0.50400001928E-02 0.  1.
        1   -1    0    0  501    0  0.00000000000E+00  0.00000000000E+00 -0.11536665542E+04  0.11536665542E+04  0.50400001928E-02 0. -1.
    10030    2    1    2    0    0  0.00000000000E+00  0.00000000000E+00 -0.45186404243E+03  0.18554690660E+04  0.17996067187E+04 0.  0.
        2    1    3    3  502    0 -0.53493588741E+03 -0.64300590252E+03  0.11607716348E+03  0.84444473010E+03  0.25500000920E-02 0.  1.
       -2    1    3    3    0  502  0.53493588741E+03  0.64300590252E+03 -0.56794120591E+03  0.10110243359E+04  0.25500000920E-02 0. -1.
</event>
<event>
 5   0  0.9589963E-06  0.1799586E+04  0.7818609E-02  0.8706519E-01
        2   -1    0    0  501    0  0.00000000000E+00  0.00000000000E+00  0.17160066671E+04  0.17160066671E+04  0.25500000920E-02 0. -1.
       -2   -1    0    0    0  501  0.00000000000E+00  0.00000000000E+00 -0.47180922948E+03  0.47180922949E+03  0.25500000920E-02 0.  1.
    10030    2    1    2    0    0  0.00000000000E+00  0.00000000000E+00  0.12441974376E+04  0.21878158966E+04  0.17995863785E+04 0.  0.
        2    1    3    3  502    0 -0.47389509224E+03  0.57138051925E+03  0.12403026832E+04  0.14454767387E+04  0.25500000920E-02 0. -1.
       -2    1    3    3    0  502  0.47389509224E+03 -0.57138051925E+03  0.38947544452E+01  0.74233915789E+03  0.25500000920E-02 0.  1.
</event>
<event>
 5   0  0.4987456E-06  0.1800092E+04  0.7818609E-02  0.8706250E-01
       -1   -1    0    0    0  501  0.00000000000E+00  0.00000000000E+00  0.10221011437E+04  0.10221011437E+04  0.50400001928E-02 0. -1.
        1   -1    0    0  501    0  0.00000000000E+00  0.00000000000E+00 -0.79256644586E+03  0.79256644588E+03  0.50400001928E-02 0.  1.
    10030    2    1    2    0    0  0.00000000000E+00  0.00000000000E+00  0.22953469783E+03  0.18146675896E+04  0.18000922985E+04 0.  0.
        3    1    3    3  502    0  0.53390846570E+01 -0.60552683982E+03  0.78603564796E+03  0.99224155810E+03  0.10100000352E+00 0. -1.
       -3    1    3    3    0  502 -0.53390846570E+01  0.60552683982E+03 -0.55650095012E+03  0.82242603148E+03  0.10100000352E+00 0.  1.
</event>
<event>
 5   0  0.1000316E-05  0.1800140E+04  0.7818609E-02  0.8706225E-01
       -2   -1    0    0    0  501  0.00000000000E+00  0.00000000000E+00  0.79228987333E+03  0.79228987333E+03  0.25500000920E-02 0.  1.
        2   -1    0    0  501    0  0.00000000000E+00  0.00000000000E+00 -0.10225119623E+04  0.10225119623E+04  0.25500000920E-02 0. -1.
    10030    2    1    2    0    0  0.00000000000E+00  0.00000000000E+00 -0.23022208902E+03  0.18148018357E+04  0.18001398536E+04 0.  0.
        5    1    3    3  502    0  0.25364103926E+03 -0.84066466873E+03 -0.31433874614E+03  0.93267454097E+03  0.46999998093E+01 0. -1.
       -5    1    3    3    0  502 -0.25364103926E+03  0.84066466873E+03  0.84116657122E+02  0.88212729470E+03  0.46999998093E+01 0.  1.
</event>
<event>
 5   0  0.4987456E-06  0.1799874E+04  0.7818609E-02  0.8706367E-01
        1   -1    0    0  501    0  0.00000000000E+00  0.00000000000E+00  0.12586687460E+04  0.12586687461E+04  0.50400001928E-02 0. -1.
       -1   -1    0    0    0  501  0.00000000000E+00  0.00000000000E+00 -0.64344681525E+03  0.64344681527E+03  0.50400001928E-02 0.  1.
    10030    2    1    2    0    0  0.00000000000E+00  0.00000000000E+00  0.61522193080E+03  0.19021155613E+04  0.17998737690E+04 0.  0.
        3    1    3    3  502    0 -0.42362203298E+03 -0.78244046318E+03  0.16497094460E+03  0.90492216683E+03  0.10100000352E+00 0. -1.
       -3    1    3    3    0  502  0.42362203298E+03  0.78244046318E+03  0.45025098620E+03  0.99719339450E+03  0.10100000352E+00 0.  1.
</event>
<event>
 5   0  0.9589963E-06  0.1801245E+04  0.7818609E-02  0.8705638E-01
       -2   -1    0    0    0  501  0.00000000000E+00  0.00000000000E+00  0.37894862490E+03  0.37894862491E+03  0.25500000920E-02 0. -1.
        2   -1    0    0  501    0  0.00000000000E+00  0.00000000000E+00 -0.21404506512E+04  0.21404506512E+04  0.25500000920E-02 0.  1.
    10030    2    1    2    0    0  0.00000000000E+00  0.00000000000E+00 -0.17615020263E+04  0.25193992761E+04  0.18012449372E+04 0.  0.
        2    1    3    3  502    0  0.35327543163E+03 -0.71846109224E+03 -0.14576714218E+04  0.16630682023E+04  0.25500000920E-02 0.  1.
       -2    1    3    3    0  502 -0.35327543163E+03  0.71846109224E+03 -0.30383060448E+03  0.85633107375E+03  0.25500000920E-02 0. -1.
</event>
<event>
 5   0  0.9589963E-06  0.1798166E+04  0.7818609E-02  0.8707275E-01
       -2   -1    0    0    0  501  0.00000000000E+00  0.00000000000E+00  0.80290786747E+03  0.80290786747E+03  0.25500000920E-02 0.  1.
        2   -1    0    0  501    0  0.00000000000E+00  0.00000000000E+00 -0.10067781151E+04  0.10067781151E+04  0.25500000920E-02 0. -1.
    10030    2    1    2    0    0  0.00000000000E+00  0.00000000000E+00 -0.20387024763E+03  0.18096859826E+04  0.17981658093E+04 0.  0.
        2    1    3    3  502    0 -0.84397212377E+03  0.69328706548E+02 -0.40595431451E+03  0.93909228552E+03  0.25500000920E-02 0. -1.
       -2    1    3    3    0  502  0.84397212377E+03 -0.69328706548E+02  0.20208406688E+03  0.87059369705E+03  0.25500000920E-02 0.  1.
</event>
<event>
 5   0  0.4994123E-06  0.1797152E+04  0.7818609E-02  0.8707816E-01
       -1   -1    0    0    0  501  0.00000000000E+00  0.00000000000E+00  0.55752602220E+03  0.55752602222E+03  0.50400001928E-02 0.  1.
        1   -1    0    0  501    0  0.00000000000E+00  0.00000000000E+00 -0.14482525444E+04  0.14482525444E+04  0.50400001928E-02 0. -1.
    10030    2    1    2    0    0  0.00000000000E+00  0.00000000000E+00 -0.89072652220E+03  0.20057785666E+04  0.17971516132E+04 0.  0.
        1    1    3    3  502    0 -0.65029513126E+03 -0.48678237367E+03 -0.87414667774E+03  0.11933035034E+04  0.50400001928E-02 0. -1.
       -1    1    3    3    0  502  0.65029513126E+03  0.48678237367E+03 -0.16579844460E+02  0.81247506320E+03  0.50400001928E-02 0.  1.
</event>
<event>
 5   0  0.1035018E-05  0.1801858E+04  0.7818609E-02  0.8705312E-01
        2   -1    0    0  501    0  0.00000000000E+00  0.00000000000E+00  0.23125997156E+04  0.23125997156E+04  0.25500000920E-02 0. -1.
       -2   -1    0    0    0  501  0.00000000000E+00  0.00000000000E+00 -0.35097866962E+03  0.35097866963E+03  0.25500000920E-02 0.  1.
    10030    2    1    2    0    0  0.00000000000E+00  0.00000000000E+00  0.19616210459E+04  0.26635783852E+04  0.18018581204E+04 0.  0.
        3    1    3    3  502    0 -0.70703832223E+03  0.25294342363E+03  0.24496538440E+03  0.78986809938E+03  0.10100000352E+00 0.  1.
       -3    1    3    3    0  502  0.70703832223E+03 -0.25294342363E+03  0.17166556615E+04  0.18737102858E+04  0.10100000352E+00 0. -1.
</event>
<event>
 5   0  0.9589963E-06  0.1798181E+04  0.7818609E-02  0.8707267E-01
       -2   -1    0    0    0  501  0.00000000000E+00  0.00000000000E+00  0.10453953611E+04  0.10453953611E+04  0.25500000920E-02 0. -1.
        2   -1    0    0  501    0  0.00000000000E+00  0.00000000000E+00 -0.77326144941E+03  0.77326144941E+03  0.25500000920E-02 0.  1.
    10030    2    1    2    0    0  0.00000000000E+00  0.00000000000E+00  0.27213391172E+03  0.18186568105E+04  0.17981812280E+04 0.  0.
        2    1    3    3  502    0 -0.96657233092E+02  0.90564154296E+02  0.10354733350E+04  0.10439106831E+04  0.25500000920E-02 0. -1.
       -2    1    3    3    0  502  0.96657233092E+02 -0.90564154296E+02 -0.76333942332E+03  0.77474612742E+03  0.25500000920E-02 0.  1.
</event>
<event>
 5   0  0.4987456E-06  0.1799822E+04  0.7818609E-02  0.8706394E-01
       -1   -1    0    0    0  501  0.00000000000E+00  0.00000000000E+00  0.82808931139E+03  0.82808931141E+03  0.50400001928E-02 0.  1.
        1   -1    0    0  501    0  0.00000000000E+00  0.00000000000E+00 -0.97796207809E+03  0.97796207811E+03  0.50400001928E-02 0. -1.
    10030    2    1    2    0    0  0.00000000000E+00  0.00000000000E+00 -0.14987276670E+03  0.18060513895E+04  0.17998221510E+04 0.  0.
        3    1    3    3  502    0 -0.10509772806E+03  0.86201560082E+03 -0.31181165450E+03  0.92268247333E+03  0.10100000352E+00 0.  1.
       -3    1    3    3    0  502  0.10509772806E+03 -0.86201560082E+03  0.16193888780E+03  0.88336891619E+03  0.10100000352E+00 0. -1.
</event>
<event>
 5   0  0.4987456E-06  0.1799920E+04  0.7818609E-02  0.8706342E-01
       -1   -1    0    0    0  501  0.00000000000E+00  0.00000000000E+00  0.82056968500E+03  0.82056968502E+03  0.50400001928E-02 0.  1.
        1   -1    0    0  501    0  0.00000000000E+00  0.00000000000E+00 -0.98703096542E+03  0.98703096543E+03  0.50400001928E-02 0. -1.
    10030    2    1    2    0    0  0.00000000000E+00  0.00000000000E+00 -0.16646128041E+03  0.18076006504E+04  0.17999196520E+04 0.  0.
        3    1    3    3  502    0 -0.41180109948E+03 -0.73995689003E+03 -0.38918023100E+03  0.93197511074E+03  0.10100000352E+00 0. -1.
       -3    1    3    3    0  502  0.41180109948E+03  0.73995689003E+03  0.22271895058E+03  0.87562553971E+03  0.10100000352E+00 0.  1.
</event>
<event>
 5   0  0.4983159E-06  0.1800240E+04  0.7818609E-02  0.8706172E-01
        1   -1    0    0  501    0  0.00000000000E+00  0.00000000000E+00  0.17677063559E+04  0.17677063559E+04  0.50400001928E-02 0.  1.
       -1   -1    0    0    0  501  0.00000000000E+00  0.00000000000E+00 -0.45834300560E+03  0.45834300563E+03  0.50400001928E-02 0. -1.
    10030    2    1    2    0    0  0.00000000000E+00  0.00000000000E+00  0.13093633503E+04  0.22260493615E+04  0.18002398109E+04 0.  0.
        4    1    3    3  502    0 -0.56599783696E+03  0.50085308396E+03  0.12592002076E+04  0.14686027846E+04  0.12699999809E+01 0. -1.
       -4    1    3    3    0  502  0.56599783696E+03 -0.50085308396E+03  0.50163142688E+02  0.75744657695E+03  0.12699999809E+01 0.  1.
</event>
<event>
 5   0  0.1035018E-05  0.1800183E+04  0.7818609E-02  0.8706202E-01
        2   -1    0    0  501    0  0.00000000000E+00  0.00000000000E+00  0.64325982952E+03  0.64325982953E+03  0.25500000920E-02 0.  1.
       -2   -1    0    0    0  501  0.00000000000E+00  0.00000000000E+00 -0.12594672545E+04  0.12594672545E+04  0.25500000920E-02 0. -1.
    10030    2    1    2    0    0  0.00000000000E+00  0.00000000000E+00 -0.61620742501E+03  0.19027270841E+04  0.18001829812E+04 0.  0.
        3    1    3    3  502    0  0.74340247140E+03 -0.38812781386E+03 -0.65364216362E+03  0.10632678508E+04  0.10100000352E+00 0. -1.
       -3    1    3    3    0  502 -0.74340247140E+03  0.38812781386E+03  0.37434738608E+02  0.83945923322E+03  0.10100000352E+00 0.  1.
</event>
<event>
 5   0  0.9589963E-06  0.1799992E+04  0.7818609E-02  0.8706304E-01
       -2   -1    0    0    0  501  0.00000000000E+00  0.00000000000E+00  0.65947936178E+03  0.65947936178E+03  0.25500000920E-02 0. -1.
        2   -1    0    0  501    0  0.00000000000E+00  0.00000000000E+00 -0.12282308262E+04  0.12282308262E+04  0.25500000920E-02 0.  1.
    10030    2    1    2    0    0  0.00000000000E+00  0.00000000000E+00 -0.56875146440E+03  0.18877101880E+04  0.17999920904E+04 0.  0.
        2    1    3    3  502    0 -0.68842180784E+03  0.53872874465E+03 -0.50891138031E+03  0.10115058274E+04  0.25500000920E-02 0.  1.
       -2    1    3    3    0  502  0.68842180784E+03 -0.53872874465E+03 -0.59840084089E+02  0.87620436058E+03  0.25500000920E-02 0. -1.
</event>
<event>
 5   0  0.1036381E-05  0.1799608E+04  0.7818609E-02  0.8706508E-01
       -2   -1    0    0    0  501  0.00000000000E+00  0.00000000000E+00  0.13306533791E+04  0.13306533791E+04  0.25500000920E-02 0.  1.
        2   -1    0    0  501    0  0.00000000000E+00  0.00000000000E+00 -0.60845822886E+03  0.60845822887E+03  0.25500000920E-02 0. -1.
    10030    2    1    2    0    0  0.00000000000E+00  0.00000000000E+00  0.72219515028E+03  0.19391116080E+04  0.17996077332E+04 0.  0.
        4    1    3    3  502    0  0.15794680765E+03 -0.42311297284E+03  0.11996771474E+04  0.12818731032E+04  0.12699999809E+01 0.  1.
       -4    1    3    3    0  502 -0.15794680765E+03  0.42311297284E+03 -0.47748199707E+03  0.65723850485E+03  0.12699999809E+01 0. -1.
</event>
<event>
 5   0  0.4953155E-06  0.1801461E+04  0.7818609E-02  0.8705523E-01
        1   -1    0    0  501    0  0.00000000000E+00  0.00000000000E+00  0.13689146918E+04  0.13689146918E+04  0.50400001928E-02 0. -1.
       -1   -1    0    0    0  501  0.00000000000E+00  0.00000000000E+00 -0.59267042892E+03  0.59267042894E+03  0.50400001928E-02 0.  1.
    10030    2    1    2    0    0  0.00000000000E+00  0.00000000000E+00  0.77624426289E+03  0.19615851208E+04  0.18014608046E+04 0.  0.
        2    1    3    3  502    0  0.23528112258E+03  0.60364225685E+03 -0.29325775181E+03  0.71115489866E+03  0.25500000920E-02 0.  1.
       -2    1    3    3    0  502 -0.23528112258E+03 -0.60364225685E+03  0.10695020147E+04  0.12504302221E+04  0.25500000920E-02 0. -1.
</event>
<event>
 5   0  0.3626125E-06  0.1799710E+04  0.7818609E-02  0.8706454E-01
       -3   -1    0    0    0  501  0.00000000000E+00  0.00000000000E+00  0.75097290432E+03  0.75097291111E+03  0.10100000352E+00 0. -1.
        3   -1    0    0  501    0  0.00000000000E+00  0.00000000000E+00 -0.10782528686E+04  0.10782528733E+04  0.10100000352E+00 0.  1.
    10030    2    1    2    0    0  0.00000000000E+00  0.00000000000E+00 -0.32727996428E+03  0.18292257844E+04  0.17997096420E+04 0.  0.
        3    1    3    3  502    0 -0.47056155502E+02 -0.16447145390E+03  0.73429308524E+03  0.75395721772E+03  0.10100000352E+00 0. -1.
       -3    1    3    3    0  502  0.47056155502E+02  0.16447145390E+03 -0.10615730495E+04  0.10752685667E+04  0.10100000352E+00 0.  1.
</event>
<event>
 5   0  0.9999162E-06  0.1800100E+04  0.7818609E-02  0.8706247E-01
        2   -1    0    0  501    0  0.00000000000E+00  0.00000000000E+00  0.20348054870E+04  0.20348054870E+04  0.25500000920E-02 0. -1.
       -2   -1    0    0    0  501  0.00000000000E+00  0.00000000000E+00 -0.39811649528E+03  0.39811649529E+03  0.25500000920E-02 0.  1.
    10030    2    1    2    0    0  0.00000000000E+00  0.00000000000E+00  0.16366889917E+04  0.24329219823E+04  0.18000995851E+04 0.  0.
        1    1    3    3  502    0  0.82704025065E+03  0.34421712872E+03  0.93623657581E+03  0.12957700158E+04  0.50400001928E-02 0.  1.
       -1    1    3    3    0  502 -0.82704025065E+03 -0.34421712872E+03  0.70045241587E+03  0.11371519665E+04  0.50400001928E-02 0. -1.
</event>
<event>
 5   0  0.9589963E-06  0.1798890E+04  0.7818609E-02  0.8706890E-01
        2   -1    0    0  501    0  0.00000000000E+00  0.00000000000E+00  0.14823471284E+04  0.14823471284E+04  0.25500000920E-02 0.  1.
       -2   -1    0    0    0  501  0.00000000000E+00  0.00000000000E+00 -0.54575698453E+03  0.54575698454E+03  0.25500000920E-02 0. -1.
    10030    2    1    2    0    0  0.00000000000E+00  0.00000000000E+00  0.93659014390E+03  0.20281041130E+04  0.17988899898E+04 0.  0.
        2    1    3    3  502    0 -0.45120190827E+02  0.67801643516E+03  0.11326688895E+04  0.13208637066E+04  0.25500000920E-02 0.  1.
       -2    1    3    3    0  502  0.45120190827E+02 -0.67801643516E+03 -0.19607874564E+03  0.70724040641E+03  0.25500000920E-02 0. -1.
</event>
<event>
 5   0  0.4994123E-06  0.1800359E+04  0.7818609E-02  0.8706109E-01
        1   -1    0    0  501    0  0.00000000000E+00  0.00000000000E+00  0.20842815170E+04  0.20842815170E+04  0.50400001928E-02 0. -1.
       -1   -1    0    0    0  501  0.00000000000E+00  0.00000000000E+00 -0.38877799537E+03  0.38877799540E+03  0.50400001928E-02 0.  1.
    10030    2    1    2    0    0  0.00000000000E+00  0.00000000000E+00  0.16955035216E+04  0.24730595124E+04  0.18003586198E+04 0.  0.
        1    1    3    3  502    0  0.47427553158E+03  0.13514931534E+03 -0.18670678775E+03  0.52731588437E+03  0.50400001928E-02 0.  1.
       -1    1    3    3    0  502 -0.47427553158E+03 -0.13514931534E+03  0.18822103094E+04  0.19457436280E+04  0.50400001928E-02 0. -1.
</event>
<event>
 5   0  0.4987456E-06  0.1798322E+04  0.7818609E-02  0.8707193E-01
        1   -1    0    0  501    0  0.00000000000E+00  0.00000000000E+00  0.96057773198E+03  0.96057773200E+03  0.50400001928E-02 0. -1.
       -1   -1    0    0    0  501  0.00000000000E+00  0.00000000000E+00 -0.84167062502E+03  0.84167062503E+03  0.50400001928E-02 0.  1.
    10030    2    1    2    0    0  0.00000000000E+00  0.00000000000E+00  0.11890710697E+03  0.18022483570E+04  0.17983215064E+04 0.  0.
        3    1    3    3  502    0  0.23064196872E+03  0.38070137930E+03 -0.72350831929E+03  0.84946663043E+03  0.10100000352E+00 0.  1.
       -3    1    3    3    0  502 -0.23064196872E+03 -0.38070137930E+03  0.84241542626E+03  0.95278172660E+03  0.10100000352E+00 0. -1.
</event>
<event>
 5   0  0.4983159E-06  0.1800109E+04  0.7818609E-02  0.8706242E-01
        1   -1    0    0  501    0  0.00000000000E+00  0.00000000000E+00  0.94907760347E+03  0.94907760348E+03  0.50400001928E-02 0. -1.
       -1   -1    0    0    0  501  0.00000000000E+00  0.00000000000E+00 -0.85356319392E+03  0.85356319393E+03  0.50400001928E-02 0.  1.
    10030    2    1    2    0    0  0.00000000000E+00  0.00000000000E+00  0.95514409552E+02  0.18026407974E+04  0.18001085640E+04 0.  0.
        4    1    3    3  502    0 -0.47502019703E+03  0.24707666581E+01  0.81332317526E+03  0.94188454313E+03  0.12699999809E+01 0. -1.
       -4    1    3    3    0  502  0.47502019703E+03 -0.24707666581E+01 -0.71780876571E+03  0.86075625429E+03  0.12699999809E+01 0.  1.
</event>
<event>
 5   0  0.4987456E-06  0.1801286E+04  0.7818609E-02  0.8705616E-01
       -1   -1    0    0    0  501  0.00000000000E+00  0.00000000000E+00  0.10909966492E+04  0.10909966492E+04  0.50400001928E-02 0. -1.
        1   -1    0    0  501    0  0.00000000000E+00  0.00000000000E+00 -0.74350192079E+03  0.74350192081E+03  0.50400001928E-02 0.  1.
    10030    2    1    2    0    0  0.00000000000E+00  0.00000000000E+00  0.34749472840E+03  0.18344985700E+04  0.18012863229E+04 0.  0.
        3    1    3    3  502    0 -0.84397044611E+03 -0.28711513448E+03  0.43177090418E+02  0.89251637839E+03  0.10100000352E+00 0.  1.
       -3    1    3    3    0  502  0.84397044611E+03  0.28711513448E+03  0.30431763798E+03  0.94198219163E+03  0.10100000352E+00 0. -1.
</event>
<event>
 5   0  0.1035018E-05  0.1796315E+04  0.7818609E-02  0.8708262E-01
        2   -1    0    0  501    0  0.00000000000E+00  0.00000000000E+00  0.21091899890E+04  0.21091899890E+04  0.25500000920E-02 0.  1.
       -2   -1    0    0    0  501  0.00000000000E+00  0.00000000000E+00 -0.38246270621E+03  0.38246270622E+03  0.25500000920E-02 0. -1.
    10030    2    1    2    0    0  0.00000000000E+00  0.00000000000E+00  0.17267272827E+04  0.24916526952E+04  0.17963145728E+04 0.  0.
        3    1    3    3  502    0 -0.81407590955E+03 -0.55746554021E+02  0.34277129574E+03  0.88505335216E+03  0.10100000352E+00 0. -1.
       -3    1    3    3    0  502  0.81407590955E+03  0.55746554021E+02  0.13839559870E+04  0.16065993430E+04  0.10100000352E+00 0.  1.
</event>
<event>
 5   0  0.4953155E-06  0.1799160E+04  0.7818609E-02  0.8706746E-01
        1   -1    0    0  501    0  0.00000000000E+00  0.00000000000E+00  0.16698551682E+04  0.16698551682E+04  0.50400001928E-02 0. -1.
       -1   -1    0    0    0  501  0.00000000000E+00  0.00000000000E+00 -0.48461951600E+03  0.48461951603E+03  0.50400001928E-02 0.  1.
    10030    2    1    2    0    0  0.00000000000E+00  0.00000000000E+00  0.11852356522E+04  0.21544746842E+04  0.17991602524E+04 0.  0.
        2    1    3    3  502    0  0.65452957460E+03  0.51602131390E+03  0.18731166731E+03  0.85426730075E+03  0.25500000920E-02 0.  1.
       -2    1    3    3    0  502 -0.65452957460E+03 -0.51602131390E+03  0.99792398488E+03  0.13002073835E+04  0.25500000920E-02 0. -1.
</event>
<event>
 5   0  0.9999162E-06  0.1805070E+04  0.7818609E-02  0.8703608E-01
       -2   -1    0    0    0  501  0.00000000000E+00  0.00000000000E+00  0.79027310081E+03  0.79027310081E+03  0.25500000920E-02 0. -1.
        2   -1    0    0  501    0  0.00000000000E+00  0.00000000000E+00 -0.10307443730E+04  0.10307443730E+04  0.25500000920E-02 0.  1.
    10030    2    1    2    0    0  0.00000000000E+00  0.00000000000E+00 -0.24047127221E+03  0.18210174738E+04  0.18050701392E+04 0.  0.
        1    1    3    3  502    0 -0.41379632851E+03 -0.11004401895E+02  0.68886055520E+03  0.80366495686E+03  0.50400001928E-02 0. -1.
       -1    1    3    3    0  502  0.41379632851E+03  0.11004401895E+02 -0.92933182740E+03  0.10173525170E+04  0.50400001928E-02 0.  1.
</event>
<event>
 5   0  0.4953155E-06  0.1802307E+04  0.7818609E-02  0.8705074E-01
        1   -1    0    0  501    0  0.00000000000E+00  0.00000000000E+00  0.98582160166E+03  0.98582160167E+03  0.50400001928E-02 0. -1.
       -1   -1    0    0    0  501  0.00000000000E+00  0.00000000000E+00 -0.82375673424E+03  0.82375673426E+03  0.50400001928E-02 0.  1.
    10030    2    1    2    0    0  0.00000000000E+00  0.00000000000E+00  0.16206486742E+03  0.18095783359E+04  0.18023065035E+04 0.  0.
        2    1    3    3  502    0  0.73015887101E+03 -0.76648769028E+02 -0.44363712929E+03  0.85780004267E+03  0.25500000920E-02 0.  1.
       -2    1    3    3    0  502 -0.73015887101E+03  0.76648769028E+02  0.60570199671E+03  0.95177829326E+03  0.25500000920E-02 0. -1.
</event>
<event>
 5   0  0.4987456E-06  0.1800760E+04  0.7818609E-02  0.8705895E-01
        1   -1    0    0  501    0  0.00000000000E+00  0.00000000000E+00  0.19364369938E+04  0.19364369938E+04  0.50400001928E-02 0.  1.
       -1   -1    0    0    0  501  0.00000000000E+00  0.00000000000E+00 -0.41864737062E+03  0.41864737065E+03  0.50400001928E-02 0. -1.
    10030    2    1    2    0    0  0.00000000000E+00  0.00000000000E+00  0.15177896231E+04  0.23550843644E+04  0.18007601238E+04 0.  0.
        3    1    3    3  502    0  0.39954521255E+03  0.53963490709E+03 -0.25629762353E+02  0.67193683091E+03  0.10100000352E+00 0. -1.
       -3    1    3    3    0  502 -0.39954521255E+03 -0.53963490709E+03  0.15434193855E+04  0.16831475335E+04  0.10100000352E+00 0.  1.
</event>
<event>
 5   0  0.1036381E-05  0.1799394E+04  0.7818609E-02  0.8706622E-01
       -2   -1    0    0    0  501  0.00000000000E+00  0.00000000000E+00  0.64594061979E+03  0.64594061979E+03  0.25500000920E-02 0. -1.
        2   -1    0    0  501    0  0.00000000000E+00  0.00000000000E+00 -0.12531404415E+04  0.12531404415E+04  0.25500000920E-02 0.  1.
    10030    2    1    2    0    0  0.00000000000E+00  0.00000000000E+00 -0.60719982170E+03  0.18990810613E+04  0.17993935795E+04 0.  0.
        4    1    3    3  502    0 -0.11666404314E+03  0.76261365140E+03 -0.79212912769E+03  0.11057396837E+04  0.12699999809E+01 0.  1.
       -4    1    3    3    0  502  0.11666404314E+03 -0.76261365140E+03  0.18492930600E+03  0.79334137758E+03  0.12699999809E+01 0. -1.
</event>
<event>
 5   0  0.4983159E-06  0.1800210E+04  0.7818609E-02  0.8706188E-01
       -1   -1    0    0    0  501  0.00000000000E+00  0.00000000000E+00  0.33393109101E+03  0.33393109105E+03  0.50400001928E-02 0. -1.
        1   -1    0    0  501    0  0.00000000000E+00  0.00000000000E+00 -0.24262148632E+04  0.24262148632E+04  0.50400001928E-02 0.  1.
    10030    2    1    2    0    0  0.00000000000E+00  0.00000000000E+00 -0.20922837722E+04  0.27601459543E+04  0.18002095171E+04 0.  0.
        4    1    3    3  502    0  0.28581373157E+03 -0.70183381315E+03 -0.30141401359E+03  0.81554411954E+03  0.12699999809E+01 0. -1.
       -4    1    3    3    0  502 -0.28581373157E+03  0.70183381315E+03 -0.17908697586E+04  0.19446018347E+04  0.12699999809E+01 0.  1.
</event>
<event>
 5   0  0.9589963E-06  0.1797580E+04  0.7818609E-02  0.8707588E-01
        2   -1    0    0  501    0  0.00000000000E+00  0.00000000000E+00  0.12656504548E+04  0.12656504548E+04  0.25500000920E-02 0.  1.
       -2   -1    0    0    0  501  0.00000000000E+00  0.00000000000E+00 -0.63826729462E+03  0.63826729463E+03  0.25500000920E-02 0. -1.
    10030    2    1    2    0    0  0.00000000000E+00  0.00000000000E+00  0.62738316022E+03  0.19039177495E+04  0.17975798082E+04 0.  0.
        2    1    3    3  502    0  0.35250895622E+03 -0.82655340349E+03  0.29331283415E+03  0.94524362559E+03  0.25500000920E-02 0.  1.
       -2    1    3    3    0  502 -0.35250895622E+03  0.82655340349E+03  0.33407032607E+03  0.95867412388E+03  0.25500000920E-02 0. -1.
</event>
<event>
 5   0  0.4981384E-06  0.1799686E+04  0.7818609E-02  0.8706467E-01
       -1   -1    0    0    0  501  0.00000000000E+00  0.00000000000E+00  0.37641579657E+03  0.37641579661E+03  0.50400001928E-02 0.  1.
        1   -1    0    0  501    0  0.00000000000E+00  0.00000000000E+00 -0.21511244759E+04  0.21511244759E+04  0.50400001928E-02 0. -1.
    10030    2    1    2    0    0  0.00000000000E+00  0.00000000000E+00 -0.17747086794E+04  0.25275402725E+04  0.17996857872E+04 0.  0.
        5    1    3    3  502    0  0.85699596576E+03 -0.78679816328E+02 -0.51827249345E+03  0.10046198616E+04  0.46999998093E+01 0.  1.
       -5    1    3    3    0  502 -0.85699596576E+03  0.78679816328E+02 -0.12564361859E+04  0.15229204110E+04  0.46999998093E+01 0. -1.
</event>
<event>
 5   0  0.1035018E-05  0.1798302E+04  0.7818609E-02  0.8707203E-01
       -2   -1    0    0    0  501  0.00000000000E+00  0.00000000000E+00  0.12438137734E+04  0.12438137734E+04  0.25500000920E-02 0. -1.
        2   -1    0    0  501    0  0.00000000000E+00  0.00000000000E+00 -0.64999485151E+03  0.64999485152E+03  0.25500000920E-02 0.  1.
    10030    2    1    2    0    0  0.00000000000E+00  0.00000000000E+00  0.59381892189E+03  0.18938086249E+04  0.17983020313E+04 0.  0.
        3    1    3    3  502    0  0.26084177759E+03 -0.82475776606E+03  0.55531582181E+03  0.10279297047E+04  0.10100000352E+00 0.  1.
       -3    1    3    3    0  502 -0.26084177759E+03  0.82475776606E+03  0.38503100083E+02  0.86587892024E+03  0.10100000352E+00 0. -1.
</event>
<event>
 5   0  0.4953155E-06  0.1800929E+04  0.7818609E-02  0.8705806E-01
       -1   -1    0    0    0  501  0.00000000000E+00  0.00000000000E+00  0.17253303153E+04  0.17253303153E+04  0.50400001928E-02 0.  1.
        1   -1    0    0  501    0  0.00000000000E+00  0.00000000000E+00 -0.46996003321E+03  0.46996003323E+03  0.50400001928E-02 0. -1.
    10030    2    1    2    0    0  0.00000000000E+00  0.00000000000E+00  0.12553702821E+04  0.21952903485E+04  0.18009289739E+04 0.  0.
        2    1    3    3  502    0 -0.33201603252E+03  0.38365886502E+03  0.15344985047E+04  0.16162037097E+04  0.25500000920E-02 0.  1.
       -2    1    3    3    0  502  0.33201603252E+03 -0.38365886502E+03 -0.27912822259E+03  0.57908663878E+03  0.25500000920E-02 0. -1.
</event>
<event>
 5   0  0.9589963E-06  0.1798351E+04  0.7818609E-02  0.8707177E-01
        2   -1    0    0  501    0  0.00000000000E+00  0.00000000000E+00  0.16032162785E+04  0.16032162785E+04  0.25500000920E-02 0. -1.
       -2   -1    0    0    0  501  0.00000000000E+00  0.00000000000E+00 -0.50430894253E+03  0.50430894254E+03  0.25500000920E-02 0.  1.
    10030    2    1    2    0    0  0.00000000000E+00  0.00000000000E+00  0.10989073360E+04  0.21075252210E+04  0.17983506956E+04 0.  0.
        2    1    3    3  502    0 -0.45530921959E+03 -0.62801332848E+03  0.10823996527E+04  0.13316516941E+04  0.25500000920E-02 0. -1.
       -2    1    3    3    0  502  0.45530921959E+03  0.62801332848E+03  0.16507683270E+02  0.77587352694E+03  0.25500000920E-02 0.  1.
</event>
<event>
 5   0  0.9999162E-06  0.1802868E+04  0.7818609E-02  0.8704776E-01
       -2   -1    0    0    0  501  0.00000000000E+00  0.00000000000E+00  0.35489802533E+03  0.35489802533E+03  0.25500000920E-02 0.  1.
        2   -1    0    0  501    0  0.00000000000E+00  0.00000000000E+00 -0.22896245632E+04  0.22896245632E+04  0.25500000920E-02 0. -1.
    10030    2    1    2    0    0  0.00000000000E+00  0.00000000000E+00 -0.19347265379E+04  0.26445225886E+04  0.18028679777E+04 0.  0.
        1    1    3    3  502    0  0.27042471833E+03  0.32430156777E+03 -0.21355832185E+04  0.21769282758E+04  0.50400001928E-02 0. -1.
       -1    1    3    3    0  502 -0.27042471833E+03 -0.32430156777E+03  0.20085668056E+03  0.46759431273E+03  0.50400001928E-02 0.  1.
</event>
<event>
 5   0  0.4987456E-06  0.1801993E+04  0.7818609E-02  0.8705240E-01
       -1   -1    0    0    0  501  0.00000000000E+00  0.00000000000E+00  0.10355071040E+04  0.10355071040E+04  0.50400001928E-02 0. -1.
        1   -1    0    0  501    0  0.00000000000E+00  0.00000000000E+00 -0.78395901622E+03  0.78395901623E+03  0.50400001928E-02 0.  1.
    10030    2    1    2    0    0  0.00000000000E+00  0.00000000000E+00  0.25154808779E+03  0.18194661203E+04  0.18019934856E+04 0.  0.
        3    1    3    3  502    0  0.61322619820E+03 -0.39431023296E+03  0.66031090762E+03  0.98363480769E+03  0.10100000352E+00 0. -1.
       -3    1    3    3    0  502 -0.61322619820E+03  0.39431023296E+03 -0.40876281983E+03  0.83583131256E+03  0.10100000352E+00 0.  1.
</event>
<event>
 5   0  0.4983159E-06  0.1800018E+04  0.7818609E-02  0.8706290E-01
       -1   -1    0    0    0  501  0.00000000000E+00  0.00000000000E+00  0.57944194235E+03  0.57944194237E+03  0.50400001928E-02 0.  1.
        1   -1    0    0  501    0  0.00000000000E+00  0.00000000000E+00 -0.13979242991E+04  0.13979242991E+04  0.50400001928E-02 0. -1.
    10030    2    1    2    0    0  0.00000000000E+00  0.00000000000E+00 -0.81848235678E+03  0.19773662415E+04  0.18000177457E+04 0.  0.
        4    1    3    3  502    0 -0.67242460494E+02  0.59846770417E+03  0.32548237263E+03  0.68456229024E+03  0.12699999809E+01 0.  1.
       -4    1    3    3    0  502  0.67242460494E+02 -0.59846770417E+03 -0.11439647294E+04  0.12928039513E+04  0.12699999809E+01 0. -1.
</event>
<event>
 5   0  0.9589963E-06  0.1800336E+04  0.7818609E-02  0.8706121E-01
        2   -1    0    0  501    0  0.00000000000E+00  0.00000000000E+00  0.12285908615E+04  0.12285908615E+04  0.25500000920E-02 0.  1.
       -2   -1    0    0    0  501  0.00000000000E+00  0.00000000000E+00 -0.65953787218E+03  0.65953787219E+03  0.25500000920E-02 0. -1.
    10030    2    1    2    0    0  0.00000000000E+00  0.00000000000E+00  0.56905298929E+03  0.18881287337E+04  0.18003357493E+04 0.  0.
        2    1    3    3  502    0  0.42247727145E+03  0.76106107052E+03  0.52506019973E+03  0.10165575298E+04  0.25500000920E-02 0.  1.
       -2    1    3    3    0  502 -0.42247727145E+03 -0.76106107052E+03  0.43992789566E+02  0.87157120392E+03  0.25500000920E-02 0. -1.
</event>
<event>
 5   0  0.1036381E-05  0.1796164E+04  0.7818609E-02  0.8708342E-01
       -2   -1    0    0    0  501  0.00000000000E+00  0.00000000000E+00  0.10945396231E+04  0.10945396231E+04  0.25500000920E-02 0.  1.
        2   -1    0    0  501    0  0.00000000000E+00  0.00000000000E+00 -0.73688607507E+03  0.73688607508E+03  0.25500000920E-02 0. -1.
    10030    2    1    2    0    0  0.00000000000E+00  0.00000000000E+00  0.35765354806E+03  0.18314256982E+04  0.17961636973E+04 0.  0.
        4    1    3    3  502    0 -0.20374739243E+03 -0.71513757752E+03  0.69231506939E+03  0.10159904148E+04  0.12699999809E+01 0.  1.
       -4    1    3    3    0  502  0.20374739243E+03  0.71513757752E+03 -0.33466152134E+03  0.81543528343E+03  0.12699999809E+01 0. -1.
</event>
<event>
 5   0  0.1035018E-05  0.1800606E+04  0.7818609E-02  0.8705977E-01
        2   -1    0    0  501    0  0.00000000000E+00  0.00000000000E+00  0.10939190642E+04  0.10939190642E+04  0.25500000920E-02 0.  1.
       -2   -1    0    0    0  501  0.00000000000E+00  0.00000000000E+00 -0.74095562097E+03  0.74095562097E+03  0.25500000920E-02 0. -1.
    10030    2    1    2    0    0  0.00000000000E+00  0.00000000000E+00  0.35296344323E+03  0.18348746852E+04  0.18006059863E+04 0.  0.
        3    1    3    3  502    0 -0.45227753203E+03 -0.76705750094E+03  0.31172260734E+03  0.94345279153E+03  0.10100000352E+00 0. -1.
       -3    1    3    3    0  502  0.45227753203E+03  0.76705750094E+03  0.41240835893E+02  0.89142189364E+03  0.10100000352E+00 0.  1.
</event>
<event>
 5   0  0.1000316E-05  0.1800392E+04  0.7818609E-02  0.8706091E-01
       -2   -1    0    0    0  501  0.00000000000E+00  0.00000000000E+00  0.14750615611E+04  0.14750615611E+04  0.25500000920E-02 0.  1.
        2   -1    0    0  501    0  0.00000000000E+00  0.00000000000E+00 -0.54936857470E+03  0.54936857470E+03  0.25500000920E-02 0. -1.
    10030    2    1    2    0    0  0.00000000000E+00  0.00000000000E+00  0.92569298637E+03  0.20244301358E+04  0.18003915878E+04 0.  0.
        5    1    3    3  502    0 -0.63746875829E+03 -0.42403744493E+03  0.99521358417E+03  0.12556457863E+04  0.46999998093E+01 0.  1.
       -5    1    3    3    0  502  0.63746875829E+03  0.42403744493E+03 -0.69520597804E+02  0.76878434948E+03  0.46999998093E+01 0. -1.
</event>
<event>
 5   0  0.4983159E-06  0.1800368E+04  0.7818609E-02  0.8706104E-01
        1   -1    0    0  501    0  0.00000000000E+00  0.00000000000E+00  0.18502497263E+04  0.18502497263E+04  0.50400001928E-02 0.  1.
       -1   -1    0    0    0  501  0.00000000000E+00  0.00000000000E+00 -0.43795793837E+03  0.43795793840E+03  0.50400001928E-02 0. -1.
    10030    2    1    2    0    0  0.00000000000E+00  0.00000000000E+00  0.14122917879E+04  0.22882076647E+04  0.18003683575E+04 0.  0.
        4    1    3    3  502    0  0.45912626543E+03  0.50146305442E+02  0.16881830261E+04  0.17502214495E+04  0.12699999809E+01 0.  1.
       -4    1    3    3    0  502 -0.45912626543E+03 -0.50146305442E+02 -0.27589123821E+03  0.53798621523E+03  0.12699999809E+01 0. -1.
</event>
<event>
 5   0  0.4981384E-06  0.1800072E+04  0.7818609E-02  0.8706261E-01
        1   -1    0    0  501    0  0.00000000000E+00  0.00000000000E+00  0.18360067409E+04  0.18360067409E+04  0.50400001928E-02 0. -1.
       -1   -1    0    0    0  501  0.00000000000E+00  0.00000000000E+00 -0.44121010321E+03  0.44121010324E+03  0.50400001928E-02 0.  1.
    10030    2    1    2    0    0  0.00000000000E+00  0.00000000000E+00  0.13947966377E+04  0.22772168441E+04  0.18000719138E+04 0.  0.
        5    1    3    3  502    0  0.54692960414E+03  0.63698491744E+02 -0.20325074965E+03  0.58696034530E+03  0.46999998093E+01 0.  1.
       -5    1    3    3    0  502 -0.54692960414E+03 -0.63698491744E+02  0.15980473873E+04  0.16902564988E+04  0.46999998093E+01 0. -1.
</event>
<event>
 5   0  0.4994123E-06  0.1800082E+04  0.7818609E-02  0.8706256E-01
        1   -1    0    0  501    0  0.00000000000E+00  0.00000000000E+00  0.24034180174E+04  0.24034180174E+04  0.50400001928E-02 0.  1.
       -1   -1    0    0    0  501  0.00000000000E+00  0.00000000000E+00 -0.33705076405E+03  0.33705076409E+03  0.50400001928E-02 0. -1.
    10030    2    1    2    0    0  0.00000000000E+00  0.00000000000E+00  0.20663672534E+04  0.27404687815E+04  0.18000820861E+04 0.  0.
        1    1    3    3  502    0  0.55310765512E+03  0.68754593039E+03  0.13030692987E+04  0.15737334850E+04  0.50400001928E-02 0.  1.
       -1    1    3    3    0  502 -0.55310765512E+03 -0.68754593039E+03  0.76329795469E+03  0.11667352965E+04  0.50400001928E-02 0. -1.
</event>
<event>
 5   0  0.1036381E-05  0.1800532E+04  0.7818609E-02  0.8706017E-01
       -2   -1    0    0    0  501  0.00000000000E+00  0.00000000000E+00  0.42106995573E+03  0.42106995574E+03  0.25500000920E-02 0. -1.
        2   -1    0    0  501    0  0.00000000000E+00  0.00000000000E+00 -0.19248075236E+04  0.19248075236E+04  0.25500000920E-02 0.  1.
    10030    2    1    2    0    0  0.00000000000E+00  0.00000000000E+00 -0.15037375679E+04  0.23458774794E+04  0.18005317201E+04 0.  0.
        4    1    3    3  502    0  0.20168972993E+03  0.65382324144E+03 -0.15141522796E+04  0.16615722424E+04  0.12699999809E+01 0.  1.
       -4    1    3    3    0  502 -0.20168972993E+03 -0.65382324144E+03  0.10414711642E+02  0.68430523696E+03  0.12699999809E+01 0. -1.
</event>
<event>
 5   0  0.1036381E-05  0.1800221E+04  0.7818609E-02  0.8706182E-01
        2   -1    0    0  501    0  0.00000000000E+00  0.00000000000E+00  0.10925198822E+04  0.10925198822E+04  0.25500000920E-02 0.  1.
       -2   -1    0    0    0  501  0.00000000000E+00  0.00000000000E+00 -0.74158730369E+03  0.74158730369E+03  0.25500000920E-02 0. -1.
    10030    2    1    2    0    0  0.00000000000E+00  0.00000000000E+00  0.35093257846E+03  0.18341071858E+04  0.18002209571E+04 0.  0.
        4    1    3    3  502    0  0.32291336179E+03 -0.46610103056E+03 -0.53674448319E+03  0.78078131576E+03  0.12699999809E+01 0. -1.
       -4    1    3    3    0  502 -0.32291336179E+03  0.46610103056E+03  0.88767706165E+03  0.10533258701E+04  0.12699999809E+01 0.  1.
</event>
<event>
 5   0  0.3626125E-06  0.1800034E+04  0.7818609E-02  0.8706281E-01
       -3   -1    0    0    0  501  0.00000000000E+00  0.00000000000E+00  0.50449107138E+03  0.50449108149E+03  0.10100000352E+00 0. -1.
        3   -1    0    0  501    0  0.00000000000E+00  0.00000000000E+00 -0.16056390697E+04  0.16056390729E+04  0.10100000352E+00 0.  1.
    10030    2    1    2    0    0  0.00000000000E+00  0.00000000000E+00 -0.11011479984E+04  0.21101301544E+04  0.18000339870E+04 0.  0.
        4    1    3    3  502    0  0.81206213494E+03 -0.38036126158E+03 -0.64068946385E+03  0.11020908321E+04  0.12699999809E+01 0.  1.
       -4    1    3    3    0  502 -0.81206213494E+03  0.38036126158E+03 -0.46045853451E+03  0.10080393223E+04  0.12699999809E+01 0. -1.
</event>
<event>
 5   0  0.9589963E-06  0.1803167E+04  0.7818609E-02  0.8704617E-01
       -2   -1    0    0    0  501  0.00000000000E+00  0.00000000000E+00  0.97108816590E+03  0.97108816591E+03  0.25500000920E-02 0.  1.
        2   -1    0    0  501    0  0.00000000000E+00  0.00000000000E+00 -0.83705394163E+03  0.83705394163E+03  0.25500000920E-02 0. -1.
    10030    2    1    2    0    0  0.00000000000E+00  0.00000000000E+00  0.13403422427E+03  0.18081421075E+04  0.18031674098E+04 0.  0.
        2    1    3    3  502    0  0.21539505543E+03 -0.58838914090E+03 -0.58304321340E+03  0.85588328628E+03  0.25500000920E-02 0. -1.
       -2    1    3    3    0  502 -0.21539505543E+03  0.58838914090E+03  0.71707743767E+03  0.95225882126E+03  0.25500000920E-02 0.  1.
</event>
<event>
 5   0  0.4953155E-06  0.1800042E+04  0.7818609E-02  0.8706277E-01
        1   -1    0    0  501    0  0.00000000000E+00  0.00000000000E+00  0.42742946381E+03  0.42742946384E+03  0.50400001928E-02 0.  1.
       -1   -1    0    0    0  501  0.00000000000E+00  0.00000000000E+00 -0.18951386431E+04  0.18951386432E+04  0.50400001928E-02 0. -1.
    10030    2    1    2    0    0  0.00000000000E+00  0.00000000000E+00 -0.14677091793E+04  0.23225681070E+04  0.18000423263E+04 0.  0.
        2    1    3    3  502    0 -0.88724428178E+03 -0.12543098590E+03 -0.62511219472E+03  0.10925660638E+04  0.25500000920E-02 0.  1.
       -2    1    3    3    0  502  0.88724428178E+03  0.12543098590E+03 -0.84259698461E+03  0.12300020432E+04  0.25500000920E-02 0. -1.
</event>
<event>
 5   0  0.4987456E-06  0.1801322E+04  0.7818609E-02  0.8705597E-01
        1   -1    0    0  501    0  0.00000000000E+00  0.00000000000E+00  0.76292102108E+03  0.76292102110E+03  0.50400001928E-02 0.  1.
       -1   -1    0    0    0  501  0.00000000000E+00  0.00000000000E+00 -0.10632694954E+04  0.10632694954E+04  0.50400001928E-02 0. -1.
    10030    2    1    2    0    0  0.00000000000E+00  0.00000000000E+00 -0.30034847430E+03  0.18261905165E+04  0.18013224577E+04 0.  0.
        3    1    3    3  502    0 -0.60489990145E+03 -0.65798739780E+03 -0.37558145011E+02  0.89457360284E+03  0.10100000352E+00 0.  1.
       -3    1    3    3    0  502  0.60489990145E+03  0.65798739780E+03 -0.26279032929E+03  0.93161691365E+03  0.10100000352E+00 0. -1.
</event>
<event>
 5   0  0.1000316E-05  0.1798961E+04  0.7818609E-02  0.8706852E-01
       -2   -1    0    0    0  501  0.00000000000E+00  0.00000000000E+00  0.39001688647E+03  0.39001688648E+03  0.25500000920E-02 0. -1.
        2   -1    0    0  501    0  0.00000000000E+00  0.00000000000E+00 -0.20744351719E+04  0.20744351719E+04  0.25500000920E-02 0.  1.
    10030    2    1    2    0    0  0.00000000000E+00  0.00000000000E+00 -0.16844182854E+04  0.24644520584E+04  0.17989605298E+04 0.  0.
        5    1    3    3  502    0 -0.70936227831E+03 -0.31712927888E+03 -0.14628905147E+04  0.16564530085E+04  0.46999998093E+01 0.  1.
       -5    1    3    3    0  502  0.70936227831E+03  0.31712927888E+03 -0.22152777077E+03  0.80799904990E+03  0.46999998093E+01 0. -1.
</event>
<event>
 5   0  0.9999162E-06  0.1800117E+04  0.7818609E-02  0.8706237E-01
        2   -1    0    0  501    0  0.00000000000E+00  0.00000000000E+00  0.19601619949E+04  0.19601619949E+04  0.25500000920E-02 0.  1.
       -2   -1    0    0    0  501  0.00000000000E+00  0.00000000000E+00 -0.41328487003E+03  0.41328487003E+03  0.25500000920E-02 0. -1.
    10030    2    1    2    0    0  0.00000000000E+00  0.00000000000E+00  0.15468771248E+04  0.23734468649E+04  0.18001169910E+04 0.  0.
        1    1    3    3  502    0 -0.25349846731E+03  0.42158554173E+03 -0.22035182197E+03  0.53902761283E+03  0.50400001928E-02 0. -1.
       -1    1    3    3    0  502  0.25349846731E+03 -0.42158554173E+03  0.17672289468E+04  0.18344192521E+04  0.50400001928E-02 0.  1.
</event>
<event>
 5   0  0.4983159E-06  0.1800759E+04  0.7818609E-02  0.8705896E-01
       -1   -1    0    0    0  501  0.00000000000E+00  0.00000000000E+00  0.41011965506E+03  0.41011965509E+03  0.50400001928E-02 0.  1.
        1   -1    0    0  501    0  0.00000000000E+00  0.00000000000E+00 -0.19766993206E+04  0.19766993206E+04  0.50400001928E-02 0. -1.
    10030    2    1    2    0    0  0.00000000000E+00  0.00000000000E+00 -0.15665796656E+04  0.23868189757E+04  0.18007589995E+04 0.  0.
        4    1    3    3  502    0 -0.33482582605E+03 -0.67213231612E+03 -0.14417758188E+04  0.16256042904E+04  0.12699999809E+01 0. -1.
       -4    1    3    3    0  502  0.33482582605E+03  0.67213231612E+03 -0.12480384674E+03  0.76121468537E+03  0.12699999809E+01 0.  1.
</event>
<event>
 5   0  0.4983159E-06  0.1800982E+04  0.7818609E-02  0.8705777E-01
        1   -1    0    0  501    0  0.00000000000E+00  0.00000000000E+00  0.15654403398E+04  0.15654403398E+04  0.50400001928E-02 0. -1.
       -1   -1    0    0    0  501  0.00000000000E+00  0.00000000000E+00 -0.51799107846E+03  0.51799107848E+03  0.50400001928E-02 0.  1.
    10030    2    1    2    0    0  0.00000000000E+00  0.00000000000E+00  0.10474492613E+04  0.20834314183E+04  0.18009820986E+04 0.  0.
        4    1    3    3  502    0 -0.34647888511E+03 -0.36293422788E+03 -0.34128284100E+03  0.60683149395E+03  0.12699999809E+01 0.  1.
       -4    1    3    3    0  502  0.34647888511E+03  0.36293422788E+03  0.13887321023E+04  0.14765999243E+04  0.12699999809E+01 0. -1.
</event>
<event>
 5   0  0.4981384E-06  0.1798858E+04  0.7818609E-02  0.8706907E-01
       -1   -1    0    0    0  501  0.00000000000E+00  0.00000000000E+00  0.11291920124E+04  0.11291920124E+04  0.50400001928E-02 0.  1.
        1   -1    0    0  501    0  0.00000000000E+00  0.00000000000E+00 -0.71641695405E+03  0.71641695407E+03  0.50400001928E-02 0. -1.
    10030    2    1    2    0    0  0.00000000000E+00  0.00000000000E+00  0.41277505836E+03  0.18456089665E+04  0.17988577510E+04 0.  0.
        5    1    3    3  502    0  0.57424385439E+03  0.24114665110E+03 -0.45935428891E+03  0.77390966164E+03  0.46999998093E+01 0. -1.
       -5    1    3    3    0  502 -0.57424385439E+03 -0.24114665110E+03  0.87212934727E+03  0.10716993048E+04  0.46999998093E+01 0.  1.
</event>
<event>
 5   0  0.1036381E-05  0.1800250E+04  0.7818609E-02  0.8706167E-01
        2   -1    0    0  501    0  0.00000000000E+00  0.00000000000E+00  0.16742495893E+04  0.16742495893E+04  0.25500000920E-02 0.  1.
       -2   -1    0    0    0  501  0.00000000000E+00  0.00000000000E+00 -0.48393322335E+03  0.48393322336E+03  0.25500000920E-02 0. -1.
    10030    2    1    2    0    0  0.00000000000E+00  0.00000000000E+00  0.11903163660E+04  0.21581828127E+04  0.18002499832E+04 0.  0.
        4    1    3    3  502    0 -0.71155936231E+02  0.88363928791E+03  0.78219711722E+03  0.11822501857E+04  0.12699999809E+01 0.  1.
       -4    1    3    3    0  502  0.71155936231E+02 -0.88363928791E+03  0.40811924876E+03  0.97593262703E+03  0.12699999809E+01 0. -1.
</event>
<event>
 5   0  0.4981384E-06  0.1796231E+04  0.7818609E-02  0.8708306E-01
       -1   -1    0    0    0  501  0.00000000000E+00  0.00000000000E+00  0.54481013682E+03  0.54481013685E+03  0.50400001928E-02 0.  1.
        1   -1    0    0  501    0  0.00000000000E+00  0.00000000000E+00 -0.14805372901E+04  0.14805372901E+04  0.50400001928E-02 0. -1.
    10030    2    1    2    0    0  0.00000000000E+00  0.00000000000E+00 -0.93572715326E+03  0.20253474269E+04  0.17962313032E+04 0.  0.
        5    1    3    3  502    0 -0.80795081787E+03  0.38225747347E+03 -0.36902183839E+03  0.96700801823E+03  0.46999998093E+01 0. -1.
       -5    1    3    3    0  502  0.80795081787E+03 -0.38225747347E+03 -0.56670531487E+03  0.10583394087E+04  0.46999998093E+01 0.  1.
</event>
<event>
 5   0  0.1035018E-05  0.1799736E+04  0.7818609E-02  0.8706440E-01
       -2   -1    0    0    0  501  0.00000000000E+00  0.00000000000E+00  0.48002350171E+03  0.48002350171E+03  0.25500000920E-02 0. -1.
        2   -1    0    0  501    0  0.00000000000E+00  0.00000000000E+00 -0.16869217975E+04  0.16869217975E+04  0.25500000920E-02 0.  1.
    10030    2    1    2    0    0  0.00000000000E+00  0.00000000000E+00 -0.12068982958E+04  0.21669452992E+04  0.17997356565E+04 0.  0.
        3    1    3    3  502    0  0.29656195242E+03  0.10193558158E+03 -0.16190029756E+04  0.16490938419E+04  0.10100000352E+00 0.  1.
       -3    1    3    3    0  502 -0.29656195242E+03 -0.10193558158E+03  0.41210467983E+03  0.51785145723E+03  0.10100000352E+00 0. -1.
</event>
<event>
 5   0  0.1035018E-05  0.1798855E+04  0.7818609E-02  0.8706909E-01
        2   -1    0    0  501    0  0.00000000000E+00  0.00000000000E+00  0.11694019763E+04  0.11694019763E+04  0.25500000920E-02 0.  1.
       -2   -1    0    0    0  501  0.00000000000E+00  0.00000000000E+00 -0.69178050969E+03  0.69178050970E+03  0.25500000920E-02 0. -1.
    10030    2    1    2    0    0  0.00000000000E+00  0.00000000000E+00  0.47762146660E+03  0.18611824860E+04  0.17988546303E+04 0.  0.
        3    1    3    3  502    0 -0.54253574153E+03 -0.47747662926E+03 -0.31512793454E+03  0.78843806837E+03  0.10100000352E+00 0. -1.
       -3    1    3    3    0  502  0.54253574153E+03  0.47747662926E+03  0.79274940114E+03  0.10727444176E+04  0.10100000352E+00 0.  1.
</event>
<event>
 5   0  0.3626125E-06  0.1799266E+04  0.7818609E-02  0.8706690E-01
       -3   -1    0    0    0  501  0.00000000000E+00  0.00000000000E+00  0.48560908847E+03  0.48560909897E+03  0.10100000352E+00 0.  1.
        3   -1    0    0  501    0  0.00000000000E+00  0.00000000000E+00 -0.16666480937E+04  0.16666480968E+04  0.10100000352E+00 0. -1.
    10030    2    1    2    0    0  0.00000000000E+00  0.00000000000E+00 -0.11810390053E+04  0.21522571958E+04  0.17992659350E+04 0.  0.
        1    1    3    3  502    0  0.72290664024E+02  0.60490270693E+03 -0.13823607037E+04  0.15106469938E+04  0.50400001928E-02 0. -1.
       -1    1    3    3    0  502 -0.72290664024E+02 -0.60490270693E+03  0.20132169838E+03  0.64161020193E+03  0.50400001928E-02 0.  1.
</event>
<event>
 5   0  0.4981384E-06  0.1799811E+04  0.7818609E-02  0.8706400E-01
       -1   -1    0    0    0  501  0.00000000000E+00  0.00000000000E+00  0.86804585002E+03  0.86804585003E+03  0.50400001928E-02 0. -1.
        1   -1    0    0  501    0  0.00000000000E+00  0.00000000000E+00 -0.93293488781E+03  0.93293488782E+03  0.50400001928E-02 0.  1.
    10030    2    1    2    0    0  0.00000000000E+00  0.00000000000E+00 -0.64889037793E+02  0.18009807379E+04  0.17998113876E+04 0.  0.
        5    1    3    3  502    0 -0.10644133434E+03  0.21897905157E+03 -0.89933675371E+03  0.93172435262E+03  0.46999998093E+01 0.  1.
       -5    1    3    3    0  502  0.10644133434E+03 -0.21897905157E+03  0.83444771592E+03  0.86925638524E+03  0.46999998093E+01 0. -1.
</event>
<event>
 5   0  0.1035018E-05  0.1800135E+04  0.7818609E-02  0.8706227E-01
        2   -1    0    0  501    0  0.00000000000E+00  0.00000000000E+00  0.88657524465E+03  0.88657524465E+03  0.25500000920E-02 0.  1.
       -2   -1    0    0    0  501  0.00000000000E+00  0.00000000000E+00 -0.91376556737E+03  0.91376556737E+03  0.25500000920E-02 0. -1.
    10030    2    1    2    0    0  0.00000000000E+00  0.00000000000E+00 -0.27190322719E+02  0.18003408120E+04  0.18001354743E+04 0.  0.
        3    1    3    3  502    0 -0.14365941087E+02  0.66688254022E+03  0.59077768273E+03  0.89104263833E+03  0.10100000352E+00 0.  1.
       -3    1    3    3    0  502  0.14365941087E+02 -0.66688254022E+03 -0.61796800545E+03  0.90929817369E+03  0.10100000352E+00 0. -1.
</event>
<event>
 5   0  0.3626125E-06  0.1802666E+04  0.7818609E-02  0.8704883E-01
       -3   -1    0    0    0  501  0.00000000000E+00  0.00000000000E+00  0.72701845468E+03  0.72701846169E+03  0.10100000352E+00 0.  1.
        3   -1    0    0  501    0  0.00000000000E+00  0.00000000000E+00 -0.11174426838E+04  0.11174426883E+04  0.10100000352E+00 0. -1.
    10030    2    1    2    0    0  0.00000000000E+00  0.00000000000E+00 -0.39042422908E+03  0.18444611500E+04  0.18026663183E+04 0.  0.
        5    1    3    3  502    0 -0.80582355505E+03 -0.60684845191E+02  0.21322345225E+03  0.83577543808E+03  0.46999998093E+01 0.  1.
       -5    1    3    3    0  502  0.80582355505E+03  0.60684845191E+02 -0.60364768132E+03  0.10086857119E+04  0.46999998093E+01 0. -1.
</event>
<event>
 5   0  0.9589963E-06  0.1800466E+04  0.7818609E-02  0.8706052E-01
       -2   -1    0    0    0  501  0.00000000000E+00  0.00000000000E+00  0.41894860032E+03  0.41894860032E+03  0.25500000920E-02 0. -1.
        2   -1    0    0  501    0  0.00000000000E+00  0.00000000000E+00 -0.19344124750E+04  0.19344124750E+04  0.25500000920E-02 0.  1.
    10030    2    1    2    0    0  0.00000000000E+00  0.00000000000E+00 -0.15154638747E+04  0.23533610753E+04  0.18004659384E+04 0.  0.
        2    1    3    3  502    0  0.62940336123E+03  0.23084737359E+03 -0.15430496730E+04  0.16823915698E+04  0.25500000920E-02 0.  1.
       -2    1    3    3    0  502 -0.62940336123E+03 -0.23084737359E+03  0.27585798285E+02  0.67096950548E+03  0.25500000920E-02 0. -1.
</event>
<event>
 5   0  0.9999162E-06  0.1807542E+04  0.7818609E-02  0.8702299E-01
        2   -1    0    0  501    0  0.00000000000E+00  0.00000000000E+00  0.71130684686E+03  0.71130684686E+03  0.25500000920E-02 0.  1.
       -2   -1    0    0    0  501  0.00000000000E+00  0.00000000000E+00 -0.11483115044E+04  0.11483115044E+04  0.25500000920E-02 0. -1.
    10030    2    1    2    0    0  0.00000000000E+00  0.00000000000E+00 -0.43700465754E+03  0.18596183513E+04  0.18075417953E+04 0.  0.
        1    1    3    3  502    0 -0.38682447981E+03  0.53650331178E+03  0.41514222177E+03  0.78090463313E+03  0.50400001928E-02 0.  1.
       -1    1    3    3    0  502  0.38682447981E+03 -0.53650331178E+03 -0.85214687931E+03  0.10787137181E+04  0.50400001928E-02 0. -1.
</event>
<event>
 5   0  0.4994123E-06  0.1799405E+04  0.7818609E-02  0.8706616E-01
        1   -1    0    0  501    0  0.00000000000E+00  0.00000000000E+00  0.44397251588E+03  0.44397251591E+03  0.50400001928E-02 0.  1.
       -1   -1    0    0    0  501  0.00000000000E+00  0.00000000000E+00 -0.18232314674E+04  0.18232314675E+04  0.50400001928E-02 0. -1.
    10030    2    1    2    0    0  0.00000000000E+00  0.00000000000E+00 -0.13792589516E+04  0.22672039834E+04  0.17994050813E+04 0.  0.
        1    1    3    3  502    0  0.62361523824E+03  0.62031516547E+03 -0.45130512453E+03  0.98861680409E+03  0.50400001928E-02 0.  1.
       -1    1    3    3    0  502 -0.62361523824E+03 -0.62031516547E+03 -0.92795382704E+03  0.12785871793E+04  0.50400001928E-02 0. -1.
</event>
<event>
 5   0  0.1036381E-05  0.1800850E+04  0.7818609E-02  0.8705848E-01
       -2   -1    0    0    0  501  0.00000000000E+00  0.00000000000E+00  0.67128489093E+03  0.67128489094E+03  0.25500000920E-02 0. -1.
        2   -1    0    0  501    0  0.00000000000E+00  0.00000000000E+00 -0.12077810459E+04  0.12077810459E+04  0.25500000920E-02 0.  1.
    10030    2    1    2    0    0  0.00000000000E+00  0.00000000000E+00 -0.53649615500E+03  0.18790659369E+04  0.18008499856E+04 0.  0.
        4    1    3    3  502    0  0.21255234908E+03  0.68380066341E+03 -0.83785316369E+03  0.11021621411E+04  0.12699999809E+01 0.  1.
       -4    1    3    3    0  502 -0.21255234908E+03 -0.68380066341E+03  0.30135700869E+03  0.77690379582E+03  0.12699999809E+01 0. -1.
</event>
<event>
 5   0  0.1036381E-05  0.1799695E+04  0.7818609E-02  0.8706461E-01
       -2   -1    0    0    0  501  0.00000000000E+00  0.00000000000E+00  0.11267340213E+04  0.11267340213E+04  0.25500000920E-02 0. -1.
        2   -1    0    0  501    0  0.00000000000E+00  0.00000000000E+00 -0.71864862563E+03  0.71864862564E+03  0.25500000920E-02 0.  1.
    10030    2    1    2    0    0  0.00000000000E+00  0.00000000000E+00  0.40808539565E+03  0.18453826469E+04  0.17996953696E+04 0.  0.
        4    1    3    3  502    0  0.49746659427E+03  0.74958739580E+03  0.18431989234E+03  0.91832984922E+03  0.12699999809E+01 0.  1.
       -4    1    3    3    0  502 -0.49746659427E+03 -0.74958739580E+03  0.22376550331E+03  0.92705279770E+03  0.12699999809E+01 0. -1.
</event>
<event>
 5   0  0.1000316E-05  0.1798703E+04  0.7818609E-02  0.8706989E-01
        2   -1    0    0  501    0  0.00000000000E+00  0.00000000000E+00  0.14255386383E+04  0.14255386383E+04  0.25500000920E-02 0.  1.
       -2   -1    0    0    0  501  0.00000000000E+00  0.00000000000E+00 -0.56738793726E+03  0.56738793726E+03  0.25500000920E-02 0. -1.
    10030    2    1    2    0    0  0.00000000000E+00  0.00000000000E+00  0.85815070107E+03  0.19929265756E+04  0.17987033413E+04 0.  0.
        5    1    3    3  502    0  0.39853975457E+03 -0.71953689844E+03  0.83199628554E+03  0.11699603384E+04  0.46999998093E+01 0.  1.
       -5    1    3    3    0  502 -0.39853975457E+03  0.71953689844E+03  0.26154415533E+02  0.82296623724E+03  0.46999998093E+01 0. -1.
</event>
<event>
 5   0  0.4983159E-06  0.1800242E+04  0.7818609E-02  0.8706171E-01
       -1   -1    0    0    0  501  0.00000000000E+00  0.00000000000E+00  0.54266999404E+03  0.54266999406E+03  0.50400001928E-02 0.  1.
        1   -1    0    0  501    0  0.00000000000E+00  0.00000000000E+00 -0.14930204091E+04  0.14930204091E+04  0.50400001928E-02 0. -1.
    10030    2    1    2    0    0  0.00000000000E+00  0.00000000000E+00 -0.95035041503E+03  0.20356904031E+04  0.18002415133E+04 0.  0.
        4    1    3    3  502    0 -0.19579063928E+03  0.71272023203E+03  0.10573665656E+03  0.74664982221E+03  0.12699999809E+01 0.  1.
       -4    1    3    3    0  502  0.19579063928E+03 -0.71272023203E+03 -0.10560870716E+04  0.12890405809E+04  0.12699999809E+01 0. -1.
</event>
<event>
 5   0  0.4953155E-06  0.1800274E+04  0.7818609E-02  0.8706154E-01
        1   -1    0    0  501    0  0.00000000000E+00  0.00000000000E+00  0.24155276294E+04  0.24155276294E+04  0.50400001928E-02 0. -1.
       -1   -1    0    0    0  501  0.00000000000E+00  0.00000000000E+00 -0.33543274563E+03  0.33543274567E+03  0.50400001928E-02 0.  1.
    10030    2    1    2    0    0  0.00000000000E+00  0.00000000000E+00  0.20800948838E+04  0.27509603751E+04  0.18002744957E+04 0.  0.
        2    1    3    3  502    0 -0.54579355915E+03 -0.28689373710E+03  0.20421318249E+04  0.21331903374E+04  0.25500000920E-02 0. -1.
       -2    1    3    3    0  502  0.54579355915E+03  0.28689373710E+03  0.37963058927E+02  0.61777003767E+03  0.25500000920E-02 0.  1.
</event>
<event>
 5   0  0.1035018E-05  0.1797048E+04  0.7818609E-02  0.8707871E-01
       -2   -1    0    0    0  501  0.00000000000E+00  0.00000000000E+00  0.68539518733E+03  0.68539518733E+03  0.25500000920E-02 0.  1.
        2   -1    0    0  501    0  0.00000000000E+00  0.00000000000E+00 -0.11779267988E+04  0.11779267988E+04  0.25500000920E-02 0. -1.
    10030    2    1    2    0    0  0.00000000000E+00  0.00000000000E+00 -0.49253161150E+03  0.18633219862E+04  0.17970479782E+04 0.  0.
        3    1    3    3  502    0  0.84841219876E+03 -0.65827497549E+02 -0.54536341714E+03  0.10107214183E+04  0.10100000352E+00 0. -1.
       -3    1    3    3    0  502 -0.84841219876E+03  0.65827497549E+02  0.52831805643E+02  0.85260056787E+03  0.10100000352E+00 0.  1.
</event>
<event>
 5   0  0.1036381E-05  0.1800115E+04  0.7818609E-02  0.8706239E-01
       -2   -1    0    0    0  501  0.00000000000E+00  0.00000000000E+00  0.29607724055E+03  0.29607724056E+03  0.25500000920E-02 0. -1.
        2   -1    0    0  501    0  0.00000000000E+00  0.00000000000E+00 -0.27361209841E+04  0.27361209841E+04  0.25500000920E-02 0.  1.
    10030    2    1    2    0    0  0.00000000000E+00  0.00000000000E+00 -0.24400437435E+04  0.30321982247E+04  0.18001146084E+04 0.  0.
        4    1    3    3  502    0 -0.15912389796E+03  0.85071882754E+03 -0.16362494500E+04  0.18510420886E+04  0.12699999809E+01 0.  1.
       -4    1    3    3    0  502  0.15912389796E+03 -0.85071882754E+03 -0.80379429358E+03  0.11811561360E+04  0.12699999809E+01 0. -1.
</event>
<event>
 5   0  0.1036381E-05  0.1799884E+04  0.7818609E-02  0.8706361E-01
       -2   -1    0    0    0  501  0.00000000000E+00  0.00000000000E+00  0.97642112877E+03  0.97642112877E+03  0.25500000920E-02 0.  1.
        2   -1    0    0  501    0  0.00000000000E+00  0.00000000000E+00 -0.82945273871E+03  0.82945273872E+03  0.25500000920E-02 0. -1.
    10030    2    1    2    0    0  0.00000000000E+00  0.00000000000E+00  0.14696839005E+03  0.18058738675E+04  0.17998835289E+04 0.  0.
        4    1    3    3  502    0 -0.10427639195E+03 -0.48349965861E+03  0.82781624257E+03  0.96432713856E+03  0.12699999809E+01 0.  1.
       -4    1    3    3    0  502  0.10427639195E+03  0.48349965861E+03 -0.68084785252E+03  0.84154672893E+03  0.12699999809E+01 0. -1.
</event>
<event>
 5   0  0.4987456E-06  0.1797694E+04  0.7818609E-02  0.8707527E-01
        1   -1    0    0  501    0  0.00000000000E+00  0.00000000000E+00  0.13865766845E+04  0.13865766845E+04  0.50400001928E-02 0.  1.
       -1   -1    0    0    0  501  0.00000000000E+00  0.00000000000E+00 -0.58267664746E+03  0.58267664749E+03  0.50400001928E-02 0. -1.
    10030    2    1    2    0    0  0.00000000000E+00  0.00000000000E+00  0.80390003704E+03  0.19692533320E+04  0.17976939161E+04 0.  0.
        3    1    3    3  502    0 -0.82476597860E+03  0.17551478109E+03  0.74291221963E+03  0.11238162368E+04  0.10100000352E+00 0.  1.
       -3    1    3    3    0  502  0.82476597860E+03 -0.17551478109E+03  0.60987817403E+02  0.84543709518E+03  0.10100000352E+00 0. -1.
</event>
<event>
 5   0  0.4994123E-06  0.1800163E+04  0.7818609E-02  0.8706213E-01
        1   -1    0    0  501    0  0.00000000000E+00  0.00000000000E+00  0.24003430195E+04  0.24003430195E+04  0.50400001928E-02 0.  1.
       -1   -1    0    0    0  501  0.00000000000E+00  0.00000000000E+00 -0.33751289267E+03  0.33751289271E+03  0.50400001928E-02 0. -1.
    10030    2    1    2    0    0  0.00000000000E+00  0.00000000000E+00  0.20628301268E+04  0.27378559122E+04  0.18001630104E+04 0.  0.
        1    1    3    3  502    0  0.40240955468E+03  0.80073995150E+03  0.11589235919E+04  0.14649989117E+04  0.50400001928E-02 0.  1.
       -1    1    3    3    0  502 -0.40240955468E+03 -0.80073995150E+03  0.90390653496E+03  0.12728570005E+04  0.50400001928E-02 0. -1.
</event>
<event>
 5   0  0.4953155E-06  0.1799389E+04  0.7818609E-02  0.8706625E-01
        1   -1    0    0  501    0  0.00000000000E+00  0.00000000000E+00  0.10064389346E+04  0.10064389346E+04  0.50400001928E-02 0.  1.
       -1   -1    0    0    0  501  0.00000000000E+00  0.00000000000E+00 -0.80427113320E+03  0.80427113322E+03  0.50400001928E-02 0. -1.
    10030    2    1    2    0    0  0.00000000000E+00  0.00000000000E+00  0.20216780139E+03  0.18107100678E+04  0.17993885433E+04 0.  0.
        2    1    3    3  502    0  0.66125766321E+03  0.22596752858E+03  0.67132985789E+03  0.96902363192E+03  0.25500000920E-02 0.  1.
       -2    1    3    3    0  502 -0.66125766321E+03 -0.22596752858E+03 -0.46916205650E+03  0.84168643590E+03  0.25500000920E-02 0. -1.
</event>
<event>
 5   0  0.9999162E-06  0.1795021E+04  0.7818609E-02  0.8708952E-01
       -2   -1    0    0    0  501  0.00000000000E+00  0.00000000000E+00  0.66415089795E+03  0.66415089796E+03  0.25500000920E-02 0. -1.
        2   -1    0    0  501    0  0.00000000000E+00  0.00000000000E+00 -0.12128641356E+04  0.12128641356E+04  0.25500000920E-02 0.  1.
    10030    2    1    2    0    0  0.00000000000E+00  0.00000000000E+00 -0.54871323762E+03  0.18770150335E+04  0.17950206737E+04 0.  0.
        1    1    3    3  502    0 -0.71787173335E+03  0.23853040801E+03 -0.77941863059E+03  0.10861537565E+04  0.50400001928E-02 0.  1.
       -1    1    3    3    0  502  0.71787173335E+03 -0.23853040801E+03  0.23070539297E+03  0.79086127700E+03  0.50400001928E-02 0. -1.
</event>
<event>
 5   0  0.1036381E-05  0.1800797E+04  0.7818609E-02  0.8705876E-01
       -2   -1    0    0    0  501  0.00000000000E+00  0.00000000000E+00  0.10319587232E+04  0.10319587232E+04  0.25500000920E-02 0. -1.
        2   -1    0    0  501    0  0.00000000000E+00  0.00000000000E+00 -0.78561029132E+03  0.78561029133E+03  0.25500000920E-02 0.  1.
    10030    2    1    2    0    0  0.00000000000E+00  0.00000000000E+00  0.24634843186E+03  0.18175690145E+04  0.18007969271E+04 0.  0.
        4    1    3    3  502    0  0.19936692130E+03  0.44039386415E+03 -0.64352020124E+03  0.80486880123E+03  0.12699999809E+01 0.  1.
       -4    1    3    3    0  502 -0.19936692130E+03 -0.44039386415E+03  0.88986863310E+03  0.10127002133E+04  0.12699999809E+01 0. -1.
</event>
<event>
 5   0  0.4981384E-06  0.1800340E+04  0.7818609E-02  0.8706119E-01
        1   -1    0    0  501    0  0.00000000000E+00  0.00000000000E+00  0.14522069517E+04  0.14522069517E+04  0.50400001928E-02 0.  1.
       -1   -1    0    0    0  501  0.00000000000E+00  0.00000000000E+00 -0.55798244495E+03  0.55798244497E+03  0.50400001928E-02 0. -1.
    10030    2    1    2    0    0  0.00000000000E+00  0.00000000000E+00  0.89422450677E+03  0.20101893967E+04  0.18003399518E+04 0.  0.
        5    1    3    3  502    0  0.84882604694E+03  0.15128578422E+03  0.73589138961E+03  0.11335569124E+04  0.46999998093E+01 0. -1.
       -5    1    3    3    0  502 -0.84882604694E+03 -0.15128578422E+03  0.15833311717E+03  0.87663248426E+03  0.46999998093E+01 0.  1.
</event>
<event>
 5   0  0.9999162E-06  0.1801405E+04  0.7818609E-02  0.8705553E-01
        2   -1    0    0  501    0  0.00000000000E+00  0.00000000000E+00  0.14669176260E+04  0.14669176260E+04  0.25500000920E-02 0. -1.
       -2   -1    0    0    0  501  0.00000000000E+00  0.00000000000E+00 -0.55304058716E+03  0.55304058716E+03  0.25500000920E-02 0.  1.
    10030    2    1    2    0    0  0.00000000000E+00  0.00000000000E+00  0.91387703880E+03  0.20199582131E+04  0.18014049908E+04 0.  0.
        1    1    3    3  502    0 -0.89418541372E+03  0.10814246472E+03  0.45875989059E+03  0.10108031381E+04  0.50400001928E-02 0. -1.
       -1    1    3    3    0  502  0.89418541372E+03 -0.10814246472E+03  0.45511714821E+03  0.10091550750E+04  0.50400001928E-02 0.  1.
</event>
<event>
 5   0  0.4987456E-06  0.1799783E+04  0.7818609E-02  0.8706415E-01
        1   -1    0    0  501    0  0.00000000000E+00  0.00000000000E+00  0.93601437837E+03  0.93601437838E+03  0.50400001928E-02 0.  1.
       -1   -1    0    0    0  501  0.00000000000E+00  0.00000000000E+00 -0.86516243080E+03  0.86516243081E+03  0.50400001928E-02 0. -1.
    10030    2    1    2    0    0  0.00000000000E+00  0.00000000000E+00  0.70851947567E+02  0.18011768092E+04  0.17997827367E+04 0.  0.
        3    1    3    3  502    0  0.74018777964E+03  0.24198402584E+03 -0.41588923881E+03  0.88283525476E+03  0.10100000352E+00 0. -1.
       -3    1    3    3    0  502 -0.74018777964E+03 -0.24198402584E+03  0.48674118637E+03  0.91834155443E+03  0.10100000352E+00 0.  1.
</event>
<event>
 5   0  0.3626125E-06  0.1800213E+04  0.7818609E-02  0.8706186E-01
        3   -1    0    0  501    0  0.00000000000E+00  0.00000000000E+00  0.12146478453E+04  0.12146478495E+04  0.10100000352E+00 0.  1.
       -3   -1    0    0    0  501  0.00000000000E+00  0.00000000000E+00 -0.66701800781E+03  0.66701801546E+03  0.10100000352E+00 0. -1.
    10030    2    1    2    0    0  0.00000000000E+00  0.00000000000E+00  0.54762983751E+03  0.18816658650E+04  0.18002133175E+04 0.  0.
        2    1    3    3  502    0 -0.63602641377E+03  0.61501833895E+03  0.44688077720E+03  0.99120108217E+03  0.25500000920E-02 0.  1.
       -2    1    3    3    0  502  0.63602641377E+03 -0.61501833895E+03  0.10074906031E+03  0.89046478281E+03  0.25500000920E-02 0. -1.
</event>
<event>
 5   0  0.4981384E-06  0.1800379E+04  0.7818609E-02  0.8706098E-01
        1   -1    0    0  501    0  0.00000000000E+00  0.00000000000E+00  0.12471034675E+04  0.12471034675E+04  0.50400001928E-02 0. -1.
       -1   -1    0    0    0  501  0.00000000000E+00  0.00000000000E+00 -0.64977870881E+03  0.64977870882E+03  0.50400001928E-02 0.  1.
    10030    2    1    2    0    0  0.00000000000E+00  0.00000000000E+00  0.59732475872E+03  0.18968821764E+04  0.18003791611E+04 0.  0.
        5    1    3    3  502    0  0.33539130375E+03  0.68051431468E+03  0.80912347680E+03  0.11091843624E+04  0.46999998093E+01 0. -1.
       -5    1    3    3    0  502 -0.33539130375E+03 -0.68051431468E+03 -0.21179871807E+03  0.78769781395E+03  0.46999998093E+01 0.  1.
</event>
<event>
 5   0  0.3626125E-06  0.1799656E+04  0.7818609E-02  0.8706482E-01
       -4   -1    0    0    0  501  0.00000000000E+00  0.00000000000E+00  0.70506895284E+03  0.70507009663E+03  0.12699999809E+01 0. -1.
        4   -1    0    0  501    0  0.00000000000E+00  0.00000000000E+00 -0.11483827521E+04  0.11483834544E+04  0.12699999809E+01 0.  1.
    10030    2    1    2    0    0  0.00000000000E+00  0.00000000000E+00 -0.44331379928E+03  0.18534535510E+04  0.17996563397E+04 0.  0.
        4    1    3    3  502    0 -0.88707124252E+03  0.12537505204E+03 -0.30828326877E+03  0.94744629383E+03  0.12699999809E+01 0. -1.
       -4    1    3    3    0  502  0.88707124252E+03 -0.12537505204E+03 -0.13503053050E+03  0.90600725717E+03  0.12699999809E+01 0.  1.
</event>
<event>
 5   0  0.1000316E-05  0.1799258E+04  0.7818609E-02  0.8706694E-01
        2   -1    0    0  501    0  0.00000000000E+00  0.00000000000E+00  0.19952587174E+04  0.19952587174E+04  0.25500000920E-02 0.  1.
       -2   -1    0    0    0  501  0.00000000000E+00  0.00000000000E+00 -0.40562761783E+03  0.40562761784E+03  0.25500000920E-02 0. -1.
    10030    2    1    2    0    0  0.00000000000E+00  0.00000000000E+00  0.15896310996E+04  0.24008863353E+04  0.17992576697E+04 0.  0.
        5    1    3    3  502    0  0.15805962120E+03  0.52482623363E+03  0.17467079555E+04  0.18306928172E+04  0.46999998093E+01 0.  1.
       -5    1    3    3    0  502 -0.15805962120E+03 -0.52482623363E+03 -0.15707685587E+03  0.57019351803E+03  0.46999998093E+01 0. -1.
</event>
<event>
 5   0  0.9589963E-06  0.1799699E+04  0.7818609E-02  0.8706460E-01
       -2   -1    0    0    0  501  0.00000000000E+00  0.00000000000E+00  0.10107184844E+04  0.10107184844E+04  0.25500000920E-02 0. -1.
        2   -1    0    0  501    0  0.00000000000E+00  0.00000000000E+00 -0.80114205259E+03  0.80114205259E+03  0.25500000920E-02 0.  1.
    10030    2    1    2    0    0  0.00000000000E+00  0.00000000000E+00  0.20957643176E+03  0.18118605369E+04  0.17996989539E+04 0.  0.
        2    1    3    3  502    0 -0.51418591454E+02 -0.49000985178E+03  0.86285430410E+03  0.99361515513E+03  0.25500000920E-02 0. -1.
       -2    1    3    3    0  502  0.51418591454E+02  0.49000985178E+03 -0.65327787234E+03  0.81824538182E+03  0.25500000920E-02 0.  1.
</event>
<event>
 5   0  0.4994123E-06  0.1799534E+04  0.7818609E-02  0.8706547E-01
       -1   -1    0    0    0  501  0.00000000000E+00  0.00000000000E+00  0.13700453544E+04  0.13700453545E+04  0.50400001928E-02 0.  1.
        1   -1    0    0  501    0  0.00000000000E+00  0.00000000000E+00 -0.59091535987E+03  0.59091535989E+03  0.50400001928E-02 0. -1.
    10030    2    1    2    0    0  0.00000000000E+00  0.00000000000E+00  0.77912999457E+03  0.19609607144E+04  0.17995342105E+04 0.  0.
        1    1    3    3  502    0  0.13970817170E+03  0.20453180525E+03 -0.55303213772E+03  0.60596714265E+03  0.50400001928E-02 0. -1.
       -1    1    3    3    0  502 -0.13970817170E+03 -0.20453180525E+03  0.13321621323E+04  0.13549935717E+04  0.50400001928E-02 0.  1.
</event>
<event>
 5   0  0.1000316E-05  0.1799234E+04  0.7818609E-02  0.8706707E-01
        2   -1    0    0  501    0  0.00000000000E+00  0.00000000000E+00  0.89378804741E+03  0.89378804741E+03  0.25500000920E-02 0. -1.
       -2   -1    0    0    0  501  0.00000000000E+00  0.00000000000E+00 -0.90548385083E+03  0.90548385083E+03  0.25500000920E-02 0.  1.
    10030    2    1    2    0    0  0.00000000000E+00  0.00000000000E+00 -0.11695803417E+02  0.17992718982E+04  0.17992338847E+04 0.  0.
        5    1    3    3  502    0  0.52379681450E+03 -0.24828890613E+03 -0.69381452000E+03  0.90410793711E+03  0.46999998093E+01 0.  1.
       -5    1    3    3    0  502 -0.52379681450E+03  0.24828890613E+03  0.68211871659E+03  0.89516396113E+03  0.46999998093E+01 0. -1.
</event>
<event>
 5   0  0.4981384E-06  0.1800320E+04  0.7818609E-02  0.8706129E-01
        1   -1    0    0  501    0  0.00000000000E+00  0.00000000000E+00  0.77892201516E+03  0.77892201517E+03  0.50400001928E-02 0. -1.
       -1   -1    0    0    0  501  0.00000000000E+00  0.00000000000E+00 -0.10402689467E+04  0.10402689467E+04  0.50400001928E-02 0.  1.
    10030    2    1    2    0    0  0.00000000000E+00  0.00000000000E+00 -0.26134693154E+03  0.18191909619E+04  0.18003203985E+04 0.  0.
        5    1    3    3  502    0 -0.78417845528E+03  0.37666854497E+02 -0.57564316820E+03  0.97352030731E+03  0.46999998093E+01 0. -1.
       -5    1    3    3    0  502  0.78417845528E+03 -0.37666854497E+02  0.31429623665E+03  0.84567065458E+03  0.46999998093E+01 0.  1.
</event>
<event>
 5   0  0.1035018E-05  0.1800455E+04  0.7818609E-02  0.8706058E-01
       -2   -1    0    0    0  501  0.00000000000E+00  0.00000000000E+00  0.80835704499E+03  0.80835704499E+03  0.25500000920E-02 0. -1.
        2   -1    0    0  501    0  0.00000000000E+00  0.00000000000E+00 -0.10025388316E+04  0.10025388316E+04  0.25500000920E-02 0.  1.
    10030    2    1    2    0    0  0.00000000000E+00  0.00000000000E+00 -0.19418178663E+03  0.18108958766E+04  0.18004547508E+04 0.  0.
        3    1    3    3  502    0  0.21803330571E+03 -0.19402813279E+03 -0.95363023690E+03  0.99729437863E+03  0.10100000352E+00 0.  1.
       -3    1    3    3    0  502 -0.21803330571E+03  0.19402813279E+03  0.75944845026E+03  0.81360149799E+03  0.10100000352E+00 0. -1.
</event>
<event>
 5   0  0.1000316E-05  0.1800360E+04  0.7818609E-02  0.8706108E-01
        2   -1    0    0  501    0  0.00000000000E+00  0.00000000000E+00  0.19042266232E+04  0.19042266232E+04  0.25500000920E-02 0.  1.
       -2   -1    0    0    0  501  0.00000000000E+00  0.00000000000E+00 -0.42553973096E+03  0.42553973096E+03  0.25500000920E-02 0. -1.
    10030    2    1    2    0    0  0.00000000000E+00  0.00000000000E+00  0.14786868922E+04  0.23297663541E+04  0.18003600583E+04 0.  0.
        5    1    3    3  502    0  0.70420913825E+03  0.79690442308E+02  0.14575629656E+04  0.16207322314E+04  0.46999998093E+01 0.  1.
       -5    1    3    3    0  502 -0.70420913825E+03 -0.79690442308E+02  0.21123926581E+02  0.70903412277E+03  0.46999998093E+01 0. -1.
</event>
<event>
 5   0  0.4983159E-06  0.1799732E+04  0.7818609E-02  0.8706442E-01
        1   -1    0    0  501    0  0.00000000000E+00  0.00000000000E+00  0.89805963142E+03  0.89805963143E+03  0.50400001928E-02 0. -1.
       -1   -1    0    0    0  501  0.00000000000E+00  0.00000000000E+00 -0.90167615248E+03  0.90167615250E+03  0.50400001928E-02 0.  1.
    10030    2    1    2    0    0  0.00000000000E+00  0.00000000000E+00 -0.36165210673E+01  0.17997357839E+04  0.17997321503E+04 0.  0.
        4    1    3    3  502    0 -0.41743909394E+03  0.67830915144E+03  0.41699879105E+03  0.89902631036E+03  0.12699999809E+01 0. -1.
       -4    1    3    3    0  502  0.41743909394E+03 -0.67830915144E+03 -0.42061531212E+03  0.90070947357E+03  0.12699999809E+01 0.  1.
</event>
<event>
 5   0  0.1035018E-05  0.1799557E+04  0.7818609E-02  0.8706535E-01
        2   -1    0    0  501    0  0.00000000000E+00  0.00000000000E+00  0.14340919007E+04  0.14340919007E+04  0.25500000920E-02 0.  1.
       -2   -1    0    0    0  501  0.00000000000E+00  0.00000000000E+00 -0.56453922319E+03  0.56453922320E+03  0.25500000920E-02 0. -1.
    10030    2    1    2    0    0  0.00000000000E+00  0.00000000000E+00  0.86955267756E+03  0.19986311239E+04  0.17995567539E+04 0.  0.
        3    1    3    3  502    0  0.71569913922E+03 -0.29212337600E+03 -0.76641395565E+02  0.77681094122E+03  0.10100000352E+00 0. -1.
       -3    1    3    3    0  502 -0.71569913922E+03  0.29212337600E+03  0.94619407312E+03  0.12218201827E+04  0.10100000352E+00 0.  1.
</event>
<event>
 5   0  0.9589963E-06  0.1798732E+04  0.7818609E-02  0.8706974E-01
        2   -1    0    0  501    0  0.00000000000E+00  0.00000000000E+00  0.75130914794E+03  0.75130914795E+03  0.25500000920E-02 0.  1.
       -2   -1    0    0    0  501  0.00000000000E+00  0.00000000000E+00 -0.10765991154E+04  0.10765991154E+04  0.25500000920E-02 0. -1.
    10030    2    1    2    0    0  0.00000000000E+00  0.00000000000E+00 -0.32528996748E+03  0.18279082634E+04  0.17987315131E+04 0.  0.
        2    1    3    3  502    0  0.53376774889E+03 -0.60258110799E+02 -0.89567742169E+03  0.10444027448E+04  0.25500000920E-02 0. -1.
       -2    1    3    3    0  502 -0.53376774889E+03  0.60258110799E+02  0.57038745421E+03  0.78350551855E+03  0.25500000920E-02 0.  1.
</event>
<event>
 5   0  0.1036381E-05  0.1799220E+04  0.7818609E-02  0.8706714E-01
        2   -1    0    0  501    0  0.00000000000E+00  0.00000000000E+00  0.73369246830E+03  0.73369246831E+03  0.25500000920E-02 0. -1.
       -2   -1    0    0    0  501  0.00000000000E+00  0.00000000000E+00 -0.11030483934E+04  0.11030483934E+04  0.25500000920E-02 0.  1.
    10030    2    1    2    0    0  0.00000000000E+00  0.00000000000E+00 -0.36935592508E+03  0.18367408617E+04  0.17992201626E+04 0.  0.
        4    1    3    3  502    0 -0.16652964002E+03 -0.24871468746E+03 -0.10507240620E+04  0.10925263310E+04  0.12699999809E+01 0.  1.
       -4    1    3    3    0  502  0.16652964002E+03  0.24871468746E+03  0.68136813688E+03  0.74421453064E+03  0.12699999809E+01 0. -1.
</event>
<event>
 5   0  0.1000316E-05  0.1800745E+04  0.7818609E-02  0.8705903E-01
        2   -1    0    0  501    0  0.00000000000E+00  0.00000000000E+00  0.11362668137E+04  0.11362668137E+04  0.25500000920E-02 0.  1.
       -2   -1    0    0    0  501  0.00000000000E+00  0.00000000000E+00 -0.71345081365E+03  0.71345081366E+03  0.25500000920E-02 0. -1.
    10030    2    1    2    0    0  0.00000000000E+00  0.00000000000E+00  0.42281600007E+03  0.18497176274E+04  0.18007448268E+04 0.  0.
        5    1    3    3  502    0  0.79755175357E+02  0.24028768745E+03  0.10989369236E+04  0.11277337952E+04  0.46999998093E+01 0.  1.
       -5    1    3    3    0  502 -0.79755175357E+02 -0.24028768745E+03 -0.67612092353E+03  0.72198383221E+03  0.46999998093E+01 0. -1.
</event>
<event>
 5   0  0.9999162E-06  0.1800099E+04  0.7818609E-02  0.8706247E-01
        2   -1    0    0  501    0  0.00000000000E+00  0.00000000000E+00  0.11432804483E+04  0.11432804483E+04  0.25500000920E-02 0.  1.
       -2   -1    0    0    0  501  0.00000000000E+00  0.00000000000E+00 -0.70856583222E+03  0.70856583222E+03  0.25500000920E-02 0. -1.
    10030    2    1    2    0    0  0.00000000000E+00  0.00000000000E+00  0.43471461611E+03  0.18518462806E+04  0.18000993999E+04 0.  0.
        1    1    3    3  502    0  0.24435838262E+03 -0.77310681775E+03 -0.18462378390E+03  0.83155944611E+03  0.50400001928E-02 0. -1.
       -1    1    3    3    0  502 -0.24435838262E+03  0.77310681775E+03  0.61933840001E+03  0.10202868345E+04  0.50400001928E-02 0.  1.
</event>
<event>
 5   0  0.9999162E-06  0.1800039E+04  0.7818609E-02  0.8706279E-01
        2   -1    0    0  501    0  0.00000000000E+00  0.00000000000E+00  0.12542452639E+04  0.12542452639E+04  0.25500000920E-02 0.  1.
       -2   -1    0    0    0  501  0.00000000000E+00  0.00000000000E+00 -0.64583467789E+03  0.64583467789E+03  0.25500000920E-02 0. -1.
    10030    2    1    2    0    0  0.00000000000E+00  0.00000000000E+00  0.60841058596E+03  0.19000799417E+04  0.18000389840E+04 0.  0.
        1    1    3    3  502    0  0.50287790438E+03 -0.26692257010E+03  0.10400123801E+04  0.11856473320E+04  0.50400001928E-02 0.  1.
       -1    1    3    3    0  502 -0.50287790438E+03  0.26692257010E+03 -0.43160179412E+03  0.71443260974E+03  0.50400001928E-02 0. -1.
</event>
<event>
 5   0  0.4994123E-06  0.1799802E+04  0.7818609E-02  0.8706405E-01
        1   -1    0    0  501    0  0.00000000000E+00  0.00000000000E+00  0.14259887101E+04  0.14259887101E+04  0.50400001928E-02 0. -1.
       -1   -1    0    0    0  501  0.00000000000E+00  0.00000000000E+00 -0.56790196730E+03  0.56790196733E+03  0.50400001928E-02 0.  1.
    10030    2    1    2    0    0  0.00000000000E+00  0.00000000000E+00  0.85808674278E+03  0.19938906774E+04  0.17998019823E+04 0.  0.
        1    1    3    3  502    0 -0.53366483196E+03 -0.51938622111E+03 -0.13067473433E+03  0.75606619139E+03  0.50400001928E-02 0.  1.
       -1    1    3    3    0  502  0.53366483196E+03  0.51938622111E+03  0.98876147711E+03  0.12378244860E+04  0.50400001928E-02 0. -1.
</event>
<event>
 5   0  0.4953155E-06  0.1799818E+04  0.7818609E-02  0.8706396E-01
       -1   -1    0    0    0  501  0.00000000000E+00  0.00000000000E+00  0.66168041024E+03  0.66168041026E+03  0.50400001928E-02 0.  1.
        1   -1    0    0  501    0  0.00000000000E+00  0.00000000000E+00 -0.12239082923E+04  0.12239082923E+04  0.50400001928E-02 0. -1.
    10030    2    1    2    0    0  0.00000000000E+00  0.00000000000E+00 -0.56222788206E+03  0.18855887026E+04  0.17998179252E+04 0.  0.
        2    1    3    3  502    0  0.58944680735E+03 -0.50628120872E+03  0.19446608838E+03  0.80099017505E+03  0.25500000920E-02 0.  1.
       -2    1    3    3    0  502 -0.58944680735E+03  0.50628120872E+03 -0.75669397044E+03  0.10845985275E+04  0.25500000920E-02 0. -1.
</event>
<event>
 5   0  0.9999162E-06  0.1799958E+04  0.7818609E-02  0.8706322E-01
       -2   -1    0    0    0  501  0.00000000000E+00  0.00000000000E+00  0.48271706268E+03  0.48271706268E+03  0.25500000920E-02 0. -1.
        2   -1    0    0  501    0  0.00000000000E+00  0.00000000000E+00 -0.16779227863E+04  0.16779227863E+04  0.25500000920E-02 0.  1.
    10030    2    1    2    0    0  0.00000000000E+00  0.00000000000E+00 -0.11952057236E+04  0.21606398490E+04  0.17999577315E+04 0.  0.
        1    1    3    3  502    0 -0.77895362626E+03 -0.40367416948E+03 -0.83839985935E+03  0.12135221099E+04  0.50400001928E-02 0. -1.
       -1    1    3    3    0  502  0.77895362626E+03  0.40367416948E+03 -0.35680586430E+03  0.94711773914E+03  0.50400001928E-02 0.  1.
</event>
<event>
 5   0  0.4981384E-06  0.1799320E+04  0.7818609E-02  0.8706661E-01
        1   -1    0    0  501    0  0.00000000000E+00  0.00000000000E+00  0.20375626155E+04  0.20375626155E+04  0.50400001928E-02 0.  1.
       -1   -1    0    0    0  501  0.00000000000E+00  0.00000000000E+00 -0.39723332854E+03  0.39723332857E+03  0.50400001928E-02 0. -1.
    10030    2    1    2    0    0  0.00000000000E+00  0.00000000000E+00  0.16403292870E+04  0.24347959441E+04  0.17993196269E+04 0.  0.
        5    1    3    3  502    0 -0.66853972552E+03 -0.59409351336E+03  0.95186990534E+03  0.13061281996E+04  0.46999998093E+01 0. -1.
       -5    1    3    3    0  502  0.66853972552E+03  0.59409351336E+03  0.68845938166E+03  0.11286677445E+04  0.46999998093E+01 0.  1.
</event>
<event>
 5   0  0.1000316E-05  0.1799754E+04  0.7818609E-02  0.8706430E-01
       -2   -1    0    0    0  501  0.00000000000E+00  0.00000000000E+00  0.91877091391E+03  0.91877091392E+03  0.25500000920E-02 0.  1.
        2   -1    0    0  501    0  0.00000000000E+00  0.00000000000E+00 -0.88137136201E+03  0.88137136202E+03  0.25500000920E-02 0. -1.
    10030    2    1    2    0    0  0.00000000000E+00  0.00000000000E+00  0.37399551901E+02  0.18001422759E+04  0.17997537296E+04 0.  0.
        5    1    3    3  502    0  0.12602625517E+03  0.33724179716E+03  0.84358482032E+03  0.91720885616E+03  0.46999998093E+01 0.  1.
       -5    1    3    3    0  502 -0.12602625517E+03 -0.33724179716E+03 -0.80618526842E+03  0.88293341978E+03  0.46999998093E+01 0. -1.
</event>
<event>
 5   0  0.4987456E-06  0.1794363E+04  0.7818609E-02  0.8709303E-01
        1   -1    0    0  501    0  0.00000000000E+00  0.00000000000E+00  0.71001997100E+03  0.71001997101E+03  0.50400001928E-02 0.  1.
       -1   -1    0    0    0  501  0.00000000000E+00  0.00000000000E+00 -0.11336788818E+04  0.11336788818E+04  0.50400001928E-02 0. -1.
    10030    2    1    2    0    0  0.00000000000E+00  0.00000000000E+00 -0.42365891077E+03  0.18436988528E+04  0.17943630032E+04 0.  0.
        3    1    3    3  502    0  0.45959117443E+03 -0.76370838943E+03 -0.31691604147E+03  0.94599700805E+03  0.10100000352E+00 0.  1.
       -3    1    3    3    0  502 -0.45959117443E+03  0.76370838943E+03 -0.10674286929E+03  0.89770184474E+03  0.10100000352E+00 0. -1.
</event>
<event>
 5   0  0.9589963E-06  0.1801021E+04  0.7818609E-02  0.8705757E-01
       -2   -1    0    0    0  501  0.00000000000E+00  0.00000000000E+00  0.99970712027E+03  0.99970712027E+03  0.25500000920E-02 0. -1.
        2   -1    0    0  501    0  0.00000000000E+00  0.00000000000E+00 -0.81115670618E+03  0.81115670619E+03  0.25500000920E-02 0.  1.
    10030    2    1    2    0    0  0.00000000000E+00  0.00000000000E+00  0.18855041409E+03  0.18108638265E+04  0.18010209714E+04 0.  0.
        2    1    3    3  502    0  0.73367874806E+03  0.24681943636E+02 -0.43013577409E+03  0.85082929419E+03  0.25500000920E-02 0.  1.
       -2    1    3    3    0  502 -0.73367874806E+03 -0.24681943636E+02  0.61868618818E+03  0.96003453227E+03  0.25500000920E-02 0. -1.
</event>
<event>
 5   0  0.4983159E-06  0.1800571E+04  0.7818609E-02  0.8705996E-01
        1   -1    0    0  501    0  0.00000000000E+00  0.00000000000E+00  0.97723616937E+03  0.97723616939E+03  0.50400001928E-02 0.  1.
       -1   -1    0    0    0  501  0.00000000000E+00  0.00000000000E+00 -0.82939422973E+03  0.82939422975E+03  0.50400001928E-02 0. -1.
    10030    2    1    2    0    0  0.00000000000E+00  0.00000000000E+00  0.14784193964E+03  0.18066303991E+04  0.18005710650E+04 0.  0.
        4    1    3    3  502    0 -0.67775577923E+03  0.57740443526E+03 -0.59807888783E+02  0.89237176927E+03  0.12699999809E+01 0.  1.
       -4    1    3    3    0  502  0.67775577923E+03 -0.57740443526E+03  0.20764982843E+03  0.91425862986E+03  0.12699999809E+01 0. -1.
</event>
<event>
 5   0  0.4981384E-06  0.1794353E+04  0.7818609E-02  0.8709308E-01
        1   -1    0    0  501    0  0.00000000000E+00  0.00000000000E+00  0.92106195161E+03  0.92106195163E+03  0.50400001928E-02 0.  1.
       -1   -1    0    0    0  501  0.00000000000E+00  0.00000000000E+00 -0.87391065989E+03  0.87391065990E+03  0.50400001928E-02 0. -1.
    10030    2    1    2    0    0  0.00000000000E+00  0.00000000000E+00  0.47151291726E+02  0.17949726115E+04  0.17943532071E+04 0.  0.
        5    1    3    3  502    0 -0.13274506205E+03  0.86666895555E+03 -0.16666738818E+03  0.89248890094E+03  0.46999998093E+01 0. -1.
       -5    1    3    3    0  502  0.13274506205E+03 -0.86666895555E+03  0.21381867991E+03  0.90248371059E+03  0.46999998093E+01 0.  1.
</event>
<event>
 5   0  0.4994123E-06  0.1800098E+04  0.7818609E-02  0.8706247E-01
        1   -1    0    0  501    0  0.00000000000E+00  0.00000000000E+00  0.14470915777E+04  0.14470915777E+04  0.50400001928E-02 0.  1.
       -1   -1    0    0    0  501  0.00000000000E+00  0.00000000000E+00 -0.55980422538E+03  0.55980422541E+03  0.50400001928E-02 0. -1.
    10030    2    1    2    0    0  0.00000000000E+00  0.00000000000E+00  0.88728735227E+03  0.20068958031E+04  0.18000977526E+04 0.  0.
        1    1    3    3  502    0  0.77237155799E+03 -0.74417889862E+02  0.95209828721E+03  0.12282454944E+04  0.50400001928E-02 0.  1.
       -1    1    3    3    0  502 -0.77237155799E+03  0.74417889862E+02 -0.64810934942E+02  0.77865030869E+03  0.50400001928E-02 0. -1.
</event>
<event>
 5   0  0.4953155E-06  0.1798183E+04  0.7818609E-02  0.8707266E-01
       -1   -1    0    0    0  501  0.00000000000E+00  0.00000000000E+00  0.11922033735E+04  0.11922033736E+04  0.50400001928E-02 0. -1.
        1   -1    0    0  501    0  0.00000000000E+00  0.00000000000E+00 -0.67804338882E+03  0.67804338884E+03  0.50400001928E-02 0.  1.
    10030    2    1    2    0    0  0.00000000000E+00  0.00000000000E+00  0.51415998472E+03  0.18702467624E+04  0.17981831003E+04 0.  0.
        2    1    3    3  502    0 -0.25922339105E+03 -0.85680721881E+03  0.34441068742E+03  0.95913195041E+03  0.25500000920E-02 0. -1.
       -2    1    3    3    0  502  0.25922339105E+03  0.85680721881E+03  0.16974929730E+03  0.91111481198E+03  0.25500000920E-02 0.  1.
</event>
<event>
 5   0  0.1035018E-05  0.1799305E+04  0.7818609E-02  0.8706669E-01
        2   -1    0    0  501    0  0.00000000000E+00  0.00000000000E+00  0.16147354314E+04  0.16147354314E+04  0.25500000920E-02 0.  1.
       -2   -1    0    0    0  501  0.00000000000E+00  0.00000000000E+00 -0.50124300218E+03  0.50124300219E+03  0.25500000920E-02 0. -1.
    10030    2    1    2    0    0  0.00000000000E+00  0.00000000000E+00  0.11134924292E+04  0.21159784335E+04  0.17993052385E+04 0.  0.
        3    1    3    3  502    0  0.42234373284E+03 -0.68933037745E+02  0.14873822336E+04  0.15477182920E+04  0.10100000352E+00 0.  1.
       -3    1    3    3    0  502 -0.42234373284E+03  0.68933037745E+02 -0.37388980446E+03  0.56826014152E+03  0.10100000352E+00 0. -1.
</event>
<event>
 5   0  0.9999162E-06  0.1796459E+04  0.7818609E-02  0.8708185E-01
       -2   -1    0    0    0  501  0.00000000000E+00  0.00000000000E+00  0.45292967581E+03  0.45292967582E+03  0.25500000920E-02 0.  1.
        2   -1    0    0  501    0  0.00000000000E+00  0.00000000000E+00 -0.17813276947E+04  0.17813276947E+04  0.25500000920E-02 0. -1.
    10030    2    1    2    0    0  0.00000000000E+00  0.00000000000E+00 -0.13283980189E+04  0.22342573705E+04  0.17964589339E+04 0.  0.
        1    1    3    3  502    0  0.19800685864E+03  0.13672849418E+03  0.41209793071E+03  0.47720656084E+03  0.50400001928E-02 0.  1.
       -1    1    3    3    0  502 -0.19800685864E+03 -0.13672849418E+03 -0.17404959496E+04  0.17570508097E+04  0.50400001928E-02 0. -1.
</event>
<event>
 5   0  0.4953155E-06  0.1800212E+04  0.7818609E-02  0.8706187E-01
        1   -1    0    0  501    0  0.00000000000E+00  0.00000000000E+00  0.14010662445E+04  0.14010662445E+04  0.50400001928E-02 0. -1.
       -1   -1    0    0    0  501  0.00000000000E+00  0.00000000000E+00 -0.57826705540E+03  0.57826705542E+03  0.50400001928E-02 0.  1.
    10030    2    1    2    0    0  0.00000000000E+00  0.00000000000E+00  0.82279918908E+03  0.19793332999E+04  0.18002116005E+04 0.  0.
        2    1    3    3  502    0 -0.93624278539E+02 -0.88940158812E+03  0.52347186157E+03  0.10362545442E+04  0.25500000920E-02 0. -1.
       -2    1    3    3    0  502  0.93624278539E+02  0.88940158812E+03  0.29932732751E+03  0.94307875572E+03  0.25500000920E-02 0.  1.
</event>
<event>
 5   0  0.4983159E-06  0.1799889E+04  0.7818609E-02  0.8706358E-01
       -1   -1    0    0    0  501  0.00000000000E+00  0.00000000000E+00  0.50142012777E+03  0.50142012780E+03  0.50400001928E-02 0. -1.
        1   -1    0    0  501    0  0.00000000000E+00  0.00000000000E+00 -0.16152130713E+04  0.16152130713E+04  0.50400001928E-02 0.  1.
    10030    2    1    2    0    0  0.00000000000E+00  0.00000000000E+00 -0.11137929435E+04  0.21166331991E+04  0.17998892684E+04 0.  0.
        4    1    3    3  502    0  0.84507074794E+03 -0.23637408237E+03 -0.32204930879E+03  0.93473774185E+03  0.12699999809E+01 0. -1.
       -4    1    3    3    0  502 -0.84507074794E+03  0.23637408237E+03 -0.79174363474E+03  0.11818954573E+04  0.12699999809E+01 0.  1.
</event>
<event>
 5   0  0.4987456E-06  0.1800695E+04  0.7818609E-02  0.8705930E-01
       -1   -1    0    0    0  501  0.00000000000E+00  0.00000000000E+00  0.10445853790E+04  0.10445853790E+04  0.50400001928E-02 0.  1.
        1   -1    0    0  501    0  0.00000000000E+00  0.00000000000E+00 -0.77602579660E+03  0.77602579661E+03  0.50400001928E-02 0. -1.
    10030    2    1    2    0    0  0.00000000000E+00  0.00000000000E+00  0.26855958241E+03  0.18206111756E+04  0.18006945337E+04 0.  0.
        3    1    3    3  502    0 -0.25417170973E+03  0.62279230344E+03 -0.47079722147E+03  0.82105026959E+03  0.10100000352E+00 0. -1.
       -3    1    3    3    0  502  0.25417170973E+03 -0.62279230344E+03  0.73935680387E+03  0.99956090604E+03  0.10100000352E+00 0.  1.
</event>
<event>
 5   0  0.4983159E-06  0.1800473E+04  0.7818609E-02  0.8706048E-01
       -1   -1    0    0    0  501  0.00000000000E+00  0.00000000000E+00  0.62253226228E+03  0.62253226230E+03  0.50400001928E-02 0.  1.
        1   -1    0    0  501    0  0.00000000000E+00  0.00000000000E+00 -0.13018216340E+04  0.13018216340E+04  0.50400001928E-02 0. -1.
    10030    2    1    2    0    0  0.00000000000E+00  0.00000000000E+00 -0.67928937171E+03  0.19243538963E+04  0.18004732344E+04 0.  0.
        4    1    3    3  502    0  0.28074777323E+03 -0.39472718043E+03  0.47137688475E+03  0.67588951724E+03  0.12699999809E+01 0.  1.
       -4    1    3    3    0  502 -0.28074777323E+03  0.39472718043E+03 -0.11506662565E+04  0.12484643791E+04  0.12699999809E+01 0. -1.
</event>
<event>
 5   0  0.9589963E-06  0.1799860E+04  0.7818609E-02  0.8706374E-01
       -2   -1    0    0    0  501  0.00000000000E+00  0.00000000000E+00  0.11059497851E+04  0.11059497851E+04  0.25500000920E-02 0.  1.
        2   -1    0    0  501    0  0.00000000000E+00  0.00000000000E+00 -0.73228845703E+03  0.73228845703E+03  0.25500000920E-02 0. -1.
    10030    2    1    2    0    0  0.00000000000E+00  0.00000000000E+00  0.37366132805E+03  0.18382382421E+04  0.17998602853E+04 0.  0.
        2    1    3    3  502    0  0.38144377102E+03  0.37276107421E+03 -0.55348679939E+03  0.76863372682E+03  0.25500000920E-02 0. -1.
       -2    1    3    3    0  502 -0.38144377102E+03 -0.37276107421E+03  0.92714812745E+03  0.10696045153E+04  0.25500000920E-02 0.  1.
</event>
<event>
 5   0  0.9999162E-06  0.1801423E+04  0.7818609E-02  0.8705543E-01
        2   -1    0    0  501    0  0.00000000000E+00  0.00000000000E+00  0.15397004393E+04  0.15397004393E+04  0.25500000920E-02 0.  1.
       -2   -1    0    0    0  501  0.00000000000E+00  0.00000000000E+00 -0.52690874635E+03  0.52690874635E+03  0.25500000920E-02 0. -1.
    10030    2    1    2    0    0  0.00000000000E+00  0.00000000000E+00  0.10127916929E+04  0.20666091856E+04  0.18014234685E+04 0.  0.
        1    1    3    3  502    0  0.73144831015E+03 -0.43921437657E+03  0.17518064073E+03  0.87098458994E+03  0.50400001928E-02 0. -1.
       -1    1    3    3    0  502 -0.73144831015E+03  0.43921437657E+03  0.83761105218E+03  0.11956245957E+04  0.50400001928E-02 0.  1.
</event>
<event>
 5   0  0.4994123E-06  0.1799845E+04  0.7818609E-02  0.8706382E-01
       -1   -1    0    0    0  501  0.00000000000E+00  0.00000000000E+00  0.10447293579E+04  0.10447293579E+04  0.50400001928E-02 0. -1.
        1   -1    0    0  501    0  0.00000000000E+00  0.00000000000E+00 -0.77518699065E+03  0.77518699067E+03  0.50400001928E-02 0.  1.
    10030    2    1    2    0    0  0.00000000000E+00  0.00000000000E+00  0.26954236724E+03  0.18199163486E+04  0.17998451122E+04 0.  0.
        1    1    3    3  502    0  0.51360153499E+03  0.49072238077E+03 -0.42389867083E+03  0.82721525305E+03  0.50400001928E-02 0.  1.
       -1    1    3    3    0  502 -0.51360153499E+03 -0.49072238077E+03  0.69344103806E+03  0.99270109551E+03  0.50400001928E-02 0. -1.
</event>
<event>
 5   0  0.9589963E-06  0.1799675E+04  0.7818609E-02  0.8706472E-01
       -2   -1    0    0    0  501  0.00000000000E+00  0.00000000000E+00  0.12498063174E+04  0.12498063174E+04  0.25500000920E-02 0. -1.
        2   -1    0    0  501    0  0.00000000000E+00  0.00000000000E+00 -0.64786652850E+03  0.64786652851E+03  0.25500000920E-02 0.  1.
    10030    2    1    2    0    0  0.00000000000E+00  0.00000000000E+00  0.60193978892E+03  0.18976728459E+04  0.17996751709E+04 0.  0.
        2    1    3    3  502    0  0.47097925209E+03 -0.54770309168E+03  0.86675790919E+03  0.11283037737E+04  0.25500000920E-02 0. -1.
       -2    1    3    3    0  502 -0.47097925209E+03  0.54770309168E+03 -0.26481812027E+03  0.76936907226E+03  0.25500000920E-02 0.  1.
</event>
<event>
 5   0  0.4987456E-06  0.1794958E+04  0.7818609E-02  0.8708985E-01
       -1   -1    0    0    0  501  0.00000000000E+00  0.00000000000E+00  0.76715853904E+03  0.76715853906E+03  0.50400001928E-02 0.  1.
        1   -1    0    0  501    0  0.00000000000E+00  0.00000000000E+00 -0.10499373544E+04  0.10499373544E+04  0.50400001928E-02 0. -1.
    10030    2    1    2    0    0  0.00000000000E+00  0.00000000000E+00 -0.28277881536E+03  0.18170958935E+04  0.17949578345E+04 0.  0.
        3    1    3    3  502    0  0.10715263139E+03 -0.14070705338E+03 -0.10321210484E+04  0.10471647578E+04  0.10100000352E+00 0. -1.
       -3    1    3    3    0  502 -0.10715263139E+03  0.14070705338E+03  0.74934223302E+03  0.76993113566E+03  0.10100000352E+00 0.  1.
</event>
<event>
 5   0  0.9999162E-06  0.1800129E+04  0.7818609E-02  0.8706231E-01
       -2   -1    0    0    0  501  0.00000000000E+00  0.00000000000E+00  0.47019410960E+03  0.47019410961E+03  0.25500000920E-02 0.  1.
        2   -1    0    0  501    0  0.00000000000E+00  0.00000000000E+00 -0.17229396391E+04  0.17229396391E+04  0.25500000920E-02 0. -1.
    10030    2    1    2    0    0  0.00000000000E+00  0.00000000000E+00 -0.12527455295E+04  0.21931337487E+04  0.18001289615E+04 0.  0.
        1    1    3    3  502    0  0.11220598555E+03 -0.83494011644E+03 -0.10124109598E+04  0.13170767376E+04  0.50400001928E-02 0. -1.
       -1    1    3    3    0  502 -0.11220598555E+03  0.83494011644E+03 -0.24033456966E+03  0.87605701106E+03  0.50400001928E-02 0.  1.
</event>
<event>
 5   0  0.4987456E-06  0.1800926E+04  0.7818609E-02  0.8705807E-01
       -1   -1    0    0    0  501  0.00000000000E+00  0.00000000000E+00  0.71290599111E+03  0.71290599112E+03  0.50400001928E-02 0.  1.
        1   -1    0    0  501    0  0.00000000000E+00  0.00000000000E+00 -0.11373645811E+04  0.11373645811E+04  0.50400001928E-02 0. -1.
    10030    2    1    2    0    0  0.00000000000E+00  0.00000000000E+00 -0.42445858997E+03  0.18502705722E+04  0.18009264549E+04 0.  0.
        3    1    3    3  502    0  0.65446318906E+03  0.18422592779E+03 -0.81880635755E+03  0.10642862020E+04  0.10100000352E+00 0. -1.
       -3    1    3    3    0  502 -0.65446318906E+03 -0.18422592779E+03  0.39434776758E+03  0.78598437026E+03  0.10100000352E+00 0.  1.
</event>
<event>
 5   0  0.1000316E-05  0.1799924E+04  0.7818609E-02  0.8706340E-01
        2   -1    0    0  501    0  0.00000000000E+00  0.00000000000E+00  0.38254221455E+03  0.38254221456E+03  0.25500000920E-02 0. -1.
       -2   -1    0    0    0  501  0.00000000000E+00  0.00000000000E+00 -0.21172337015E+04  0.21172337015E+04  0.25500000920E-02 0.  1.
    10030    2    1    2    0    0  0.00000000000E+00  0.00000000000E+00 -0.17346914869E+04  0.24997759160E+04  0.17999236305E+04 0.  0.
        5    1    3    3  502    0  0.42449011068E+03 -0.52327551062E+03 -0.38810409075E+02  0.67493514646E+03  0.46999998093E+01 0. -1.
       -5    1    3    3    0  502 -0.42449011068E+03  0.52327551062E+03 -0.16958810778E+04  0.18248407696E+04  0.46999998093E+01 0.  1.
</event>
<event>
 5   0  0.9999162E-06  0.1797551E+04  0.7818609E-02  0.8707603E-01
       -2   -1    0    0    0  501  0.00000000000E+00  0.00000000000E+00  0.79102185405E+03  0.79102185405E+03  0.25500000920E-02 0. -1.
        2   -1    0    0  501    0  0.00000000000E+00  0.00000000000E+00 -0.10212068939E+04  0.10212068939E+04  0.25500000920E-02 0.  1.
    10030    2    1    2    0    0  0.00000000000E+00  0.00000000000E+00 -0.23018503988E+03  0.18122287480E+04  0.17975505229E+04 0.  0.
        1    1    3    3  502    0 -0.54366125154E+03  0.55036358797E+03 -0.57635375427E+03  0.96470269279E+03  0.50400001928E-02 0.  1.
       -1    1    3    3    0  502  0.54366125154E+03 -0.55036358797E+03  0.34616871439E+03  0.84752605519E+03  0.50400001928E-02 0. -1.
</event>
<event>
 5   0  0.4953155E-06  0.1798835E+04  0.7818609E-02  0.8706919E-01
        1   -1    0    0  501    0  0.00000000000E+00  0.00000000000E+00  0.16331249987E+04  0.16331249987E+04  0.50400001928E-02 0. -1.
       -1   -1    0    0    0  501  0.00000000000E+00  0.00000000000E+00 -0.49533992071E+03  0.49533992074E+03  0.50400001928E-02 0.  1.
    10030    2    1    2    0    0  0.00000000000E+00  0.00000000000E+00  0.11377850779E+04  0.21284649194E+04  0.17988351869E+04 0.  0.
        2    1    3    3  502    0 -0.47114735012E+03  0.70949787626E+02 -0.33374542716E+03  0.58172133195E+03  0.25500000920E-02 0.  1.
       -2    1    3    3    0  502  0.47114735012E+03 -0.70949787626E+02  0.14715305051E+04  0.15467435875E+04  0.25500000920E-02 0. -1.
</event>
<event>
 5   0  0.9589963E-06  0.1800156E+04  0.7818609E-02  0.8706216E-01
       -2   -1    0    0    0  501  0.00000000000E+00  0.00000000000E+00  0.77676808295E+03  0.77676808295E+03  0.25500000920E-02 0.  1.
        2   -1    0    0  501    0  0.00000000000E+00  0.00000000000E+00 -0.10429635242E+04  0.10429635242E+04  0.25500000920E-02 0. -1.
    10030    2    1    2    0    0  0.00000000000E+00  0.00000000000E+00 -0.26619544127E+03  0.18197316072E+04  0.18001564124E+04 0.  0.
        2    1    3    3  502    0  0.46665014880E+03  0.52597399241E+03 -0.70110626258E+03  0.99295568556E+03  0.25500000920E-02 0. -1.
       -2    1    3    3    0  502 -0.46665014880E+03 -0.52597399241E+03  0.43491082131E+03  0.82677592161E+03  0.25500000920E-02 0.  1.
</event>
<event>
 5   0  0.9999162E-06  0.1797867E+04  0.7818609E-02  0.8707435E-01
        2   -1    0    0  501    0  0.00000000000E+00  0.00000000000E+00  0.17638631250E+04  0.17638631250E+04  0.25500000920E-02 0.  1.
       -2   -1    0    0    0  501  0.00000000000E+00  0.00000000000E+00 -0.45813152371E+03  0.45813152371E+03  0.25500000920E-02 0. -1.
    10030    2    1    2    0    0  0.00000000000E+00  0.00000000000E+00  0.13057316013E+04  0.22219946487E+04  0.17978668483E+04 0.  0.
        1    1    3    3  502    0  0.22423944916E+03  0.81103258276E+03  0.10437407647E+04  0.13406908535E+04  0.50400001928E-02 0.  1.
       -1    1    3    3    0  502 -0.22423944916E+03 -0.81103258276E+03  0.26199083656E+03  0.88130379514E+03  0.50400001928E-02 0. -1.
</event>
<event>
 5   0  0.4953155E-06  0.1800543E+04  0.7818609E-02  0.8706011E-01
       -1   -1    0    0    0  501  0.00000000000E+00  0.00000000000E+00  0.72303955986E+03  0.72303955987E+03  0.50400001928E-02 0. -1.
        1   -1    0    0  501    0  0.00000000000E+00  0.00000000000E+00 -0.11209471091E+04  0.11209471091E+04  0.50400001928E-02 0.  1.
    10030    2    1    2    0    0  0.00000000000E+00  0.00000000000E+00 -0.39790754927E+03  0.18439866690E+04  0.18005433674E+04 0.  0.
        2    1    3    3  502    0 -0.33269128469E+03  0.27197857022E+03 -0.10091374994E+04  0.10968200975E+04  0.25500000920E-02 0.  1.
       -2    1    3    3    0  502  0.33269128469E+03 -0.27197857022E+03  0.61122995016E+03  0.74716657149E+03  0.25500000920E-02 0. -1.
</event>
<event>
 5   0  0.4983159E-06  0.1801239E+04  0.7818609E-02  0.8705641E-01
       -1   -1    0    0    0  501  0.00000000000E+00  0.00000000000E+00  0.48046322434E+03  0.48046322436E+03  0.50400001928E-02 0.  1.
        1   -1    0    0  501    0  0.00000000000E+00  0.00000000000E+00 -0.16881937992E+04  0.16881937993E+04  0.50400001928E-02 0. -1.
    10030    2    1    2    0    0  0.00000000000E+00  0.00000000000E+00 -0.12077305749E+04  0.21686570236E+04  0.18012385030E+04 0.  0.
        4    1    3    3  502    0 -0.36729219907E+03  0.74174447504E+03 -0.10312785558E+04  0.13223560407E+04  0.12699999809E+01 0. -1.
       -4    1    3    3    0  502  0.36729219907E+03 -0.74174447504E+03 -0.17645201908E+03  0.84630098292E+03  0.12699999809E+01 0.  1.
</event>
<event>
 5   0  0.1000316E-05  0.1799835E+04  0.7818609E-02  0.8706387E-01
       -2   -1    0    0    0  501  0.00000000000E+00  0.00000000000E+00  0.82822755883E+03  0.82822755883E+03  0.25500000920E-02 0. -1.
        2   -1    0    0  501    0  0.00000000000E+00  0.00000000000E+00 -0.97781302993E+03  0.97781302994E+03  0.25500000920E-02 0.  1.
    10030    2    1    2    0    0  0.00000000000E+00  0.00000000000E+00 -0.14958547111E+03  0.18060405888E+04  0.17998352133E+04 0.  0.
        5    1    3    3  502    0  0.24859172061E+03  0.49988984229E+03 -0.78301781714E+03  0.96167909925E+03  0.46999998093E+01 0.  1.
       -5    1    3    3    0  502 -0.24859172061E+03 -0.49988984229E+03  0.63343234604E+03  0.84436148952E+03  0.46999998093E+01 0. -1.
</event>
<event>
 5   0  0.4987456E-06  0.1800240E+04  0.7818609E-02  0.8706172E-01
        1   -1    0    0  501    0  0.00000000000E+00  0.00000000000E+00  0.12281129907E+04  0.12281129907E+04  0.50400001928E-02 0.  1.
       -1   -1    0    0    0  501  0.00000000000E+00  0.00000000000E+00 -0.65972425364E+03  0.65972425366E+03  0.50400001928E-02 0. -1.
    10030    2    1    2    0    0  0.00000000000E+00  0.00000000000E+00  0.56838873703E+03  0.18878372443E+04  0.18002399020E+04 0.  0.
        3    1    3    3  502    0  0.48387713545E+03  0.73283364151E+03  0.77011444762E+02  0.88154013021E+03  0.10100000352E+00 0. -1.
       -3    1    3    3    0  502 -0.48387713545E+03 -0.73283364151E+03  0.49137729227E+03  0.10062971141E+04  0.10100000352E+00 0.  1.
</event>
<event>
 5   0  0.4987456E-06  0.1800063E+04  0.7818609E-02  0.8706266E-01
        1   -1    0    0  501    0  0.00000000000E+00  0.00000000000E+00  0.55527994276E+03  0.55527994279E+03  0.50400001928E-02 0. -1.
       -1   -1    0    0    0  501  0.00000000000E+00  0.00000000000E+00 -0.14588251645E+04  0.14588251645E+04  0.50400001928E-02 0.  1.
    10030    2    1    2    0    0  0.00000000000E+00  0.00000000000E+00 -0.90354522178E+03  0.20141051073E+04  0.18000626144E+04 0.  0.
        3    1    3    3  502    0 -0.29259742754E+03  0.49104603424E+03 -0.12296488412E+04  0.13560146552E+04  0.10100000352E+00 0.  1.
       -3    1    3    3    0  502  0.29259742754E+03 -0.49104603424E+03  0.32610361942E+03  0.65809045210E+03  0.10100000352E+00 0. -1.
</event>
<event>
 5   0  0.1035018E-05  0.1798432E+04  0.7818609E-02  0.8707134E-01
        2   -1    0    0  501    0  0.00000000000E+00  0.00000000000E+00  0.10638308409E+04  0.10638308409E+04  0.25500000920E-02 0. -1.
       -2   -1    0    0    0  501  0.00000000000E+00  0.00000000000E+00 -0.76007297143E+03  0.76007297143E+03  0.25500000920E-02 0.  1.
    10030    2    1    2    0    0  0.00000000000E+00  0.00000000000E+00  0.30375786942E+03  0.18239038123E+04  0.17984316148E+04 0.  0.
        3    1    3    3  502    0  0.67120542039E+03  0.29931811893E+03  0.67736933341E+03  0.99946849711E+03  0.10100000352E+00 0. -1.
       -3    1    3    3    0  502 -0.67120542039E+03 -0.29931811893E+03 -0.37361146398E+03  0.82443531517E+03  0.10100000352E+00 0.  1.
</event>
<event>
 5   0  0.1000316E-05  0.1798171E+04  0.7818609E-02  0.8707273E-01
        2   -1    0    0  501    0  0.00000000000E+00  0.00000000000E+00  0.19017497533E+04  0.19017497533E+04  0.25500000920E-02 0. -1.
       -2   -1    0    0    0  501  0.00000000000E+00  0.00000000000E+00 -0.42505822439E+03  0.42505822440E+03  0.25500000920E-02 0.  1.
    10030    2    1    2    0    0  0.00000000000E+00  0.00000000000E+00  0.14766915289E+04  0.23268079777E+04  0.17981705963E+04 0.  0.
        5    1    3    3  502    0 -0.20411044790E+02 -0.88247834115E+03  0.51742760031E+03  0.10231999047E+04  0.46999998093E+01 0.  1.
       -5    1    3    3    0  502  0.20411044790E+02  0.88247834115E+03  0.95926392856E+03  0.13036080730E+04  0.46999998093E+01 0. -1.
</event>
<event>
 5   0  0.4981384E-06  0.1793077E+04  0.7818609E-02  0.8709989E-01
        1   -1    0    0  501    0  0.00000000000E+00  0.00000000000E+00  0.76568627502E+03  0.76568627504E+03  0.50400001928E-02 0. -1.
       -1   -1    0    0    0  501  0.00000000000E+00  0.00000000000E+00 -0.10497532654E+04  0.10497532654E+04  0.50400001928E-02 0.  1.
    10030    2    1    2    0    0  0.00000000000E+00  0.00000000000E+00 -0.28406699037E+03  0.18154395404E+04  0.17930774300E+04 0.  0.
        5    1    3    3  502    0  0.23197381398E+03  0.77761428482E+03 -0.52792158413E+03  0.96810077746E+03  0.46999998093E+01 0.  1.
       -5    1    3    3    0  502 -0.23197381398E+03 -0.77761428482E+03  0.24385459376E+03  0.84733876297E+03  0.46999998093E+01 0. -1.
</event>
<event>
 5   0  0.4953155E-06  0.1806406E+04  0.7818609E-02  0.8702900E-01
        1   -1    0    0  501    0  0.00000000000E+00  0.00000000000E+00  0.73606968586E+03  0.73606968588E+03  0.50400001928E-02 0. -1.
       -1   -1    0    0    0  501  0.00000000000E+00  0.00000000000E+00 -0.11082861721E+04  0.11082861721E+04  0.50400001928E-02 0.  1.
    10030    2    1    2    0    0  0.00000000000E+00  0.00000000000E+00 -0.37221648627E+03  0.18443558580E+04  0.18064062163E+04 0.  0.
        2    1    3    3  502    0 -0.76624265301E+03 -0.40172033004E+03  0.78702884155E+02  0.86873538597E+03  0.25500000920E-02 0. -1.
       -2    1    3    3    0  502  0.76624265301E+03  0.40172033004E+03 -0.45091937043E+03  0.97562047205E+03  0.25500000920E-02 0.  1.
</event>
<event>
 5   0  0.1036381E-05  0.1800807E+04  0.7818609E-02  0.8705870E-01
       -2   -1    0    0    0  501  0.00000000000E+00  0.00000000000E+00  0.77758210207E+03  0.77758210207E+03  0.25500000920E-02 0. -1.
        2   -1    0    0  501    0  0.00000000000E+00  0.00000000000E+00 -0.10426249442E+04  0.10426249442E+04  0.25500000920E-02 0.  1.
    10030    2    1    2    0    0  0.00000000000E+00  0.00000000000E+00 -0.26504284212E+03  0.18202070463E+04  0.18008070366E+04 0.  0.
        4    1    3    3  502    0  0.60682241689E+02 -0.40909057391E+03  0.67589946957E+03  0.79238824952E+03  0.12699999809E+01 0. -1.
       -4    1    3    3    0  502 -0.60682241689E+02  0.40909057391E+03 -0.94094231169E+03  0.10278187967E+04  0.12699999809E+01 0.  1.
</event>
<event>
 5   0  0.1000316E-05  0.1800899E+04  0.7818609E-02  0.8705821E-01
       -2   -1    0    0    0  501  0.00000000000E+00  0.00000000000E+00  0.63649244080E+03  0.63649244081E+03  0.25500000920E-02 0. -1.
        2   -1    0    0  501    0  0.00000000000E+00  0.00000000000E+00 -0.12738714221E+04  0.12738714221E+04  0.25500000920E-02 0.  1.
    10030    2    1    2    0    0  0.00000000000E+00  0.00000000000E+00 -0.63737898125E+03  0.19103638629E+04  0.18008992539E+04 0.  0.
        5    1    3    3  502    0 -0.64265128955E+03  0.19354955816E+03 -0.95544699534E+03  0.11676314326E+04  0.46999998093E+01 0.  1.
       -5    1    3    3    0  502  0.64265128955E+03 -0.19354955816E+03  0.31806801409E+03  0.74273243030E+03  0.46999998093E+01 0. -1.
</event>
<event>
 5   0  0.4994123E-06  0.1799712E+04  0.7818609E-02  0.8706453E-01
        1   -1    0    0  501    0  0.00000000000E+00  0.00000000000E+00  0.10928943000E+04  0.10928943000E+04  0.50400001928E-02 0. -1.
       -1   -1    0    0    0  501  0.00000000000E+00  0.00000000000E+00 -0.74091417516E+03  0.74091417518E+03  0.50400001928E-02 0.  1.
    10030    2    1    2    0    0  0.00000000000E+00  0.00000000000E+00  0.35198012483E+03  0.18338084752E+04  0.17997120646E+04 0.  0.
        1    1    3    3  502    0 -0.16164117383E+02  0.71248291780E+03 -0.38382538389E+03  0.80945358866E+03  0.50400001928E-02 0.  1.
       -1    1    3    3    0  502  0.16164117383E+02 -0.71248291780E+03  0.73580550873E+03  0.10243548865E+04  0.50400001928E-02 0. -1.
</event>
<event>
 5   0  0.9589963E-06  0.1799729E+04  0.7818609E-02  0.8706444E-01
        2   -1    0    0  501    0  0.00000000000E+00  0.00000000000E+00  0.15088065558E+04  0.15088065558E+04  0.25500000920E-02 0. -1.
       -2   -1    0    0    0  501  0.00000000000E+00  0.00000000000E+00 -0.53668639332E+03  0.53668639332E+03  0.25500000920E-02 0.  1.
    10030    2    1    2    0    0  0.00000000000E+00  0.00000000000E+00  0.97212016251E+03  0.20454929491E+04  0.17997288114E+04 0.  0.
        2    1    3    3  502    0  0.26928851239E+03 -0.56359925732E+03 -0.25015776443E+03  0.67285907355E+03  0.25500000920E-02 0.  1.
       -2    1    3    3    0  502 -0.26928851239E+03  0.56359925732E+03  0.12222779269E+04  0.13726338756E+04  0.25500000920E-02 0. -1.
</event>
<event>
 5   0  0.4953155E-06  0.1799945E+04  0.7818609E-02  0.8706329E-01
       -1   -1    0    0    0  501  0.00000000000E+00  0.00000000000E+00  0.79193382938E+03  0.79193382940E+03  0.50400001928E-02 0.  1.
        1   -1    0    0  501    0  0.00000000000E+00  0.00000000000E+00 -0.10227503612E+04  0.10227503612E+04  0.50400001928E-02 0. -1.
    10030    2    1    2    0    0  0.00000000000E+00  0.00000000000E+00 -0.23081653185E+03  0.18146841906E+04  0.17999451215E+04 0.  0.
        2    1    3    3  502    0  0.40304204051E+03  0.33557714872E+03  0.62194625148E+03  0.81355519106E+03  0.25500000920E-02 0.  1.
       -2    1    3    3    0  502 -0.40304204051E+03 -0.33557714872E+03 -0.85276278333E+03  0.10011289996E+04  0.25500000920E-02 0. -1.
</event>
<event>
 5   0  0.9999162E-06  0.1799267E+04  0.7818609E-02  0.8706689E-01
        2   -1    0    0  501    0  0.00000000000E+00  0.00000000000E+00  0.88423237453E+03  0.88423237453E+03  0.25500000920E-02 0.  1.
       -2   -1    0    0    0  501  0.00000000000E+00  0.00000000000E+00 -0.91530290226E+03  0.91530290227E+03  0.25500000920E-02 0. -1.
    10030    2    1    2    0    0  0.00000000000E+00  0.00000000000E+00 -0.31070527735E+02  0.17995352768E+04  0.17992670271E+04 0.  0.
        1    1    3    3  502    0 -0.15372273081E+03 -0.83627792056E+03  0.27836058411E+03  0.89469327325E+03  0.50400001928E-02 0. -1.
       -1    1    3    3    0  502  0.15372273081E+03  0.83627792056E+03 -0.30943111184E+03  0.90484200355E+03  0.50400001928E-02 0.  1.
</event>
<event>
 5   0  0.4987456E-06  0.1800056E+04  0.7818609E-02  0.8706270E-01
       -1   -1    0    0    0  501  0.00000000000E+00  0.00000000000E+00  0.58733016458E+03  0.58733016461E+03  0.50400001928E-02 0.  1.
        1   -1    0    0  501    0  0.00000000000E+00  0.00000000000E+00 -0.13792071654E+04  0.13792071654E+04  0.50400001928E-02 0. -1.
    10030    2    1    2    0    0  0.00000000000E+00  0.00000000000E+00 -0.79187700077E+03  0.19665373300E+04  0.18000555230E+04 0.  0.
        3    1    3    3  502    0  0.60351522131E+03 -0.23353398181E+03  0.28743918683E+03  0.70808900523E+03  0.10100000352E+00 0.  1.
       -3    1    3    3    0  502 -0.60351522131E+03  0.23353398181E+03 -0.10793161876E+04  0.12584483247E+04  0.10100000352E+00 0. -1.
</event>
<event>
 5   0  0.4987456E-06  0.1799866E+04  0.7818609E-02  0.8706371E-01
        1   -1    0    0  501    0  0.00000000000E+00  0.00000000000E+00  0.15613841123E+04  0.15613841123E+04  0.50400001928E-02 0.  1.
       -1   -1    0    0    0  501  0.00000000000E+00  0.00000000000E+00 -0.51869300803E+03  0.51869300806E+03  0.50400001928E-02 0. -1.
    10030    2    1    2    0    0  0.00000000000E+00  0.00000000000E+00  0.10426911043E+04  0.20800771204E+04  0.17998655749E+04 0.  0.
        3    1    3    3  502    0 -0.40715793281E+03 -0.47911806909E+03 -0.22274607002E+03  0.66704387284E+03  0.10100000352E+00 0. -1.
       -3    1    3    3    0  502  0.40715793281E+03  0.47911806909E+03  0.12654371743E+04  0.14130332476E+04  0.10100000352E+00 0.  1.
</event>
<event>
 5   0  0.1036381E-05  0.1800486E+04  0.7818609E-02  0.8706041E-01
        2   -1    0    0  501    0  0.00000000000E+00  0.00000000000E+00  0.22385842949E+04  0.22385842949E+04  0.25500000920E-02 0. -1.
       -2   -1    0    0    0  501  0.00000000000E+00  0.00000000000E+00 -0.36203113396E+03  0.36203113397E+03  0.25500000920E-02 0.  1.
    10030    2    1    2    0    0  0.00000000000E+00  0.00000000000E+00  0.18765531609E+04  0.26006154288E+04  0.18004857242E+04 0.  0.
        4    1    3    3  502    0 -0.51209544383E+03 -0.34724916171E+03  0.18827969549E+04  0.19818551184E+04  0.12699999809E+01 0. -1.
       -4    1    3    3    0  502  0.51209544383E+03  0.34724916171E+03 -0.62437940283E+01  0.61876031043E+03  0.12699999809E+01 0.  1.
</event>
<event>
 5   0  0.9999162E-06  0.1799611E+04  0.7818609E-02  0.8706506E-01
        2   -1    0    0  501    0  0.00000000000E+00  0.00000000000E+00  0.22755030005E+04  0.22755030005E+04  0.25500000920E-02 0.  1.
       -2   -1    0    0    0  501  0.00000000000E+00  0.00000000000E+00 -0.35581158512E+03  0.35581158513E+03  0.25500000920E-02 0. -1.
    10030    2    1    2    0    0  0.00000000000E+00  0.00000000000E+00  0.19196914154E+04  0.26313145856E+04  0.17996114354E+04 0.  0.
        1    1    3    3  502    0 -0.10404529790E+03 -0.75363218169E+03  0.16623866040E+04  0.18282002381E+04  0.50400001928E-02 0. -1.
       -1    1    3    3    0  502  0.10404529790E+03  0.75363218169E+03  0.25730481141E+03  0.80311434758E+03  0.50400001928E-02 0.  1.
</event>
<event>
 5   0  0.3626125E-06  0.1795416E+04  0.7818609E-02  0.8708741E-01
        4   -1    0    0  501    0  0.00000000000E+00  0.00000000000E+00  0.98829629751E+03  0.98829711351E+03  0.12699999809E+01 0. -1.
       -4   -1    0    0    0  501  0.00000000000E+00  0.00000000000E+00 -0.81542184475E+03  0.81542283375E+03  0.12699999809E+01 0.  1.
    10030    2    1    2    0    0  0.00000000000E+00  0.00000000000E+00  0.17287445275E+03  0.18037199473E+04  0.17954164062E+04 0.  0.
        5    1    3    3  502    0 -0.10384092006E+02 -0.76273985594E+03  0.56188915163E+03  0.94742885006E+03  0.46999998093E+01 0. -1.
       -5    1    3    3    0  502  0.10384092006E+02  0.76273985594E+03 -0.38901469888E+03  0.85629109720E+03  0.46999998093E+01 0.  1.
</event>
<event>
 5   0  0.4983159E-06  0.1801376E+04  0.7818609E-02  0.8705568E-01
        1   -1    0    0  501    0  0.00000000000E+00  0.00000000000E+00  0.12314158577E+04  0.12314158577E+04  0.50400001928E-02 0.  1.
       -1   -1    0    0    0  501  0.00000000000E+00  0.00000000000E+00 -0.65878516945E+03  0.65878516947E+03  0.50400001928E-02 0. -1.
    10030    2    1    2    0    0  0.00000000000E+00  0.00000000000E+00  0.57263068824E+03  0.18902010272E+04  0.18013755905E+04 0.  0.
        4    1    3    3  502    0  0.77614464020E+03 -0.17056907851E+03  0.73118133404E+03  0.10798713207E+04  0.12699999809E+01 0.  1.
       -4    1    3    3    0  502 -0.77614464020E+03  0.17056907851E+03 -0.15855064579E+03  0.81032970650E+03  0.12699999809E+01 0. -1.
</event>
<event>
 5   0  0.4981384E-06  0.1799960E+04  0.7818609E-02  0.8706321E-01
        1   -1    0    0  501    0  0.00000000000E+00  0.00000000000E+00  0.11690476246E+04  0.11690476246E+04  0.50400001928E-02 0. -1.
       -1   -1    0    0    0  501  0.00000000000E+00  0.00000000000E+00 -0.69284079361E+03  0.69284079363E+03  0.50400001928E-02 0.  1.
    10030    2    1    2    0    0  0.00000000000E+00  0.00000000000E+00  0.47620683094E+03  0.18618884182E+04  0.17999598707E+04 0.  0.
        5    1    3    3  502    0  0.77579668874E+03  0.31602776379E+03  0.57837054656E+03  0.10179728036E+04  0.46999998093E+01 0. -1.
       -5    1    3    3    0  502 -0.77579668874E+03 -0.31602776379E+03 -0.10216371563E+03  0.84391561459E+03  0.46999998093E+01 0.  1.
</event>
<event>
 5   0  0.9589963E-06  0.1799875E+04  0.7818609E-02  0.8706366E-01
        2   -1    0    0  501    0  0.00000000000E+00  0.00000000000E+00  0.10082530505E+04  0.10082530505E+04  0.25500000920E-02 0.  1.
       -2   -1    0    0    0  501  0.00000000000E+00  0.00000000000E+00 -0.80325847212E+03  0.80325847212E+03  0.25500000920E-02 0. -1.
    10030    2    1    2    0    0  0.00000000000E+00  0.00000000000E+00  0.20499457833E+03  0.18115115226E+04  0.17998753344E+04 0.  0.
        2    1    3    3  502    0 -0.81951552040E+03 -0.75979215012E+01  0.47668628677E+03  0.94809980096E+03  0.25500000920E-02 0.  1.
       -2    1    3    3    0  502  0.81951552040E+03  0.75979215012E+01 -0.27169170844E+03  0.86341172162E+03  0.25500000920E-02 0. -1.
</event>
<event>
 5   0  0.4983159E-06  0.1799184E+04  0.7818609E-02  0.8706734E-01
        1   -1    0    0  501    0  0.00000000000E+00  0.00000000000E+00  0.83754256371E+03  0.83754256372E+03  0.50400001928E-02 0. -1.
       -1   -1    0    0    0  501  0.00000000000E+00  0.00000000000E+00 -0.96623793104E+03  0.96623793105E+03  0.50400001928E-02 0.  1.
    10030    2    1    2    0    0  0.00000000000E+00  0.00000000000E+00 -0.12869536734E+03  0.18037804948E+04  0.17991835859E+04 0.  0.
        4    1    3    3  502    0 -0.78652642191E+03 -0.54251278687E+02 -0.49869446001E+03  0.93287983736E+03  0.12699999809E+01 0.  1.
       -4    1    3    3    0  502  0.78652642191E+03  0.54251278687E+02  0.36999909268E+03  0.87090065742E+03  0.12699999809E+01 0. -1.
</event>
<event>
 5   0  0.1000316E-05  0.1800354E+04  0.7818609E-02  0.8706111E-01
        2   -1    0    0  501    0  0.00000000000E+00  0.00000000000E+00  0.11414383765E+04  0.11414383765E+04  0.25500000920E-02 0. -1.
       -2   -1    0    0    0  501  0.00000000000E+00  0.00000000000E+00 -0.70991017883E+03  0.70991017884E+03  0.25500000920E-02 0.  1.
    10030    2    1    2    0    0  0.00000000000E+00  0.00000000000E+00  0.43152819764E+03  0.18513485553E+04  0.18003541007E+04 0.  0.
        5    1    3    3  502    0 -0.12237130268E+03  0.39434329318E+03 -0.60677690621E+03  0.73394936645E+03  0.46999998093E+01 0.  1.
       -5    1    3    3    0  502  0.12237130268E+03 -0.39434329318E+03  0.10383051039E+04  0.11173991889E+04  0.46999998093E+01 0. -1.
</event>
<event>
 5   0  0.4981384E-06  0.1801075E+04  0.7818609E-02  0.8705728E-01
       -1   -1    0    0    0  501  0.00000000000E+00  0.00000000000E+00  0.15611028112E+04  0.15611028113E+04  0.50400001928E-02 0. -1.
        1   -1    0    0  501    0  0.00000000000E+00  0.00000000000E+00 -0.51948392738E+03  0.51948392740E+03  0.50400001928E-02 0.  1.
    10030    2    1    2    0    0  0.00000000000E+00  0.00000000000E+00  0.10416188839E+04  0.20805867387E+04  0.18010750339E+04 0.  0.
        5    1    3    3  502    0 -0.40240683469E+03 -0.48047916343E+02 -0.40817281694E+03  0.57521039747E+03  0.46999998093E+01 0.  1.
       -5    1    3    3    0  502  0.40240683469E+03  0.48047916343E+02  0.14497917008E+04  0.15053763412E+04  0.46999998093E+01 0. -1.
</event>
<event>
 5   0  0.4994123E-06  0.1799929E+04  0.7818609E-02  0.8706337E-01
       -1   -1    0    0    0  501  0.00000000000E+00  0.00000000000E+00  0.11146912410E+04  0.11146912410E+04  0.50400001928E-02 0.  1.
        1   -1    0    0  501    0  0.00000000000E+00  0.00000000000E+00 -0.72660128212E+03  0.72660128213E+03  0.50400001928E-02 0. -1.
    10030    2    1    2    0    0  0.00000000000E+00  0.00000000000E+00  0.38808995891E+03  0.18412925232E+04  0.17999289818E+04 0.  0.
        1    1    3    3  502    0  0.32258299176E+03 -0.79857990408E+03  0.46109277098E+03  0.97693203103E+03  0.50400001928E-02 0.  1.
       -1    1    3    3    0  502 -0.32258299176E+03  0.79857990408E+03 -0.73002812069E+02  0.86436049214E+03  0.50400001928E-02 0. -1.
</event>
<event>
 5   0  0.9589963E-06  0.1799878E+04  0.7818609E-02  0.8706365E-01
       -2   -1    0    0    0  501  0.00000000000E+00  0.00000000000E+00  0.14107245604E+04  0.14107245604E+04  0.25500000920E-02 0. -1.
        2   -1    0    0  501    0  0.00000000000E+00  0.00000000000E+00 -0.57409501871E+03  0.57409501871E+03  0.25500000920E-02 0.  1.
    10030    2    1    2    0    0  0.00000000000E+00  0.00000000000E+00  0.83662954168E+03  0.19848195791E+04  0.17998777102E+04 0.  0.
        2    1    3    3  502    0 -0.23353126562E+02 -0.19923341196E+03  0.13857565733E+04  0.14002002005E+04  0.25500000920E-02 0. -1.
       -2    1    3    3    0  502  0.23353126562E+02  0.19923341196E+03 -0.54912703164E+03  0.58461937861E+03  0.25500000920E-02 0.  1.
</event>
<event>
 5   0  0.4981384E-06  0.1800063E+04  0.7818609E-02  0.8706266E-01
        1   -1    0    0  501    0  0.00000000000E+00  0.00000000000E+00  0.14039227353E+04  0.14039227353E+04  0.50400001928E-02 0. -1.
       -1   -1    0    0    0  501  0.00000000000E+00  0.00000000000E+00 -0.57699542926E+03  0.57699542928E+03  0.50400001928E-02 0.  1.
    10030    2    1    2    0    0  0.00000000000E+00  0.00000000000E+00  0.82692730602E+03  0.19809181646E+04  0.18000633337E+04 0.  0.
        5    1    3    3  502    0 -0.37113541275E+03  0.11295190827E+03 -0.48024871001E+03  0.61738200625E+03  0.46999998093E+01 0.  1.
       -5    1    3    3    0  502  0.37113541275E+03 -0.11295190827E+03  0.13071760160E+04  0.13635361583E+04  0.46999998093E+01 0. -1.
</event>
<event>
 5   0  0.9999162E-06  0.1799497E+04  0.7818609E-02  0.8706567E-01
        2   -1    0    0  501    0  0.00000000000E+00  0.00000000000E+00  0.12168727522E+04  0.12168727522E+04  0.25500000920E-02 0.  1.
       -2   -1    0    0    0  501  0.00000000000E+00  0.00000000000E+00 -0.66526891857E+03  0.66526891858E+03  0.25500000920E-02 0. -1.
    10030    2    1    2    0    0  0.00000000000E+00  0.00000000000E+00  0.55160383362E+03  0.18821416708E+04  0.17994972852E+04 0.  0.
        1    1    3    3  502    0  0.34009172012E+03  0.65604471112E+03 -0.26108603734E+03  0.78372377787E+03  0.50400001928E-02 0. -1.
       -1    1    3    3    0  502 -0.34009172012E+03 -0.65604471112E+03  0.81268987096E+03  0.10984178929E+04  0.50400001928E-02 0.  1.
</event>
<event>
 5   0  0.4994123E-06  0.1800533E+04  0.7818609E-02  0.8706016E-01
       -1   -1    0    0    0  501  0.00000000000E+00  0.00000000000E+00  0.11893206105E+04  0.11893206105E+04  0.50400001928E-02 0.  1.
        1   -1    0    0  501    0  0.00000000000E+00  0.00000000000E+00 -0.68146416480E+03  0.68146416482E+03  0.50400001928E-02 0. -1.
    10030    2    1    2    0    0  0.00000000000E+00  0.00000000000E+00  0.50785644573E+03  0.18707847754E+04  0.18005325618E+04 0.  0.
        1    1    3    3  502    0 -0.80905382170E+03 -0.34191562112E+03  0.48725566697E+02  0.87968662559E+03  0.50400001928E-02 0.  1.
       -1    1    3    3    0  502  0.80905382170E+03  0.34191562112E+03  0.45913087903E+03  0.99109814977E+03  0.50400001928E-02 0. -1.
</event>
<event>
 5   0  0.4953155E-06  0.1801382E+04  0.7818609E-02  0.8705565E-01
       -1   -1    0    0    0  501  0.00000000000E+00  0.00000000000E+00  0.12306270028E+04  0.12306270028E+04  0.50400001928E-02 0. -1.
        1   -1    0    0  501    0  0.00000000000E+00  0.00000000000E+00 -0.65921225186E+03  0.65921225188E+03  0.50400001928E-02 0.  1.
    10030    2    1    2    0    0  0.00000000000E+00  0.00000000000E+00  0.57141475096E+03  0.18898392547E+04  0.18013821335E+04 0.  0.
        2    1    3    3  502    0  0.49587796565E+03  0.73142980379E+03  0.46850437458E+03  0.10001904137E+04  0.25500000920E-02 0. -1.
       -2    1    3    3    0  502 -0.49587796565E+03 -0.73142980379E+03  0.10291037637E+03  0.88964884098E+03  0.25500000920E-02 0.  1.
</event>
<event>
 5   0  0.1036381E-05  0.1800331E+04  0.7818609E-02  0.8706123E-01
       -2   -1    0    0    0  501  0.00000000000E+00  0.00000000000E+00  0.43124351327E+03  0.43124351328E+03  0.25500000920E-02 0. -1.
        2   -1    0    0  501    0  0.00000000000E+00  0.00000000000E+00 -0.18789809887E+04  0.18789809887E+04  0.25500000920E-02 0.  1.
    10030    2    1    2    0    0  0.00000000000E+00  0.00000000000E+00 -0.14477374754E+04  0.23102245020E+04  0.18003314838E+04 0.  0.
        4    1    3    3  502    0  0.45536364438E+03  0.45194303538E+03 -0.15341175387E+04  0.16628670396E+04  0.12699999809E+01 0.  1.
       -4    1    3    3    0  502 -0.45536364438E+03 -0.45194303538E+03  0.86380063306E+02  0.64735746237E+03  0.12699999809E+01 0. -1.
</event>
<event>
 5   0  0.9589963E-06  0.1805270E+04  0.7818609E-02  0.8703502E-01
       -2   -1    0    0    0  501  0.00000000000E+00  0.00000000000E+00  0.57367375426E+03  0.57367375427E+03  0.25500000920E-02 0. -1.
        2   -1    0    0  501    0  0.00000000000E+00  0.00000000000E+00 -0.14202321188E+04  0.14202321188E+04  0.25500000920E-02 0.  1.
    10030    2    1    2    0    0  0.00000000000E+00  0.00000000000E+00 -0.84655836454E+03  0.19939058731E+04  0.18052699427E+04 0.  0.
        2    1    3    3  502    0 -0.79342552109E+03 -0.40139189214E+03 -0.25177901209E+03  0.92413861489E+03  0.25500000920E-02 0.  1.
       -2    1    3    3    0  502  0.79342552109E+03  0.40139189214E+03 -0.59477935244E+03  0.10697672582E+04  0.25500000920E-02 0. -1.
</event>
<event>
 5   0  0.1036381E-05  0.1799450E+04  0.7818609E-02  0.8706592E-01
        2   -1    0    0  501    0  0.00000000000E+00  0.00000000000E+00  0.14532128003E+04  0.14532128003E+04  0.25500000920E-02 0.  1.
       -2   -1    0    0    0  501  0.00000000000E+00  0.00000000000E+00 -0.55704532994E+03  0.55704532994E+03  0.25500000920E-02 0. -1.
    10030    2    1    2    0    0  0.00000000000E+00  0.00000000000E+00  0.89616747032E+03  0.20102581302E+04  0.17994503647E+04 0.  0.
        4    1    3    3  502    0 -0.69236339782E+02  0.15998973449E+03  0.14341640608E+04  0.14447209253E+04  0.12699999809E+01 0.  1.
       -4    1    3    3    0  502  0.69236339782E+02 -0.15998973449E+03 -0.53799659045E+03  0.56553720490E+03  0.12699999809E+01 0. -1.
</event>
<event>
 5   0  0.4953155E-06  0.1799598E+04  0.7818609E-02  0.8706513E-01
       -1   -1    0    0    0  501  0.00000000000E+00  0.00000000000E+00  0.10210869105E+04  0.10210869105E+04  0.50400001928E-02 0.  1.
        1   -1    0    0  501    0  0.00000000000E+00  0.00000000000E+00 -0.79291842469E+03  0.79291842471E+03  0.50400001928E-02 0. -1.
    10030    2    1    2    0    0  0.00000000000E+00  0.00000000000E+00  0.22816848581E+03  0.18140053352E+04  0.17995984270E+04 0.  0.
        2    1    3    3  502    0  0.28494734088E+03  0.59145314008E+02 -0.74416934008E+03  0.79905016236E+03  0.25500000920E-02 0. -1.
       -2    1    3    3    0  502 -0.28494734088E+03 -0.59145314008E+02  0.97233782590E+03  0.10149551729E+04  0.25500000920E-02 0.  1.
</event>
<event>
 5   0  0.9999162E-06  0.1800044E+04  0.7818609E-02  0.8706276E-01
        2   -1    0    0  501    0  0.00000000000E+00  0.00000000000E+00  0.15471733920E+04  0.15471733920E+04  0.25500000920E-02 0.  1.
       -2   -1    0    0    0  501  0.00000000000E+00  0.00000000000E+00 -0.52356079177E+03  0.52356079177E+03  0.25500000920E-02 0. -1.
    10030    2    1    2    0    0  0.00000000000E+00  0.00000000000E+00  0.10236126002E+04  0.20707341838E+04  0.18000436952E+04 0.  0.
        1    1    3    3  502    0 -0.78063585108E+01  0.68867480059E+03 -0.15472488370E+03  0.70588505428E+03  0.50400001928E-02 0. -1.
       -1    1    3    3    0  502  0.78063585108E+01 -0.68867480059E+03  0.11783374839E+04  0.13648491295E+04  0.50400001928E-02 0.  1.
</event>
<event>
 5   0  0.4983159E-06  0.1801173E+04  0.7818609E-02  0.8705676E-01
        1   -1    0    0  501    0  0.00000000000E+00  0.00000000000E+00  0.12389243147E+04  0.12389243147E+04  0.50400001928E-02 0.  1.
       -1   -1    0    0    0  501  0.00000000000E+00  0.00000000000E+00 -0.65464535061E+03  0.65464535063E+03  0.50400001928E-02 0. -1.
    10030    2    1    2    0    0  0.00000000000E+00  0.00000000000E+00  0.58427896409E+03  0.18935696653E+04  0.18011729983E+04 0.  0.
        4    1    3    3  502    0 -0.73224799156E+03 -0.21807216355E+02 -0.25855584031E+03  0.77686254337E+03  0.12699999809E+01 0. -1.
       -4    1    3    3    0  502  0.73224799156E+03  0.21807216355E+02  0.84283480441E+03  0.11167071220E+04  0.12699999809E+01 0.  1.
</event>
<event>
 5   0  0.4953155E-06  0.1800390E+04  0.7818609E-02  0.8706092E-01
       -1   -1    0    0    0  501  0.00000000000E+00  0.00000000000E+00  0.64720347255E+03  0.64720347257E+03  0.50400001928E-02 0. -1.
        1   -1    0    0  501    0  0.00000000000E+00  0.00000000000E+00 -0.12520812299E+04  0.12520812299E+04  0.50400001928E-02 0.  1.
    10030    2    1    2    0    0  0.00000000000E+00  0.00000000000E+00 -0.60487775730E+03  0.18992847024E+04  0.18003903131E+04 0.  0.
        2    1    3    3  502    0  0.37050935554E+03  0.81882473582E+03 -0.35623189430E+03  0.96677416859E+03  0.25500000920E-02 0. -1.
       -2    1    3    3    0  502 -0.37050935554E+03 -0.81882473582E+03 -0.24864586301E+03  0.93251053385E+03  0.25500000920E-02 0.  1.
</event>
<event>
 5   0  0.4994123E-06  0.1800852E+04  0.7818609E-02  0.8705846E-01
        1   -1    0    0  501    0  0.00000000000E+00  0.00000000000E+00  0.79898391859E+03  0.79898391861E+03  0.50400001928E-02 0.  1.
       -1   -1    0    0    0  501  0.00000000000E+00  0.00000000000E+00 -0.10147478698E+04  0.10147478698E+04  0.50400001928E-02 0. -1.
    10030    2    1    2    0    0  0.00000000000E+00  0.00000000000E+00 -0.21576395122E+03  0.18137317884E+04  0.18008522754E+04 0.  0.
        1    1    3    3  502    0 -0.57210399665E+03  0.51073508169E+02  0.59051504753E+03  0.82378365340E+03  0.50400001928E-02 0.  1.
       -1    1    3    3    0  502  0.57210399665E+03 -0.51073508169E+02 -0.80627899875E+03  0.98994813504E+03  0.50400001928E-02 0. -1.
</event>
<event>
 5   0  0.9999162E-06  0.1800206E+04  0.7818609E-02  0.8706190E-01
        2   -1    0    0  501    0  0.00000000000E+00  0.00000000000E+00  0.10125412686E+04  0.10125412686E+04  0.25500000920E-02 0. -1.
       -2   -1    0    0    0  501  0.00000000000E+00  0.00000000000E+00 -0.80015021657E+03  0.80015021657E+03  0.25500000920E-02 0.  1.
    10030    2    1    2    0    0  0.00000000000E+00  0.00000000000E+00  0.21239105206E+03  0.18126914852E+04  0.18002056720E+04 0.  0.
        1    1    3    3  502    0 -0.56079919800E+03 -0.66174229683E+03  0.34825104690E+03  0.93470711968E+03  0.50400001928E-02 0. -1.
       -1    1    3    3    0  502  0.56079919800E+03  0.66174229683E+03 -0.13585999483E+03  0.87798436553E+03  0.50400001928E-02 0.  1.
</event>
<event>
 5   0  0.4987456E-06  0.1798916E+04  0.7818609E-02  0.8706876E-01
        1   -1    0    0  501    0  0.00000000000E+00  0.00000000000E+00  0.10252966254E+04  0.10252966254E+04  0.50400001928E-02 0. -1.
       -1   -1    0    0    0  501  0.00000000000E+00  0.00000000000E+00 -0.78906416697E+03  0.78906416699E+03  0.50400001928E-02 0.  1.
    10030    2    1    2    0    0  0.00000000000E+00  0.00000000000E+00  0.23623245839E+03  0.18143607924E+04  0.17989161488E+04 0.  0.
        3    1    3    3  502    0  0.31702746817E+03 -0.17867669121E+03  0.94773103761E+03  0.10151974711E+04  0.10100000352E+00 0. -1.
       -3    1    3    3    0  502 -0.31702746817E+03  0.17867669121E+03 -0.71149857922E+03  0.79916332123E+03  0.10100000352E+00 0.  1.
</event>
<event>
 5   0  0.4981384E-06  0.1799599E+04  0.7818609E-02  0.8706513E-01
       -1   -1    0    0    0  501  0.00000000000E+00  0.00000000000E+00  0.65031664334E+03  0.65031664336E+03  0.50400001928E-02 0.  1.
        1   -1    0    0  501    0  0.00000000000E+00  0.00000000000E+00 -0.12449918640E+04  0.12449918640E+04  0.50400001928E-02 0. -1.
    10030    2    1    2    0    0  0.00000000000E+00  0.00000000000E+00 -0.59467522061E+03  0.18953085073E+04  0.17995987664E+04 0.  0.
        5    1    3    3  502    0  0.46465451395E+03  0.75069748624E+03 -0.11441588161E+03  0.89026042097E+03  0.46999998093E+01 0.  1.
       -5    1    3    3    0  502 -0.46465451395E+03 -0.75069748624E+03 -0.48025933900E+03  0.10050480864E+04  0.46999998093E+01 0. -1.
</event>
<event>
 5   0  0.4987456E-06  0.1794196E+04  0.7818609E-02  0.8709392E-01
       -1   -1    0    0    0  501  0.00000000000E+00  0.00000000000E+00  0.86475039398E+03  0.86475039400E+03  0.50400001928E-02 0.  1.
        1   -1    0    0  501    0  0.00000000000E+00  0.00000000000E+00 -0.93065556251E+03  0.93065556252E+03  0.50400001928E-02 0. -1.
    10030    2    1    2    0    0  0.00000000000E+00  0.00000000000E+00 -0.65905168526E+02  0.17954059565E+04  0.17941959362E+04 0.  0.
        3    1    3    3  502    0 -0.12377260457E+03 -0.61733459787E+03 -0.67241648732E+03  0.92117620789E+03  0.10100000352E+00 0. -1.
       -3    1    3    3    0  502  0.12377260457E+03  0.61733459787E+03  0.60651131879E+03  0.87422974863E+03  0.10100000352E+00 0.  1.
</event>
<event>
 5   0  0.9589963E-06  0.1795141E+04  0.7818609E-02  0.8708887E-01
        2   -1    0    0  501    0  0.00000000000E+00  0.00000000000E+00  0.65568516336E+03  0.65568516337E+03  0.25500000920E-02 0.  1.
       -2   -1    0    0    0  501  0.00000000000E+00  0.00000000000E+00 -0.12286890419E+04  0.12286890419E+04  0.25500000920E-02 0. -1.
    10030    2    1    2    0    0  0.00000000000E+00  0.00000000000E+00 -0.57300387850E+03  0.18843742052E+04  0.17951414152E+04 0.  0.
        2    1    3    3  502    0 -0.49034546921E+03  0.71630848389E+03 -0.46909344638E+02  0.86933135794E+03  0.25500000920E-02 0.  1.
       -2    1    3    3    0  502  0.49034546921E+03 -0.71630848389E+03 -0.52609453387E+03  0.10150428473E+04  0.25500000920E-02 0. -1.
</event>
<event>
 5   0  0.9589963E-06  0.1799965E+04  0.7818609E-02  0.8706318E-01
        2   -1    0    0  501    0  0.00000000000E+00  0.00000000000E+00  0.11411437063E+04  0.11411437063E+04  0.25500000920E-02 0. -1.
       -2   -1    0    0    0  501  0.00000000000E+00  0.00000000000E+00 -0.70978632330E+03  0.70978632331E+03  0.25500000920E-02 0.  1.
    10030    2    1    2    0    0  0.00000000000E+00  0.00000000000E+00  0.43135738298E+03  0.18509300296E+04  0.17999646615E+04 0.  0.
        2    1    3    3  502    0 -0.72744719321E+03  0.52038416558E+03  0.31845408228E+03  0.94941671632E+03  0.25500000920E-02 0.  1.
       -2    1    3    3    0  502  0.72744719321E+03 -0.52038416558E+03  0.11290330070E+03  0.90151331328E+03  0.25500000920E-02 0. -1.
</event>
<event>
 5   0  0.1036381E-05  0.1797789E+04  0.7818609E-02  0.8707476E-01
        2   -1    0    0  501    0  0.00000000000E+00  0.00000000000E+00  0.52511304870E+03  0.52511304871E+03  0.25500000920E-02 0. -1.
       -2   -1    0    0    0  501  0.00000000000E+00  0.00000000000E+00 -0.15387374064E+04  0.15387374064E+04  0.25500000920E-02 0.  1.
    10030    2    1    2    0    0  0.00000000000E+00  0.00000000000E+00 -0.10136243577E+04  0.20638504552E+04  0.17977887425E+04 0.  0.
        4    1    3    3  502    0  0.42721328550E+03  0.54290283385E+03  0.15341385643E+03  0.70766666062E+03  0.12699999809E+01 0. -1.
       -4    1    3    3    0  502 -0.42721328550E+03 -0.54290283385E+03 -0.11670382142E+04  0.13561837945E+04  0.12699999809E+01 0.  1.
</event>
<event>
 5   0  0.3626125E-06  0.1799682E+04  0.7818609E-02  0.8706469E-01
       -3   -1    0    0    0  501  0.00000000000E+00  0.00000000000E+00  0.54237483609E+03  0.54237484550E+03  0.10100000352E+00 0.  1.
        3   -1    0    0  501    0  0.00000000000E+00  0.00000000000E+00 -0.14929040889E+04  0.14929040923E+04  0.10100000352E+00 0. -1.
    10030    2    1    2    0    0  0.00000000000E+00  0.00000000000E+00 -0.95052925281E+03  0.20352789378E+04  0.17996817758E+04 0.  0.
        1    1    3    3  502    0  0.56589769631E+03 -0.59225082346E+03 -0.89646217584E+03  0.12143498974E+04  0.50400001928E-02 0. -1.
       -1    1    3    3    0  502 -0.56589769631E+03  0.59225082346E+03 -0.54067076974E+02  0.82092904042E+03  0.50400001928E-02 0.  1.
</event>
<event>
 5   0  0.4987456E-06  0.1798870E+04  0.7818609E-02  0.8706901E-01
       -1   -1    0    0    0  501  0.00000000000E+00  0.00000000000E+00  0.10818155865E+04  0.10818155865E+04  0.50400001928E-02 0. -1.
        1   -1    0    0  501    0  0.00000000000E+00  0.00000000000E+00 -0.74780124319E+03  0.74780124321E+03  0.50400001928E-02 0.  1.
    10030    2    1    2    0    0  0.00000000000E+00  0.00000000000E+00  0.33401434327E+03  0.18296168297E+04  0.17988696901E+04 0.  0.
        3    1    3    3  502    0 -0.30367542272E+03  0.37735264986E+03  0.93783259667E+03  0.10555300916E+04  0.10100000352E+00 0. -1.
       -3    1    3    3    0  502  0.30367542272E+03 -0.37735264986E+03 -0.60381825340E+03  0.77408673807E+03  0.10100000352E+00 0.  1.
</event>
<event>
 5   0  0.4983159E-06  0.1800502E+04  0.7818609E-02  0.8706032E-01
        1   -1    0    0  501    0  0.00000000000E+00  0.00000000000E+00  0.89028195716E+03  0.89028195718E+03  0.50400001928E-02 0.  1.
       -1   -1    0    0    0  501  0.00000000000E+00  0.00000000000E+00 -0.91033208942E+03  0.91033208943E+03  0.50400001928E-02 0. -1.
    10030    2    1    2    0    0  0.00000000000E+00  0.00000000000E+00 -0.20050132256E+02  0.18006140466E+04  0.18005024124E+04 0.  0.
        4    1    3    3  502    0  0.35826003830E+03 -0.66111593470E+03  0.48500672297E+03  0.89479476327E+03  0.12699999809E+01 0.  1.
       -4    1    3    3    0  502 -0.35826003830E+03  0.66111593470E+03 -0.50505685522E+03  0.90581928333E+03  0.12699999809E+01 0. -1.
</event>
<event>
 5   0  0.1000316E-05  0.1799954E+04  0.7818609E-02  0.8706324E-01
       -2   -1    0    0    0  501  0.00000000000E+00  0.00000000000E+00  0.12279457559E+04  0.12279457559E+04  0.25500000920E-02 0. -1.
        2   -1    0    0  501    0  0.00000000000E+00  0.00000000000E+00 -0.65960445425E+03  0.65960445425E+03  0.25500000920E-02 0.  1.
    10030    2    1    2    0    0  0.00000000000E+00  0.00000000000E+00  0.56834130162E+03  0.18875502101E+04  0.17999538774E+04 0.  0.
        5    1    3    3  502    0  0.17238334480E+03  0.88320826149E+03  0.29758166582E+03  0.94781316121E+03  0.46999998093E+01 0.  1.
       -5    1    3    3    0  502 -0.17238334480E+03 -0.88320826149E+03  0.27075963580E+03  0.93973704892E+03  0.46999998093E+01 0. -1.
</event>
<event>
 5   0  0.4981384E-06  0.1800086E+04  0.7818609E-02  0.8706254E-01
       -1   -1    0    0    0  501  0.00000000000E+00  0.00000000000E+00  0.13290811180E+04  0.13290811180E+04  0.50400001928E-02 0.  1.
        1   -1    0    0  501    0  0.00000000000E+00  0.00000000000E+00 -0.60950170173E+03  0.60950170175E+03  0.50400001928E-02 0. -1.
    10030    2    1    2    0    0  0.00000000000E+00  0.00000000000E+00  0.71957941624E+03  0.19385828197E+04  0.18000857792E+04 0.  0.
        5    1    3    3  502    0  0.48565005872E+03 -0.43660595246E+03 -0.30719511540E+03  0.72171439377E+03  0.46999998093E+01 0. -1.
       -5    1    3    3    0  502 -0.48565005872E+03  0.43660595246E+03  0.10267745316E+04  0.12168684260E+04  0.46999998093E+01 0.  1.
</event>
<event>
 5   0  0.4953155E-06  0.1797181E+04  0.7818609E-02  0.8707800E-01
        1   -1    0    0  501    0  0.00000000000E+00  0.00000000000E+00  0.19584361101E+04  0.19584361101E+04  0.50400001928E-02 0.  1.
       -1   -1    0    0    0  501  0.00000000000E+00  0.00000000000E+00 -0.41230074044E+03  0.41230074047E+03  0.50400001928E-02 0. -1.
    10030    2    1    2    0    0  0.00000000000E+00  0.00000000000E+00  0.15461353697E+04  0.23707368506E+04  0.17971807459E+04 0.  0.
        2    1    3    3  502    0 -0.40843605842E+03 -0.45156427602E+03 -0.98699000785E+02  0.61682396351E+03  0.25500000920E-02 0. -1.
       -2    1    3    3    0  502  0.40843605842E+03  0.45156427602E+03  0.16448343705E+04  0.17539128871E+04  0.25500000920E-02 0.  1.
</event>
<event>
 5   0  0.1035018E-05  0.1800353E+04  0.7818609E-02  0.8706112E-01
        2   -1    0    0  501    0  0.00000000000E+00  0.00000000000E+00  0.18139019782E+04  0.18139019782E+04  0.25500000920E-02 0. -1.
       -2   -1    0    0    0  501  0.00000000000E+00  0.00000000000E+00 -0.44672640878E+03  0.44672640879E+03  0.25500000920E-02 0.  1.
    10030    2    1    2    0    0  0.00000000000E+00  0.00000000000E+00  0.13671755694E+04  0.22606283869E+04  0.18003532060E+04 0.  0.
        3    1    3    3  502    0  0.62278050283E+03  0.43686804575E+03  0.12878825879E+04  0.14957776622E+04  0.10100000352E+00 0. -1.
       -3    1    3    3    0  502 -0.62278050283E+03 -0.43686804575E+03  0.79292981438E+02  0.76485072479E+03  0.10100000352E+00 0.  1.
</event>
<event>
 5   0  0.4987456E-06  0.1799841E+04  0.7818609E-02  0.8706384E-01
        1   -1    0    0  501    0  0.00000000000E+00  0.00000000000E+00  0.80341939095E+03  0.80341939096E+03  0.50400001928E-02 0.  1.
       -1   -1    0    0    0  501  0.00000000000E+00  0.00000000000E+00 -0.10080129173E+04  0.10080129173E+04  0.50400001928E-02 0. -1.
    10030    2    1    2    0    0  0.00000000000E+00  0.00000000000E+00 -0.20459352632E+03  0.18114323082E+04  0.17998412420E+04 0.  0.
        3    1    3    3  502    0  0.26852720215E+03 -0.16939228605E+03 -0.94977457070E+03  0.10014351453E+04  0.10100000352E+00 0. -1.
       -3    1    3    3    0  502 -0.26852720215E+03  0.16939228605E+03  0.74518104438E+03  0.80999716295E+03  0.10100000352E+00 0.  1.
</event>
<event>
 5   0  0.4987456E-06  0.1797397E+04  0.7818609E-02  0.8707685E-01
       -1   -1    0    0    0  501  0.00000000000E+00  0.00000000000E+00  0.95364931071E+03  0.95364931072E+03  0.50400001928E-02 0.  1.
        1   -1    0    0  501    0  0.00000000000E+00  0.00000000000E+00 -0.84691450710E+03  0.84691450712E+03  0.50400001928E-02 0. -1.
    10030    2    1    2    0    0  0.00000000000E+00  0.00000000000E+00  0.10673480360E+03  0.18005638178E+04  0.17973974919E+04 0.  0.
        3    1    3    3  502    0  0.43520737227E+03 -0.56196624528E+03 -0.49755404575E+03  0.86762408701E+03  0.10100000352E+00 0. -1.
       -3    1    3    3    0  502 -0.43520737227E+03  0.56196624528E+03  0.60428884935E+03  0.93293973083E+03  0.10100000352E+00 0.  1.
</event>
<event>
 5   0  0.4987456E-06  0.1799904E+04  0.7818609E-02  0.8706350E-01
        1   -1    0    0  501    0  0.00000000000E+00  0.00000000000E+00  0.77634567407E+03  0.77634567409E+03  0.50400001928E-02 0.  1.
       -1   -1    0    0    0  501  0.00000000000E+00  0.00000000000E+00 -0.10432387890E+04  0.10432387890E+04  0.50400001928E-02 0. -1.
    10030    2    1    2    0    0  0.00000000000E+00  0.00000000000E+00 -0.26689311492E+03  0.18195844631E+04  0.17999043540E+04 0.  0.
        3    1    3    3  502    0 -0.56720247973E+03  0.40519191578E+03  0.44200026401E+03  0.82538680945E+03  0.10100000352E+00 0.  1.
       -3    1    3    3    0  502  0.56720247973E+03 -0.40519191578E+03 -0.70889337893E+03  0.99419765364E+03  0.10100000352E+00 0. -1.
</event>
<event>
 5   0  0.3626125E-06  0.1797479E+04  0.7818609E-02  0.8707641E-01
        4   -1    0    0  501    0  0.00000000000E+00  0.00000000000E+00  0.12909619140E+04  0.12909625386E+04  0.12699999809E+01 0.  1.
       -4   -1    0    0    0  501  0.00000000000E+00  0.00000000000E+00 -0.62568126365E+03  0.62568255257E+03  0.12699999809E+01 0. -1.
    10030    2    1    2    0    0  0.00000000000E+00  0.00000000000E+00  0.66528065030E+03  0.19166450912E+04  0.17974788071E+04 0.  0.
        5    1    3    3  502    0  0.47094859355E+03  0.76443493072E+03  0.37471628222E+03  0.97292739875E+03  0.46999998093E+01 0. -1.
       -5    1    3    3    0  502 -0.47094859355E+03 -0.76443493072E+03  0.29056436808E+03  0.94371769246E+03  0.46999998093E+01 0.  1.
</event>
<event>
 5   0  0.4983159E-06  0.1799838E+04  0.7818609E-02  0.8706386E-01
        1   -1    0    0  501    0  0.00000000000E+00  0.00000000000E+00  0.11778559837E+04  0.11778559837E+04  0.50400001928E-02 0.  1.
       -1   -1    0    0    0  501  0.00000000000E+00  0.00000000000E+00 -0.68756632197E+03  0.68756632199E+03  0.50400001928E-02 0. -1.
    10030    2    1    2    0    0  0.00000000000E+00  0.00000000000E+00  0.49028966169E+03  0.18654223057E+04  0.17998378888E+04 0.  0.
        4    1    3    3  502    0 -0.19664078253E+03 -0.25463093862E+03 -0.62592531546E+03  0.70376745143E+03  0.12699999809E+01 0. -1.
       -4    1    3    3    0  502  0.19664078253E+03  0.25463093862E+03  0.11162149772E+04  0.11616548542E+04  0.12699999809E+01 0.  1.
</event>
<event>
 5   0  0.4983159E-06  0.1799140E+04  0.7818609E-02  0.8706757E-01
        1   -1    0    0  501    0  0.00000000000E+00  0.00000000000E+00  0.17251662322E+04  0.17251662322E+04  0.50400001928E-02 0.  1.
       -1   -1    0    0    0  501  0.00000000000E+00  0.00000000000E+00 -0.46907162078E+03  0.46907162080E+03  0.50400001928E-02 0. -1.
    10030    2    1    2    0    0  0.00000000000E+00  0.00000000000E+00  0.12560946114E+04  0.21942378530E+04  0.17991403733E+04 0.  0.
        4    1    3    3  502    0 -0.57379640626E+03 -0.30129243372E+03  0.13889131981E+04  0.15326776997E+04  0.12699999809E+01 0.  1.
       -4    1    3    3    0  502  0.57379640626E+03  0.30129243372E+03 -0.13281858675E+03  0.66156015323E+03  0.12699999809E+01 0. -1.
</event>
<event>
 5   0  0.1035018E-05  0.1799814E+04  0.7818609E-02  0.8706398E-01
       -2   -1    0    0    0  501  0.00000000000E+00  0.00000000000E+00  0.62196228480E+03  0.62196228480E+03  0.25500000920E-02 0.  1.
        2   -1    0    0  501    0  0.00000000000E+00  0.00000000000E+00 -0.13020609254E+04  0.13020609254E+04  0.25500000920E-02 0. -1.
    10030    2    1    2    0    0  0.00000000000E+00  0.00000000000E+00 -0.68009864059E+03  0.19240232102E+04  0.17998141994E+04 0.  0.
        3    1    3    3  502    0  0.70328469454E+02  0.89280639876E+03 -0.43436150982E+03  0.99534882865E+03  0.10100000352E+00 0.  1.
       -3    1    3    3    0  502 -0.70328469454E+02 -0.89280639876E+03 -0.24573713076E+03  0.92867438154E+03  0.10100000352E+00 0. -1.
</event>
<event>
 5   0  0.1036381E-05  0.1800191E+04  0.7818609E-02  0.8706198E-01
       -2   -1    0    0    0  501  0.00000000000E+00  0.00000000000E+00  0.56623592973E+03  0.56623592974E+03  0.25500000920E-02 0. -1.
        2   -1    0    0  501    0  0.00000000000E+00  0.00000000000E+00 -0.14308023309E+04  0.14308023309E+04  0.25500000920E-02 0.  1.
    10030    2    1    2    0    0  0.00000000000E+00  0.00000000000E+00 -0.86456640117E+03  0.19970382606E+04  0.18001907545E+04 0.  0.
        4    1    3    3  502    0 -0.11669152450E+02  0.79986446138E+03  0.25449958624E+02  0.80035532046E+03  0.12699999809E+01 0. -1.
       -4    1    3    3    0  502  0.11669152450E+02 -0.79986446138E+03 -0.89001635979E+03  0.11966829402E+04  0.12699999809E+01 0.  1.
</event>
<event>
 5   0  0.1036381E-05  0.1803449E+04  0.7818609E-02  0.8704468E-01
       -2   -1    0    0    0  501  0.00000000000E+00  0.00000000000E+00  0.83094947823E+03  0.83094947823E+03  0.25500000920E-02 0. -1.
        2   -1    0    0  501    0  0.00000000000E+00  0.00000000000E+00 -0.97852764645E+03  0.97852764645E+03  0.25500000920E-02 0.  1.
    10030    2    1    2    0    0  0.00000000000E+00  0.00000000000E+00 -0.14757816823E+03  0.18094771247E+04  0.18034489594E+04 0.  0.
        4    1    3    3  502    0 -0.53650633588E+03 -0.40919212025E+01 -0.80095266565E+03  0.96404490443E+03  0.12699999809E+01 0.  1.
       -4    1    3    3    0  502  0.53650633588E+03  0.40919212025E+01  0.65337449742E+03  0.84543222025E+03  0.12699999809E+01 0. -1.
</event>
<event>
 5   0  0.4981384E-06  0.1802141E+04  0.7818609E-02  0.8705162E-01
       -1   -1    0    0    0  501  0.00000000000E+00  0.00000000000E+00  0.65886818707E+03  0.65886818709E+03  0.50400001928E-02 0.  1.
        1   -1    0    0  501    0  0.00000000000E+00  0.00000000000E+00 -0.12323071821E+04  0.12323071821E+04  0.50400001928E-02 0. -1.
    10030    2    1    2    0    0  0.00000000000E+00  0.00000000000E+00 -0.57343899501E+03  0.18911753692E+04  0.18021409479E+04 0.  0.
        5    1    3    3  502    0 -0.86490750418E+02  0.58992480244E+03 -0.99568078366E+03  0.11605577260E+04  0.46999998093E+01 0. -1.
       -5    1    3    3    0  502  0.86490750418E+02 -0.58992480244E+03  0.42224178865E+03  0.73061764318E+03  0.46999998093E+01 0.  1.
</event>
<event>
 5   0  0.4987456E-06  0.1800993E+04  0.7818609E-02  0.8705772E-01
        1   -1    0    0  501    0  0.00000000000E+00  0.00000000000E+00  0.11954647450E+04  0.11954647450E+04  0.50400001928E-02 0.  1.
       -1   -1    0    0    0  501  0.00000000000E+00  0.00000000000E+00 -0.67830831116E+03  0.67830831117E+03  0.50400001928E-02 0. -1.
    10030    2    1    2    0    0  0.00000000000E+00  0.00000000000E+00  0.51715643388E+03  0.18737730562E+04  0.18009926955E+04 0.  0.
        3    1    3    3  502    0  0.34583621356E+03  0.75373009627E+03  0.62373428194E+03  0.10376686414E+04  0.10100000352E+00 0.  1.
       -3    1    3    3    0  502 -0.34583621356E+03 -0.75373009627E+03 -0.10657784805E+03  0.83610441485E+03  0.10100000352E+00 0. -1.
</event>
<event>
 5   0  0.1036381E-05  0.1813931E+04  0.7818609E-02  0.8698926E-01
        2   -1    0    0  501    0  0.00000000000E+00  0.00000000000E+00  0.10711153949E+04  0.10711153949E+04  0.25500000920E-02 0.  1.
       -2   -1    0    0    0  501  0.00000000000E+00  0.00000000000E+00 -0.76797169238E+03  0.76797169238E+03  0.25500000920E-02 0. -1.
    10030    2    1    2    0    0  0.00000000000E+00  0.00000000000E+00  0.30314370254E+03  0.18390870873E+04  0.18139308725E+04 0.  0.
        4    1    3    3  502    0  0.36666597824E+03  0.48323198030E+03  0.83518351366E+03  0.10322258478E+04  0.12699999809E+01 0.  1.
       -4    1    3    3    0  502 -0.36666597824E+03 -0.48323198030E+03 -0.53203981111E+03  0.80686123955E+03  0.12699999809E+01 0. -1.
</event>
<event>
 5   0  0.1000316E-05  0.1800658E+04  0.7818609E-02  0.8705950E-01
       -2   -1    0    0    0  501  0.00000000000E+00  0.00000000000E+00  0.11912986506E+04  0.11912986506E+04  0.25500000920E-02 0. -1.
        2   -1    0    0  501    0  0.00000000000E+00  0.00000000000E+00 -0.68042742065E+03  0.68042742066E+03  0.25500000920E-02 0.  1.
    10030    2    1    2    0    0  0.00000000000E+00  0.00000000000E+00  0.51087122992E+03  0.18717260712E+04  0.18006579554E+04 0.  0.
        5    1    3    3  502    0 -0.57176558573E+03  0.60632404272E+03  0.60950444266E+03  0.10325030196E+04  0.46999998093E+01 0. -1.
       -5    1    3    3    0  502  0.57176558573E+03 -0.60632404272E+03 -0.98633212733E+02  0.83922305167E+03  0.46999998093E+01 0.  1.
</event>
<event>
 5   0  0.4981384E-06  0.1799498E+04  0.7818609E-02  0.8706567E-01
        1   -1    0    0  501    0  0.00000000000E+00  0.00000000000E+00  0.10734940892E+04  0.10734940892E+04  0.50400001928E-02 0. -1.
       -1   -1    0    0    0  501  0.00000000000E+00  0.00000000000E+00 -0.75412422059E+03  0.75412422061E+03  0.50400001928E-02 0.  1.
    10030    2    1    2    0    0  0.00000000000E+00  0.00000000000E+00  0.31936986863E+03  0.18276183098E+04  0.17994975892E+04 0.  0.
        5    1    3    3  502    0  0.88952216949E+03 -0.95902443776E+02  0.25645683783E+03  0.93071970454E+03  0.46999998093E+01 0. -1.
       -5    1    3    3    0  502 -0.88952216949E+03  0.95902443776E+02  0.62913030797E+02  0.89689860530E+03  0.46999998093E+01 0.  1.
</event>
<event>
 5   0  0.4987456E-06  0.1800207E+04  0.7818609E-02  0.8706189E-01
       -1   -1    0    0    0  501  0.00000000000E+00  0.00000000000E+00  0.63370940416E+03  0.63370940418E+03  0.50400001928E-02 0.  1.
        1   -1    0    0  501    0  0.00000000000E+00  0.00000000000E+00 -0.12784827299E+04  0.12784827299E+04  0.50400001928E-02 0. -1.
    10030    2    1    2    0    0  0.00000000000E+00  0.00000000000E+00 -0.64477332577E+03  0.19121921341E+04  0.18002072426E+04 0.  0.
        3    1    3    3  502    0  0.35951000320E+03  0.21408684673E+03  0.52412334294E+03  0.67066080038E+03  0.10100000352E+00 0.  1.
       -3    1    3    3    0  502 -0.35951000320E+03 -0.21408684673E+03 -0.11688966687E+04  0.12415313337E+04  0.10100000352E+00 0. -1.
</event>
<event>
 5   0  0.9589963E-06  0.1801603E+04  0.7818609E-02  0.8705448E-01
        2   -1    0    0  501    0  0.00000000000E+00  0.00000000000E+00  0.80815363757E+03  0.80815363758E+03  0.25500000920E-02 0.  1.
       -2   -1    0    0    0  501  0.00000000000E+00  0.00000000000E+00 -0.10040703587E+04  0.10040703587E+04  0.25500000920E-02 0. -1.
    10030    2    1    2    0    0  0.00000000000E+00  0.00000000000E+00 -0.19591672110E+03  0.18122239963E+04  0.18016027451E+04 0.  0.
        2    1    3    3  502    0 -0.29321388279E+02  0.88729941676E+03 -0.25144598822E+03  0.92270530713E+03  0.25500000920E-02 0. -1.
       -2    1    3    3    0  502  0.29321388279E+02 -0.88729941676E+03  0.55529267116E+02  0.88951868913E+03  0.25500000920E-02 0.  1.
</event>
<event>
 5   0  0.1000316E-05  0.1789424E+04  0.7818609E-02  0.8711944E-01
        2   -1    0    0  501    0  0.00000000000E+00  0.00000000000E+00  0.43402306012E+03  0.43402306013E+03  0.25500000920E-02 0.  1.
       -2   -1    0    0    0  501  0.00000000000E+00  0.00000000000E+00 -0.18443949671E+04  0.18443949671E+04  0.25500000920E-02 0. -1.
    10030    2    1    2    0    0  0.00000000000E+00  0.00000000000E+00 -0.14103719070E+04  0.22784180272E+04  0.17894244300E+04 0.  0.
        5    1    3    3  502    0  0.19774016685E+03 -0.42146743040E+03 -0.16780097725E+04  0.17414002570E+04  0.46999998093E+01 0. -1.
       -5    1    3    3    0  502 -0.19774016685E+03  0.42146743040E+03  0.26763786553E+03  0.53701777022E+03  0.46999998093E+01 0.  1.
</event>
<event>
 5   0  0.9999162E-06  0.1799631E+04  0.7818609E-02  0.8706496E-01
        2   -1    0    0  501    0  0.00000000000E+00  0.00000000000E+00  0.13208463665E+04  0.13208463665E+04  0.25500000920E-02 0.  1.
       -2   -1    0    0    0  501  0.00000000000E+00  0.00000000000E+00 -0.61299145739E+03  0.61299145739E+03  0.25500000920E-02 0. -1.
    10030    2    1    2    0    0  0.00000000000E+00  0.00000000000E+00  0.70785490915E+03  0.19338378239E+04  0.17996305612E+04 0.  0.
        1    1    3    3  502    0  0.64041724496E+03  0.63044910809E+03  0.40278474450E+03  0.98480245530E+03  0.50400001928E-02 0. -1.
       -1    1    3    3    0  502 -0.64041724496E+03 -0.63044910809E+03  0.30507016465E+03  0.94903536863E+03  0.50400001928E-02 0.  1.
</event>
<event>
 5   0  0.1036381E-05  0.1799643E+04  0.7818609E-02  0.8706490E-01
        2   -1    0    0  501    0  0.00000000000E+00  0.00000000000E+00  0.12079143987E+04  0.12079143987E+04  0.25500000920E-02 0. -1.
       -2   -1    0    0    0  501  0.00000000000E+00  0.00000000000E+00 -0.67031101413E+03  0.67031101413E+03  0.25500000920E-02 0.  1.
    10030    2    1    2    0    0  0.00000000000E+00  0.00000000000E+00  0.53760338462E+03  0.18782254129E+04  0.17996425485E+04 0.  0.
        4    1    3    3  502    0 -0.31312042243E+02  0.81366584934E+03 -0.13086120973E+03  0.82471742280E+03  0.12699999809E+01 0. -1.
       -4    1    3    3    0  502  0.31312042243E+02 -0.81366584934E+03  0.66846459435E+03  0.10535079901E+04  0.12699999809E+01 0.  1.
</event>
<event>
 5   0  0.1000316E-05  0.1800285E+04  0.7818609E-02  0.8706148E-01
       -2   -1    0    0    0  501  0.00000000000E+00  0.00000000000E+00  0.82077714101E+03  0.82077714101E+03  0.25500000920E-02 0.  1.
        2   -1    0    0  501    0  0.00000000000E+00  0.00000000000E+00 -0.98718207201E+03  0.98718207201E+03  0.25500000920E-02 0. -1.
    10030    2    1    2    0    0  0.00000000000E+00  0.00000000000E+00 -0.16640493100E+03  0.18079592130E+04  0.18002849538E+04 0.  0.
        5    1    3    3  502    0  0.62801467828E+03  0.19103007375E+03 -0.70173335002E+03  0.96090931401E+03  0.46999998093E+01 0. -1.
       -5    1    3    3    0  502 -0.62801467828E+03 -0.19103007375E+03  0.53532841902E+03  0.84704989902E+03  0.46999998093E+01 0.  1.
</event>
<event>
 5   0  0.1035018E-05  0.1799871E+04  0.7818609E-02  0.8706368E-01
        2   -1    0    0  501    0  0.00000000000E+00  0.00000000000E+00  0.22894596713E+04  0.22894596713E+04  0.25500000920E-02 0.  1.
       -2   -1    0    0    0  501  0.00000000000E+00  0.00000000000E+00 -0.35374441062E+03  0.35374441063E+03  0.25500000920E-02 0. -1.
    10030    2    1    2    0    0  0.00000000000E+00  0.00000000000E+00  0.19357152607E+04  0.26432040820E+04  0.17998706199E+04 0.  0.
        3    1    3    3  502    0 -0.50601507908E+02 -0.10940101963E+03 -0.34183615829E+03  0.36246526042E+03  0.10100000352E+00 0. -1.
       -3    1    3    3    0  502  0.50601507908E+02  0.10940101963E+03  0.22775514190E+04  0.22807388215E+04  0.10100000352E+00 0.  1.
</event>
<event>
 5   0  0.4983159E-06  0.1799941E+04  0.7818609E-02  0.8706331E-01
       -1   -1    0    0    0  501  0.00000000000E+00  0.00000000000E+00  0.51393309395E+03  0.51393309397E+03  0.50400001928E-02 0.  1.
        1   -1    0    0  501    0  0.00000000000E+00  0.00000000000E+00 -0.15759765095E+04  0.15759765095E+04  0.50400001928E-02 0. -1.
    10030    2    1    2    0    0  0.00000000000E+00  0.00000000000E+00 -0.10620434156E+04  0.20899096035E+04  0.17999405363E+04 0.  0.
        4    1    3    3  502    0 -0.63081460816E+02 -0.51820428051E+03  0.32017564795E+03  0.61239611811E+03  0.12699999809E+01 0.  1.
       -4    1    3    3    0  502  0.63081460816E+02  0.51820428051E+03 -0.13822190635E+04  0.14775134854E+04  0.12699999809E+01 0. -1.
</event>
<event>
 5   0  0.1000316E-05  0.1799290E+04  0.7818609E-02  0.8706677E-01
        2   -1    0    0  501    0  0.00000000000E+00  0.00000000000E+00  0.39174332170E+03  0.39174332171E+03  0.25500000920E-02 0.  1.
       -2   -1    0    0    0  501  0.00000000000E+00  0.00000000000E+00 -0.20660490344E+04  0.20660490344E+04  0.25500000920E-02 0. -1.
    10030    2    1    2    0    0  0.00000000000E+00  0.00000000000E+00 -0.16743057127E+04  0.24577923561E+04  0.17992897616E+04 0.  0.
        5    1    3    3  502    0  0.58807612556E+02  0.84347844953E+03 -0.41740678731E+03  0.94295532567E+03  0.46999998093E+01 0. -1.
       -5    1    3    3    0  502 -0.58807612556E+02 -0.84347844953E+03 -0.12568989254E+04  0.15148370304E+04  0.46999998093E+01 0.  1.
</event>
<event>
 5   0  0.4981384E-06  0.1799825E+04  0.7818609E-02  0.8706393E-01
       -1   -1    0    0    0  501  0.00000000000E+00  0.00000000000E+00  0.10868736766E+04  0.10868736766E+04  0.50400001928E-02 0.  1.
        1   -1    0    0  501    0  0.00000000000E+00  0.00000000000E+00 -0.74511168907E+03  0.74511168909E+03  0.50400001928E-02 0. -1.
    10030    2    1    2    0    0  0.00000000000E+00  0.00000000000E+00  0.34176198757E+03  0.18319853657E+04  0.17998247482E+04 0.  0.
        5    1    3    3  502    0  0.64408863153E+03  0.16979180196E+03  0.78678896665E+03  0.10308920357E+04  0.46999998093E+01 0.  1.
       -5    1    3    3    0  502 -0.64408863153E+03 -0.16979180196E+03 -0.44502697908E+03  0.80109333001E+03  0.46999998093E+01 0. -1.
</event>
<event>
 5   0  0.4981384E-06  0.1799948E+04  0.7818609E-02  0.8706327E-01
       -1   -1    0    0    0  501  0.00000000000E+00  0.00000000000E+00  0.60733293815E+03  0.60733293818E+03  0.50400001928E-02 0.  1.
        1   -1    0    0  501    0  0.00000000000E+00  0.00000000000E+00 -0.13336233745E+04  0.13336233745E+04  0.50400001928E-02 0. -1.
    10030    2    1    2    0    0  0.00000000000E+00  0.00000000000E+00 -0.72629043631E+03  0.19409563127E+04  0.17999482242E+04 0.  0.
        5    1    3    3  502    0  0.73696776973E+03 -0.16402106974E+03 -0.89131934602E+03  0.11681167200E+04  0.46999998093E+01 0.  1.
       -5    1    3    3    0  502 -0.73696776973E+03  0.16402106974E+03  0.16502890971E+03  0.77283959266E+03  0.46999998093E+01 0. -1.
</event>
<event>
 5   0  0.4981384E-06  0.1798972E+04  0.7818609E-02  0.8706846E-01
       -1   -1    0    0    0  501  0.00000000000E+00  0.00000000000E+00  0.15490654309E+04  0.15490654309E+04  0.50400001928E-02 0. -1.
        1   -1    0    0  501    0  0.00000000000E+00  0.00000000000E+00 -0.52229882893E+03  0.52229882895E+03  0.50400001928E-02 0.  1.
    10030    2    1    2    0    0  0.00000000000E+00  0.00000000000E+00  0.10267666019E+04  0.20713642598E+04  0.17989719959E+04 0.  0.
        5    1    3    3  502    0  0.21057203464E+03  0.16412323956E+03 -0.47561221584E+03  0.54544118784E+03  0.46999998093E+01 0.  1.
       -5    1    3    3    0  502 -0.21057203464E+03 -0.16412323956E+03  0.15023788178E+04  0.15259230720E+04  0.46999998093E+01 0. -1.
</event>
<event>
 5   0  0.4994123E-06  0.1800545E+04  0.7818609E-02  0.8706009E-01
        1   -1    0    0  501    0  0.00000000000E+00  0.00000000000E+00  0.94069754877E+03  0.94069754878E+03  0.50400001928E-02 0.  1.
       -1   -1    0    0    0  501  0.00000000000E+00  0.00000000000E+00 -0.86158506656E+03  0.86158506658E+03  0.50400001928E-02 0. -1.
    10030    2    1    2    0    0  0.00000000000E+00  0.00000000000E+00  0.79112482205E+02  0.18022826154E+04  0.18005454287E+04 0.  0.
        1    1    3    3  502    0 -0.32608542067E+03 -0.59388607905E+03 -0.55385516199E+03  0.87509309045E+03  0.50400001928E-02 0. -1.
       -1    1    3    3    0  502  0.32608542067E+03  0.59388607905E+03  0.63296764419E+03  0.92718952490E+03  0.50400001928E-02 0.  1.
</event>
<event>
 5   0  0.1035018E-05  0.1799927E+04  0.7818609E-02  0.8706338E-01
        2   -1    0    0  501    0  0.00000000000E+00  0.00000000000E+00  0.67041899506E+03  0.67041899506E+03  0.25500000920E-02 0. -1.
       -2   -1    0    0    0  501  0.00000000000E+00  0.00000000000E+00 -0.12081017421E+04  0.12081017421E+04  0.25500000920E-02 0.  1.
    10030    2    1    2    0    0  0.00000000000E+00  0.00000000000E+00 -0.53768274702E+03  0.18785207371E+04  0.17999270606E+04 0.  0.
        3    1    3    3  502    0  0.59306917834E+03 -0.27464285661E+03 -0.91454413104E+03  0.11240777228E+04  0.10100000352E+00 0.  1.
       -3    1    3    3    0  502 -0.59306917834E+03  0.27464285661E+03  0.37686138402E+03  0.75444301438E+03  0.10100000352E+00 0. -1.
</event>
<event>
 5   0  0.3626125E-06  0.1800246E+04  0.7818609E-02  0.8706168E-01
        4   -1    0    0  501    0  0.00000000000E+00  0.00000000000E+00  0.68049537663E+03  0.68049656172E+03  0.12699999809E+01 0. -1.
       -4   -1    0    0    0  501  0.00000000000E+00  0.00000000000E+00 -0.11906326280E+04  0.11906333053E+04  0.12699999809E+01 0.  1.
    10030    2    1    2    0    0  0.00000000000E+00  0.00000000000E+00 -0.51013725134E+03  0.18711298670E+04  0.18002463620E+04 0.  0.
        1    1    3    3  502    0  0.16788390332E+03  0.11829090261E+03 -0.11659567479E+04  0.11839057735E+04  0.50400001928E-02 0.  1.
       -1    1    3    3    0  502 -0.16788390332E+03 -0.11829090261E+03  0.65581949653E+03  0.68722409350E+03  0.50400001928E-02 0. -1.
</event>
<event>
 5   0  0.4983159E-06  0.1799971E+04  0.7818609E-02  0.8706315E-01
        1   -1    0    0  501    0  0.00000000000E+00  0.00000000000E+00  0.78602880937E+03  0.78602880939E+03  0.50400001928E-02 0. -1.
       -1   -1    0    0    0  501  0.00000000000E+00  0.00000000000E+00 -0.10304630071E+04  0.10304630071E+04  0.50400001928E-02 0.  1.
    10030    2    1    2    0    0  0.00000000000E+00  0.00000000000E+00 -0.24443419769E+03  0.18164918165E+04  0.17999706782E+04 0.  0.
        4    1    3    3  502    0  0.46499170158E+03  0.65658567139E+03  0.28478346477E+03  0.85347833079E+03  0.12699999809E+01 0. -1.
       -4    1    3    3    0  502 -0.46499170158E+03 -0.65658567139E+03 -0.52921766246E+03  0.96301348567E+03  0.12699999809E+01 0.  1.
</event>
<event>
 5   0  0.9589963E-06  0.1799883E+04  0.7818609E-02  0.8706362E-01
        2   -1    0    0  501    0  0.00000000000E+00  0.00000000000E+00  0.75397313617E+03  0.75397313617E+03  0.25500000920E-02 0. -1.
       -2   -1    0    0    0  501  0.00000000000E+00  0.00000000000E+00 -0.10741689957E+04  0.10741689957E+04  0.25500000920E-02 0.  1.
    10030    2    1    2    0    0  0.00000000000E+00  0.00000000000E+00 -0.32019585950E+03  0.18281421319E+04  0.17998828478E+04 0.  0.
        2    1    3    3  502    0 -0.75676992549E+03  0.39751324074E+03  0.12570418097E+03  0.86401333196E+03  0.25500000920E-02 0. -1.
       -2    1    3    3    0  502  0.75676992549E+03 -0.39751324074E+03 -0.44590004047E+03  0.96412879989E+03  0.25500000920E-02 0.  1.
</event>
<event>
 5   0  0.9589963E-06  0.1799580E+04  0.7818609E-02  0.8706523E-01
       -2   -1    0    0    0  501  0.00000000000E+00  0.00000000000E+00  0.12789060302E+04  0.12789060302E+04  0.25500000920E-02 0.  1.
        2   -1    0    0  501    0  0.00000000000E+00  0.00000000000E+00 -0.63305804641E+03  0.63305804642E+03  0.25500000920E-02 0. -1.
    10030    2    1    2    0    0  0.00000000000E+00  0.00000000000E+00  0.64584798378E+03  0.19119640766E+04  0.17995796765E+04 0.  0.
        2    1    3    3  502    0 -0.56655927872E+03  0.14480658500E+03 -0.40364244964E+03  0.71055301739E+03  0.25500000920E-02 0. -1.
       -2    1    3    3    0  502  0.56655927872E+03 -0.14480658500E+03  0.10494904334E+04  0.12014110592E+04  0.25500000920E-02 0.  1.
</event>
<event>
 5   0  0.4994123E-06  0.1798681E+04  0.7818609E-02  0.8707001E-01
       -1   -1    0    0    0  501  0.00000000000E+00  0.00000000000E+00  0.83684401860E+03  0.83684401861E+03  0.50400001928E-02 0.  1.
        1   -1    0    0  501    0  0.00000000000E+00  0.00000000000E+00 -0.96650386265E+03  0.96650386266E+03  0.50400001928E-02 0. -1.
    10030    2    1    2    0    0  0.00000000000E+00  0.00000000000E+00 -0.12965984405E+03  0.18033478813E+04  0.17986806014E+04 0.  0.
        1    1    3    3  502    0  0.40259805616E+03 -0.66622313322E+03  0.38675477242E+03  0.86920521862E+03  0.50400001928E-02 0. -1.
       -1    1    3    3    0  502 -0.40259805616E+03  0.66622313322E+03 -0.51641461647E+03  0.93414266265E+03  0.50400001928E-02 0.  1.
</event>
<event>
 5   0  0.1000316E-05  0.1800512E+04  0.7818609E-02  0.8706027E-01
        2   -1    0    0  501    0  0.00000000000E+00  0.00000000000E+00  0.20011040917E+04  0.20011040917E+04  0.25500000920E-02 0.  1.
       -2   -1    0    0    0  501  0.00000000000E+00  0.00000000000E+00 -0.40500663386E+03  0.40500663387E+03  0.25500000920E-02 0. -1.
    10030    2    1    2    0    0  0.00000000000E+00  0.00000000000E+00  0.15960974579E+04  0.24061107256E+04  0.18005115187E+04 0.  0.
        5    1    3    3  502    0 -0.19171387540E+03 -0.11548777859E+03  0.19633159747E+04  0.19760372829E+04  0.46999998093E+01 0.  1.
       -5    1    3    3    0  502  0.19171387540E+03  0.11548777859E+03 -0.36721851681E+03  0.43007344269E+03  0.46999998093E+01 0. -1.
</event>
<event>
 5   0  0.4987456E-06  0.1800469E+04  0.7818609E-02  0.8706050E-01
       -1   -1    0    0    0  501  0.00000000000E+00  0.00000000000E+00  0.17992793800E+04  0.17992793800E+04  0.50400001928E-02 0. -1.
        1   -1    0    0  501    0  0.00000000000E+00  0.00000000000E+00 -0.45041482009E+03  0.45041482011E+03  0.50400001928E-02 0.  1.
    10030    2    1    2    0    0  0.00000000000E+00  0.00000000000E+00  0.13488645599E+04  0.22496942001E+04  0.18004689370E+04 0.  0.
        3    1    3    3  502    0 -0.27253912092E+03  0.22938121415E+01  0.17464891989E+04  0.17676276095E+04  0.10100000352E+00 0. -1.
       -3    1    3    3    0  502  0.27253912092E+03 -0.22938121415E+01 -0.39762463899E+03  0.48206659056E+03  0.10100000352E+00 0.  1.
</event>
<event>
 5   0  0.1036381E-05  0.1799804E+04  0.7818609E-02  0.8706404E-01
       -2   -1    0    0    0  501  0.00000000000E+00  0.00000000000E+00  0.92635336569E+03  0.92635336569E+03  0.25500000920E-02 0.  1.
        2   -1    0    0  501    0  0.00000000000E+00  0.00000000000E+00 -0.87420601291E+03  0.87420601291E+03  0.25500000920E-02 0. -1.
    10030    2    1    2    0    0  0.00000000000E+00  0.00000000000E+00  0.52147352784E+02  0.18005593786E+04  0.17998040809E+04 0.  0.
        4    1    3    3  502    0  0.91169892137E+02  0.38394398597E+03 -0.78302844450E+03  0.87684667496E+03  0.12699999809E+01 0. -1.
       -4    1    3    3    0  502 -0.91169892137E+02 -0.38394398597E+03  0.83517579728E+03  0.92371270364E+03  0.12699999809E+01 0.  1.
</event>
<event>
 5   0  0.3626125E-06  0.1800137E+04  0.7818609E-02  0.8706227E-01
       -4   -1    0    0    0  501  0.00000000000E+00  0.00000000000E+00  0.47543000662E+03  0.47543170287E+03  0.12699999809E+01 0.  1.
        4   -1    0    0  501    0  0.00000000000E+00  0.00000000000E+00 -0.17039745363E+04  0.17039750095E+04  0.12699999809E+01 0. -1.
    10030    2    1    2    0    0  0.00000000000E+00  0.00000000000E+00 -0.12285445297E+04  0.21794067124E+04  0.18001366495E+04 0.  0.
        1    1    3    3  502    0 -0.36629621130E+03 -0.21864542115E+03  0.34526645902E+03  0.54880566902E+03  0.50400001928E-02 0.  1.
       -1    1    3    3    0  502  0.36629621130E+03  0.21864542115E+03 -0.15738109887E+04  0.16306010434E+04  0.50400001928E-02 0. -1.
</event>
<event>
 5   0  0.4994123E-06  0.1800711E+04  0.7818609E-02  0.8705922E-01
        1   -1    0    0  501    0  0.00000000000E+00  0.00000000000E+00  0.17508777730E+04  0.17508777730E+04  0.50400001928E-02 0.  1.
       -1   -1    0    0    0  501  0.00000000000E+00  0.00000000000E+00 -0.46299047086E+03  0.46299047089E+03  0.50400001928E-02 0. -1.
    10030    2    1    2    0    0  0.00000000000E+00  0.00000000000E+00  0.12878873022E+04  0.22138682439E+04  0.18007106648E+04 0.  0.
        1    1    3    3  502    0 -0.13021489705E+03  0.61393271466E+03 -0.14975616833E+03  0.64521020413E+03  0.50400001928E-02 0. -1.
       -1    1    3    3    0  502  0.13021489705E+03 -0.61393271466E+03  0.14376434705E+04  0.15686580398E+04  0.50400001928E-02 0.  1.
</event>
<event>
 5   0  0.4994123E-06  0.1802458E+04  0.7818609E-02  0.8704994E-01
        1   -1    0    0  501    0  0.00000000000E+00  0.00000000000E+00  0.32858043922E+03  0.32858043926E+03  0.50400001928E-02 0. -1.
       -1   -1    0    0    0  501  0.00000000000E+00  0.00000000000E+00 -0.24718856573E+04  0.24718856573E+04  0.50400001928E-02 0.  1.
    10030    2    1    2    0    0  0.00000000000E+00  0.00000000000E+00 -0.21433052180E+04  0.28004660965E+04  0.18024575169E+04 0.  0.
        1    1    3    3  502    0  0.82807030563E+03 -0.27811202860E+02 -0.52071687632E+03  0.97858058400E+03  0.50400001928E-02 0. -1.
       -1    1    3    3    0  502 -0.82807030563E+03  0.27811202860E+02 -0.16225883417E+04  0.18218855125E+04  0.50400001928E-02 0.  1.
</event>
<event>
 5   0  0.4987456E-06  0.1800653E+04  0.7818609E-02  0.8705952E-01
       -1   -1    0    0    0  501  0.00000000000E+00  0.00000000000E+00  0.14733285674E+04  0.14733285674E+04  0.50400001928E-02 0. -1.
        1   -1    0    0  501    0  0.00000000000E+00  0.00000000000E+00 -0.55017433363E+03  0.55017433366E+03  0.50400001928E-02 0.  1.
    10030    2    1    2    0    0  0.00000000000E+00  0.00000000000E+00  0.92315423374E+03  0.20235029010E+04  0.18006527292E+04 0.  0.
        3    1    3    3  502    0  0.39817490323E+03  0.47639274709E+03  0.11942607374E+04  0.13460133811E+04  0.10100000352E+00 0. -1.
       -3    1    3    3    0  502 -0.39817490323E+03 -0.47639274709E+03 -0.27110650367E+03  0.67748951991E+03  0.10100000352E+00 0.  1.
</event>
<event>
 5   0  0.1036381E-05  0.1799746E+04  0.7818609E-02  0.8706435E-01
        2   -1    0    0  501    0  0.00000000000E+00  0.00000000000E+00  0.76454630503E+03  0.76454630504E+03  0.25500000920E-02 0. -1.
       -2   -1    0    0    0  501  0.00000000000E+00  0.00000000000E+00 -0.10591527790E+04  0.10591527790E+04  0.25500000920E-02 0.  1.
    10030    2    1    2    0    0  0.00000000000E+00  0.00000000000E+00 -0.29460647400E+03  0.18236990841E+04  0.17997459195E+04 0.  0.
        4    1    3    3  502    0 -0.20982690611E+03  0.50299807290E+03  0.57828228419E+03  0.79463602044E+03  0.12699999809E+01 0. -1.
       -4    1    3    3    0  502  0.20982690611E+03 -0.50299807290E+03 -0.87288875819E+03  0.10290630636E+04  0.12699999809E+01 0.  1.
</event>
<event>
 5   0  0.9999162E-06  0.1801883E+04  0.7818609E-02  0.8705299E-01
        2   -1    0    0  501    0  0.00000000000E+00  0.00000000000E+00  0.21349051623E+04  0.21349051623E+04  0.25500000920E-02 0.  1.
       -2   -1    0    0    0  501  0.00000000000E+00  0.00000000000E+00 -0.38020207945E+03  0.38020207946E+03  0.25500000920E-02 0. -1.
    10030    2    1    2    0    0  0.00000000000E+00  0.00000000000E+00  0.17547030829E+04  0.25151072418E+04  0.18018827733E+04 0.  0.
        1    1    3    3  502    0 -0.31745859597E+03  0.82735159494E+03  0.11041661846E+04  0.14157943301E+04  0.50400001928E-02 0.  1.
       -1    1    3    3    0  502  0.31745859597E+03 -0.82735159494E+03  0.65053689826E+03  0.10993129117E+04  0.50400001928E-02 0. -1.
</event>
<event>
 5   0  0.3626125E-06  0.1791013E+04  0.7818609E-02  0.8711093E-01
        4   -1    0    0  501    0  0.00000000000E+00  0.00000000000E+00  0.80270631385E+03  0.80270731851E+03  0.12699999809E+01 0.  1.
       -4   -1    0    0    0  501  0.00000000000E+00  0.00000000000E+00 -0.99903317060E+03  0.99903397783E+03  0.12699999809E+01 0. -1.
    10030    2    1    2    0    0  0.00000000000E+00  0.00000000000E+00 -0.19632685675E+03  0.18017412963E+04  0.17910129716E+04 0.  0.
        3    1    3    3  502    0 -0.67884133171E+03  0.46931089380E+03 -0.44788584791E+03  0.93897817421E+03  0.10100000352E+00 0. -1.
       -3    1    3    3    0  502  0.67884133171E+03 -0.46931089380E+03  0.25155899116E+03  0.86276312213E+03  0.10100000352E+00 0.  1.
</event>
<event>
 5   0  0.4953155E-06  0.1800564E+04  0.7818609E-02  0.8706000E-01
        1   -1    0    0  501    0  0.00000000000E+00  0.00000000000E+00  0.84484959193E+03  0.84484959195E+03  0.50400001928E-02 0.  1.
       -1   -1    0    0    0  501  0.00000000000E+00  0.00000000000E+00 -0.95935153866E+03  0.95935153867E+03  0.50400001928E-02 0. -1.
    10030    2    1    2    0    0  0.00000000000E+00  0.00000000000E+00 -0.11450194673E+03  0.18042011306E+04  0.18005640849E+04 0.  0.
        2    1    3    3  502    0  0.80735148908E+03  0.20810747370E+03 -0.39761726570E+03  0.92370159549E+03  0.25500000920E-02 0. -1.
       -2    1    3    3    0  502 -0.80735148908E+03 -0.20810747370E+03  0.28311531897E+03  0.88049953513E+03  0.25500000920E-02 0.  1.
</event>
<event>
 5   0  0.3626125E-06  0.1799240E+04  0.7818609E-02  0.8706704E-01
        3   -1    0    0  501    0  0.00000000000E+00  0.00000000000E+00  0.15907027775E+04  0.15907027807E+04  0.10100000352E+00 0.  1.
       -3   -1    0    0    0  501  0.00000000000E+00  0.00000000000E+00 -0.50877872419E+03  0.50877873422E+03  0.10100000352E+00 0. -1.
    10030    2    1    2    0    0  0.00000000000E+00  0.00000000000E+00  0.10819240533E+04  0.20994815149E+04  0.17992395545E+04 0.  0.
        2    1    3    3  502    0 -0.43175561720E+03 -0.36753572939E+03  0.13559533924E+04  0.14697295764E+04  0.25500000920E-02 0.  1.
       -2    1    3    3    0  502  0.43175561720E+03  0.36753572939E+03 -0.27402933911E+03  0.62975193851E+03  0.25500000920E-02 0. -1.
</event>
<event>
 5   0  0.1036381E-05  0.1799872E+04  0.7818609E-02  0.8706367E-01
        2   -1    0    0  501    0  0.00000000000E+00  0.00000000000E+00  0.64976936354E+03  0.64976936354E+03  0.25500000920E-02 0.  1.
       -2   -1    0    0    0  501  0.00000000000E+00  0.00000000000E+00 -0.12464190789E+04  0.12464190789E+04  0.25500000920E-02 0. -1.
    10030    2    1    2    0    0  0.00000000000E+00  0.00000000000E+00 -0.59664971533E+03  0.18961884424E+04  0.17998721417E+04 0.  0.
        4    1    3    3  502    0 -0.13254454488E+03  0.11628351431E+03  0.63139257260E+03  0.65555175670E+03  0.12699999809E+01 0.  1.
       -4    1    3    3    0  502  0.13254454488E+03 -0.11628351431E+03 -0.12280422879E+04  0.12406366857E+04  0.12699999809E+01 0. -1.
</event>
<event>
 5   0  0.4987456E-06  0.1800580E+04  0.7818609E-02  0.8705991E-01
        1   -1    0    0  501    0  0.00000000000E+00  0.00000000000E+00  0.24910695845E+04  0.24910695845E+04  0.50400001928E-02 0. -1.
       -1   -1    0    0    0  501  0.00000000000E+00  0.00000000000E+00 -0.32537117010E+03  0.32537117014E+03  0.50400001928E-02 0.  1.
    10030    2    1    2    0    0  0.00000000000E+00  0.00000000000E+00  0.21656984144E+04  0.28164407546E+04  0.18005801571E+04 0.  0.
        3    1    3    3  502    0 -0.39118657153E+03 -0.64099586424E+03  0.18596361921E+04  0.20055297078E+04  0.10100000352E+00 0. -1.
       -3    1    3    3    0  502  0.39118657153E+03  0.64099586424E+03  0.30606222226E+03  0.81091104680E+03  0.10100000352E+00 0.  1.
</event>
<event>
 5   0  0.1036381E-05  0.1800224E+04  0.7818609E-02  0.8706180E-01
       -2   -1    0    0    0  501  0.00000000000E+00  0.00000000000E+00  0.49993650399E+03  0.49993650400E+03  0.25500000920E-02 0. -1.
        2   -1    0    0  501    0  0.00000000000E+00  0.00000000000E+00 -0.16206088530E+04  0.16206088530E+04  0.25500000920E-02 0.  1.
    10030    2    1    2    0    0  0.00000000000E+00  0.00000000000E+00 -0.11206723490E+04  0.21205453570E+04  0.18002239020E+04 0.  0.
        4    1    3    3  502    0  0.44953805399E+03  0.77964877708E+03 -0.57944754841E+03  0.10703727163E+04  0.12699999809E+01 0. -1.
       -4    1    3    3    0  502 -0.44953805399E+03 -0.77964877708E+03 -0.54122480064E+03  0.10501726407E+04  0.12699999809E+01 0.  1.
</event>
<event>
 5   0  0.4987456E-06  0.1799199E+04  0.7818609E-02  0.8706726E-01
        1   -1    0    0  501    0  0.00000000000E+00  0.00000000000E+00  0.97570766067E+03  0.97570766068E+03  0.50400001928E-02 0.  1.
       -1   -1    0    0    0  501  0.00000000000E+00  0.00000000000E+00 -0.82942791965E+03  0.82942791967E+03  0.50400001928E-02 0. -1.
    10030    2    1    2    0    0  0.00000000000E+00  0.00000000000E+00  0.14627974102E+03  0.18051355803E+04  0.17991989053E+04 0.  0.
        3    1    3    3  502    0 -0.26229822685E+03  0.48792377795E+03 -0.63800721853E+03  0.84493975761E+03  0.10100000352E+00 0. -1.
       -3    1    3    3    0  502  0.26229822685E+03 -0.48792377795E+03  0.78428695955E+03  0.96019582274E+03  0.10100000352E+00 0.  1.
</event>
<event>
 5   0  0.4987456E-06  0.1800733E+04  0.7818609E-02  0.8705910E-01
       -1   -1    0    0    0  501  0.00000000000E+00  0.00000000000E+00  0.18540044179E+04  0.18540044179E+04  0.50400001928E-02 0.  1.
        1   -1    0    0  501    0  0.00000000000E+00  0.00000000000E+00 -0.43724783158E+03  0.43724783161E+03  0.50400001928E-02 0. -1.
    10030    2    1    2    0    0  0.00000000000E+00  0.00000000000E+00  0.14167565863E+04  0.22912522495E+04  0.18007325304E+04 0.  0.
        3    1    3    3  502    0 -0.18590133181E+03 -0.87515908165E+03  0.57989311091E+03  0.10661795129E+04  0.10100000352E+00 0. -1.
       -3    1    3    3    0  502  0.18590133181E+03  0.87515908165E+03  0.83686347537E+03  0.12250727366E+04  0.10100000352E+00 0.  1.
</event>
<event>
 5   0  0.1036381E-05  0.1799616E+04  0.7818609E-02  0.8706504E-01
        2   -1    0    0  501    0  0.00000000000E+00  0.00000000000E+00  0.14365837951E+04  0.14365837951E+04  0.25500000920E-02 0.  1.
       -2   -1    0    0    0  501  0.00000000000E+00  0.00000000000E+00 -0.56359698994E+03  0.56359698994E+03  0.25500000920E-02 0. -1.
    10030    2    1    2    0    0  0.00000000000E+00  0.00000000000E+00  0.87298680518E+03  0.20001807851E+04  0.17996158509E+04 0.  0.
        4    1    3    3  502    0  0.83778064271E+03 -0.11154637117E+03  0.77966603520E+03  0.11498694437E+04  0.12699999809E+01 0.  1.
       -4    1    3    3    0  502 -0.83778064271E+03  0.11154637117E+03  0.93320769971E+02  0.85031134135E+03  0.12699999809E+01 0. -1.
</event>
<event>
 5   0  0.9999162E-06  0.1800739E+04  0.7818609E-02  0.8705907E-01
       -2   -1    0    0    0  501  0.00000000000E+00  0.00000000000E+00  0.15571674003E+04  0.15571674003E+04  0.25500000920E-02 0. -1.
        2   -1    0    0  501    0  0.00000000000E+00  0.00000000000E+00 -0.52060232448E+03  0.52060232449E+03  0.25500000920E-02 0.  1.
    10030    2    1    2    0    0  0.00000000000E+00  0.00000000000E+00  0.10365650758E+04  0.20777697248E+04  0.18007387020E+04 0.  0.
        1    1    3    3  502    0  0.88492382284E+03  0.15210626267E+03  0.44141129762E+03  0.10005350674E+04  0.50400001928E-02 0.  1.
       -1    1    3    3    0  502 -0.88492382284E+03 -0.15210626267E+03  0.59515377817E+03  0.10772346574E+04  0.50400001928E-02 0. -1.
</event>
<event>
 5   0  0.9589963E-06  0.1801120E+04  0.7818609E-02  0.8705704E-01
        2   -1    0    0  501    0  0.00000000000E+00  0.00000000000E+00  0.19919548944E+04  0.19919548944E+04  0.25500000920E-02 0.  1.
       -2   -1    0    0    0  501  0.00000000000E+00  0.00000000000E+00 -0.40714173564E+03  0.40714173565E+03  0.25500000920E-02 0. -1.
    10030    2    1    2    0    0  0.00000000000E+00  0.00000000000E+00  0.15848131588E+04  0.23990966301E+04  0.18011196218E+04 0.  0.
        2    1    3    3  502    0  0.89509224704E+02 -0.87990960121E+03  0.56653420442E+03  0.10503398557E+04  0.25500000920E-02 0. -1.
       -2    1    3    3    0  502 -0.89509224704E+02  0.87990960121E+03  0.10182789543E+04  0.13487567744E+04  0.25500000920E-02 0.  1.
</event>
<event>
 5   0  0.1036381E-05  0.1799426E+04  0.7818609E-02  0.8706605E-01
        2   -1    0    0  501    0  0.00000000000E+00  0.00000000000E+00  0.28928396045E+04  0.28928396045E+04  0.25500000920E-02 0.  1.
       -2   -1    0    0    0  501  0.00000000000E+00  0.00000000000E+00 -0.27982310703E+03  0.27982310704E+03  0.25500000920E-02 0. -1.
    10030    2    1    2    0    0  0.00000000000E+00  0.00000000000E+00  0.26130164975E+04  0.31726627115E+04  0.17994258710E+04 0.  0.
        4    1    3    3  502    0  0.61295724892E+03 -0.20976279801E+03  0.20575186114E+03  0.67974440910E+03  0.12699999809E+01 0. -1.
       -4    1    3    3    0  502 -0.61295724892E+03  0.20976279801E+03  0.24072646363E+04  0.24929183024E+04  0.12699999809E+01 0.  1.
</event>
<event>
 5   0  0.4994123E-06  0.1799495E+04  0.7818609E-02  0.8706568E-01
       -1   -1    0    0    0  501  0.00000000000E+00  0.00000000000E+00  0.62198623073E+03  0.62198623075E+03  0.50400001928E-02 0.  1.
        1   -1    0    0  501    0  0.00000000000E+00  0.00000000000E+00 -0.13015484075E+04  0.13015484075E+04  0.50400001928E-02 0. -1.
    10030    2    1    2    0    0  0.00000000000E+00  0.00000000000E+00 -0.67956217676E+03  0.19235346382E+04  0.17994945825E+04 0.  0.
        1    1    3    3  502    0 -0.38143782661E+03  0.70395970737E+03  0.98989950662E+02  0.80675466874E+03  0.50400001928E-02 0.  1.
       -1    1    3    3    0  502  0.38143782661E+03 -0.70395970737E+03 -0.77855212742E+03  0.11167799695E+04  0.50400001928E-02 0. -1.
</event>
<event>
 5   0  0.4987456E-06  0.1802573E+04  0.7818609E-02  0.8704932E-01
       -1   -1    0    0    0  501  0.00000000000E+00  0.00000000000E+00  0.86658909211E+03  0.86658909212E+03  0.50400001928E-02 0. -1.
        1   -1    0    0  501    0  0.00000000000E+00  0.00000000000E+00 -0.93737342303E+03  0.93737342305E+03  0.50400001928E-02 0.  1.
    10030    2    1    2    0    0  0.00000000000E+00  0.00000000000E+00 -0.70784330924E+02  0.18039625152E+04  0.18025732536E+04 0.  0.
        3    1    3    3  502    0 -0.88464006655E+03 -0.17229774667E+03 -0.28828711570E+02  0.90172371914E+03  0.10100000352E+00 0. -1.
       -3    1    3    3    0  502  0.88464006655E+03  0.17229774667E+03 -0.41955619355E+02  0.90223879602E+03  0.10100000352E+00 0.  1.
</event>
<event>
 5   0  0.9589963E-06  0.1799676E+04  0.7818609E-02  0.8706472E-01
        2   -1    0    0  501    0  0.00000000000E+00  0.00000000000E+00  0.75125150521E+03  0.75125150521E+03  0.25500000920E-02 0. -1.
       -2   -1    0    0    0  501  0.00000000000E+00  0.00000000000E+00 -0.10778125873E+04  0.10778125873E+04  0.25500000920E-02 0.  1.
    10030    2    1    2    0    0  0.00000000000E+00  0.00000000000E+00 -0.32656108207E+03  0.18290640925E+04  0.17996758914E+04 0.  0.
        2    1    3    3  502    0  0.43456600896E+03 -0.23740666125E+03  0.60031983322E+03  0.77819884419E+03  0.25500000920E-02 0. -1.
       -2    1    3    3    0  502 -0.43456600896E+03  0.23740666125E+03 -0.92688091528E+03  0.10508652483E+04  0.25500000920E-02 0.  1.
</event>
<event>
 5   0  0.4953155E-06  0.1799982E+04  0.7818609E-02  0.8706309E-01
        1   -1    0    0  501    0  0.00000000000E+00  0.00000000000E+00  0.77577284225E+03  0.77577284227E+03  0.50400001928E-02 0. -1.
       -1   -1    0    0    0  501  0.00000000000E+00  0.00000000000E+00 -0.10440990829E+04  0.10440990829E+04  0.50400001928E-02 0.  1.
    10030    2    1    2    0    0  0.00000000000E+00  0.00000000000E+00 -0.26832624065E+03  0.18198719252E+04  0.17999819034E+04 0.  0.
        2    1    3    3  502    0  0.34524161307E+03 -0.80015000572E+03 -0.36148512192E+03  0.94345285862E+03  0.25500000920E-02 0. -1.
       -2    1    3    3    0  502 -0.34524161307E+03  0.80015000572E+03  0.93158881278E+02  0.87641906656E+03  0.25500000920E-02 0.  1.
</event>
<event>
 5   0  0.4983159E-06  0.1801051E+04  0.7818609E-02  0.8705741E-01
        1   -1    0    0  501    0  0.00000000000E+00  0.00000000000E+00  0.95958215327E+03  0.95958215328E+03  0.50400001928E-02 0. -1.
       -1   -1    0    0    0  501  0.00000000000E+00  0.00000000000E+00 -0.84510366042E+03  0.84510366043E+03  0.50400001928E-02 0.  1.
    10030    2    1    2    0    0  0.00000000000E+00  0.00000000000E+00  0.11447849285E+03  0.18046858137E+04  0.18010512377E+04 0.  0.
        4    1    3    3  502    0  0.45339202326E+03  0.14409494825E+03 -0.70890631893E+03  0.85374320659E+03  0.12699999809E+01 0.  1.
       -4    1    3    3    0  502 -0.45339202326E+03 -0.14409494825E+03  0.82338481178E+03  0.95094260712E+03  0.12699999809E+01 0. -1.
</event>
<event>
 5   0  0.4983159E-06  0.1800224E+04  0.7818609E-02  0.8706180E-01
        1   -1    0    0  501    0  0.00000000000E+00  0.00000000000E+00  0.10714583590E+04  0.10714583590E+04  0.50400001928E-02 0. -1.
       -1   -1    0    0    0  501  0.00000000000E+00  0.00000000000E+00 -0.75616739456E+03  0.75616739458E+03  0.50400001928E-02 0.  1.
    10030    2    1    2    0    0  0.00000000000E+00  0.00000000000E+00  0.31529096445E+03  0.18276257536E+04  0.18002242924E+04 0.  0.
        4    1    3    3  502    0 -0.51051095282E+03  0.41856711317E+03  0.77882511025E+03  0.10209750371E+04  0.12699999809E+01 0. -1.
       -4    1    3    3    0  502  0.51051095282E+03 -0.41856711317E+03 -0.46353414579E+03  0.80665071648E+03  0.12699999809E+01 0.  1.
</event>
<event>
 5   0  0.9589963E-06  0.1799756E+04  0.7818609E-02  0.8706429E-01
        2   -1    0    0  501    0  0.00000000000E+00  0.00000000000E+00  0.10699728335E+04  0.10699728335E+04  0.25500000920E-02 0.  1.
       -2   -1    0    0    0  501  0.00000000000E+00  0.00000000000E+00 -0.75682310378E+03  0.75682310378E+03  0.25500000920E-02 0. -1.
    10030    2    1    2    0    0  0.00000000000E+00  0.00000000000E+00  0.31314972975E+03  0.18267959373E+04  0.17997557177E+04 0.  0.
        2    1    3    3  502    0  0.20784304522E+03  0.83214229089E+03  0.43291632431E+03  0.96076847763E+03  0.25500000920E-02 0.  1.
       -2    1    3    3    0  502 -0.20784304522E+03 -0.83214229089E+03 -0.11976659456E+03  0.86602745968E+03  0.25500000920E-02 0. -1.
</event>
<event>
 5   0  0.4994123E-06  0.1799830E+04  0.7818609E-02  0.8706390E-01
        1   -1    0    0  501    0  0.00000000000E+00  0.00000000000E+00  0.66365031983E+03  0.66365031985E+03  0.50400001928E-02 0. -1.
       -1   -1    0    0    0  501  0.00000000000E+00  0.00000000000E+00 -0.12202920261E+04  0.12202920261E+04  0.50400001928E-02 0.  1.
    10030    2    1    2    0    0  0.00000000000E+00  0.00000000000E+00 -0.55664170626E+03  0.18839423459E+04  0.17998302069E+04 0.  0.
        1    1    3    3  502    0 -0.24791259573E+03 -0.86497658930E+03 -0.26344256816E+03  0.93757513933E+03  0.50400001928E-02 0. -1.
       -1    1    3    3    0  502  0.24791259573E+03  0.86497658930E+03 -0.29319913811E+03  0.94636720662E+03  0.50400001928E-02 0.  1.
</event>
<event>
 5   0  0.9589963E-06  0.1800034E+04  0.7818609E-02  0.8706281E-01
        2   -1    0    0  501    0  0.00000000000E+00  0.00000000000E+00  0.10246313574E+04  0.10246313574E+04  0.25500000920E-02 0. -1.
       -2   -1    0    0    0  501  0.00000000000E+00  0.00000000000E+00 -0.79055806752E+03  0.79055806753E+03  0.25500000920E-02 0.  1.
    10030    2    1    2    0    0  0.00000000000E+00  0.00000000000E+00  0.23407328985E+03  0.18151894249E+04  0.18000339839E+04 0.  0.
        2    1    3    3  502    0 -0.79117602367E+03 -0.37316753999E+03  0.33051949415E+03  0.93512386845E+03  0.25500000920E-02 0. -1.
       -2    1    3    3    0  502  0.79117602367E+03  0.37316753999E+03 -0.96446204298E+02  0.88006555645E+03  0.25500000920E-02 0.  1.
</event>
<event>
 5   0  0.9589963E-06  0.1799939E+04  0.7818609E-02  0.8706332E-01
        2   -1    0    0  501    0  0.00000000000E+00  0.00000000000E+00  0.84337700763E+03  0.84337700763E+03  0.25500000920E-02 0. -1.
       -2   -1    0    0    0  501  0.00000000000E+00  0.00000000000E+00 -0.96035959224E+03  0.96035959225E+03  0.25500000920E-02 0.  1.
    10030    2    1    2    0    0  0.00000000000E+00  0.00000000000E+00 -0.11698258462E+03  0.18037365999E+04  0.17999391091E+04 0.  0.
        2    1    3    3  502    0  0.12488551504E+03 -0.72342736680E+03 -0.58016779249E+03  0.93570199014E+03  0.25500000920E-02 0.  1.
       -2    1    3    3    0  502 -0.12488551504E+03  0.72342736680E+03  0.46318520788E+03  0.86803460974E+03  0.25500000920E-02 0. -1.
</event>
<event>
 5   0  0.9589963E-06  0.1799545E+04  0.7818609E-02  0.8706542E-01
        2   -1    0    0  501    0  0.00000000000E+00  0.00000000000E+00  0.16470755825E+04  0.16470755825E+04  0.25500000920E-02 0. -1.
       -2   -1    0    0    0  501  0.00000000000E+00  0.00000000000E+00 -0.49153194311E+03  0.49153194312E+03  0.25500000920E-02 0.  1.
    10030    2    1    2    0    0  0.00000000000E+00  0.00000000000E+00  0.11555436394E+04  0.21386075256E+04  0.17995446774E+04 0.  0.
        2    1    3    3  502    0  0.24646114324E+03 -0.48254046143E+03 -0.27590619105E+03  0.60803998085E+03  0.25500000920E-02 0.  1.
       -2    1    3    3    0  502 -0.24646114324E+03  0.48254046143E+03  0.14314498304E+04  0.15305675448E+04  0.25500000920E-02 0. -1.
</event>
<event>
 5   0  0.9999162E-06  0.1798900E+04  0.7818609E-02  0.8706885E-01
       -2   -1    0    0    0  501  0.00000000000E+00  0.00000000000E+00  0.17179567831E+04  0.17179567831E+04  0.25500000920E-02 0. -1.
        2   -1    0    0  501    0  0.00000000000E+00  0.00000000000E+00 -0.47091436981E+03  0.47091436982E+03  0.25500000920E-02 0.  1.
    10030    2    1    2    0    0  0.00000000000E+00  0.00000000000E+00  0.12470424132E+04  0.21888711529E+04  0.17989002594E+04 0.  0.
        1    1    3    3  502    0  0.70073626149E+03 -0.24347038120E+03  0.46325770724E+01  0.74184270266E+03  0.50400001928E-02 0.  1.
       -1    1    3    3    0  502 -0.70073626149E+03  0.24347038120E+03  0.12424098362E+04  0.14470284502E+04  0.50400001928E-02 0. -1.
</event>
<event>
 5   0  0.4953155E-06  0.1800600E+04  0.7818609E-02  0.8705980E-01
        1   -1    0    0  501    0  0.00000000000E+00  0.00000000000E+00  0.17994190563E+04  0.17994190563E+04  0.50400001928E-02 0.  1.
       -1   -1    0    0    0  501  0.00000000000E+00  0.00000000000E+00 -0.45044557673E+03  0.45044557676E+03  0.50400001928E-02 0. -1.
    10030    2    1    2    0    0  0.00000000000E+00  0.00000000000E+00  0.13489734796E+04  0.22498646331E+04  0.18006002939E+04 0.  0.
        2    1    3    3  502    0  0.26116390345E+03  0.63827494837E+03 -0.48652355118E+02  0.69135269280E+03  0.25500000920E-02 0. -1.
       -2    1    3    3    0  502 -0.26116390345E+03 -0.63827494837E+03  0.13976258347E+04  0.15585119403E+04  0.25500000920E-02 0.  1.
</event>
<event>
 5   0  0.1036381E-05  0.1799057E+04  0.7818609E-02  0.8706801E-01
        2   -1    0    0  501    0  0.00000000000E+00  0.00000000000E+00  0.19104999584E+04  0.19104999584E+04  0.25500000920E-02 0. -1.
       -2   -1    0    0    0  501  0.00000000000E+00  0.00000000000E+00 -0.42352880658E+03  0.42352880659E+03  0.25500000920E-02 0.  1.
    10030    2    1    2    0    0  0.00000000000E+00  0.00000000000E+00  0.14869711518E+04  0.23340287650E+04  0.17990572724E+04 0.  0.
        4    1    3    3  502    0 -0.54997947679E+03  0.38404607083E+03  0.15210172703E+04  0.16623669747E+04  0.12699999809E+01 0. -1.
       -4    1    3    3    0  502  0.54997947679E+03 -0.38404607083E+03 -0.34046118418E+02  0.67166179026E+03  0.12699999809E+01 0.  1.
</event>
<event>
 5   0  0.1000316E-05  0.1799898E+04  0.7818609E-02  0.8706354E-01
        2   -1    0    0  501    0  0.00000000000E+00  0.00000000000E+00  0.67625644214E+03  0.67625644215E+03  0.25500000920E-02 0. -1.
       -2   -1    0    0    0  501  0.00000000000E+00  0.00000000000E+00 -0.11976348081E+04  0.11976348081E+04  0.25500000920E-02 0.  1.
    10030    2    1    2    0    0  0.00000000000E+00  0.00000000000E+00 -0.52137836597E+03  0.18738912503E+04  0.17998980575E+04 0.  0.
        5    1    3    3  502    0  0.37480142338E+03  0.66069205386E+03 -0.76312148465E+03  0.10767388668E+04  0.46999998093E+01 0.  1.
       -5    1    3    3    0  502 -0.37480142338E+03 -0.66069205386E+03  0.24174311868E+03  0.79715238344E+03  0.46999998093E+01 0. -1.
</event>
<event>
 5   0  0.4987456E-06  0.1806747E+04  0.7818609E-02  0.8702720E-01
        1   -1    0    0  501    0  0.00000000000E+00  0.00000000000E+00  0.11414215436E+04  0.11414215436E+04  0.50400001928E-02 0. -1.
       -1   -1    0    0    0  501  0.00000000000E+00  0.00000000000E+00 -0.71497147127E+03  0.71497147128E+03  0.50400001928E-02 0.  1.
    10030    2    1    2    0    0  0.00000000000E+00  0.00000000000E+00  0.42645007233E+03  0.18563930149E+04  0.18067471770E+04 0.  0.
        3    1    3    3  502    0  0.19567820093E+02 -0.87882505526E+03 -0.74575783722E+00  0.87904319786E+03  0.10100000352E+00 0.  1.
       -3    1    3    3    0  502 -0.19567820093E+02  0.87882505526E+03  0.42719583017E+03  0.97734981703E+03  0.10100000352E+00 0. -1.
</event>
<event>
 5   0  0.1000316E-05  0.1800237E+04  0.7818609E-02  0.8706174E-01
       -2   -1    0    0    0  501  0.00000000000E+00  0.00000000000E+00  0.31218869447E+03  0.31218869448E+03  0.25500000920E-02 0. -1.
        2   -1    0    0  501    0  0.00000000000E+00  0.00000000000E+00 -0.25952665228E+04  0.25952665228E+04  0.25500000920E-02 0.  1.
    10030    2    1    2    0    0  0.00000000000E+00  0.00000000000E+00 -0.22830778283E+04  0.29074552172E+04  0.18002365040E+04 0.  0.
        5    1    3    3  502    0  0.62585094446E+03  0.58733986798E+03 -0.15794897484E+04  0.17976282932E+04  0.46999998093E+01 0.  1.
       -5    1    3    3    0  502 -0.62585094446E+03 -0.58733986798E+03 -0.70358807991E+03  0.11098269241E+04  0.46999998093E+01 0. -1.
</event>
<event>
 5   0  0.4981384E-06  0.1799728E+04  0.7818609E-02  0.8706444E-01
        1   -1    0    0  501    0  0.00000000000E+00  0.00000000000E+00  0.10209501747E+04  0.10209501747E+04  0.50400001928E-02 0.  1.
       -1   -1    0    0    0  501  0.00000000000E+00  0.00000000000E+00 -0.79313857564E+03  0.79313857565E+03  0.50400001928E-02 0. -1.
    10030    2    1    2    0    0  0.00000000000E+00  0.00000000000E+00  0.22781159909E+03  0.18140887504E+04  0.17997277210E+04 0.  0.
        5    1    3    3  502    0  0.84007608757E+03  0.21414850690E+03  0.35696364004E+03  0.93756735557E+03  0.46999998093E+01 0.  1.
       -5    1    3    3    0  502 -0.84007608757E+03 -0.21414850690E+03 -0.12915204095E+03  0.87652139483E+03  0.46999998093E+01 0. -1.
</event>
<event>
 5   0  0.1000316E-05  0.1799845E+04  0.7818609E-02  0.8706382E-01
        2   -1    0    0  501    0  0.00000000000E+00  0.00000000000E+00  0.17411095237E+04  0.17411095237E+04  0.25500000920E-02 0.  1.
       -2   -1    0    0    0  501  0.00000000000E+00  0.00000000000E+00 -0.46514071276E+03  0.46514071277E+03  0.25500000920E-02 0. -1.
    10030    2    1    2    0    0  0.00000000000E+00  0.00000000000E+00  0.12759688109E+04  0.22062502364E+04  0.17998454654E+04 0.  0.
        5    1    3    3  502    0  0.45128678287E+03 -0.30394893992E+02  0.15916339916E+04  0.16546614346E+04  0.46999998093E+01 0.  1.
       -5    1    3    3    0  502 -0.45128678287E+03  0.30394893992E+02 -0.31566518071E+03  0.55158880181E+03  0.46999998093E+01 0. -1.
</event>
<event>
 5   0  0.9589963E-06  0.1797710E+04  0.7818609E-02  0.8707518E-01
        2   -1    0    0  501    0  0.00000000000E+00  0.00000000000E+00  0.12740921711E+04  0.12740921711E+04  0.25500000920E-02 0.  1.
       -2   -1    0    0    0  501  0.00000000000E+00  0.00000000000E+00 -0.63413005997E+03  0.63413005998E+03  0.25500000920E-02 0. -1.
    10030    2    1    2    0    0  0.00000000000E+00  0.00000000000E+00  0.63996211115E+03  0.19082222311E+04  0.17977098152E+04 0.  0.
        2    1    3    3  502    0 -0.27001662743E+03 -0.85203996484E+03  0.42101121263E+03  0.98799368517E+03  0.25500000920E-02 0.  1.
       -2    1    3    3    0  502  0.27001662743E+03  0.85203996484E+03  0.21895089853E+03  0.92022854593E+03  0.25500000920E-02 0. -1.
</event>
<event>
 5   0  0.4994123E-06  0.1799771E+04  0.7818609E-02  0.8706421E-01
       -1   -1    0    0    0  501  0.00000000000E+00  0.00000000000E+00  0.10661462742E+04  0.10661462742E+04  0.50400001928E-02 0. -1.
        1   -1    0    0  501    0  0.00000000000E+00  0.00000000000E+00 -0.75955200342E+03  0.75955200343E+03  0.50400001928E-02 0.  1.
    10030    2    1    2    0    0  0.00000000000E+00  0.00000000000E+00  0.30659427075E+03  0.18256982776E+04  0.17997705837E+04 0.  0.
        1    1    3    3  502    0 -0.65041084518E+03  0.52196349685E+03 -0.18967622423E+03  0.85525272851E+03  0.50400001928E-02 0.  1.
       -1    1    3    3    0  502  0.65041084518E+03 -0.52196349685E+03  0.49627049497E+03  0.97044554910E+03  0.50400001928E-02 0. -1.
</event>
<event>
 5   0  0.4987456E-06  0.1798930E+04  0.7818609E-02  0.8706868E-01
       -1   -1    0    0    0  501  0.00000000000E+00  0.00000000000E+00  0.44766132235E+03  0.44766132238E+03  0.50400001928E-02 0.  1.
        1   -1    0    0  501    0  0.00000000000E+00  0.00000000000E+00 -0.18072540422E+04  0.18072540422E+04  0.50400001928E-02 0. -1.
    10030    2    1    2    0    0  0.00000000000E+00  0.00000000000E+00 -0.13595927199E+04  0.22549153646E+04  0.17989304983E+04 0.  0.
        3    1    3    3  502    0  0.74228142776E+03  0.21504914693E+03 -0.10291174264E+03  0.77962727669E+03  0.10100000352E+00 0.  1.
       -3    1    3    3    0  502 -0.74228142776E+03 -0.21504914693E+03 -0.12566809772E+04  0.14752880879E+04  0.10100000352E+00 0. -1.
</event>
<event>
 5   0  0.1036381E-05  0.1800635E+04  0.7818609E-02  0.8705962E-01
       -2   -1    0    0    0  501  0.00000000000E+00  0.00000000000E+00  0.71090067530E+03  0.71090067530E+03  0.25500000920E-02 0.  1.
        2   -1    0    0  501    0  0.00000000000E+00  0.00000000000E+00 -0.11402036323E+04  0.11402036323E+04  0.25500000920E-02 0. -1.
    10030    2    1    2    0    0  0.00000000000E+00  0.00000000000E+00 -0.42930295700E+03  0.18511043076E+04  0.18006349238E+04 0.  0.
        4    1    3    3  502    0  0.60263221369E+03 -0.23161472195E+03  0.43043872126E+03  0.77594463079E+03  0.12699999809E+01 0.  1.
       -4    1    3    3    0  502 -0.60263221369E+03  0.23161472195E+03 -0.85974167826E+03  0.10751596768E+04  0.12699999809E+01 0. -1.
</event>
<event>
 5   0  0.1036381E-05  0.1800620E+04  0.7818609E-02  0.8705970E-01
        2   -1    0    0  501    0  0.00000000000E+00  0.00000000000E+00  0.86670080013E+03  0.86670080013E+03  0.25500000920E-02 0. -1.
       -2   -1    0    0    0  501  0.00000000000E+00  0.00000000000E+00 -0.93522215732E+03  0.93522215732E+03  0.25500000920E-02 0.  1.
    10030    2    1    2    0    0  0.00000000000E+00  0.00000000000E+00 -0.68521357193E+02  0.18019229575E+04  0.18006196623E+04 0.  0.
        4    1    3    3  502    0  0.20752853217E+03  0.84801322020E+03 -0.25433271201E+03  0.90933011311E+03  0.12699999809E+01 0. -1.
       -4    1    3    3    0  502 -0.20752853217E+03 -0.84801322020E+03  0.18581135482E+03  0.89259284435E+03  0.12699999809E+01 0.  1.
</event>
<event>
 5   0  0.9999162E-06  0.1800825E+04  0.7818609E-02  0.8705861E-01
        2   -1    0    0  501    0  0.00000000000E+00  0.00000000000E+00  0.62924361249E+03  0.62924361249E+03  0.25500000920E-02 0. -1.
       -2   -1    0    0    0  501  0.00000000000E+00  0.00000000000E+00 -0.12884403757E+04  0.12884403757E+04  0.25500000920E-02 0.  1.
    10030    2    1    2    0    0  0.00000000000E+00  0.00000000000E+00 -0.65919676323E+03  0.19176839882E+04  0.18008252292E+04 0.  0.
        1    1    3    3  502    0 -0.15888735055E+03 -0.15786564594E+03  0.59910455689E+03  0.63960380115E+03  0.50400001928E-02 0. -1.
       -1    1    3    3    0  502  0.15888735055E+03  0.15786564594E+03 -0.12583013201E+04  0.12780801871E+04  0.50400001928E-02 0.  1.
</event>
<event>
 5   0  0.3626125E-06  0.1800130E+04  0.7818609E-02  0.8706230E-01
       -4   -1    0    0    0  501  0.00000000000E+00  0.00000000000E+00  0.78971529683E+03  0.78971631802E+03  0.12699999809E+01 0. -1.
        4   -1    0    0  501    0  0.00000000000E+00  0.00000000000E+00 -0.10258322896E+04  0.10258330758E+04  0.12699999809E+01 0.  1.
    10030    2    1    2    0    0  0.00000000000E+00  0.00000000000E+00 -0.23611699279E+03  0.18155493938E+04  0.18001300972E+04 0.  0.
        2    1    3    3  502    0 -0.36240066877E+03  0.26884037098E+03 -0.90351535409E+03  0.10099254353E+04  0.25500000920E-02 0.  1.
       -2    1    3    3    0  502  0.36240066877E+03 -0.26884037098E+03  0.66739836130E+03  0.80562395847E+03  0.25500000920E-02 0. -1.
</event>
<event>
 5   0  0.4987456E-06  0.1799872E+04  0.7818609E-02  0.8706367E-01
       -1   -1    0    0    0  501  0.00000000000E+00  0.00000000000E+00  0.11639338583E+04  0.11639338583E+04  0.50400001928E-02 0.  1.
        1   -1    0    0  501    0  0.00000000000E+00  0.00000000000E+00 -0.69581702554E+03  0.69581702556E+03  0.50400001928E-02 0. -1.
    10030    2    1    2    0    0  0.00000000000E+00  0.00000000000E+00  0.46811683271E+03  0.18597508838E+04  0.17998722124E+04 0.  0.
        3    1    3    3  502    0  0.52152684172E+03 -0.60222082185E+03 -0.19846628315E+03  0.82100489685E+03  0.10100000352E+00 0. -1.
       -3    1    3    3    0  502 -0.52152684172E+03  0.60222082185E+03  0.66658311586E+03  0.10387459870E+04  0.10100000352E+00 0.  1.
</event>
<event>
 5   0  0.4994123E-06  0.1799957E+04  0.7818609E-02  0.8706322E-01
        1   -1    0    0  501    0  0.00000000000E+00  0.00000000000E+00  0.79915400635E+03  0.79915400637E+03  0.50400001928E-02 0. -1.
       -1   -1    0    0    0  501  0.00000000000E+00  0.00000000000E+00 -0.10135234819E+04  0.10135234819E+04  0.50400001928E-02 0.  1.
    10030    2    1    2    0    0  0.00000000000E+00  0.00000000000E+00 -0.21436947558E+03  0.18126774883E+04  0.17999570563E+04 0.  0.
        1    1    3    3  502    0 -0.74254128192E+03  0.20423194565E+03 -0.57618303049E+03  0.96180306073E+03  0.50400001928E-02 0.  1.
       -1    1    3    3    0  502  0.74254128192E+03 -0.20423194565E+03  0.36181355491E+03  0.85087442759E+03  0.50400001928E-02 0. -1.
</event>
<event>
 5   0  0.9589963E-06  0.1798188E+04  0.7818609E-02  0.8707264E-01
       -2   -1    0    0    0  501  0.00000000000E+00  0.00000000000E+00  0.39017031730E+03  0.39017031731E+03  0.25500000920E-02 0.  1.
        2   -1    0    0  501    0  0.00000000000E+00  0.00000000000E+00 -0.20718389889E+04  0.20718389889E+04  0.25500000920E-02 0. -1.
    10030    2    1    2    0    0  0.00000000000E+00  0.00000000000E+00 -0.16816686716E+04  0.24620093062E+04  0.17981880610E+04 0.  0.
        2    1    3    3  502    0  0.55941684146E+03 -0.48515842020E+03 -0.15390316115E+04  0.17079063781E+04  0.25500000920E-02 0. -1.
       -2    1    3    3    0  502 -0.55941684146E+03  0.48515842020E+03 -0.14263706006E+03  0.75410292806E+03  0.25500000920E-02 0.  1.
</event>
<event>
 5   0  0.4981384E-06  0.1799836E+04  0.7818609E-02  0.8706386E-01
       -1   -1    0    0    0  501  0.00000000000E+00  0.00000000000E+00  0.41174908399E+03  0.41174908402E+03  0.50400001928E-02 0. -1.
        1   -1    0    0  501    0  0.00000000000E+00  0.00000000000E+00 -0.19668599738E+04  0.19668599738E+04  0.50400001928E-02 0.  1.
    10030    2    1    2    0    0  0.00000000000E+00  0.00000000000E+00 -0.15551108899E+04  0.23786090579E+04  0.17998364288E+04 0.  0.
        5    1    3    3  502    0 -0.14655447802E+02  0.56075423705E+03  0.15241138611E+03  0.58130148558E+03  0.46999998093E+01 0. -1.
       -5    1    3    3    0  502  0.14655447802E+02 -0.56075423705E+03 -0.17075222760E+04  0.17973075723E+04  0.46999998093E+01 0.  1.
</event>
<event>
 5   0  0.4987456E-06  0.1800554E+04  0.7818609E-02  0.8706005E-01
       -1   -1    0    0    0  501  0.00000000000E+00  0.00000000000E+00  0.68830211264E+03  0.68830211266E+03  0.50400001928E-02 0.  1.
        1   -1    0    0  501    0  0.00000000000E+00  0.00000000000E+00 -0.11775339699E+04  0.11775339699E+04  0.50400001928E-02 0. -1.
    10030    2    1    2    0    0  0.00000000000E+00  0.00000000000E+00 -0.48923185728E+03  0.18658360826E+04  0.18005544915E+04 0.  0.
        3    1    3    3  502    0  0.51195907534E+03 -0.32618486114E+03  0.44431958756E+03  0.75227559082E+03  0.10100000352E+00 0.  1.
       -3    1    3    3    0  502 -0.51195907534E+03  0.32618486114E+03 -0.93355144485E+03  0.11135604918E+04  0.10100000352E+00 0. -1.
</event>
<event>
 5   0  0.4953155E-06  0.1800752E+04  0.7818609E-02  0.8705900E-01
        1   -1    0    0  501    0  0.00000000000E+00  0.00000000000E+00  0.56967339370E+03  0.56967339372E+03  0.50400001928E-02 0.  1.
       -1   -1    0    0    0  501  0.00000000000E+00  0.00000000000E+00 -0.14230560805E+04  0.14230560805E+04  0.50400001928E-02 0. -1.
    10030    2    1    2    0    0  0.00000000000E+00  0.00000000000E+00 -0.85338268680E+03  0.19927294742E+04  0.18007522726E+04 0.  0.
        2    1    3    3  502    0  0.67850399878E+03  0.14163021453E+03 -0.10626311996E+04  0.12687047964E+04  0.25500000920E-02 0. -1.
       -2    1    3    3    0  502 -0.67850399878E+03 -0.14163021453E+03  0.20924851277E+03  0.72402467785E+03  0.25500000920E-02 0.  1.
</event>
<event>
 5   0  0.9589963E-06  0.1799141E+04  0.7818609E-02  0.8706757E-01
       -2   -1    0    0    0  501  0.00000000000E+00  0.00000000000E+00  0.90527148650E+03  0.90527148650E+03  0.25500000920E-02 0. -1.
        2   -1    0    0  501    0  0.00000000000E+00  0.00000000000E+00 -0.89390504867E+03  0.89390504867E+03  0.25500000920E-02 0.  1.
    10030    2    1    2    0    0  0.00000000000E+00  0.00000000000E+00  0.11366437831E+02  0.17991765352E+04  0.17991406306E+04 0.  0.
        2    1    3    3  502    0  0.47186381297E+03 -0.74921591363E+03 -0.15321239665E+03  0.89858443216E+03  0.25500000920E-02 0. -1.
       -2    1    3    3    0  502 -0.47186381297E+03  0.74921591363E+03  0.16457883449E+03  0.90059210301E+03  0.25500000920E-02 0.  1.
</event>
<event>
 5   0  0.1035018E-05  0.1800055E+04  0.7818609E-02  0.8706270E-01
        2   -1    0    0  501    0  0.00000000000E+00  0.00000000000E+00  0.14712991058E+04  0.14712991058E+04  0.25500000920E-02 0. -1.
       -2   -1    0    0    0  501  0.00000000000E+00  0.00000000000E+00 -0.55056775572E+03  0.55056775573E+03  0.25500000920E-02 0.  1.
    10030    2    1    2    0    0  0.00000000000E+00  0.00000000000E+00  0.92073135004E+03  0.20218668615E+04  0.18000553843E+04 0.  0.
        3    1    3    3  502    0  0.14137319387E+03  0.55541239858E+03  0.12398387964E+04  0.13658951510E+04  0.10100000352E+00 0. -1.
       -3    1    3    3    0  502 -0.14137319387E+03 -0.55541239858E+03 -0.31910744631E+03  0.65597171047E+03  0.10100000352E+00 0.  1.
</event>
<event>
 5   0  0.4981384E-06  0.1797877E+04  0.7818609E-02  0.8707429E-01
        1   -1    0    0  501    0  0.00000000000E+00  0.00000000000E+00  0.64633628744E+03  0.64633628746E+03  0.50400001928E-02 0. -1.
       -1   -1    0    0    0  501  0.00000000000E+00  0.00000000000E+00 -0.12502635291E+04  0.12502635291E+04  0.50400001928E-02 0.  1.
    10030    2    1    2    0    0  0.00000000000E+00  0.00000000000E+00 -0.60392724165E+03  0.18965998166E+04  0.17978772903E+04 0.  0.
        5    1    3    3  502    0  0.58137977280E+03 -0.68547141418E+03 -0.28722889958E+03  0.94360798567E+03  0.46999998093E+01 0.  1.
       -5    1    3    3    0  502 -0.58137977280E+03  0.68547141418E+03 -0.31669834207E+03  0.95299183089E+03  0.46999998093E+01 0. -1.
</event>
<event>
 5   0  0.4994123E-06  0.1800118E+04  0.7818609E-02  0.8706237E-01
        1   -1    0    0  501    0  0.00000000000E+00  0.00000000000E+00  0.56275215197E+03  0.56275215199E+03  0.50400001928E-02 0. -1.
       -1   -1    0    0    0  501  0.00000000000E+00  0.00000000000E+00 -0.14395436541E+04  0.14395436542E+04  0.50400001928E-02 0.  1.
    10030    2    1    2    0    0  0.00000000000E+00  0.00000000000E+00 -0.87679150217E+03  0.20022958061E+04  0.18001180953E+04 0.  0.
        1    1    3    3  502    0  0.39021911513E+03  0.59548343118E+03 -0.10509108106E+04  0.12693640165E+04  0.50400001928E-02 0.  1.
       -1    1    3    3    0  502 -0.39021911513E+03 -0.59548343118E+03  0.17411930844E+03  0.73293178960E+03  0.50400001928E-02 0. -1.
</event>
<event>
 5   0  0.4987456E-06  0.1799963E+04  0.7818609E-02  0.8706319E-01
       -1   -1    0    0    0  501  0.00000000000E+00  0.00000000000E+00  0.72672217126E+03  0.72672217128E+03  0.50400001928E-02 0. -1.
        1   -1    0    0  501    0  0.00000000000E+00  0.00000000000E+00 -0.11145478042E+04  0.11145478042E+04  0.50400001928E-02 0.  1.
    10030    2    1    2    0    0  0.00000000000E+00  0.00000000000E+00 -0.38782563297E+03  0.18412699755E+04  0.17999628888E+04 0.  0.
        3    1    3    3  502    0  0.13366616330E+03 -0.55644870177E+03  0.51662423945E+03  0.77097497748E+03  0.10100000352E+00 0. -1.
       -3    1    3    3    0  502 -0.13366616330E+03  0.55644870177E+03 -0.90444987242E+03  0.10702949980E+04  0.10100000352E+00 0.  1.
</event>
<event>
 5   0  0.1000316E-05  0.1800213E+04  0.7818609E-02  0.8706186E-01
       -2   -1    0    0    0  501  0.00000000000E+00  0.00000000000E+00  0.10632369946E+04  0.10632369946E+04  0.25500000920E-02 0.  1.
        2   -1    0    0  501    0  0.00000000000E+00  0.00000000000E+00 -0.76200449082E+03  0.76200449082E+03  0.25500000920E-02 0. -1.
    10030    2    1    2    0    0  0.00000000000E+00  0.00000000000E+00  0.30123250375E+03  0.18252414854E+04  0.18002126149E+04 0.  0.
        5    1    3    3  502    0  0.49280498693E+02  0.53625164359E+03 -0.58064273953E+03  0.79193590256E+03  0.46999998093E+01 0. -1.
       -5    1    3    3    0  502 -0.49280498693E+02 -0.53625164359E+03  0.88187524328E+03  0.10333055828E+04  0.46999998093E+01 0.  1.
</event>
<event>
 5   0  0.3626125E-06  0.1799534E+04  0.7818609E-02  0.8706547E-01
        3   -1    0    0  501    0  0.00000000000E+00  0.00000000000E+00  0.58479628192E+03  0.58479629064E+03  0.10100000352E+00 0. -1.
       -3   -1    0    0    0  501  0.00000000000E+00  0.00000000000E+00 -0.13843805038E+04  0.13843805075E+04  0.10100000352E+00 0.  1.
    10030    2    1    2    0    0  0.00000000000E+00  0.00000000000E+00 -0.79958422190E+03  0.19691767981E+04  0.17995339214E+04 0.  0.
        1    1    3    3  502    0 -0.65996964367E+03 -0.18343081617E+02  0.26913227887E+03  0.71297165636E+03  0.50400001928E-02 0. -1.
       -1    1    3    3    0  502  0.65996964367E+03  0.18343081617E+02 -0.10687165008E+04  0.12562051418E+04  0.50400001928E-02 0.  1.
</event>
<event>
 5   0  0.9589963E-06  0.1799980E+04  0.7818609E-02  0.8706310E-01
       -2   -1    0    0    0  501  0.00000000000E+00  0.00000000000E+00  0.84442882375E+03  0.84442882375E+03  0.25500000920E-02 0.  1.
        2   -1    0    0  501    0  0.00000000000E+00  0.00000000000E+00 -0.95920692391E+03  0.95920692391E+03  0.25500000920E-02 0. -1.
    10030    2    1    2    0    0  0.00000000000E+00  0.00000000000E+00 -0.11477810016E+03  0.18036357477E+04  0.17999799715E+04 0.  0.
        2    1    3    3  502    0 -0.50095392575E+03  0.61921961466E+03  0.36250164862E+03  0.87509725869E+03  0.25500000920E-02 0.  1.
       -2    1    3    3    0  502  0.50095392575E+03 -0.61921961466E+03 -0.47727974878E+03  0.92853848898E+03  0.25500000920E-02 0. -1.
</event>
<event>
 5   0  0.9589963E-06  0.1799851E+04  0.7818609E-02  0.8706379E-01
       -2   -1    0    0    0  501  0.00000000000E+00  0.00000000000E+00  0.41908568389E+03  0.41908568390E+03  0.25500000920E-02 0. -1.
        2   -1    0    0  501    0  0.00000000000E+00  0.00000000000E+00 -0.19324581898E+04  0.19324581898E+04  0.25500000920E-02 0.  1.
    10030    2    1    2    0    0  0.00000000000E+00  0.00000000000E+00 -0.15133725059E+04  0.23515438737E+04  0.17998506183E+04 0.  0.
        2    1    3    3  502    0 -0.17447425852E+03 -0.72394389154E+03 -0.14168735343E+04  0.16006456938E+04  0.25500000920E-02 0.  1.
       -2    1    3    3    0  502  0.17447425852E+03  0.72394389154E+03 -0.96498971612E+02  0.75089817986E+03  0.25500000920E-02 0. -1.
</event>
<event>
 5   0  0.1000316E-05  0.1800359E+04  0.7818609E-02  0.8706109E-01
        2   -1    0    0  501    0  0.00000000000E+00  0.00000000000E+00  0.10765119759E+04  0.10765119759E+04  0.25500000920E-02 0.  1.
       -2   -1    0    0    0  501  0.00000000000E+00  0.00000000000E+00 -0.75272992972E+03  0.75272992972E+03  0.25500000920E-02 0. -1.
    10030    2    1    2    0    0  0.00000000000E+00  0.00000000000E+00  0.32378204619E+03  0.18292419056E+04  0.18003586131E+04 0.  0.
        5    1    3    3  502    0  0.75234151562E+03 -0.25647423836E+03  0.59116640107E+03  0.99060415647E+03  0.46999998093E+01 0.  1.
       -5    1    3    3    0  502 -0.75234151562E+03  0.25647423836E+03 -0.26738435488E+03  0.83863774915E+03  0.46999998093E+01 0. -1.
</event>
<event>
 5   0  0.9999162E-06  0.1799740E+04  0.7818609E-02  0.8706438E-01
       -2   -1    0    0    0  501  0.00000000000E+00  0.00000000000E+00  0.48721706731E+03  0.48721706732E+03  0.25500000920E-02 0.  1.
        2   -1    0    0  501    0  0.00000000000E+00  0.00000000000E+00 -0.16620231277E+04  0.16620231277E+04  0.25500000920E-02 0. -1.
    10030    2    1    2    0    0  0.00000000000E+00  0.00000000000E+00 -0.11748060604E+04  0.21492401950E+04  0.17997400191E+04 0.  0.
        1    1    3    3  502    0  0.11850521898E+03  0.59863380326E+03  0.20235630622E+03  0.64292611708E+03  0.50400001928E-02 0.  1.
       -1    1    3    3    0  502 -0.11850521898E+03 -0.59863380326E+03 -0.13771623666E+04  0.15063140779E+04  0.50400001928E-02 0. -1.
</event>
<event>
 5   0  0.9589963E-06  0.1799065E+04  0.7818609E-02  0.8706797E-01
        2   -1    0    0  501    0  0.00000000000E+00  0.00000000000E+00  0.18257343428E+04  0.18257343428E+04  0.25500000920E-02 0.  1.
       -2   -1    0    0    0  501  0.00000000000E+00  0.00000000000E+00 -0.44319643503E+03  0.44319643504E+03  0.25500000920E-02 0. -1.
    10030    2    1    2    0    0  0.00000000000E+00  0.00000000000E+00  0.13825379078E+04  0.22689307779E+04  0.17990652596E+04 0.  0.
        2    1    3    3  502    0  0.20324509891E+03  0.21040316151E+03 -0.38152884480E+03  0.48077262820E+03  0.25500000920E-02 0. -1.
       -2    1    3    3    0  502 -0.20324509891E+03 -0.21040316151E+03  0.17640667526E+04  0.17881581497E+04  0.25500000920E-02 0.  1.
</event>
<event>
 5   0  0.9999162E-06  0.1799503E+04  0.7818609E-02  0.8706564E-01
        2   -1    0    0  501    0  0.00000000000E+00  0.00000000000E+00  0.14100073943E+04  0.14100073943E+04  0.25500000920E-02 0. -1.
       -2   -1    0    0    0  501  0.00000000000E+00  0.00000000000E+00 -0.57414792793E+03  0.57414792793E+03  0.25500000920E-02 0.  1.
    10030    2    1    2    0    0  0.00000000000E+00  0.00000000000E+00  0.83585946635E+03  0.19841553222E+04  0.17995030689E+04 0.  0.
        1    1    3    3  502    0 -0.66593878645E+03 -0.13359082183E+03 -0.23273507613E+03  0.71797394846E+03  0.50400001928E-02 0.  1.
       -1    1    3    3    0  502  0.66593878645E+03  0.13359082183E+03  0.10685945425E+04  0.12661813737E+04  0.50400001928E-02 0. -1.
</event>
<event>
 5   0  0.4983159E-06  0.1799460E+04  0.7818609E-02  0.8706587E-01
       -1   -1    0    0    0  501  0.00000000000E+00  0.00000000000E+00  0.77127026622E+03  0.77127026624E+03  0.50400001928E-02 0.  1.
        1   -1    0    0  501    0  0.00000000000E+00  0.00000000000E+00 -0.10495850932E+04  0.10495850932E+04  0.50400001928E-02 0. -1.
    10030    2    1    2    0    0  0.00000000000E+00  0.00000000000E+00 -0.27831482695E+03  0.18208553594E+04  0.17994596681E+04 0.  0.
        4    1    3    3  502    0 -0.38855860759E+03 -0.74368438263E+03 -0.46777704116E+03  0.96065666376E+03  0.12699999809E+01 0. -1.
       -4    1    3    3    0  502  0.38855860759E+03  0.74368438263E+03  0.18946221421E+03  0.86019869566E+03  0.12699999809E+01 0.  1.
</event>
<event>
 5   0  0.4983159E-06  0.1799901E+04  0.7818609E-02  0.8706352E-01
        1   -1    0    0  501    0  0.00000000000E+00  0.00000000000E+00  0.14152552107E+04  0.14152552107E+04  0.50400001928E-02 0.  1.
       -1   -1    0    0    0  501  0.00000000000E+00  0.00000000000E+00 -0.57227173736E+03  0.57227173738E+03  0.50400001928E-02 0. -1.
    10030    2    1    2    0    0  0.00000000000E+00  0.00000000000E+00  0.84298347335E+03  0.19875269481E+04  0.17999006176E+04 0.  0.
        4    1    3    3  502    0  0.80541001202E+03  0.33910873863E+03  0.18406950671E+03  0.89306395083E+03  0.12699999809E+01 0. -1.
       -4    1    3    3    0  502 -0.80541001202E+03 -0.33910873863E+03  0.65891396664E+03  0.10944629973E+04  0.12699999809E+01 0.  1.
</event>
<event>
 5   0  0.4983159E-06  0.1799749E+04  0.7818609E-02  0.8706433E-01
        1   -1    0    0  501    0  0.00000000000E+00  0.00000000000E+00  0.10567390192E+04  0.10567390192E+04  0.50400001928E-02 0. -1.
       -1   -1    0    0    0  501  0.00000000000E+00  0.00000000000E+00 -0.76629488886E+03  0.76629488887E+03  0.50400001928E-02 0.  1.
    10030    2    1    2    0    0  0.00000000000E+00  0.00000000000E+00  0.29044413036E+03  0.18230339081E+04  0.17997485483E+04 0.  0.
        4    1    3    3  502    0  0.52935371978E+03  0.39609881827E+03  0.76358114034E+03  0.10100333684E+04  0.12699999809E+01 0. -1.
       -4    1    3    3    0  502 -0.52935371978E+03 -0.39609881827E+03 -0.47313700997E+03  0.81300053972E+03  0.12699999809E+01 0.  1.
</event>
<event>
 5   0  0.1036381E-05  0.1798565E+04  0.7818609E-02  0.8707063E-01
        2   -1    0    0  501    0  0.00000000000E+00  0.00000000000E+00  0.20553238268E+04  0.20553238268E+04  0.25500000920E-02 0. -1.
       -2   -1    0    0    0  501  0.00000000000E+00  0.00000000000E+00 -0.39347055985E+03  0.39347055986E+03  0.25500000920E-02 0.  1.
    10030    2    1    2    0    0  0.00000000000E+00  0.00000000000E+00  0.16618532669E+04  0.24487943866E+04  0.17985654470E+04 0.  0.
        4    1    3    3  502    0  0.36278962086E+03 -0.68081238175E+03  0.14601610405E+04  0.16514217164E+04  0.12699999809E+01 0. -1.
       -4    1    3    3    0  502 -0.36278962086E+03  0.68081238175E+03  0.20169222636E+03  0.79737267022E+03  0.12699999809E+01 0.  1.
</event>
<event>
 5   0  0.4981384E-06  0.1800092E+04  0.7818609E-02  0.8706250E-01
       -1   -1    0    0    0  501  0.00000000000E+00  0.00000000000E+00  0.61781875216E+03  0.61781875218E+03  0.50400001928E-02 0. -1.
        1   -1    0    0  501    0  0.00000000000E+00  0.00000000000E+00 -0.13111986849E+04  0.13111986849E+04  0.50400001928E-02 0.  1.
    10030    2    1    2    0    0  0.00000000000E+00  0.00000000000E+00 -0.69337993276E+03  0.19290174371E+04  0.18000923703E+04 0.  0.
        5    1    3    3  502    0 -0.17604705544E+03 -0.71743357192E+03 -0.89767172517E+03  0.11625575736E+04  0.46999998093E+01 0.  1.
       -5    1    3    3    0  502  0.17604705544E+03  0.71743357192E+03  0.20429179241E+03  0.76645986346E+03  0.46999998093E+01 0. -1.
</event>
<event>
 5   0  0.4953155E-06  0.1801545E+04  0.7818609E-02  0.8705478E-01
       -1   -1    0    0    0  501  0.00000000000E+00  0.00000000000E+00  0.88002190356E+03  0.88002190357E+03  0.50400001928E-02 0. -1.
        1   -1    0    0  501    0  0.00000000000E+00  0.00000000000E+00 -0.92201252533E+03  0.92201252534E+03  0.50400001928E-02 0.  1.
    10030    2    1    2    0    0  0.00000000000E+00  0.00000000000E+00 -0.41990621770E+02  0.18020344289E+04  0.18015451342E+04 0.  0.
        2    1    3    3  502    0 -0.22138290800E+03 -0.64813368706E+03 -0.60622134589E+03  0.91465402666E+03  0.25500000920E-02 0.  1.
       -2    1    3    3    0  502  0.22138290800E+03  0.64813368706E+03  0.56423072412E+03  0.88738040226E+03  0.25500000920E-02 0. -1.
</event>
<event>
 5   0  0.4983159E-06  0.1799643E+04  0.7818609E-02  0.8706489E-01
        1   -1    0    0  501    0  0.00000000000E+00  0.00000000000E+00  0.11518433721E+04  0.11518433722E+04  0.50400001928E-02 0. -1.
       -1   -1    0    0    0  501  0.00000000000E+00  0.00000000000E+00 -0.70294177211E+03  0.70294177212E+03  0.50400001928E-02 0.  1.
    10030    2    1    2    0    0  0.00000000000E+00  0.00000000000E+00  0.44890160004E+03  0.18547851443E+04  0.17996430993E+04 0.  0.
        4    1    3    3  502    0  0.43051149559E+03 -0.74990229520E+03  0.48104429967E+03  0.98949423006E+03  0.12699999809E+01 0.  1.
       -4    1    3    3    0  502 -0.43051149559E+03  0.74990229520E+03 -0.32142699634E+02  0.86529091422E+03  0.12699999809E+01 0. -1.
</event>
<event>
 5   0  0.4983159E-06  0.1800212E+04  0.7818609E-02  0.8706187E-01
        1   -1    0    0  501    0  0.00000000000E+00  0.00000000000E+00  0.19558294239E+04  0.19558294239E+04  0.50400001928E-02 0. -1.
       -1   -1    0    0    0  501  0.00000000000E+00  0.00000000000E+00 -0.41424429268E+03  0.41424429271E+03  0.50400001928E-02 0.  1.
    10030    2    1    2    0    0  0.00000000000E+00  0.00000000000E+00  0.15415851312E+04  0.23700737166E+04  0.18002124056E+04 0.  0.
        4    1    3    3  502    0  0.35492182830E+03 -0.63618279198E+03  0.14668136847E+04  0.16377551854E+04  0.12699999809E+01 0. -1.
       -4    1    3    3    0  502 -0.35492182830E+03  0.63618279198E+03  0.74771446586E+02  0.73231853120E+03  0.12699999809E+01 0.  1.
</event>
<event>
 5   0  0.1035018E-05  0.1800191E+04  0.7818609E-02  0.8706198E-01
       -2   -1    0    0    0  501  0.00000000000E+00  0.00000000000E+00  0.62047421356E+03  0.62047421356E+03  0.25500000920E-02 0.  1.
        2   -1    0    0  501    0  0.00000000000E+00  0.00000000000E+00 -0.13057300123E+04  0.13057300123E+04  0.25500000920E-02 0. -1.
    10030    2    1    2    0    0  0.00000000000E+00  0.00000000000E+00 -0.68525579879E+03  0.19262042259E+04  0.18001908816E+04 0.  0.
        3    1    3    3  502    0  0.57361228917E+03 -0.69188173901E+03 -0.28976953962E+03  0.94429751422E+03  0.10100000352E+00 0.  1.
       -3    1    3    3    0  502 -0.57361228917E+03  0.69188173901E+03 -0.39548625917E+03  0.98190671169E+03  0.10100000352E+00 0. -1.
</event>
<event>
 5   0  0.4953155E-06  0.1800711E+04  0.7818609E-02  0.8705921E-01
       -1   -1    0    0    0  501  0.00000000000E+00  0.00000000000E+00  0.64211212635E+03  0.64211212637E+03  0.50400001928E-02 0.  1.
        1   -1    0    0  501    0  0.00000000000E+00  0.00000000000E+00 -0.12624587643E+04  0.12624587643E+04  0.50400001928E-02 0. -1.
    10030    2    1    2    0    0  0.00000000000E+00  0.00000000000E+00 -0.62034663794E+03  0.19045708907E+04  0.18007110613E+04 0.  0.
        2    1    3    3  502    0  0.53867366957E+03  0.35962102025E+03 -0.97166008245E+03  0.11677413739E+04  0.25500000920E-02 0. -1.
       -2    1    3    3    0  502 -0.53867366957E+03 -0.35962102025E+03  0.35131344451E+03  0.73682951678E+03  0.25500000920E-02 0.  1.
</event>
<event>
 5   0  0.1035018E-05  0.1800012E+04  0.7818609E-02  0.8706293E-01
        2   -1    0    0  501    0  0.00000000000E+00  0.00000000000E+00  0.11535685023E+04  0.11535685024E+04  0.25500000920E-02 0.  1.
       -2   -1    0    0    0  501  0.00000000000E+00  0.00000000000E+00 -0.70217847504E+03  0.70217847505E+03  0.25500000920E-02 0. -1.
    10030    2    1    2    0    0  0.00000000000E+00  0.00000000000E+00  0.45139002730E+03  0.18557469774E+04  0.18000121909E+04 0.  0.
        3    1    3    3  502    0 -0.80865368904E+02 -0.53673094623E+03  0.96583182102E+03  0.11079036209E+04  0.10100000352E+00 0.  1.
       -3    1    3    3    0  502  0.80865368904E+02  0.53673094623E+03 -0.51444179372E+03  0.74784335649E+03  0.10100000352E+00 0. -1.
</event>
<event>
 5   0  0.4981384E-06  0.1799462E+04  0.7818609E-02  0.8706586E-01
       -1   -1    0    0    0  501  0.00000000000E+00  0.00000000000E+00  0.56948738332E+03  0.56948738334E+03  0.50400001928E-02 0.  1.
        1   -1    0    0  501    0  0.00000000000E+00  0.00000000000E+00 -0.14214819798E+04  0.14214819798E+04  0.50400001928E-02 0. -1.
    10030    2    1    2    0    0  0.00000000000E+00  0.00000000000E+00 -0.85199459649E+03  0.19909693632E+04  0.17994622009E+04 0.  0.
        5    1    3    3  502    0 -0.75293956288E+03  0.45684907535E+03 -0.62960619398E+03  0.10826149419E+04  0.46999998093E+01 0. -1.
       -5    1    3    3    0  502  0.75293956288E+03 -0.45684907535E+03 -0.22238840251E+03  0.90835442122E+03  0.46999998093E+01 0.  1.
</event>
<event>
 5   0  0.1035018E-05  0.1800314E+04  0.7818609E-02  0.8706132E-01
       -2   -1    0    0    0  501  0.00000000000E+00  0.00000000000E+00  0.10964047963E+04  0.10964047963E+04  0.25500000920E-02 0.  1.
        2   -1    0    0  501    0  0.00000000000E+00  0.00000000000E+00 -0.73903641421E+03  0.73903641422E+03  0.25500000920E-02 0. -1.
    10030    2    1    2    0    0  0.00000000000E+00  0.00000000000E+00  0.35736838207E+03  0.18354412105E+04  0.18003144938E+04 0.  0.
        3    1    3    3  502    0 -0.19204283070E+02 -0.89991026387E+03  0.16980966941E+03  0.91599269732E+03  0.10100000352E+00 0. -1.
       -3    1    3    3    0  502  0.19204283070E+02  0.89991026387E+03  0.18755871266E+03  0.91944851319E+03  0.10100000352E+00 0.  1.
</event>
<event>
 5   0  0.4987456E-06  0.1800168E+04  0.7818609E-02  0.8706210E-01
        1   -1    0    0  501    0  0.00000000000E+00  0.00000000000E+00  0.11928716259E+04  0.11928716259E+04  0.50400001928E-02 0.  1.
       -1   -1    0    0    0  501  0.00000000000E+00  0.00000000000E+00 -0.67916063356E+03  0.67916063358E+03  0.50400001928E-02 0. -1.
    10030    2    1    2    0    0  0.00000000000E+00  0.00000000000E+00  0.51371099233E+03  0.18720322595E+04  0.18001682690E+04 0.  0.
        3    1    3    3  502    0 -0.35851168497E+03 -0.50991528778E+02  0.11137783491E+04  0.11711673601E+04  0.10100000352E+00 0.  1.
       -3    1    3    3    0  502  0.35851168497E+03  0.50991528778E+02 -0.60006735678E+03  0.70086489935E+03  0.10100000352E+00 0. -1.
</event>
<event>
 5   0  0.4981384E-06  0.1799210E+04  0.7818609E-02  0.8706720E-01
        1   -1    0    0  501    0  0.00000000000E+00  0.00000000000E+00  0.14803155783E+04  0.14803155783E+04  0.50400001928E-02 0.  1.
       -1   -1    0    0    0  501  0.00000000000E+00  0.00000000000E+00 -0.54670038905E+03  0.54670038907E+03  0.50400001928E-02 0. -1.
    10030    2    1    2    0    0  0.00000000000E+00  0.00000000000E+00  0.93361518923E+03  0.20270159674E+04  0.17992099406E+04 0.  0.
        5    1    3    3  502    0  0.54273153972E+03  0.23599189173E+03  0.12300981035E+04  0.13650689109E+04  0.46999998093E+01 0.  1.
       -5    1    3    3    0  502 -0.54273153972E+03 -0.23599189173E+03 -0.29648291426E+03  0.66194705651E+03  0.46999998093E+01 0. -1.
</event>
<event>
 5   0  0.1000316E-05  0.1800441E+04  0.7818609E-02  0.8706065E-01
       -2   -1    0    0    0  501  0.00000000000E+00  0.00000000000E+00  0.16127958017E+04  0.16127958017E+04  0.25500000920E-02 0.  1.
        2   -1    0    0  501    0  0.00000000000E+00  0.00000000000E+00 -0.50247962945E+03  0.50247962945E+03  0.25500000920E-02 0. -1.
    10030    2    1    2    0    0  0.00000000000E+00  0.00000000000E+00  0.11103161723E+04  0.21152754312E+04  0.18004410980E+04 0.  0.
        5    1    3    3  502    0  0.48246297433E+03 -0.72002548757E+03  0.84093716600E+03  0.12076442487E+04  0.46999998093E+01 0.  1.
       -5    1    3    3    0  502 -0.48246297433E+03  0.72002548757E+03  0.26937900630E+03  0.90763118246E+03  0.46999998093E+01 0. -1.
</event>
<event>
 5   0  0.4987456E-06  0.1799508E+04  0.7818609E-02  0.8706561E-01
       -1   -1    0    0    0  501  0.00000000000E+00  0.00000000000E+00  0.10917578966E+04  0.10917578966E+04  0.50400001928E-02 0. -1.
        1   -1    0    0  501    0  0.00000000000E+00  0.00000000000E+00 -0.74151680496E+03  0.74151680497E+03  0.50400001928E-02 0.  1.
    10030    2    1    2    0    0  0.00000000000E+00  0.00000000000E+00  0.35024109168E+03  0.18332747016E+04  0.17995075185E+04 0.  0.
        3    1    3    3  502    0 -0.65957543086E+03  0.45481706824E+03 -0.24202409779E+03  0.83694324101E+03  0.10100000352E+00 0.  1.
       -3    1    3    3    0  502  0.65957543086E+03 -0.45481706824E+03  0.59226518947E+03  0.99633146062E+03  0.10100000352E+00 0. -1.
</event>
<event>
 5   0  0.4953155E-06  0.1800481E+04  0.7818609E-02  0.8706044E-01
        1   -1    0    0  501    0  0.00000000000E+00  0.00000000000E+00  0.87608132932E+03  0.87608132934E+03  0.50400001928E-02 0.  1.
       -1   -1    0    0    0  501  0.00000000000E+00  0.00000000000E+00 -0.92506564530E+03  0.92506564531E+03  0.50400001928E-02 0. -1.
    10030    2    1    2    0    0  0.00000000000E+00  0.00000000000E+00 -0.48984315975E+02  0.18011469746E+04  0.18004807583E+04 0.  0.
        2    1    3    3  502    0 -0.94231483470E+02 -0.81620549431E+03 -0.39254371804E+03  0.91058308352E+03  0.25500000920E-02 0. -1.
       -2    1    3    3    0  502  0.94231483470E+02  0.81620549431E+03  0.34355940207E+03  0.89056389113E+03  0.25500000920E-02 0.  1.
</event>
<event>
 5   0  0.9589963E-06  0.1800037E+04  0.7818609E-02  0.8706280E-01
       -2   -1    0    0    0  501  0.00000000000E+00  0.00000000000E+00  0.49867997617E+03  0.49867997618E+03  0.25500000920E-02 0.  1.
        2   -1    0    0  501    0  0.00000000000E+00  0.00000000000E+00 -0.16243544292E+04  0.16243544292E+04  0.25500000920E-02 0. -1.
    10030    2    1    2    0    0  0.00000000000E+00  0.00000000000E+00 -0.11256744530E+04  0.21230344054E+04  0.18000366975E+04 0.  0.
        2    1    3    3  502    0  0.62769729299E+03 -0.19038740073E+03  0.16400932207E+03  0.67612891650E+03  0.25500000920E-02 0.  1.
       -2    1    3    3    0  502 -0.62769729299E+03  0.19038740073E+03 -0.12896837751E+04  0.14469054889E+04  0.25500000920E-02 0. -1.
</event>
<event>
 5   0  0.9589963E-06  0.1799792E+04  0.7818609E-02  0.8706410E-01
       -2   -1    0    0    0  501  0.00000000000E+00  0.00000000000E+00  0.53887845225E+03  0.53887845225E+03  0.25500000920E-02 0. -1.
        2   -1    0    0  501    0  0.00000000000E+00  0.00000000000E+00 -0.15027744871E+04  0.15027744871E+04  0.25500000920E-02 0.  1.
    10030    2    1    2    0    0  0.00000000000E+00  0.00000000000E+00 -0.96389603482E+03  0.20416529393E+04  0.17997919765E+04 0.  0.
        2    1    3    3  502    0  0.45571340141E+03 -0.65130323202E+03 -0.34291491338E+01  0.79491028634E+03  0.25500000920E-02 0. -1.
       -2    1    3    3    0  502 -0.45571340141E+03  0.65130323202E+03 -0.96046688569E+03  0.12467426530E+04  0.25500000920E-02 0.  1.
</event>
<event>
 5   0  0.1036381E-05  0.1800277E+04  0.7818609E-02  0.8706152E-01
        2   -1    0    0  501    0  0.00000000000E+00  0.00000000000E+00  0.80233225315E+03  0.80233225316E+03  0.25500000920E-02 0. -1.
       -2   -1    0    0    0  501  0.00000000000E+00  0.00000000000E+00 -0.10098675994E+04  0.10098675994E+04  0.25500000920E-02 0.  1.
    10030    2    1    2    0    0  0.00000000000E+00  0.00000000000E+00 -0.20753534621E+03  0.18121998525E+04  0.18002770302E+04 0.  0.
        4    1    3    3  502    0 -0.50722614571E+03  0.74047043819E+03 -0.17257901538E+03  0.91398028544E+03  0.12699999809E+01 0.  1.
       -4    1    3    3    0  502  0.50722614571E+03 -0.74047043819E+03 -0.34956330835E+02  0.89821956709E+03  0.12699999809E+01 0. -1.
</event>
<event>
 5   0  0.9999162E-06  0.1797266E+04  0.7818609E-02  0.8707755E-01
       -2   -1    0    0    0  501  0.00000000000E+00  0.00000000000E+00  0.78850265268E+03  0.78850265268E+03  0.25500000920E-02 0. -1.
        2   -1    0    0  501    0  0.00000000000E+00  0.00000000000E+00 -0.10241447226E+04  0.10241447226E+04  0.25500000920E-02 0.  1.
    10030    2    1    2    0    0  0.00000000000E+00  0.00000000000E+00 -0.23564206992E+03  0.18126473753E+04  0.17972655124E+04 0.  0.
        1    1    3    3  502    0  0.31167078766E+03 -0.15527692699E+03  0.71769600059E+03  0.79770743586E+03  0.50400001928E-02 0. -1.
       -1    1    3    3    0  502 -0.31167078766E+03  0.15527692699E+03 -0.95333807051E+03  0.10149399394E+04  0.50400001928E-02 0.  1.
</event>
<event>
 5   0  0.3626125E-06  0.1801480E+04  0.7818609E-02  0.8705513E-01
        4   -1    0    0  501    0  0.00000000000E+00  0.00000000000E+00  0.73492842290E+03  0.73492952022E+03  0.12699999809E+01 0.  1.
       -4   -1    0    0    0  501  0.00000000000E+00  0.00000000000E+00 -0.11039586385E+04  0.11039593690E+04  0.12699999809E+01 0. -1.
    10030    2    1    2    0    0  0.00000000000E+00  0.00000000000E+00 -0.36903021558E+03  0.18388888892E+04  0.18014796826E+04 0.  0.
        3    1    3    3  502    0  0.58713387659E+02  0.44217580502E+02 -0.11008932597E+04  0.11033442054E+04  0.10100000352E+00 0. -1.
       -3    1    3    3    0  502 -0.58713387659E+02 -0.44217580502E+02  0.73186304408E+03  0.73554468376E+03  0.10100000352E+00 0.  1.
</event>
<event>
 5   0  0.9589963E-06  0.1808505E+04  0.7818609E-02  0.8701790E-01
        2   -1    0    0  501    0  0.00000000000E+00  0.00000000000E+00  0.15308248068E+04  0.15308248068E+04  0.25500000920E-02 0. -1.
       -2   -1    0    0    0  501  0.00000000000E+00  0.00000000000E+00 -0.53413865665E+03  0.53413865665E+03  0.25500000920E-02 0.  1.
    10030    2    1    2    0    0  0.00000000000E+00  0.00000000000E+00  0.99668615013E+03  0.20649634634E+04  0.18085051350E+04 0.  0.
        2    1    3    3  502    0 -0.33350497753E+03 -0.34667198538E+03  0.13726015635E+04  0.14544559422E+04  0.25500000920E-02 0. -1.
       -2    1    3    3    0  502  0.33350497753E+03  0.34667198538E+03 -0.37591541340E+03  0.61050752127E+03  0.25500000920E-02 0.  1.
</event>
<event>
 5   0  0.1035018E-05  0.1798967E+04  0.7818609E-02  0.8706849E-01
        2   -1    0    0  501    0  0.00000000000E+00  0.00000000000E+00  0.95284286000E+03  0.95284286000E+03  0.25500000920E-02 0.  1.
       -2   -1    0    0    0  501  0.00000000000E+00  0.00000000000E+00 -0.84911253228E+03  0.84911253228E+03  0.25500000920E-02 0. -1.
    10030    2    1    2    0    0  0.00000000000E+00  0.00000000000E+00  0.10373032772E+03  0.18019553923E+04  0.17989672745E+04 0.  0.
        3    1    3    3  502    0  0.85155729065E+03  0.25553228946E+03 -0.84832148052E+02  0.89310865731E+03  0.10100000352E+00 0. -1.
       -3    1    3    3    0  502 -0.85155729065E+03 -0.25553228946E+03  0.18856247578E+03  0.90884673498E+03  0.10100000352E+00 0.  1.
</event>
<event>
 5   0  0.3626125E-06  0.1799687E+04  0.7818609E-02  0.8706466E-01
       -3   -1    0    0    0  501  0.00000000000E+00  0.00000000000E+00  0.17062557350E+04  0.17062557380E+04  0.10100000352E+00 0. -1.
        3   -1    0    0  501    0  0.00000000000E+00  0.00000000000E+00 -0.47455864052E+03  0.47455865127E+03  0.10100000352E+00 0.  1.
    10030    2    1    2    0    0  0.00000000000E+00  0.00000000000E+00  0.12316970945E+04  0.21808143892E+04  0.17996871028E+04 0.  0.
        5    1    3    3  502    0  0.86915755381E+03  0.12986230256E+03  0.38151116820E+03  0.95805633051E+03  0.46999998093E+01 0. -1.
       -5    1    3    3    0  502 -0.86915755381E+03 -0.12986230256E+03  0.85018592626E+03  0.12227580587E+04  0.46999998093E+01 0.  1.
</event>
<event>
 5   0  0.3626125E-06  0.1800984E+04  0.7818609E-02  0.8705777E-01
       -3   -1    0    0    0  501  0.00000000000E+00  0.00000000000E+00  0.96641798680E+03  0.96641799207E+03  0.10100000352E+00 0. -1.
        3   -1    0    0  501    0  0.00000000000E+00  0.00000000000E+00 -0.83906282394E+03  0.83906283002E+03  0.10100000352E+00 0.  1.
    10030    2    1    2    0    0  0.00000000000E+00  0.00000000000E+00  0.12735516286E+03  0.18054808221E+04  0.18009835261E+04 0.  0.
        3    1    3    3  502    0  0.33728706296E+03 -0.23790745220E+03 -0.73864767846E+03  0.84614592226E+03  0.10100000352E+00 0.  1.
       -3    1    3    3    0  502 -0.33728706296E+03  0.23790745220E+03  0.86600284132E+03  0.95933489983E+03  0.10100000352E+00 0. -1.
</event>
<event>
 5   0  0.4987456E-06  0.1799567E+04  0.7818609E-02  0.8706530E-01
        1   -1    0    0  501    0  0.00000000000E+00  0.00000000000E+00  0.10990982583E+04  0.10990982583E+04  0.50400001928E-02 0. -1.
       -1   -1    0    0    0  501  0.00000000000E+00  0.00000000000E+00 -0.73661352482E+03  0.73661352484E+03  0.50400001928E-02 0.  1.
    10030    2    1    2    0    0  0.00000000000E+00  0.00000000000E+00  0.36248473345E+03  0.18357117831E+04  0.17995673282E+04 0.  0.
        3    1    3    3  502    0  0.65244900997E+03 -0.57738060386E+03 -0.48112505807E+02  0.87256684314E+03  0.10100000352E+00 0.  1.
       -3    1    3    3    0  502 -0.65244900997E+03  0.57738060386E+03  0.41059723926E+03  0.96314493998E+03  0.10100000352E+00 0. -1.
</event>
<event>
 5   0  0.1000316E-05  0.1799606E+04  0.7818609E-02  0.8706509E-01
        2   -1    0    0  501    0  0.00000000000E+00  0.00000000000E+00  0.11953142825E+04  0.11953142825E+04  0.25500000920E-02 0. -1.
       -2   -1    0    0    0  501  0.00000000000E+00  0.00000000000E+00 -0.67734932280E+03  0.67734932281E+03  0.25500000920E-02 0.  1.
    10030    2    1    2    0    0  0.00000000000E+00  0.00000000000E+00  0.51796495972E+03  0.18726636053E+04  0.17996058678E+04 0.  0.
        5    1    3    3  502    0 -0.89046634885E+02  0.21495577929E+03 -0.64549162504E+03  0.68616092736E+03  0.46999998093E+01 0.  1.
       -5    1    3    3    0  502  0.89046634885E+02 -0.21495577929E+03  0.11634565848E+04  0.11865026780E+04  0.46999998093E+01 0. -1.
</event>
<event>
 5   0  0.4983159E-06  0.1800343E+04  0.7818609E-02  0.8706117E-01
       -1   -1    0    0    0  501  0.00000000000E+00  0.00000000000E+00  0.10450449393E+04  0.10450449393E+04  0.50400001928E-02 0. -1.
        1   -1    0    0  501    0  0.00000000000E+00  0.00000000000E+00 -0.77538139624E+03  0.77538139625E+03  0.50400001928E-02 0.  1.
    10030    2    1    2    0    0  0.00000000000E+00  0.00000000000E+00  0.26966354308E+03  0.18204263356E+04  0.18003426387E+04 0.  0.
        4    1    3    3  502    0  0.81360358007E+03  0.10622266922E+03 -0.23953173443E+03  0.85475792225E+03  0.12699999809E+01 0.  1.
       -4    1    3    3    0  502 -0.81360358007E+03 -0.10622266922E+03  0.50919527750E+03  0.96566841332E+03  0.12699999809E+01 0. -1.
</event>
<event>
 5   0  0.9999162E-06  0.1799787E+04  0.7818609E-02  0.8706413E-01
       -2   -1    0    0    0  501  0.00000000000E+00  0.00000000000E+00  0.43761202112E+03  0.43761202113E+03  0.25500000920E-02 0.  1.
        2   -1    0    0  501    0  0.00000000000E+00  0.00000000000E+00 -0.18505156916E+04  0.18505156916E+04  0.25500000920E-02 0. -1.
    10030    2    1    2    0    0  0.00000000000E+00  0.00000000000E+00 -0.14129036705E+04  0.22881277127E+04  0.17997865562E+04 0.  0.
        1    1    3    3  502    0  0.71198516387E+03  0.18474939670E+02 -0.14057354067E+04  0.15758668188E+04  0.50400001928E-02 0. -1.
       -1    1    3    3    0  502 -0.71198516387E+03 -0.18474939670E+02 -0.71682637676E+01  0.71226089391E+03  0.50400001928E-02 0.  1.
</event>
<event>
 5   0  0.9589963E-06  0.1799844E+04  0.7818609E-02  0.8706383E-01
       -2   -1    0    0    0  501  0.00000000000E+00  0.00000000000E+00  0.78439569658E+03  0.78439569658E+03  0.25500000920E-02 0. -1.
        2   -1    0    0  501    0  0.00000000000E+00  0.00000000000E+00 -0.10324626872E+04  0.10324626872E+04  0.25500000920E-02 0.  1.
    10030    2    1    2    0    0  0.00000000000E+00  0.00000000000E+00 -0.24806699067E+03  0.18168583838E+04  0.17998436474E+04 0.  0.
        2    1    3    3  502    0 -0.15920670050E+03  0.86710332428E+03 -0.30641896921E+03  0.93333141657E+03  0.25500000920E-02 0.  1.
       -2    1    3    3    0  502  0.15920670050E+03 -0.86710332428E+03  0.58351978541E+02  0.88352696726E+03  0.25500000920E-02 0. -1.
</event>
<event>
 5   0  0.4981384E-06  0.1799690E+04  0.7818609E-02  0.8706464E-01
       -1   -1    0    0    0  501  0.00000000000E+00  0.00000000000E+00  0.61756467566E+03  0.61756467568E+03  0.50400001928E-02 0.  1.
        1   -1    0    0  501    0  0.00000000000E+00  0.00000000000E+00 -0.13111522304E+04  0.13111522304E+04  0.50400001928E-02 0. -1.
    10030    2    1    2    0    0  0.00000000000E+00  0.00000000000E+00 -0.69358755469E+03  0.19287169061E+04  0.17996903088E+04 0.  0.
        5    1    3    3  502    0  0.10619362678E+03 -0.48106607358E+03  0.46018349532E+03  0.67416065806E+03  0.46999998093E+01 0.  1.
       -5    1    3    3    0  502 -0.10619362678E+03  0.48106607358E+03 -0.11537710500E+04  0.12545562480E+04  0.46999998093E+01 0. -1.
</event>
<event>
 5   0  0.9589963E-06  0.1799122E+04  0.7818609E-02  0.8706766E-01
        2   -1    0    0  501    0  0.00000000000E+00  0.00000000000E+00  0.16343825043E+04  0.16343825043E+04  0.25500000920E-02 0.  1.
       -2   -1    0    0    0  501  0.00000000000E+00  0.00000000000E+00 -0.49511677668E+03  0.49511677668E+03  0.25500000920E-02 0. -1.
    10030    2    1    2    0    0  0.00000000000E+00  0.00000000000E+00  0.11392657276E+04  0.21294992810E+04  0.17991222275E+04 0.  0.
        2    1    3    3  502    0  0.27665619585E+03  0.75119048529E+03  0.10553324768E+04  0.13245951957E+04  0.25500000920E-02 0. -1.
       -2    1    3    3    0  502 -0.27665619585E+03 -0.75119048529E+03  0.83933250823E+02  0.80490408528E+03  0.25500000920E-02 0.  1.
</event>
<event>
 5   0  0.1000316E-05  0.1799095E+04  0.7818609E-02  0.8706781E-01
        2   -1    0    0  501    0  0.00000000000E+00  0.00000000000E+00  0.10139600792E+04  0.10139600792E+04  0.25500000920E-02 0. -1.
       -2   -1    0    0    0  501  0.00000000000E+00  0.00000000000E+00 -0.79804495125E+03  0.79804495125E+03  0.25500000920E-02 0.  1.
    10030    2    1    2    0    0  0.00000000000E+00  0.00000000000E+00  0.21591512794E+03  0.18120050305E+04  0.17990950191E+04 0.  0.
        5    1    3    3  502    0  0.82930317322E+03  0.22141513655E+03  0.37895191156E+03  0.93829369447E+03  0.46999998093E+01 0. -1.
       -5    1    3    3    0  502 -0.82930317322E+03 -0.22141513655E+03 -0.16303678362E+03  0.87371133598E+03  0.46999998093E+01 0.  1.
</event>
<event>
 5   0  0.4983159E-06  0.1800007E+04  0.7818609E-02  0.8706296E-01
       -1   -1    0    0    0  501  0.00000000000E+00  0.00000000000E+00  0.13665509649E+04  0.13665509649E+04  0.50400001928E-02 0.  1.
        1   -1    0    0  501    0  0.00000000000E+00  0.00000000000E+00 -0.59273767012E+03  0.59273767014E+03  0.50400001928E-02 0. -1.
    10030    2    1    2    0    0  0.00000000000E+00  0.00000000000E+00  0.77381329473E+03  0.19592886350E+04  0.18000069278E+04 0.  0.
        4    1    3    3  502    0  0.13794123214E+03 -0.13297831589E+03 -0.57027960491E+03  0.60160739415E+03  0.12699999809E+01 0. -1.
       -4    1    3    3    0  502 -0.13794123214E+03  0.13297831589E+03  0.13440928996E+04  0.13576812409E+04  0.12699999809E+01 0.  1.
</event>
<event>
 5   0  0.1035018E-05  0.1800290E+04  0.7818609E-02  0.8706145E-01
       -2   -1    0    0    0  501  0.00000000000E+00  0.00000000000E+00  0.44429229350E+03  0.44429229351E+03  0.25500000920E-02 0.  1.
        2   -1    0    0  501    0  0.00000000000E+00  0.00000000000E+00 -0.18237112343E+04  0.18237112343E+04  0.25500000920E-02 0. -1.
    10030    2    1    2    0    0  0.00000000000E+00  0.00000000000E+00 -0.13794189408E+04  0.22680035278E+04  0.18002898066E+04 0.  0.
        3    1    3    3  502    0 -0.35257203828E+01  0.27424223392E+02 -0.18231761092E+04  0.18233857667E+04  0.10100000352E+00 0. -1.
       -3    1    3    3    0  502  0.35257203828E+01 -0.27424223392E+02  0.44375716845E+03  0.44461776110E+03  0.10100000352E+00 0.  1.
</event>
<event>
 5   0  0.4981384E-06  0.1800059E+04  0.7818609E-02  0.8706268E-01
       -1   -1    0    0    0  501  0.00000000000E+00  0.00000000000E+00  0.94355940417E+03  0.94355940418E+03  0.50400001928E-02 0. -1.
        1   -1    0    0  501    0  0.00000000000E+00  0.00000000000E+00 -0.85850796678E+03  0.85850796680E+03  0.50400001928E-02 0.  1.
    10030    2    1    2    0    0  0.00000000000E+00  0.00000000000E+00  0.85051437385E+02  0.18020673710E+04  0.18000591831E+04 0.  0.
        5    1    3    3  502    0  0.58436119716E+03  0.59366800817E+03 -0.29860575271E+03  0.88493344282E+03  0.46999998093E+01 0. -1.
       -5    1    3    3    0  502 -0.58436119716E+03 -0.59366800817E+03  0.38365719009E+03  0.91713392816E+03  0.46999998093E+01 0.  1.
</event>
<event>
 5   0  0.4987456E-06  0.1798480E+04  0.7818609E-02  0.8707108E-01
       -1   -1    0    0    0  501  0.00000000000E+00  0.00000000000E+00  0.77018458409E+03  0.77018458411E+03  0.50400001928E-02 0. -1.
        1   -1    0    0  501    0  0.00000000000E+00  0.00000000000E+00 -0.10499199922E+04  0.10499199922E+04  0.50400001928E-02 0.  1.
    10030    2    1    2    0    0  0.00000000000E+00  0.00000000000E+00 -0.27973540814E+03  0.18201045764E+04  0.17984795718E+04 0.  0.
        3    1    3    3  502    0  0.48976027710E+03  0.52075807059E+03  0.41219868209E+03  0.82520413282E+03  0.10100000352E+00 0. -1.
       -3    1    3    3    0  502 -0.48976027710E+03 -0.52075807059E+03 -0.69193409023E+03  0.99490044353E+03  0.10100000352E+00 0.  1.
</event>
<event>
 5   0  0.4987456E-06  0.1800605E+04  0.7818609E-02  0.8705978E-01
       -1   -1    0    0    0  501  0.00000000000E+00  0.00000000000E+00  0.46881834159E+03  0.46881834162E+03  0.50400001928E-02 0. -1.
        1   -1    0    0  501    0  0.00000000000E+00  0.00000000000E+00 -0.17289093373E+04  0.17289093373E+04  0.50400001928E-02 0.  1.
    10030    2    1    2    0    0  0.00000000000E+00  0.00000000000E+00 -0.12600909957E+04  0.21977276789E+04  0.18006047965E+04 0.  0.
        3    1    3    3  502    0 -0.14517620124E+03 -0.88156629449E+03 -0.49462971642E+03  0.10212217328E+04  0.10100000352E+00 0. -1.
       -3    1    3    3    0  502  0.14517620124E+03  0.88156629449E+03 -0.76546127930E+03  0.11765059461E+04  0.10100000352E+00 0.  1.
</event>
<event>
 5   0  0.4994123E-06  0.1800308E+04  0.7818609E-02  0.8706136E-01
        1   -1    0    0  501    0  0.00000000000E+00  0.00000000000E+00  0.12639852977E+04  0.12639852977E+04  0.50400001928E-02 0.  1.
       -1   -1    0    0    0  501  0.00000000000E+00  0.00000000000E+00 -0.64104927137E+03  0.64104927139E+03  0.50400001928E-02 0. -1.
    10030    2    1    2    0    0  0.00000000000E+00  0.00000000000E+00  0.62293602634E+03  0.19050345691E+04  0.18003075894E+04 0.  0.
        1    1    3    3  502    0  0.59421178343E+02  0.89813396127E+03  0.32212172172E+03  0.95600098978E+03  0.50400001928E-02 0. -1.
       -1    1    3    3    0  502 -0.59421178343E+02 -0.89813396127E+03  0.30081430462E+03  0.94903357934E+03  0.50400001928E-02 0.  1.
</event>
<event>
 5   0  0.1035018E-05  0.1800875E+04  0.7818609E-02  0.8705834E-01
       -2   -1    0    0    0  501  0.00000000000E+00  0.00000000000E+00  0.75565158976E+03  0.75565158976E+03  0.25500000920E-02 0.  1.
        2   -1    0    0  501    0  0.00000000000E+00  0.00000000000E+00 -0.10729654895E+04  0.10729654895E+04  0.25500000920E-02 0. -1.
    10030    2    1    2    0    0  0.00000000000E+00  0.00000000000E+00 -0.31731389978E+03  0.18286170793E+04  0.18008754293E+04 0.  0.
        3    1    3    3  502    0 -0.14335991311E+03  0.10453142224E+03 -0.10550407445E+04  0.10698550676E+04  0.10100000352E+00 0. -1.
       -3    1    3    3    0  502  0.14335991311E+03 -0.10453142224E+03  0.73772684467E+03  0.75876201175E+03  0.10100000352E+00 0.  1.
</event>
<event>
 5   0  0.3626125E-06  0.1798630E+04  0.7818609E-02  0.8707028E-01
       -3   -1    0    0    0  501  0.00000000000E+00  0.00000000000E+00  0.19537353016E+04  0.19537353042E+04  0.10100000352E+00 0.  1.
        3   -1    0    0  501    0  0.00000000000E+00  0.00000000000E+00 -0.41395972785E+03  0.41395974017E+03  0.10100000352E+00 0. -1.
    10030    2    1    2    0    0  0.00000000000E+00  0.00000000000E+00  0.15397755738E+04  0.23676950444E+04  0.17986303138E+04 0.  0.
        1    1    3    3  502    0  0.12443292264E+03  0.12341123247E+03  0.19310387567E+04  0.19389751325E+04  0.50400001928E-02 0.  1.
       -1    1    3    3    0  502 -0.12443292264E+03 -0.12341123247E+03 -0.39126318292E+03  0.42871991191E+03  0.50400001928E-02 0. -1.
</event>
<event>
 5   0  0.1035018E-05  0.1799949E+04  0.7818609E-02  0.8706327E-01
        2   -1    0    0  501    0  0.00000000000E+00  0.00000000000E+00  0.84641669178E+03  0.84641669178E+03  0.25500000920E-02 0. -1.
       -2   -1    0    0    0  501  0.00000000000E+00  0.00000000000E+00 -0.95692112612E+03  0.95692112612E+03  0.25500000920E-02 0.  1.
    10030    2    1    2    0    0  0.00000000000E+00  0.00000000000E+00 -0.11050443434E+03  0.18033378179E+04  0.17999489036E+04 0.  0.
        3    1    3    3  502    0  0.86665471201E+03 -0.22374953682E+03 -0.14923586397E+03  0.90742801278E+03  0.10100000352E+00 0. -1.
       -3    1    3    3    0  502 -0.86665471201E+03  0.22374953682E+03  0.38731429628E+02  0.89590980513E+03  0.10100000352E+00 0.  1.
</event>
<event>
 5   0  0.1000316E-05  0.1801101E+04  0.7818609E-02  0.8705714E-01
       -2   -1    0    0    0  501  0.00000000000E+00  0.00000000000E+00  0.74636359490E+03  0.74636359490E+03  0.25500000920E-02 0. -1.
        2   -1    0    0  501    0  0.00000000000E+00  0.00000000000E+00 -0.10865896929E+04  0.10865896929E+04  0.25500000920E-02 0.  1.
    10030    2    1    2    0    0  0.00000000000E+00  0.00000000000E+00 -0.34022609802E+03  0.18329532878E+04  0.18011007627E+04 0.  0.
        5    1    3    3  502    0 -0.35766505907E+02  0.56992105297E+03  0.53853462470E+03  0.78494004966E+03  0.46999998093E+01 0. -1.
       -5    1    3    3    0  502  0.35766505907E+02 -0.56992105297E+03 -0.87876072272E+03  0.10480132382E+04  0.46999998093E+01 0.  1.
</event>
<event>
 5   0  0.4953155E-06  0.1799952E+04  0.7818609E-02  0.8706325E-01
       -1   -1    0    0    0  501  0.00000000000E+00  0.00000000000E+00  0.72319110528E+03  0.72319110530E+03  0.50400001928E-02 0.  1.
        1   -1    0    0  501    0  0.00000000000E+00  0.00000000000E+00 -0.11199764395E+04  0.11199764395E+04  0.50400001928E-02 0. -1.
    10030    2    1    2    0    0  0.00000000000E+00  0.00000000000E+00 -0.39678533422E+03  0.18431675448E+04  0.17999522207E+04 0.  0.
        2    1    3    3  502    0 -0.75699565612E+03  0.28425903934E+03 -0.60298822580E+03  0.10086825196E+04  0.25500000920E-02 0. -1.
       -2    1    3    3    0  502  0.75699565612E+03 -0.28425903934E+03  0.20620289158E+03  0.83448502524E+03  0.25500000920E-02 0.  1.
</event>
<event>
 5   0  0.4983159E-06  0.1800228E+04  0.7818609E-02  0.8706178E-01
       -1   -1    0    0    0  501  0.00000000000E+00  0.00000000000E+00  0.70890597150E+03  0.70890597152E+03  0.50400001928E-02 0.  1.
        1   -1    0    0  501    0  0.00000000000E+00  0.00000000000E+00 -0.11428953017E+04  0.11428953017E+04  0.50400001928E-02 0. -1.
    10030    2    1    2    0    0  0.00000000000E+00  0.00000000000E+00 -0.43398933020E+03  0.18518012732E+04  0.18002281013E+04 0.  0.
        4    1    3    3  502    0  0.19396591330E+03 -0.82287255330E+03 -0.53481477314E+03  0.10003851603E+04  0.12699999809E+01 0. -1.
       -4    1    3    3    0  502 -0.19396591330E+03  0.82287255330E+03  0.10082544293E+03  0.85141611292E+03  0.12699999809E+01 0.  1.
</event>
<event>
 5   0  0.9589963E-06  0.1797644E+04  0.7818609E-02  0.8707554E-01
       -2   -1    0    0    0  501  0.00000000000E+00  0.00000000000E+00  0.88582425871E+03  0.88582425872E+03  0.25500000920E-02 0. -1.
        2   -1    0    0  501    0  0.00000000000E+00  0.00000000000E+00 -0.91201018599E+03  0.91201018600E+03  0.25500000920E-02 0.  1.
    10030    2    1    2    0    0  0.00000000000E+00  0.00000000000E+00 -0.26185927281E+02  0.17978344447E+04  0.17976437322E+04 0.  0.
        2    1    3    3  502    0  0.35105566813E+03 -0.63990922071E+02  0.81194657055E+03  0.88690030650E+03  0.25500000920E-02 0. -1.
       -2    1    3    3    0  502 -0.35105566813E+03  0.63990922071E+02 -0.83813249783E+03  0.91093413821E+03  0.25500000920E-02 0.  1.
</event>
<event>
 5   0  0.1035018E-05  0.1804170E+04  0.7818609E-02  0.8704085E-01
       -2   -1    0    0    0  501  0.00000000000E+00  0.00000000000E+00  0.59979214094E+03  0.59979214094E+03  0.25500000920E-02 0. -1.
        2   -1    0    0  501    0  0.00000000000E+00  0.00000000000E+00 -0.13567315395E+04  0.13567315395E+04  0.25500000920E-02 0.  1.
    10030    2    1    2    0    0  0.00000000000E+00  0.00000000000E+00 -0.75693939852E+03  0.19565236804E+04  0.18041695206E+04 0.  0.
        3    1    3    3  502    0 -0.38273162178E+03  0.45815078249E+03 -0.11118718982E+04  0.12620003019E+04  0.10100000352E+00 0.  1.
       -3    1    3    3    0  502  0.38273162178E+03 -0.45815078249E+03  0.35493249965E+03  0.69452337852E+03  0.10100000352E+00 0. -1.
</event>
<event>
 5   0  0.4994123E-06  0.1799918E+04  0.7818609E-02  0.8706343E-01
        1   -1    0    0  501    0  0.00000000000E+00  0.00000000000E+00  0.57230799571E+03  0.57230799574E+03  0.50400001928E-02 0.  1.
       -1   -1    0    0    0  501  0.00000000000E+00  0.00000000000E+00 -0.14151922471E+04  0.14151922471E+04  0.50400001928E-02 0. -1.
    10030    2    1    2    0    0  0.00000000000E+00  0.00000000000E+00 -0.84288425136E+03  0.19875002428E+04  0.17999175965E+04 0.  0.
        1    1    3    3  502    0  0.43927283900E+03  0.25285050098E+03  0.39972136811E+03  0.64550071656E+03  0.50400001928E-02 0.  1.
       -1    1    3    3    0  502 -0.43927283900E+03 -0.25285050098E+03 -0.12426056195E+04  0.13419995263E+04  0.50400001928E-02 0. -1.
</event>
<event>
 5   0  0.1000316E-05  0.1800656E+04  0.7818609E-02  0.8705951E-01
        2   -1    0    0  501    0  0.00000000000E+00  0.00000000000E+00  0.10063078284E+04  0.10063078284E+04  0.25500000920E-02 0. -1.
       -2   -1    0    0    0  501  0.00000000000E+00  0.00000000000E+00 -0.80550979725E+03  0.80550979725E+03  0.25500000920E-02 0.  1.
    10030    2    1    2    0    0  0.00000000000E+00  0.00000000000E+00  0.20079803112E+03  0.18118176256E+04  0.18006563412E+04 0.  0.
        5    1    3    3  502    0  0.88585740077E+03 -0.89859596232E+02  0.23445638510E+03  0.92076596812E+03  0.46999998093E+01 0. -1.
       -5    1    3    3    0  502 -0.88585740077E+03  0.89859596232E+02 -0.33658353977E+02  0.89105165750E+03  0.46999998093E+01 0.  1.
</event>
<event>
 5   0  0.4983159E-06  0.1799975E+04  0.7818609E-02  0.8706313E-01
        1   -1    0    0  501    0  0.00000000000E+00  0.00000000000E+00  0.72868239608E+03  0.72868239610E+03  0.50400001928E-02 0. -1.
       -1   -1    0    0    0  501  0.00000000000E+00  0.00000000000E+00 -0.11115639531E+04  0.11115639531E+04  0.50400001928E-02 0.  1.
    10030    2    1    2    0    0  0.00000000000E+00  0.00000000000E+00 -0.38288155703E+03  0.18402463492E+04  0.17999745385E+04 0.  0.
        4    1    3    3  502    0  0.35043783789E+03  0.64846562850E+03 -0.71938671837E+03  0.10299675786E+04  0.12699999809E+01 0.  1.
       -4    1    3    3    0  502 -0.35043783789E+03 -0.64846562850E+03  0.33650516134E+03  0.81027877059E+03  0.12699999809E+01 0. -1.
</event>
<event>
 5   0  0.4981384E-06  0.1802703E+04  0.7818609E-02  0.8704863E-01
        1   -1    0    0  501    0  0.00000000000E+00  0.00000000000E+00  0.64982428373E+03  0.64982428375E+03  0.50400001928E-02 0. -1.
       -1   -1    0    0    0  501  0.00000000000E+00  0.00000000000E+00 -0.12502378741E+04  0.12502378741E+04  0.50400001928E-02 0.  1.
    10030    2    1    2    0    0  0.00000000000E+00  0.00000000000E+00 -0.60041359035E+03  0.19000621578E+04  0.18027034488E+04 0.  0.
        5    1    3    3  502    0 -0.46416169963E+03  0.79209572330E+02 -0.11102800326E+04  0.12060116419E+04  0.46999998093E+01 0.  1.
       -5    1    3    3    0  502  0.46416169963E+03 -0.79209572330E+02  0.50986644221E+03  0.69405051592E+03  0.46999998093E+01 0. -1.
</event>
<event>
 5   0  0.9589963E-06  0.1799955E+04  0.7818609E-02  0.8706323E-01
        2   -1    0    0  501    0  0.00000000000E+00  0.00000000000E+00  0.12298217832E+04  0.12298217832E+04  0.25500000920E-02 0. -1.
       -2   -1    0    0    0  501  0.00000000000E+00  0.00000000000E+00 -0.65859907883E+03  0.65859907884E+03  0.25500000920E-02 0.  1.
    10030    2    1    2    0    0  0.00000000000E+00  0.00000000000E+00  0.57122270439E+03  0.18884208621E+04  0.17999549923E+04 0.  0.
        2    1    3    3  502    0 -0.20466945541E+03  0.19265080050E+03 -0.61136839185E+03  0.67288574623E+03  0.25500000920E-02 0.  1.
       -2    1    3    3    0  502  0.20466945541E+03 -0.19265080050E+03  0.11825910962E+04  0.12155351158E+04  0.25500000920E-02 0. -1.
</event>
<event>
 5   0  0.4994123E-06  0.1799067E+04  0.7818609E-02  0.8706796E-01
       -1   -1    0    0    0  501  0.00000000000E+00  0.00000000000E+00  0.91466920364E+03  0.91466920366E+03  0.50400001928E-02 0. -1.
        1   -1    0    0  501    0  0.00000000000E+00  0.00000000000E+00 -0.88464842622E+03  0.88464842623E+03  0.50400001928E-02 0.  1.
    10030    2    1    2    0    0  0.00000000000E+00  0.00000000000E+00  0.30020777424E+02  0.17993176299E+04  0.17990671711E+04 0.  0.
        1    1    3    3  502    0  0.19896255522E+03  0.79337342899E+02  0.88879107941E+03  0.91423743920E+03  0.50400001928E-02 0. -1.
       -1    1    3    3    0  502 -0.19896255522E+03 -0.79337342899E+02 -0.85877030199E+03  0.88508019069E+03  0.50400001928E-02 0.  1.
</event>
<event>
 5   0  0.4953155E-06  0.1799696E+04  0.7818609E-02  0.8706461E-01
       -1   -1    0    0    0  501  0.00000000000E+00  0.00000000000E+00  0.11939401328E+04  0.11939401328E+04  0.50400001928E-02 0. -1.
        1   -1    0    0  501    0  0.00000000000E+00  0.00000000000E+00 -0.67819718235E+03  0.67819718237E+03  0.50400001928E-02 0.  1.
    10030    2    1    2    0    0  0.00000000000E+00  0.00000000000E+00  0.51574295047E+03  0.18721373152E+04  0.17996964566E+04 0.  0.
        2    1    3    3  502    0  0.33578386777E+03  0.25047651005E+02  0.11259355937E+04  0.11752060040E+04  0.25500000920E-02 0. -1.
       -2    1    3    3    0  502 -0.33578386777E+03 -0.25047651005E+02 -0.61019264323E+03  0.69693131120E+03  0.25500000920E-02 0.  1.
</event>
<event>
 5   0  0.1000316E-05  0.1799593E+04  0.7818609E-02  0.8706516E-01
       -2   -1    0    0    0  501  0.00000000000E+00  0.00000000000E+00  0.10876381459E+04  0.10876381459E+04  0.25500000920E-02 0.  1.
        2   -1    0    0  501    0  0.00000000000E+00  0.00000000000E+00 -0.74439653017E+03  0.74439653017E+03  0.25500000920E-02 0. -1.
    10030    2    1    2    0    0  0.00000000000E+00  0.00000000000E+00  0.34324161569E+03  0.18320346760E+04  0.17995933561E+04 0.  0.
        5    1    3    3  502    0  0.51515780494E+03  0.44207340739E+03 -0.42961488024E+03  0.80337257660E+03  0.46999998093E+01 0. -1.
       -5    1    3    3    0  502 -0.51515780494E+03 -0.44207340739E+03  0.77285649593E+03  0.10286620994E+04  0.46999998093E+01 0.  1.
</event>
<event>
 5   0  0.1036381E-05  0.1799977E+04  0.7818609E-02  0.8706312E-01
       -2   -1    0    0    0  501  0.00000000000E+00  0.00000000000E+00  0.76242197648E+03  0.76242197648E+03  0.25500000920E-02 0. -1.
        2   -1    0    0  501    0  0.00000000000E+00  0.00000000000E+00 -0.10623767318E+04  0.10623767318E+04  0.25500000920E-02 0.  1.
    10030    2    1    2    0    0  0.00000000000E+00  0.00000000000E+00 -0.29995475536E+03  0.18247987083E+04  0.17999770750E+04 0.  0.
        4    1    3    3  502    0 -0.13031188040E+03  0.39194499298E+03 -0.96061368485E+03  0.10456492376E+04  0.12699999809E+01 0.  1.
       -4    1    3    3    0  502  0.13031188040E+03 -0.39194499298E+03  0.66065892949E+03  0.77914947071E+03  0.12699999809E+01 0. -1.
</event>
<event>
 5   0  0.4953155E-06  0.1800455E+04  0.7818609E-02  0.8706057E-01
        1   -1    0    0  501    0  0.00000000000E+00  0.00000000000E+00  0.14103910086E+04  0.14103910086E+04  0.50400001928E-02 0. -1.
       -1   -1    0    0    0  501  0.00000000000E+00  0.00000000000E+00 -0.57459948657E+03  0.57459948659E+03  0.50400001928E-02 0.  1.
    10030    2    1    2    0    0  0.00000000000E+00  0.00000000000E+00  0.83579152202E+03  0.19849904952E+04  0.18004554418E+04 0.  0.
        2    1    3    3  502    0 -0.72019044116E+03 -0.53993518532E+03  0.43370697671E+03  0.99915264977E+03  0.25500000920E-02 0.  1.
       -2    1    3    3    0  502  0.72019044116E+03  0.53993518532E+03  0.40208454531E+03  0.98583784542E+03  0.25500000920E-02 0. -1.
</event>
<event>
 5   0  0.4987456E-06  0.1799987E+04  0.7818609E-02  0.8706307E-01
       -1   -1    0    0    0  501  0.00000000000E+00  0.00000000000E+00  0.13183640911E+04  0.13183640911E+04  0.50400001928E-02 0.  1.
        1   -1    0    0  501    0  0.00000000000E+00  0.00000000000E+00 -0.61438877722E+03  0.61438877724E+03  0.50400001928E-02 0. -1.
    10030    2    1    2    0    0  0.00000000000E+00  0.00000000000E+00  0.70397531388E+03  0.19327528684E+04  0.17999867798E+04 0.  0.
        3    1    3    3  502    0 -0.70862795230E+03  0.54939390563E+03  0.43516662321E+03  0.99667308506E+03  0.10100000352E+00 0.  1.
       -3    1    3    3    0  502  0.70862795230E+03 -0.54939390563E+03  0.26880869067E+03  0.93607978330E+03  0.10100000352E+00 0. -1.
</event>
<event>
 5   0  0.4953155E-06  0.1800615E+04  0.7818609E-02  0.8705973E-01
       -1   -1    0    0    0  501  0.00000000000E+00  0.00000000000E+00  0.67484607724E+03  0.67484607726E+03  0.50400001928E-02 0. -1.
        1   -1    0    0  501    0  0.00000000000E+00  0.00000000000E+00 -0.12010939809E+04  0.12010939809E+04  0.50400001928E-02 0.  1.
    10030    2    1    2    0    0  0.00000000000E+00  0.00000000000E+00 -0.52624790363E+03  0.18759400581E+04  0.18006149632E+04 0.  0.
        2    1    3    3  502    0  0.16285091808E+03  0.80801576449E+03 -0.64041088077E+03  0.10438084084E+04  0.25500000920E-02 0.  1.
       -2    1    3    3    0  502 -0.16285091808E+03 -0.80801576449E+03  0.11416297714E+03  0.83213164976E+03  0.25500000920E-02 0. -1.
</event>
<event>
 5   0  0.1035018E-05  0.1799916E+04  0.7818609E-02  0.8706344E-01
       -2   -1    0    0    0  501  0.00000000000E+00  0.00000000000E+00  0.44060022716E+03  0.44060022717E+03  0.25500000920E-02 0. -1.
        2   -1    0    0  501    0  0.00000000000E+00  0.00000000000E+00 -0.18382301853E+04  0.18382301853E+04  0.25500000920E-02 0.  1.
    10030    2    1    2    0    0  0.00000000000E+00  0.00000000000E+00 -0.13976299581E+04  0.22788304124E+04  0.17999162616E+04 0.  0.
        3    1    3    3  502    0 -0.89344504410E+02  0.76328762329E+03 -0.12917578807E+04  0.15030731416E+04  0.10100000352E+00 0.  1.
       -3    1    3    3    0  502  0.89344504410E+02 -0.76328762329E+03 -0.10587207740E+03  0.77575727087E+03  0.10100000352E+00 0. -1.
</event>
<event>
 5   0  0.3626125E-06  0.1799868E+04  0.7818609E-02  0.8706370E-01
        3   -1    0    0  501    0  0.00000000000E+00  0.00000000000E+00  0.60353025491E+03  0.60353026336E+03  0.10100000352E+00 0. -1.
       -3   -1    0    0    0  501  0.00000000000E+00  0.00000000000E+00 -0.13419064826E+04  0.13419064864E+04  0.10100000352E+00 0.  1.
    10030    2    1    2    0    0  0.00000000000E+00  0.00000000000E+00 -0.73837622772E+03  0.19454367498E+04  0.17998679656E+04 0.  0.
        2    1    3    3  502    0 -0.56019366544E+03  0.13809370102E+03 -0.11156937488E+04  0.12560491050E+04  0.25500000920E-02 0.  1.
       -2    1    3    3    0  502  0.56019366544E+03 -0.13809370102E+03  0.37731752108E+03  0.68938764478E+03  0.25500000920E-02 0. -1.
</event>
<event>
 5   0  0.4983159E-06  0.1797766E+04  0.7818609E-02  0.8707488E-01
        1   -1    0    0  501    0  0.00000000000E+00  0.00000000000E+00  0.24416031799E+04  0.24416031799E+04  0.50400001928E-02 0.  1.
       -1   -1    0    0    0  501  0.00000000000E+00  0.00000000000E+00 -0.33092625023E+03  0.33092625027E+03  0.50400001928E-02 0. -1.
    10030    2    1    2    0    0  0.00000000000E+00  0.00000000000E+00  0.21106769296E+04  0.27725294301E+04  0.17977659302E+04 0.  0.
        4    1    3    3  502    0  0.24349493999E+03  0.30362729071E+03 -0.19424013140E+03  0.43498294106E+03  0.12699999809E+01 0. -1.
       -4    1    3    3    0  502 -0.24349493999E+03 -0.30362729071E+03  0.23049170610E+04  0.23375464891E+04  0.12699999809E+01 0.  1.
</event>
<event>
 5   0  0.4987456E-06  0.1799904E+04  0.7818609E-02  0.8706350E-01
       -1   -1    0    0    0  501  0.00000000000E+00  0.00000000000E+00  0.40118200279E+03  0.40118200282E+03  0.50400001928E-02 0.  1.
        1   -1    0    0  501    0  0.00000000000E+00  0.00000000000E+00 -0.20188192375E+04  0.20188192375E+04  0.50400001928E-02 0. -1.
    10030    2    1    2    0    0  0.00000000000E+00  0.00000000000E+00 -0.16176372347E+04  0.24200012404E+04  0.17999043808E+04 0.  0.
        3    1    3    3  502    0 -0.71417874838E+03  0.51665202478E+03 -0.56482188311E+03  0.10469022730E+04  0.10100000352E+00 0.  1.
       -3    1    3    3    0  502  0.71417874838E+03 -0.51665202478E+03 -0.10528153516E+04  0.13730989674E+04  0.10100000352E+00 0. -1.
</event>
<event>
 5   0  0.9999162E-06  0.1800144E+04  0.7818609E-02  0.8706223E-01
       -2   -1    0    0    0  501  0.00000000000E+00  0.00000000000E+00  0.61831583359E+03  0.61831583359E+03  0.25500000920E-02 0. -1.
        2   -1    0    0  501    0  0.00000000000E+00  0.00000000000E+00 -0.13102194475E+04  0.13102194475E+04  0.25500000920E-02 0.  1.
    10030    2    1    2    0    0  0.00000000000E+00  0.00000000000E+00 -0.69190361391E+03  0.19285352811E+04  0.18001438052E+04 0.  0.
        1    1    3    3  502    0  0.42139492426E+03  0.47720780695E+03 -0.10275931202E+04  0.12088211588E+04  0.50400001928E-02 0.  1.
       -1    1    3    3    0  502 -0.42139492426E+03 -0.47720780695E+03  0.33568950629E+03  0.71971412232E+03  0.50400001928E-02 0. -1.
</event>
<event>
 5   0  0.4994123E-06  0.1799128E+04  0.7818609E-02  0.8706764E-01
        1   -1    0    0  501    0  0.00000000000E+00  0.00000000000E+00  0.11678513669E+04  0.11678513669E+04  0.50400001928E-02 0.  1.
       -1   -1    0    0    0  501  0.00000000000E+00  0.00000000000E+00 -0.69290921957E+03  0.69290921959E+03  0.50400001928E-02 0. -1.
    10030    2    1    2    0    0  0.00000000000E+00  0.00000000000E+00  0.47494214733E+03  0.18607605865E+04  0.17991275433E+04 0.  0.
        1    1    3    3  502    0 -0.42203152478E+03 -0.67347790951E+03 -0.19830834805E+03  0.81915157537E+03  0.50400001928E-02 0. -1.
       -1    1    3    3    0  502  0.42203152478E+03  0.67347790951E+03  0.67325049537E+03  0.10416090111E+04  0.50400001928E-02 0.  1.
</event>
<event>
 5   0  0.1035018E-05  0.1800521E+04  0.7818609E-02  0.8706022E-01
       -2   -1    0    0    0  501  0.00000000000E+00  0.00000000000E+00  0.78670371135E+03  0.78670371135E+03  0.25500000920E-02 0.  1.
        2   -1    0    0  501    0  0.00000000000E+00  0.00000000000E+00 -0.10302090768E+04  0.10302090768E+04  0.25500000920E-02 0. -1.
    10030    2    1    2    0    0  0.00000000000E+00  0.00000000000E+00 -0.24350536543E+03  0.18169127881E+04  0.18005213736E+04 0.  0.
        3    1    3    3  502    0  0.57747865251E+03  0.51277079896E+03  0.34511872685E+03  0.84588559049E+03  0.10100000352E+00 0.  1.
       -3    1    3    3    0  502 -0.57747865251E+03 -0.51277079896E+03 -0.58862409227E+03  0.97102719765E+03  0.10100000352E+00 0. -1.
</event>
<event>
 5   0  0.1035018E-05  0.1801228E+04  0.7818609E-02  0.8705647E-01
        2   -1    0    0  501    0  0.00000000000E+00  0.00000000000E+00  0.15915456121E+04  0.15915456121E+04  0.25500000920E-02 0. -1.
       -2   -1    0    0    0  501  0.00000000000E+00  0.00000000000E+00 -0.50963369611E+03  0.50963369612E+03  0.25500000920E-02 0.  1.
    10030    2    1    2    0    0  0.00000000000E+00  0.00000000000E+00  0.10819119159E+04  0.21011793082E+04  0.18012276623E+04 0.  0.
        3    1    3    3  502    0 -0.21314740385E+03  0.51461726008E+03 -0.28459731672E+03  0.62550650119E+03  0.10100000352E+00 0.  1.
       -3    1    3    3    0  502  0.21314740385E+03 -0.51461726008E+03  0.13665092327E+04  0.14756728070E+04  0.10100000352E+00 0. -1.
</event>
<event>
 5   0  0.1036381E-05  0.1800072E+04  0.7818609E-02  0.8706261E-01
        2   -1    0    0  501    0  0.00000000000E+00  0.00000000000E+00  0.14380316258E+04  0.14380316258E+04  0.25500000920E-02 0. -1.
       -2   -1    0    0    0  501  0.00000000000E+00  0.00000000000E+00 -0.56331477917E+03  0.56331477917E+03  0.25500000920E-02 0.  1.
    10030    2    1    2    0    0  0.00000000000E+00  0.00000000000E+00  0.87471684663E+03  0.20013464050E+04  0.18000716294E+04 0.  0.
        4    1    3    3  502    0 -0.69373532388E+03 -0.27425171727E+02  0.10741498590E+04  0.12789919359E+04  0.12699999809E+01 0. -1.
       -4    1    3    3    0  502  0.69373532388E+03  0.27425171727E+02 -0.19943301236E+03  0.72235446906E+03  0.12699999809E+01 0.  1.
</event>
<event>
 5   0  0.4987456E-06  0.1801225E+04  0.7818609E-02  0.8705648E-01
       -1   -1    0    0    0  501  0.00000000000E+00  0.00000000000E+00  0.77478663406E+03  0.77478663408E+03  0.50400001928E-02 0.  1.
        1   -1    0    0  501    0  0.00000000000E+00  0.00000000000E+00 -0.10468725638E+04  0.10468725638E+04  0.50400001928E-02 0. -1.
    10030    2    1    2    0    0  0.00000000000E+00  0.00000000000E+00 -0.27208592971E+03  0.18216591979E+04  0.18012249943E+04 0.  0.
        3    1    3    3  502    0 -0.45452820219E+03  0.25595154256E+03  0.60644915560E+03  0.79992978895E+03  0.10100000352E+00 0.  1.
       -3    1    3    3    0  502  0.45452820219E+03 -0.25595154256E+03 -0.87853508531E+03  0.10217294089E+04  0.10100000352E+00 0. -1.
</event>
<event>
 5   0  0.1036381E-05  0.1799922E+04  0.7818609E-02  0.8706341E-01
        2   -1    0    0  501    0  0.00000000000E+00  0.00000000000E+00  0.72213721908E+03  0.72213721908E+03  0.25500000920E-02 0. -1.
       -2   -1    0    0    0  501  0.00000000000E+00  0.00000000000E+00 -0.11215727888E+04  0.11215727888E+04  0.25500000920E-02 0.  1.
    10030    2    1    2    0    0  0.00000000000E+00  0.00000000000E+00 -0.39943556974E+03  0.18437100079E+04  0.17999216146E+04 0.  0.
        4    1    3    3  502    0 -0.45668924556E+03  0.81559717640E+01  0.59457985164E+03  0.74977223192E+03  0.12699999809E+01 0. -1.
       -4    1    3    3    0  502  0.45668924556E+03 -0.81559717640E+01 -0.99401542137E+03  0.10939377760E+04  0.12699999809E+01 0.  1.
</event>
<event>
 5   0  0.4981384E-06  0.1799529E+04  0.7818609E-02  0.8706550E-01
        1   -1    0    0  501    0  0.00000000000E+00  0.00000000000E+00  0.46729280435E+03  0.46729280438E+03  0.50400001928E-02 0. -1.
       -1   -1    0    0    0  501  0.00000000000E+00  0.00000000000E+00 -0.17324823289E+04  0.17324823289E+04  0.50400001928E-02 0.  1.
    10030    2    1    2    0    0  0.00000000000E+00  0.00000000000E+00 -0.12651895246E+04  0.21997751333E+04  0.17995294118E+04 0.  0.
        5    1    3    3  502    0 -0.72511387286E+03 -0.19249316309E+03 -0.25420543474E+02  0.75067439045E+03  0.46999998093E+01 0. -1.
       -5    1    3    3    0  502  0.72511387286E+03  0.19249316309E+03 -0.12397689811E+04  0.14491007429E+04  0.46999998093E+01 0.  1.
</event>
<event>
 5   0  0.9999162E-06  0.1800135E+04  0.7818609E-02  0.8706228E-01
       -2   -1    0    0    0  501  0.00000000000E+00  0.00000000000E+00  0.73948509844E+03  0.73948509844E+03  0.25500000920E-02 0. -1.
        2   -1    0    0  501    0  0.00000000000E+00  0.00000000000E+00 -0.10955206048E+04  0.10955206048E+04  0.25500000920E-02 0.  1.
    10030    2    1    2    0    0  0.00000000000E+00  0.00000000000E+00 -0.35603550632E+03  0.18350057032E+04  0.18001346197E+04 0.  0.
        1    1    3    3  502    0 -0.40012452780E+03 -0.80454438872E+03 -0.12475766136E+03  0.90716910511E+03  0.50400001928E-02 0. -1.
       -1    1    3    3    0  502  0.40012452780E+03  0.80454438872E+03 -0.23127784496E+03  0.92783659810E+03  0.50400001928E-02 0.  1.
</event>
<event>
 5   0  0.4953155E-06  0.1800045E+04  0.7818609E-02  0.8706276E-01
        1   -1    0    0  501    0  0.00000000000E+00  0.00000000000E+00  0.10728973052E+04  0.10728973052E+04  0.50400001928E-02 0. -1.
       -1   -1    0    0    0  501  0.00000000000E+00  0.00000000000E+00 -0.75500275636E+03  0.75500275638E+03  0.50400001928E-02 0.  1.
    10030    2    1    2    0    0  0.00000000000E+00  0.00000000000E+00  0.31789454883E+03  0.18279000616E+04  0.18000449136E+04 0.  0.
        2    1    3    3  502    0 -0.13866349583E+02  0.38282839441E+02 -0.75406701947E+03  0.75516549266E+03  0.25500000920E-02 0.  1.
       -2    1    3    3    0  502  0.13866349583E+02 -0.38282839441E+02  0.10719615683E+04  0.10727345689E+04  0.25500000920E-02 0. -1.
</event>
<event>
 5   0  0.1000316E-05  0.1800298E+04  0.7818609E-02  0.8706141E-01
       -2   -1    0    0    0  501  0.00000000000E+00  0.00000000000E+00  0.12777917112E+04  0.12777917112E+04  0.25500000920E-02 0.  1.
        2   -1    0    0  501    0  0.00000000000E+00  0.00000000000E+00 -0.63411582025E+03  0.63411582026E+03  0.25500000920E-02 0. -1.
    10030    2    1    2    0    0  0.00000000000E+00  0.00000000000E+00  0.64367589092E+03  0.19119075314E+04  0.18002976854E+04 0.  0.
        5    1    3    3  502    0 -0.18136963326E+03  0.54492800607E+03  0.10579196731E+04  0.12037680842E+04  0.46999998093E+01 0.  1.
       -5    1    3    3    0  502  0.18136963326E+03 -0.54492800607E+03 -0.41424378221E+03  0.70813944726E+03  0.46999998093E+01 0. -1.
</event>
<event>
 5   0  0.4987456E-06  0.1806103E+04  0.7818609E-02  0.8703061E-01
        1   -1    0    0  501    0  0.00000000000E+00  0.00000000000E+00  0.13305281147E+04  0.13305281147E+04  0.50400001928E-02 0. -1.
       -1   -1    0    0    0  501  0.00000000000E+00  0.00000000000E+00 -0.61291622520E+03  0.61291622522E+03  0.50400001928E-02 0.  1.
    10030    2    1    2    0    0  0.00000000000E+00  0.00000000000E+00  0.71761188951E+03  0.19434443399E+04  0.18061032857E+04 0.  0.
        3    1    3    3  502    0 -0.76423607814E+03  0.29640492316E+03  0.76655316956E+03  0.11222817978E+04  0.10100000352E+00 0.  1.
       -3    1    3    3    0  502  0.76423607814E+03 -0.29640492316E+03 -0.48941280047E+02  0.82116254219E+03  0.10100000352E+00 0. -1.
</event>
<event>
 5   0  0.4987456E-06  0.1799196E+04  0.7818609E-02  0.8706727E-01
        1   -1    0    0  501    0  0.00000000000E+00  0.00000000000E+00  0.70417493780E+03  0.70417493781E+03  0.50400001928E-02 0.  1.
       -1   -1    0    0    0  501  0.00000000000E+00  0.00000000000E+00 -0.11492548461E+04  0.11492548461E+04  0.50400001928E-02 0. -1.
    10030    2    1    2    0    0  0.00000000000E+00  0.00000000000E+00 -0.44507990832E+03  0.18534297839E+04  0.17991958868E+04 0.  0.
        3    1    3    3  502    0  0.14046542875E+03  0.20954736593E+03 -0.11120709138E+04  0.11403255512E+04  0.10100000352E+00 0. -1.
       -3    1    3    3    0  502 -0.14046542875E+03 -0.20954736593E+03  0.66699100544E+03  0.71310423276E+03  0.10100000352E+00 0.  1.
</event>
<event>
 5   0  0.3626125E-06  0.1799729E+04  0.7818609E-02  0.8706444E-01
       -3   -1    0    0    0  501  0.00000000000E+00  0.00000000000E+00  0.73900518844E+03  0.73900519534E+03  0.10100000352E+00 0. -1.
        3   -1    0    0  501    0  0.00000000000E+00  0.00000000000E+00 -0.10957379017E+04  0.10957379064E+04  0.10100000352E+00 0.  1.
    10030    2    1    2    0    0  0.00000000000E+00  0.00000000000E+00 -0.35673271329E+03  0.18347431017E+04  0.17997288742E+04 0.  0.
        3    1    3    3  502    0  0.93976179941E+02 -0.50227019504E+03  0.57675286268E+03  0.77055223446E+03  0.10100000352E+00 0. -1.
       -3    1    3    3    0  502 -0.93976179941E+02  0.50227019504E+03 -0.93348557597E+03  0.10641908673E+04  0.10100000352E+00 0.  1.
</event>
<event>
 5   0  0.4987456E-06  0.1799487E+04  0.7818609E-02  0.8706572E-01
        1   -1    0    0  501    0  0.00000000000E+00  0.00000000000E+00  0.72272390918E+03  0.72272390920E+03  0.50400001928E-02 0.  1.
       -1   -1    0    0    0  501  0.00000000000E+00  0.00000000000E+00 -0.11201209249E+04  0.11201209249E+04  0.50400001928E-02 0. -1.
    10030    2    1    2    0    0  0.00000000000E+00  0.00000000000E+00 -0.39739701573E+03  0.18428448341E+04  0.17994867864E+04 0.  0.
        3    1    3    3  502    0  0.32718920633E+03 -0.11021916671E+03 -0.10495832212E+04  0.11049099465E+04  0.10100000352E+00 0. -1.
       -3    1    3    3    0  502 -0.32718920633E+03  0.11021916671E+03  0.65218620552E+03  0.73793488758E+03  0.10100000352E+00 0.  1.
</event>
<event>
 5   0  0.4953155E-06  0.1799441E+04  0.7818609E-02  0.8706597E-01
        1   -1    0    0  501    0  0.00000000000E+00  0.00000000000E+00  0.12606504384E+04  0.12606504384E+04  0.50400001928E-02 0.  1.
       -1   -1    0    0    0  501  0.00000000000E+00  0.00000000000E+00 -0.64212667458E+03  0.64212667460E+03  0.50400001928E-02 0. -1.
    10030    2    1    2    0    0  0.00000000000E+00  0.00000000000E+00  0.61852376386E+03  0.19027771130E+04  0.17994413287E+04 0.  0.
        2    1    3    3  502    0  0.30466490866E+03 -0.20579103970E+03 -0.55906926374E+03  0.66912562367E+03  0.25500000920E-02 0. -1.
       -2    1    3    3    0  502 -0.30466490866E+03  0.20579103970E+03  0.11775930276E+04  0.12336514894E+04  0.25500000920E-02 0.  1.
</event>
<event>
 5   0  0.4981384E-06  0.1798283E+04  0.7818609E-02  0.8707213E-01
        1   -1    0    0  501    0  0.00000000000E+00  0.00000000000E+00  0.17811309352E+04  0.17811309352E+04  0.50400001928E-02 0.  1.
       -1   -1    0    0    0  501  0.00000000000E+00  0.00000000000E+00 -0.45389998027E+03  0.45389998029E+03  0.50400001928E-02 0. -1.
    10030    2    1    2    0    0  0.00000000000E+00  0.00000000000E+00  0.13272309549E+04  0.22350309155E+04  0.17982828436E+04 0.  0.
        5    1    3    3  502    0  0.19446901215E+03  0.86783019827E+03  0.49926621900E+03  0.10199197503E+04  0.46999998093E+01 0. -1.
       -5    1    3    3    0  502 -0.19446901215E+03 -0.86783019827E+03  0.82796473590E+03  0.12151111651E+04  0.46999998093E+01 0.  1.
</event>
<event>
 5   0  0.1000316E-05  0.1801263E+04  0.7818609E-02  0.8705628E-01
        2   -1    0    0  501    0  0.00000000000E+00  0.00000000000E+00  0.18778245984E+04  0.18778245984E+04  0.25500000920E-02 0. -1.
       -2   -1    0    0    0  501  0.00000000000E+00  0.00000000000E+00 -0.43195567435E+03  0.43195567436E+03  0.25500000920E-02 0.  1.
    10030    2    1    2    0    0  0.00000000000E+00  0.00000000000E+00  0.14458689241E+04  0.23097802728E+04  0.18012628800E+04 0.  0.
        5    1    3    3  502    0  0.14658401484E+02 -0.75057532767E+03  0.13609237331E+04  0.15542566353E+04  0.46999998093E+01 0. -1.
       -5    1    3    3    0  502 -0.14658401484E+02  0.75057532767E+03  0.84945190977E+02  0.75552363743E+03  0.46999998093E+01 0.  1.
</event>
<event>
 5   0  0.3626125E-06  0.1796601E+04  0.7818609E-02  0.8708109E-01
       -3   -1    0    0    0  501  0.00000000000E+00  0.00000000000E+00  0.23952455826E+04  0.23952455847E+04  0.10100000352E+00 0. -1.
        3   -1    0    0  501    0  0.00000000000E+00  0.00000000000E+00 -0.33689408743E+03  0.33689410257E+03  0.10100000352E+00 0.  1.
    10030    2    1    2    0    0  0.00000000000E+00  0.00000000000E+00  0.20583514952E+04  0.27321396873E+04  0.17966013451E+04 0.  0.
        2    1    3    3  502    0  0.59122351671E+02 -0.26296126813E+03 -0.27395486949E+03  0.38431152927E+03  0.25500000920E-02 0.  1.
       -2    1    3    3    0  502 -0.59122351671E+02  0.26296126813E+03  0.23323063647E+04  0.23478281580E+04  0.25500000920E-02 0. -1.
</event>
<event>
 5   0  0.9999162E-06  0.1800680E+04  0.7818609E-02  0.8705938E-01
        2   -1    0    0  501    0  0.00000000000E+00  0.00000000000E+00  0.15195080655E+04  0.15195080655E+04  0.25500000920E-02 0.  1.
       -2   -1    0    0    0  501  0.00000000000E+00  0.00000000000E+00 -0.53346987802E+03  0.53346987803E+03  0.25500000920E-02 0. -1.
    10030    2    1    2    0    0  0.00000000000E+00  0.00000000000E+00  0.98603818751E+03  0.20529779436E+04  0.18006796299E+04 0.  0.
        1    1    3    3  502    0  0.19806587495E+03  0.73109814632E+03  0.10479123604E+04  0.12930022837E+04  0.50400001928E-02 0. -1.
       -1    1    3    3    0  502 -0.19806587495E+03 -0.73109814632E+03 -0.61874172913E+02  0.75997565992E+03  0.50400001928E-02 0.  1.
</event>
<event>
 5   0  0.4994123E-06  0.1800998E+04  0.7818609E-02  0.8705769E-01
        1   -1    0    0  501    0  0.00000000000E+00  0.00000000000E+00  0.21947000955E+04  0.21947000955E+04  0.50400001928E-02 0.  1.
       -1   -1    0    0    0  501  0.00000000000E+00  0.00000000000E+00 -0.36948032535E+03  0.36948032538E+03  0.50400001928E-02 0. -1.
    10030    2    1    2    0    0  0.00000000000E+00  0.00000000000E+00  0.18252197701E+04  0.25641804208E+04  0.18009980626E+04 0.  0.
        1    1    3    3  502    0  0.42861287064E+03  0.29055931577E+03  0.19615269957E+04  0.20287241961E+04  0.50400001928E-02 0.  1.
       -1    1    3    3    0  502 -0.42861287064E+03 -0.29055931577E+03 -0.13630722560E+03  0.53545622477E+03  0.50400001928E-02 0. -1.
</event>
<event>
 5   0  0.1036381E-05  0.1799894E+04  0.7818609E-02  0.8706356E-01
        2   -1    0    0  501    0  0.00000000000E+00  0.00000000000E+00  0.58353329883E+03  0.58353329884E+03  0.25500000920E-02 0. -1.
       -2   -1    0    0    0  501  0.00000000000E+00  0.00000000000E+00 -0.13879320169E+04  0.13879320169E+04  0.25500000920E-02 0.  1.
    10030    2    1    2    0    0  0.00000000000E+00  0.00000000000E+00 -0.80439871811E+03  0.19714653158E+04  0.17998939396E+04 0.  0.
        4    1    3    3  502    0 -0.45493788796E+03  0.24288116064E+03 -0.12100275418E+04  0.13153433031E+04  0.12699999809E+01 0.  1.
       -4    1    3    3    0  502  0.45493788796E+03 -0.24288116064E+03  0.40562882368E+03  0.65612201273E+03  0.12699999809E+01 0. -1.
</event>
<event>
 5   0  0.1035018E-05  0.1801990E+04  0.7818609E-02  0.8705242E-01
       -2   -1    0    0    0  501  0.00000000000E+00  0.00000000000E+00  0.89791689359E+03  0.89791689359E+03  0.25500000920E-02 0.  1.
        2   -1    0    0  501    0  0.00000000000E+00  0.00000000000E+00 -0.90408387220E+03  0.90408387221E+03  0.25500000920E-02 0. -1.
    10030    2    1    2    0    0  0.00000000000E+00  0.00000000000E+00 -0.61669786125E+01  0.18020007658E+04  0.18019902132E+04 0.  0.
        3    1    3    3  502    0  0.10700143522E+03  0.16711415849E+03 -0.88196048268E+03  0.90400815943E+03  0.10100000352E+00 0. -1.
       -3    1    3    3    0  502 -0.10700143522E+03 -0.16711415849E+03  0.87579350407E+03  0.89799260636E+03  0.10100000352E+00 0.  1.
</event>
<event>
 5   0  0.4987456E-06  0.1797973E+04  0.7818609E-02  0.8707378E-01
       -1   -1    0    0    0  501  0.00000000000E+00  0.00000000000E+00  0.66660133308E+03  0.66660133310E+03  0.50400001928E-02 0.  1.
        1   -1    0    0  501    0  0.00000000000E+00  0.00000000000E+00 -0.12123833679E+04  0.12123833679E+04  0.50400001928E-02 0. -1.
    10030    2    1    2    0    0  0.00000000000E+00  0.00000000000E+00 -0.54578203478E+03  0.18789847010E+04  0.17979726019E+04 0.  0.
        3    1    3    3  502    0  0.48236707710E+03 -0.93331038981E+02 -0.10596656974E+04  0.11680240067E+04  0.10100000352E+00 0. -1.
       -3    1    3    3    0  502 -0.48236707710E+03  0.93331038981E+02  0.51388366258E+03  0.71096069426E+03  0.10100000352E+00 0.  1.
</event>
<event>
 5   0  0.4981384E-06  0.1801619E+04  0.7818609E-02  0.8705439E-01
       -1   -1    0    0    0  501  0.00000000000E+00  0.00000000000E+00  0.85312720422E+03  0.85312720423E+03  0.50400001928E-02 0. -1.
        1   -1    0    0  501    0  0.00000000000E+00  0.00000000000E+00 -0.95115647980E+03  0.95115647981E+03  0.50400001928E-02 0.  1.
    10030    2    1    2    0    0  0.00000000000E+00  0.00000000000E+00 -0.98029275585E+02  0.18042836840E+04  0.18016186815E+04 0.  0.
        5    1    3    3  502    0 -0.51048329708E+01  0.36490590526E+02 -0.95038920243E+03  0.95111479255E+03  0.46999998093E+01 0.  1.
       -5    1    3    3    0  502  0.51048329708E+01 -0.36490590526E+02  0.85235992685E+03  0.85316889149E+03  0.46999998093E+01 0. -1.
</event>
<event>
 5   0  0.3626125E-06  0.1800363E+04  0.7818609E-02  0.8706106E-01
       -3   -1    0    0    0  501  0.00000000000E+00  0.00000000000E+00  0.74074575944E+03  0.74074576632E+03  0.10100000352E+00 0. -1.
        3   -1    0    0  501    0  0.00000000000E+00  0.00000000000E+00 -0.10939341060E+04  0.10939341106E+04  0.10100000352E+00 0.  1.
    10030    2    1    2    0    0  0.00000000000E+00  0.00000000000E+00 -0.35318834655E+03  0.18346798770E+04  0.18003633641E+04 0.  0.
        5    1    3    3  502    0  0.13008795926E+03 -0.98161700750E+02 -0.10787631797E+04  0.10910136042E+04  0.46999998093E+01 0.  1.
       -5    1    3    3    0  502 -0.13008795926E+03  0.98161700750E+02  0.72557483320E+03  0.74366627274E+03  0.46999998093E+01 0. -1.
</event>
<event>
 5   0  0.4983159E-06  0.1802130E+04  0.7818609E-02  0.8705167E-01
       -1   -1    0    0    0  501  0.00000000000E+00  0.00000000000E+00  0.65133263873E+03  0.65133263875E+03  0.50400001928E-02 0.  1.
        1   -1    0    0  501    0  0.00000000000E+00  0.00000000000E+00 -0.12465494314E+04  0.12465494314E+04  0.50400001928E-02 0. -1.
    10030    2    1    2    0    0  0.00000000000E+00  0.00000000000E+00 -0.59521679268E+03  0.18978820702E+04  0.18021302178E+04 0.  0.
        4    1    3    3  502    0 -0.74335026843E+03 -0.41577357814E+03  0.12090357286E+02  0.85181281952E+03  0.12699999809E+01 0.  1.
       -4    1    3    3    0  502  0.74335026843E+03  0.41577357814E+03 -0.60730714996E+03  0.10460692506E+04  0.12699999809E+01 0. -1.
</event>
<event>
 5   0  0.1000316E-05  0.1804023E+04  0.7818609E-02  0.8704163E-01
        2   -1    0    0  501    0  0.00000000000E+00  0.00000000000E+00  0.12649641480E+04  0.12649641480E+04  0.25500000920E-02 0. -1.
       -2   -1    0    0    0  501  0.00000000000E+00  0.00000000000E+00 -0.64319952948E+03  0.64319952949E+03  0.25500000920E-02 0.  1.
    10030    2    1    2    0    0  0.00000000000E+00  0.00000000000E+00  0.62176461854E+03  0.19081636775E+04  0.18040225551E+04 0.  0.
        5    1    3    3  502    0  0.42968633864E+02 -0.43876238978E+02  0.12627373494E+04  0.12642385580E+04  0.46999998093E+01 0. -1.
       -5    1    3    3    0  502 -0.42968633864E+02  0.43876238978E+02 -0.64097273088E+03  0.64392511954E+03  0.46999998093E+01 0.  1.
</event>
<event>
 5   0  0.9589963E-06  0.1800927E+04  0.7818609E-02  0.8705807E-01
        2   -1    0    0  501    0  0.00000000000E+00  0.00000000000E+00  0.21620112207E+04  0.21620112207E+04  0.25500000920E-02 0. -1.
       -2   -1    0    0    0  501  0.00000000000E+00  0.00000000000E+00 -0.37503719033E+03  0.37503719034E+03  0.25500000920E-02 0.  1.
    10030    2    1    2    0    0  0.00000000000E+00  0.00000000000E+00  0.17869740304E+04  0.25370484111E+04  0.18009271098E+04 0.  0.
        2    1    3    3  502    0 -0.55740176162E+03  0.21461161772E+03  0.18427765276E+04  0.19371577635E+04  0.25500000920E-02 0. -1.
       -2    1    3    3    0  502  0.55740176162E+03 -0.21461161772E+03 -0.55802497154E+02  0.59989064754E+03  0.25500000920E-02 0.  1.
</event>
<event>
 5   0  0.1035018E-05  0.1799756E+04  0.7818609E-02  0.8706429E-01
       -2   -1    0    0    0  501  0.00000000000E+00  0.00000000000E+00  0.56640905810E+03  0.56640905811E+03  0.25500000920E-02 0.  1.
        2   -1    0    0  501    0  0.00000000000E+00  0.00000000000E+00 -0.14296738058E+04  0.14296738058E+04  0.25500000920E-02 0. -1.
    10030    2    1    2    0    0  0.00000000000E+00  0.00000000000E+00 -0.86326474770E+03  0.19960828639E+04  0.17997557543E+04 0.  0.
        3    1    3    3  502    0 -0.15132268285E+03 -0.56490006321E+03 -0.11901767070E+04  0.13260962408E+04  0.10100000352E+00 0. -1.
       -3    1    3    3    0  502  0.15132268285E+03  0.56490006321E+03  0.32691195934E+03  0.66998662309E+03  0.10100000352E+00 0.  1.
</event>
<event>
 5   0  0.9589963E-06  0.1797691E+04  0.7818609E-02  0.8707528E-01
        2   -1    0    0  501    0  0.00000000000E+00  0.00000000000E+00  0.82186085726E+03  0.82186085726E+03  0.25500000920E-02 0. -1.
       -2   -1    0    0    0  501  0.00000000000E+00  0.00000000000E+00 -0.98304142747E+03  0.98304142747E+03  0.25500000920E-02 0.  1.
    10030    2    1    2    0    0  0.00000000000E+00  0.00000000000E+00 -0.16118057021E+03  0.18049022847E+04  0.17976910416E+04 0.  0.
        2    1    3    3  502    0  0.70018748487E+03  0.50083666869E+03  0.17894886891E+03  0.87927389383E+03  0.25500000920E-02 0.  1.
       -2    1    3    3    0  502 -0.70018748487E+03 -0.50083666869E+03 -0.34012943912E+03  0.92562839090E+03  0.25500000920E-02 0. -1.
</event>
<event>
 5   0  0.1035018E-05  0.1800115E+04  0.7818609E-02  0.8706239E-01
        2   -1    0    0  501    0  0.00000000000E+00  0.00000000000E+00  0.10877666212E+04  0.10877666212E+04  0.25500000920E-02 0.  1.
       -2   -1    0    0    0  501  0.00000000000E+00  0.00000000000E+00 -0.74473984909E+03  0.74473984909E+03  0.25500000920E-02 0. -1.
    10030    2    1    2    0    0  0.00000000000E+00  0.00000000000E+00  0.34302677207E+03  0.18325064703E+04  0.18001146067E+04 0.  0.
        3    1    3    3  502    0 -0.57706817351E+03 -0.69041541730E+03  0.15060075517E+03  0.91233860106E+03  0.10100000352E+00 0. -1.
       -3    1    3    3    0  502  0.57706817351E+03  0.69041541730E+03  0.19242601690E+03  0.92016786920E+03  0.10100000352E+00 0.  1.
</event>
<event>
 5   0  0.1000316E-05  0.1800850E+04  0.7818609E-02  0.8705848E-01
       -2   -1    0    0    0  501  0.00000000000E+00  0.00000000000E+00  0.62718537075E+03  0.62718537075E+03  0.25500000920E-02 0.  1.
        2   -1    0    0  501    0  0.00000000000E+00  0.00000000000E+00 -0.12927041252E+04  0.12927041252E+04  0.25500000920E-02 0. -1.
    10030    2    1    2    0    0  0.00000000000E+00  0.00000000000E+00 -0.66551875446E+03  0.19198894960E+04  0.18008499283E+04 0.  0.
        5    1    3    3  502    0 -0.68787583320E+03 -0.94282633307E+02 -0.94396280002E+03  0.11718149319E+04  0.46999998093E+01 0. -1.
       -5    1    3    3    0  502  0.68787583320E+03  0.94282633307E+02  0.27844404557E+03  0.74807456404E+03  0.46999998093E+01 0.  1.
</event>
<event>
 5   0  0.1036381E-05  0.1801228E+04  0.7818609E-02  0.8705647E-01
        2   -1    0    0  501    0  0.00000000000E+00  0.00000000000E+00  0.10601063145E+04  0.10601063145E+04  0.25500000920E-02 0.  1.
       -2   -1    0    0    0  501  0.00000000000E+00  0.00000000000E+00 -0.76511739905E+03  0.76511739905E+03  0.25500000920E-02 0. -1.
    10030    2    1    2    0    0  0.00000000000E+00  0.00000000000E+00  0.29498891541E+03  0.18252237135E+04  0.18012282321E+04 0.  0.
        4    1    3    3  502    0  0.55304743608E+03 -0.62851316509E+03  0.48390187125E+03  0.96698133340E+03  0.12699999809E+01 0.  1.
       -4    1    3    3    0  502 -0.55304743608E+03  0.62851316509E+03 -0.18891295583E+03  0.85824238012E+03  0.12699999809E+01 0. -1.
</event>
<event>
 5   0  0.1036381E-05  0.1802799E+04  0.7818609E-02  0.8704813E-01
        2   -1    0    0  501    0  0.00000000000E+00  0.00000000000E+00  0.26124138832E+03  0.26124138833E+03  0.25500000920E-02 0.  1.
       -2   -1    0    0    0  501  0.00000000000E+00  0.00000000000E+00 -0.31102294294E+04  0.31102294294E+04  0.25500000920E-02 0. -1.
    10030    2    1    2    0    0  0.00000000000E+00  0.00000000000E+00 -0.28489880411E+04  0.33714708177E+04  0.18027985513E+04 0.  0.
        4    1    3    3  502    0  0.21207133286E+03 -0.20302851525E+03  0.16931934932E+03  0.33891810689E+03  0.12699999809E+01 0.  1.
       -4    1    3    3    0  502 -0.21207133286E+03  0.20302851525E+03 -0.30183073904E+04  0.30325527109E+04  0.12699999809E+01 0. -1.
</event>
<event>
 5   0  0.4994123E-06  0.1803716E+04  0.7818609E-02  0.8704326E-01
        1   -1    0    0  501    0  0.00000000000E+00  0.00000000000E+00  0.74825798498E+03  0.74825798500E+03  0.50400001928E-02 0.  1.
       -1   -1    0    0    0  501  0.00000000000E+00  0.00000000000E+00 -0.10869886884E+04  0.10869886884E+04  0.50400001928E-02 0. -1.
    10030    2    1    2    0    0  0.00000000000E+00  0.00000000000E+00 -0.33873070340E+03  0.18352466734E+04  0.18037161259E+04 0.  0.
        1    1    3    3  502    0  0.24255956874E+03 -0.63513859409E+03  0.43353975501E+03  0.80634539578E+03  0.50400001928E-02 0.  1.
       -1    1    3    3    0  502 -0.24255956874E+03  0.63513859409E+03 -0.77227045841E+03  0.10289012776E+04  0.50400001928E-02 0. -1.
</event>
<event>
 5   0  0.9589963E-06  0.1798746E+04  0.7818609E-02  0.8706966E-01
        2   -1    0    0  501    0  0.00000000000E+00  0.00000000000E+00  0.75292831262E+03  0.75292831262E+03  0.25500000920E-02 0. -1.
       -2   -1    0    0    0  501  0.00000000000E+00  0.00000000000E+00 -0.10743016946E+04  0.10743016946E+04  0.25500000920E-02 0.  1.
    10030    2    1    2    0    0  0.00000000000E+00  0.00000000000E+00 -0.32137338200E+03  0.18272300072E+04  0.17987464103E+04 0.  0.
        2    1    3    3  502    0  0.51935223849E+03  0.67819579891E+03 -0.44656062188E+03  0.96389453692E+03  0.25500000920E-02 0.  1.
       -2    1    3    3    0  502 -0.51935223849E+03 -0.67819579891E+03  0.12518723987E+03  0.86333547032E+03  0.25500000920E-02 0. -1.
</event>
<event>
 5   0  0.4981384E-06  0.1800295E+04  0.7818609E-02  0.8706143E-01
        1   -1    0    0  501    0  0.00000000000E+00  0.00000000000E+00  0.19015496559E+04  0.19015496559E+04  0.50400001928E-02 0.  1.
       -1   -1    0    0    0  501  0.00000000000E+00  0.00000000000E+00 -0.42610780550E+03  0.42610780553E+03  0.50400001928E-02 0. -1.
    10030    2    1    2    0    0  0.00000000000E+00  0.00000000000E+00  0.14754418504E+04  0.23276574614E+04  0.18002945881E+04 0.  0.
        5    1    3    3  502    0  0.10137687165E+03  0.85936879998E+03  0.41721196833E+03  0.96066639423E+03  0.46999998093E+01 0.  1.
       -5    1    3    3    0  502 -0.10137687165E+03 -0.85936879998E+03  0.10582298820E+04  0.13669910672E+04  0.46999998093E+01 0. -1.
</event>
<event>
 5   0  0.4983159E-06  0.1799187E+04  0.7818609E-02  0.8706732E-01
       -1   -1    0    0    0  501  0.00000000000E+00  0.00000000000E+00  0.45087581995E+03  0.45087581998E+03  0.50400001928E-02 0. -1.
        1   -1    0    0  501    0  0.00000000000E+00  0.00000000000E+00 -0.17948806252E+04  0.17948806252E+04  0.50400001928E-02 0.  1.
    10030    2    1    2    0    0  0.00000000000E+00  0.00000000000E+00 -0.13440048053E+04  0.22457564452E+04  0.17991867870E+04 0.  0.
        4    1    3    3  502    0  0.40070902154E+03  0.29111547435E+03 -0.16093636180E+04  0.16838553403E+04  0.12699999809E+01 0.  1.
       -4    1    3    3    0  502 -0.40070902154E+03 -0.29111547435E+03  0.26535881267E+03  0.56190110492E+03  0.12699999809E+01 0. -1.
</event>
<event>
 5   0  0.4981384E-06  0.1800509E+04  0.7818609E-02  0.8706029E-01
        1   -1    0    0  501    0  0.00000000000E+00  0.00000000000E+00  0.14559333884E+04  0.14559333884E+04  0.50400001928E-02 0. -1.
       -1   -1    0    0    0  501  0.00000000000E+00  0.00000000000E+00 -0.55665877384E+03  0.55665877387E+03  0.50400001928E-02 0.  1.
    10030    2    1    2    0    0  0.00000000000E+00  0.00000000000E+00  0.89927461452E+03  0.20125921622E+04  0.18005089223E+04 0.  0.
        5    1    3    3  502    0 -0.87693104240E+02 -0.60496893558E+03  0.11883595704E+04  0.13363749669E+04  0.46999998093E+01 0. -1.
       -5    1    3    3    0  502  0.87693104240E+02  0.60496893558E+03 -0.28908495590E+03  0.67621719534E+03  0.46999998093E+01 0.  1.
</event>
<event>
 5   0  0.9999162E-06  0.1799725E+04  0.7818609E-02  0.8706446E-01
        2   -1    0    0  501    0  0.00000000000E+00  0.00000000000E+00  0.93791284308E+03  0.93791284308E+03  0.25500000920E-02 0. -1.
       -2   -1    0    0    0  501  0.00000000000E+00  0.00000000000E+00 -0.86335560639E+03  0.86335560639E+03  0.25500000920E-02 0.  1.
    10030    2    1    2    0    0  0.00000000000E+00  0.00000000000E+00  0.74557236694E+02  0.18012684495E+04  0.17997247694E+04 0.  0.
        1    1    3    3  502    0  0.29175819533E+03 -0.36822879387E+03  0.80542438993E+03  0.93242894480E+03  0.50400001928E-02 0. -1.
       -1    1    3    3    0  502 -0.29175819533E+03  0.36822879387E+03 -0.73086715323E+03  0.86883950467E+03  0.50400001928E-02 0.  1.
</event>
<event>
 5   0  0.1035018E-05  0.1799881E+04  0.7818609E-02  0.8706363E-01
        2   -1    0    0  501    0  0.00000000000E+00  0.00000000000E+00  0.12243330926E+04  0.12243330926E+04  0.25500000920E-02 0.  1.
       -2   -1    0    0    0  501  0.00000000000E+00  0.00000000000E+00 -0.66149727782E+03  0.66149727783E+03  0.25500000920E-02 0. -1.
    10030    2    1    2    0    0  0.00000000000E+00  0.00000000000E+00  0.56283581478E+03  0.18858303704E+04  0.17998811160E+04 0.  0.
        3    1    3    3  502    0 -0.60068031753E+03  0.43575795552E+03 -0.25200160267E+03  0.78371337721E+03  0.10100000352E+00 0. -1.
       -3    1    3    3    0  502  0.60068031753E+03 -0.43575795552E+03  0.81483741745E+03  0.11021169932E+04  0.10100000352E+00 0.  1.
</event>
<event>
 5   0  0.1000316E-05  0.1799796E+04  0.7818609E-02  0.8706408E-01
       -2   -1    0    0    0  501  0.00000000000E+00  0.00000000000E+00  0.46728429533E+03  0.46728429533E+03  0.25500000920E-02 0. -1.
        2   -1    0    0  501    0  0.00000000000E+00  0.00000000000E+00 -0.17330280097E+04  0.17330280097E+04  0.25500000920E-02 0.  1.
    10030    2    1    2    0    0  0.00000000000E+00  0.00000000000E+00 -0.12657437143E+04  0.22003123050E+04  0.17997964021E+04 0.  0.
        5    1    3    3  502    0 -0.60745457171E+03 -0.11956350853E+03 -0.14312700513E+04  0.15594398158E+04  0.46999998093E+01 0.  1.
       -5    1    3    3    0  502  0.60745457171E+03  0.11956350853E+03  0.16552633694E+03  0.64087248925E+03  0.46999998093E+01 0. -1.
</event>
<event>
 5   0  0.4981384E-06  0.1802735E+04  0.7818609E-02  0.8704846E-01
        1   -1    0    0  501    0  0.00000000000E+00  0.00000000000E+00  0.73781171542E+03  0.73781171544E+03  0.50400001928E-02 0. -1.
       -1   -1    0    0    0  501  0.00000000000E+00  0.00000000000E+00 -0.11011795957E+04  0.11011795957E+04  0.50400001928E-02 0.  1.
    10030    2    1    2    0    0  0.00000000000E+00  0.00000000000E+00 -0.36336788026E+03  0.18389913111E+04  0.18027348185E+04 0.  0.
        5    1    3    3  502    0  0.76787619777E+03 -0.93885917350E+02  0.29021315661E+03  0.82625310096E+03  0.46999998093E+01 0. -1.
       -5    1    3    3    0  502 -0.76787619777E+03  0.93885917350E+02 -0.65358103687E+03  0.10127382102E+04  0.46999998093E+01 0.  1.
</event>
<event>
 5   0  0.1035018E-05  0.1799810E+04  0.7818609E-02  0.8706401E-01
        2   -1    0    0  501    0  0.00000000000E+00  0.00000000000E+00  0.18997063440E+04  0.18997063440E+04  0.25500000920E-02 0.  1.
       -2   -1    0    0    0  501  0.00000000000E+00  0.00000000000E+00 -0.42629152694E+03  0.42629152694E+03  0.25500000920E-02 0. -1.
    10030    2    1    2    0    0  0.00000000000E+00  0.00000000000E+00  0.14734148171E+04  0.23259978709E+04  0.17998096767E+04 0.  0.
        3    1    3    3  502    0 -0.73440514679E+03 -0.16677737878E+03  0.13733337377E+04  0.15662730218E+04  0.10100000352E+00 0.  1.
       -3    1    3    3    0  502  0.73440514679E+03  0.16677737878E+03  0.10008107940E+03  0.75972484911E+03  0.10100000352E+00 0. -1.
</event>
<event>
 5   0  0.1036381E-05  0.1801657E+04  0.7818609E-02  0.8705419E-01
       -2   -1    0    0    0  501  0.00000000000E+00  0.00000000000E+00  0.88672497866E+03  0.88672497866E+03  0.25500000920E-02 0. -1.
        2   -1    0    0  501    0  0.00000000000E+00  0.00000000000E+00 -0.91515630833E+03  0.91515630834E+03  0.25500000920E-02 0.  1.
    10030    2    1    2    0    0  0.00000000000E+00  0.00000000000E+00 -0.28431329677E+02  0.18018812870E+04  0.18016569684E+04 0.  0.
        4    1    3    3  502    0 -0.67482676931E+03 -0.22977746191E+03  0.53658105393E+03  0.89224979177E+03  0.12699999809E+01 0. -1.
       -4    1    3    3    0  502  0.67482676931E+03  0.22977746191E+03 -0.56501238361E+03  0.90963149523E+03  0.12699999809E+01 0.  1.
</event>
<event>
 5   0  0.1000316E-05  0.1799252E+04  0.7818609E-02  0.8706698E-01
       -2   -1    0    0    0  501  0.00000000000E+00  0.00000000000E+00  0.38654050695E+03  0.38654050696E+03  0.25500000920E-02 0. -1.
        2   -1    0    0  501    0  0.00000000000E+00  0.00000000000E+00 -0.20937690578E+04  0.20937690578E+04  0.25500000920E-02 0.  1.
    10030    2    1    2    0    0  0.00000000000E+00  0.00000000000E+00 -0.17072285509E+04  0.24803095648E+04  0.17992515700E+04 0.  0.
        5    1    3    3  502    0 -0.31435471119E+03  0.34582909547E+03 -0.19132742121E+04  0.19695321649E+04  0.46999998093E+01 0.  1.
       -5    1    3    3    0  502  0.31435471119E+03 -0.34582909547E+03  0.20604566126E+03  0.51077739989E+03  0.46999998093E+01 0. -1.
</event>
<event>
 5   0  0.4981384E-06  0.1800019E+04  0.7818609E-02  0.8706289E-01
        1   -1    0    0  501    0  0.00000000000E+00  0.00000000000E+00  0.79133485769E+03  0.79133485770E+03  0.50400001928E-02 0. -1.
       -1   -1    0    0    0  501  0.00000000000E+00  0.00000000000E+00 -0.10236083696E+04  0.10236083696E+04  0.50400001928E-02 0.  1.
    10030    2    1    2    0    0  0.00000000000E+00  0.00000000000E+00 -0.23227351194E+03  0.18149432273E+04  0.18000188705E+04 0.  0.
        5    1    3    3  502    0 -0.39278925677E+03 -0.29445568112E+02  0.69979730430E+03  0.80304968640E+03  0.46999998093E+01 0. -1.
       -5    1    3    3    0  502  0.39278925677E+03  0.29445568112E+02 -0.93207081624E+03  0.10118935409E+04  0.46999998093E+01 0.  1.
</event>
<event>
 5   0  0.1035018E-05  0.1800632E+04  0.7818609E-02  0.8705963E-01
       -2   -1    0    0    0  501  0.00000000000E+00  0.00000000000E+00  0.10774185538E+04  0.10774185538E+04  0.25500000920E-02 0.  1.
        2   -1    0    0  501    0  0.00000000000E+00  0.00000000000E+00 -0.75232533578E+03  0.75232533578E+03  0.25500000920E-02 0. -1.
    10030    2    1    2    0    0  0.00000000000E+00  0.00000000000E+00  0.32509321800E+03  0.18297438896E+04  0.18006324170E+04 0.  0.
        3    1    3    3  502    0 -0.80211284528E+02 -0.34645533693E+03 -0.67793137584E+03  0.76554301721E+03  0.10100000352E+00 0. -1.
       -3    1    3    3    0  502  0.80211284528E+02  0.34645533693E+03  0.10030245938E+04  0.10642008723E+04  0.10100000352E+00 0.  1.
</event>
<event>
 5   0  0.9999162E-06  0.1799324E+04  0.7818609E-02  0.8706659E-01
        2   -1    0    0  501    0  0.00000000000E+00  0.00000000000E+00  0.12172520062E+04  0.12172520062E+04  0.25500000920E-02 0. -1.
       -2   -1    0    0    0  501  0.00000000000E+00  0.00000000000E+00 -0.66493358627E+03  0.66493358627E+03  0.25500000920E-02 0.  1.
    10030    2    1    2    0    0  0.00000000000E+00  0.00000000000E+00  0.55231841994E+03  0.18821855925E+04  0.17993240307E+04 0.  0.
        1    1    3    3  502    0  0.43111041704E+03  0.78339215921E+03  0.37988340531E+03  0.97153016857E+03  0.50400001928E-02 0. -1.
       -1    1    3    3    0  502 -0.43111041704E+03 -0.78339215921E+03  0.17243501463E+03  0.91065542390E+03  0.50400001928E-02 0.  1.
</event>
<event>
 5   0  0.1036381E-05  0.1802822E+04  0.7818609E-02  0.8704800E-01
       -2   -1    0    0    0  501  0.00000000000E+00  0.00000000000E+00  0.11932308339E+04  0.11932308339E+04  0.25500000920E-02 0. -1.
        2   -1    0    0  501    0  0.00000000000E+00  0.00000000000E+00 -0.68095943446E+03  0.68095943447E+03  0.25500000920E-02 0.  1.
    10030    2    1    2    0    0  0.00000000000E+00  0.00000000000E+00  0.51227139941E+03  0.18741902683E+04  0.18028220032E+04 0.  0.
        4    1    3    3  502    0  0.24284206969E+03  0.36855668195E+03  0.10732099797E+04  0.11604255996E+04  0.12699999809E+01 0. -1.
       -4    1    3    3    0  502 -0.24284206969E+03 -0.36855668195E+03 -0.56093858031E+03  0.71376466879E+03  0.12699999809E+01 0.  1.
</event>
<event>
 5   0  0.9999162E-06  0.1803558E+04  0.7818609E-02  0.8704410E-01
        2   -1    0    0  501    0  0.00000000000E+00  0.00000000000E+00  0.94328564602E+03  0.94328564602E+03  0.25500000920E-02 0. -1.
       -2   -1    0    0    0  501  0.00000000000E+00  0.00000000000E+00 -0.86209857084E+03  0.86209857084E+03  0.25500000920E-02 0.  1.
    10030    2    1    2    0    0  0.00000000000E+00  0.00000000000E+00  0.81187075182E+02  0.18053842169E+04  0.18035578253E+04 0.  0.
        1    1    3    3  502    0 -0.19797397059E+03  0.46522340526E+03 -0.70687455199E+03  0.86907890443E+03  0.50400001928E-02 0.  1.
       -1    1    3    3    0  502  0.19797397059E+03 -0.46522340526E+03  0.78806162718E+03  0.93630531243E+03  0.50400001928E-02 0. -1.
</event>
<event>
 5   0  0.1035018E-05  0.1799909E+04  0.7818609E-02  0.8706348E-01
        2   -1    0    0  501    0  0.00000000000E+00  0.00000000000E+00  0.11247052260E+04  0.11247052260E+04  0.25500000920E-02 0. -1.
       -2   -1    0    0    0  501  0.00000000000E+00  0.00000000000E+00 -0.72011557103E+03  0.72011557104E+03  0.25500000920E-02 0.  1.
    10030    2    1    2    0    0  0.00000000000E+00  0.00000000000E+00  0.40458965496E+03  0.18448207970E+04  0.17999086044E+04 0.  0.
        3    1    3    3  502    0 -0.78246771435E+03  0.56353328324E+02 -0.24971539398E+03  0.82327954536E+03  0.10100000352E+00 0.  1.
       -3    1    3    3    0  502  0.78246771435E+03 -0.56353328324E+02  0.65430504894E+03  0.10215412517E+04  0.10100000352E+00 0. -1.
</event>
<event>
 5   0  0.9589963E-06  0.1799375E+04  0.7818609E-02  0.8706632E-01
       -2   -1    0    0    0  501  0.00000000000E+00  0.00000000000E+00  0.91444768383E+03  0.91444768383E+03  0.25500000920E-02 0.  1.
        2   -1    0    0  501    0  0.00000000000E+00  0.00000000000E+00 -0.88516518701E+03  0.88516518702E+03  0.25500000920E-02 0. -1.
    10030    2    1    2    0    0  0.00000000000E+00  0.00000000000E+00  0.29282496816E+02  0.17996128708E+04  0.17993746192E+04 0.  0.
        2    1    3    3  502    0  0.64833537047E+02  0.89699638306E+03 -0.10488883335E+02  0.89939752914E+03  0.25500000920E-02 0.  1.
       -2    1    3    3    0  502 -0.64833537047E+02 -0.89699638306E+03  0.39771380152E+02  0.90021534170E+03  0.25500000920E-02 0. -1.
</event>
<event>
 5   0  0.9999162E-06  0.1799907E+04  0.7818609E-02  0.8706349E-01
       -2   -1    0    0    0  501  0.00000000000E+00  0.00000000000E+00  0.39686506109E+03  0.39686506110E+03  0.25500000920E-02 0.  1.
        2   -1    0    0  501    0  0.00000000000E+00  0.00000000000E+00 -0.20407860309E+04  0.20407860309E+04  0.25500000920E-02 0. -1.
    10030    2    1    2    0    0  0.00000000000E+00  0.00000000000E+00 -0.16439209698E+04  0.24376510920E+04  0.17999074119E+04 0.  0.
        1    1    3    3  502    0  0.30950657330E+03  0.13229612885E+03 -0.19523272384E+04  0.19811305435E+04  0.50400001928E-02 0. -1.
       -1    1    3    3    0  502 -0.30950657330E+03 -0.13229612885E+03  0.30840626862E+03  0.45652054846E+03  0.50400001928E-02 0.  1.
</event>
<event>
 5   0  0.9589963E-06  0.1800256E+04  0.7818609E-02  0.8706163E-01
       -2   -1    0    0    0  501  0.00000000000E+00  0.00000000000E+00  0.44492434214E+03  0.44492434215E+03  0.25500000920E-02 0. -1.
        2   -1    0    0  501    0  0.00000000000E+00  0.00000000000E+00 -0.18210521800E+04  0.18210521800E+04  0.25500000920E-02 0.  1.
    10030    2    1    2    0    0  0.00000000000E+00  0.00000000000E+00 -0.13761278378E+04  0.22659765221E+04  0.18002560298E+04 0.  0.
        2    1    3    3  502    0  0.45148706208E+03 -0.45514115504E+03 -0.14833734730E+04  0.16159798571E+04  0.25500000920E-02 0.  1.
       -2    1    3    3    0  502 -0.45148706208E+03  0.45514115504E+03  0.10724563517E+03  0.64999666500E+03  0.25500000920E-02 0. -1.
</event>
<event>
 5   0  0.4994123E-06  0.1800241E+04  0.7818609E-02  0.8706171E-01
       -1   -1    0    0    0  501  0.00000000000E+00  0.00000000000E+00  0.67393934485E+03  0.67393934486E+03  0.50400001928E-02 0.  1.
        1   -1    0    0  501    0  0.00000000000E+00  0.00000000000E+00 -0.12022101096E+04  0.12022101096E+04  0.50400001928E-02 0. -1.
    10030    2    1    2    0    0  0.00000000000E+00  0.00000000000E+00 -0.52827076473E+03  0.18761494545E+04  0.18002407546E+04 0.  0.
        1    1    3    3  502    0 -0.46697632761E+03  0.69747455431E+03  0.74655169830E+02  0.84268086419E+03  0.50400001928E-02 0. -1.
       -1    1    3    3    0  502  0.46697632761E+03 -0.69747455431E+03 -0.60292593457E+03  0.10334685903E+04  0.50400001928E-02 0.  1.
</event>
<event>
 5   0  0.4953155E-06  0.1800381E+04  0.7818609E-02  0.8706097E-01
       -1   -1    0    0    0  501  0.00000000000E+00  0.00000000000E+00  0.13989183897E+04  0.13989183897E+04  0.50400001928E-02 0. -1.
        1   -1    0    0  501    0  0.00000000000E+00  0.00000000000E+00 -0.57926397236E+03  0.57926397238E+03  0.50400001928E-02 0.  1.
    10030    2    1    2    0    0  0.00000000000E+00  0.00000000000E+00  0.81965441734E+03  0.19781823621E+04  0.18003810968E+04 0.  0.
        2    1    3    3  502    0  0.41067171938E+03  0.16896951766E+03  0.12701909167E+04  0.13455805156E+04  0.25500000920E-02 0. -1.
       -2    1    3    3    0  502 -0.41067171938E+03 -0.16896951766E+03 -0.45053649934E+03  0.63260184654E+03  0.25500000920E-02 0.  1.
</event>
<event>
 5   0  0.4983159E-06  0.1800644E+04  0.7818609E-02  0.8705957E-01
        1   -1    0    0  501    0  0.00000000000E+00  0.00000000000E+00  0.84558681563E+03  0.84558681564E+03  0.50400001928E-02 0. -1.
       -1   -1    0    0    0  501  0.00000000000E+00  0.00000000000E+00 -0.95860073121E+03  0.95860073123E+03  0.50400001928E-02 0.  1.
    10030    2    1    2    0    0  0.00000000000E+00  0.00000000000E+00 -0.11301391559E+03  0.18041875469E+04  0.18006444844E+04 0.  0.
        4    1    3    3  502    0  0.74366986235E+03  0.29611564607E+03  0.35643160492E+03  0.87622739167E+03  0.12699999809E+01 0. -1.
       -4    1    3    3    0  502 -0.74366986235E+03 -0.29611564607E+03 -0.46944552051E+03  0.92796015520E+03  0.12699999809E+01 0.  1.
</event>
<event>
 5   0  0.4981384E-06  0.1798900E+04  0.7818609E-02  0.8706885E-01
        1   -1    0    0  501    0  0.00000000000E+00  0.00000000000E+00  0.12062054818E+04  0.12062054818E+04  0.50400001928E-02 0. -1.
       -1   -1    0    0    0  501  0.00000000000E+00  0.00000000000E+00 -0.67070660803E+03  0.67070660805E+03  0.50400001928E-02 0.  1.
    10030    2    1    2    0    0  0.00000000000E+00  0.00000000000E+00  0.53549887374E+03  0.18769120898E+04  0.17988996496E+04 0.  0.
        5    1    3    3  502    0  0.25028295434E+03  0.47696593869E+03 -0.48380048741E+03  0.72403250308E+03  0.46999998093E+01 0.  1.
       -5    1    3    3    0  502 -0.25028295434E+03 -0.47696593869E+03  0.10192993612E+04  0.11528795867E+04  0.46999998093E+01 0. -1.
</event>
<event>
 5   0  0.1035018E-05  0.1799773E+04  0.7818609E-02  0.8706420E-01
       -2   -1    0    0    0  501  0.00000000000E+00  0.00000000000E+00  0.88816597835E+03  0.88816597835E+03  0.25500000920E-02 0. -1.
        2   -1    0    0  501    0  0.00000000000E+00  0.00000000000E+00 -0.91176217475E+03  0.91176217476E+03  0.25500000920E-02 0.  1.
    10030    2    1    2    0    0  0.00000000000E+00  0.00000000000E+00 -0.23596196403E+02  0.17999281531E+04  0.17997734790E+04 0.  0.
        3    1    3    3  502    0 -0.87106006571E+03 -0.33599222720E+02 -0.23524869432E+03  0.90289340690E+03  0.10100000352E+00 0. -1.
       -3    1    3    3    0  502  0.87106006571E+03  0.33599222720E+02  0.21165249791E+03  0.89703474621E+03  0.10100000352E+00 0.  1.
</event>
<event>
 5   0  0.1035018E-05  0.1797719E+04  0.7818609E-02  0.8707514E-01
        2   -1    0    0  501    0  0.00000000000E+00  0.00000000000E+00  0.93549951020E+03  0.93549951020E+03  0.25500000920E-02 0. -1.
       -2   -1    0    0    0  501  0.00000000000E+00  0.00000000000E+00 -0.86365427802E+03  0.86365427802E+03  0.25500000920E-02 0.  1.
    10030    2    1    2    0    0  0.00000000000E+00  0.00000000000E+00  0.71845232184E+02  0.17991537882E+04  0.17977187256E+04 0.  0.
        3    1    3    3  502    0 -0.19047331507E+03  0.13391027320E+03  0.90479541868E+03  0.93427341013E+03  0.10100000352E+00 0. -1.
       -3    1    3    3    0  502  0.19047331507E+03 -0.13391027320E+03 -0.83295018649E+03  0.86488037809E+03  0.10100000352E+00 0.  1.
</event>
<event>
 5   0  0.4987456E-06  0.1794600E+04  0.7818609E-02  0.8709176E-01
        1   -1    0    0  501    0  0.00000000000E+00  0.00000000000E+00  0.12415893775E+04  0.12415893775E+04  0.50400001928E-02 0. -1.
       -1   -1    0    0    0  501  0.00000000000E+00  0.00000000000E+00 -0.64848140197E+03  0.64848140199E+03  0.50400001928E-02 0.  1.
    10030    2    1    2    0    0  0.00000000000E+00  0.00000000000E+00  0.59310797549E+03  0.18900707795E+04  0.17946003680E+04 0.  0.
        3    1    3    3  502    0 -0.26371331535E+03  0.19727622850E+03  0.11756342751E+04  0.12208925350E+04  0.10100000352E+00 0. -1.
       -3    1    3    3    0  502  0.26371331535E+03 -0.19727622850E+03 -0.58252629957E+03  0.66917824450E+03  0.10100000352E+00 0.  1.
</event>
<event>
 5   0  0.4983159E-06  0.1801126E+04  0.7818609E-02  0.8705701E-01
        1   -1    0    0  501    0  0.00000000000E+00  0.00000000000E+00  0.86957854757E+03  0.86957854758E+03  0.50400001928E-02 0.  1.
       -1   -1    0    0    0  501  0.00000000000E+00  0.00000000000E+00 -0.93265169773E+03  0.93265169774E+03  0.50400001928E-02 0. -1.
    10030    2    1    2    0    0  0.00000000000E+00  0.00000000000E+00 -0.63073150158E+02  0.18022302453E+04  0.18011262129E+04 0.  0.
        4    1    3    3  502    0 -0.36540567796E+03  0.68602802705E+03 -0.48663019506E+03  0.91704215990E+03  0.12699999809E+01 0. -1.
       -4    1    3    3    0  502  0.36540567796E+03 -0.68602802705E+03  0.42355704490E+03  0.88518808542E+03  0.12699999809E+01 0.  1.
</event>
<event>
 5   0  0.4981384E-06  0.1800368E+04  0.7818609E-02  0.8706104E-01
       -1   -1    0    0    0  501  0.00000000000E+00  0.00000000000E+00  0.34576102669E+03  0.34576102673E+03  0.50400001928E-02 0. -1.
        1   -1    0    0  501    0  0.00000000000E+00  0.00000000000E+00 -0.23436167977E+04  0.23436167977E+04  0.50400001928E-02 0.  1.
    10030    2    1    2    0    0  0.00000000000E+00  0.00000000000E+00 -0.19978557710E+04  0.26893778244E+04  0.18003681293E+04 0.  0.
        5    1    3    3  502    0 -0.19906553961E+03  0.87788385641E+03 -0.99676018928E+03  0.13430785976E+04  0.46999998093E+01 0. -1.
       -5    1    3    3    0  502  0.19906553961E+03 -0.87788385641E+03 -0.10010955817E+04  0.13462992268E+04  0.46999998093E+01 0.  1.
</event>
<event>
 5   0  0.1036381E-05  0.1800458E+04  0.7818609E-02  0.8706056E-01
        2   -1    0    0  501    0  0.00000000000E+00  0.00000000000E+00  0.53968136014E+03  0.53968136014E+03  0.25500000920E-02 0. -1.
       -2   -1    0    0    0  501  0.00000000000E+00  0.00000000000E+00 -0.15016492245E+04  0.15016492245E+04  0.25500000920E-02 0.  1.
    10030    2    1    2    0    0  0.00000000000E+00  0.00000000000E+00 -0.96196786435E+03  0.20413305846E+04  0.18004578261E+04 0.  0.
        4    1    3    3  502    0 -0.40125555997E+03 -0.49500933561E+03  0.23999067611E+03  0.68090924819E+03  0.12699999809E+01 0. -1.
       -4    1    3    3    0  502  0.40125555997E+03  0.49500933561E+03 -0.12019585405E+04  0.13604213364E+04  0.12699999809E+01 0.  1.
</event>
<event>
 5   0  0.1036381E-05  0.1804076E+04  0.7818609E-02  0.8704135E-01
       -2   -1    0    0    0  501  0.00000000000E+00  0.00000000000E+00  0.12633628408E+04  0.12633628408E+04  0.25500000920E-02 0. -1.
        2   -1    0    0  501    0  0.00000000000E+00  0.00000000000E+00 -0.64405325682E+03  0.64405325682E+03  0.25500000920E-02 0.  1.
    10030    2    1    2    0    0  0.00000000000E+00  0.00000000000E+00  0.61930958394E+03  0.19074160976E+04  0.18040764420E+04 0.  0.
        4    1    3    3  502    0  0.13175808108E+03 -0.87952911916E+03  0.46908941636E+03  0.10054740956E+04  0.12699999809E+01 0. -1.
       -4    1    3    3    0  502 -0.13175808108E+03  0.87952911916E+03  0.15022016758E+03  0.90194200203E+03  0.12699999809E+01 0.  1.
</event>
<event>
 5   0  0.1035018E-05  0.1798624E+04  0.7818609E-02  0.8707031E-01
       -2   -1    0    0    0  501  0.00000000000E+00  0.00000000000E+00  0.11419039888E+04  0.11419039888E+04  0.25500000920E-02 0.  1.
        2   -1    0    0  501    0  0.00000000000E+00  0.00000000000E+00 -0.70825787911E+03  0.70825787912E+03  0.25500000920E-02 0. -1.
    10030    2    1    2    0    0  0.00000000000E+00  0.00000000000E+00  0.43364610964E+03  0.18501618679E+04  0.17986244713E+04 0.  0.
        3    1    3    3  502    0  0.21606285585E+03 -0.74989043119E+03 -0.24291001102E+03  0.81732741305E+03  0.10100000352E+00 0. -1.
       -3    1    3    3    0  502 -0.21606285585E+03  0.74989043119E+03  0.67655612066E+03  0.10328344548E+04  0.10100000352E+00 0.  1.
</event>
<event>
 5   0  0.4994123E-06  0.1797686E+04  0.7818609E-02  0.8707531E-01
        1   -1    0    0  501    0  0.00000000000E+00  0.00000000000E+00  0.54363814143E+03  0.54363814145E+03  0.50400001928E-02 0. -1.
       -1   -1    0    0    0  501  0.00000000000E+00  0.00000000000E+00 -0.14861339788E+04  0.14861339788E+04  0.50400001928E-02 0.  1.
    10030    2    1    2    0    0  0.00000000000E+00  0.00000000000E+00 -0.94249583736E+03  0.20297721202E+04  0.17976864178E+04 0.  0.
        1    1    3    3  502    0  0.23119715480E+03  0.80450995501E+03 -0.84098495947E+03  0.11865682004E+04  0.50400001928E-02 0.  1.
       -1    1    3    3    0  502 -0.23119715480E+03 -0.80450995501E+03 -0.10151087789E+03  0.84320391985E+03  0.50400001928E-02 0. -1.
</event>
<event>
 5   0  0.1036381E-05  0.1798156E+04  0.7818609E-02  0.8707281E-01
        2   -1    0    0  501    0  0.00000000000E+00  0.00000000000E+00  0.10586647370E+04  0.10586647370E+04  0.25500000920E-02 0.  1.
       -2   -1    0    0    0  501  0.00000000000E+00  0.00000000000E+00 -0.76354788182E+03  0.76354788183E+03  0.25500000920E-02 0. -1.
    10030    2    1    2    0    0  0.00000000000E+00  0.00000000000E+00  0.29511685520E+03  0.18222126189E+04  0.17981559638E+04 0.  0.
        4    1    3    3  502    0 -0.49940220130E+03  0.55803172699E+03  0.65174620479E+03  0.99276215447E+03  0.12699999809E+01 0.  1.
       -4    1    3    3    0  502  0.49940220130E+03 -0.55803172699E+03 -0.35662934959E+03  0.82945046439E+03  0.12699999809E+01 0. -1.
</event>
<event>
 5   0  0.4983159E-06  0.1798365E+04  0.7818609E-02  0.8707169E-01
        1   -1    0    0  501    0  0.00000000000E+00  0.00000000000E+00  0.22576925347E+04  0.22576925347E+04  0.50400001928E-02 0.  1.
       -1   -1    0    0    0  501  0.00000000000E+00  0.00000000000E+00 -0.35812197823E+03  0.35812197826E+03  0.50400001928E-02 0. -1.
    10030    2    1    2    0    0  0.00000000000E+00  0.00000000000E+00  0.18995705564E+04  0.26158145129E+04  0.17983651651E+04 0.  0.
        4    1    3    3  502    0  0.97493815354E+02 -0.24400252888E+03  0.22006025599E+04  0.22162345358E+04  0.12699999809E+01 0.  1.
       -4    1    3    3    0  502 -0.97493815354E+02  0.24400252888E+03 -0.30103200345E+03  0.39957997714E+03  0.12699999809E+01 0. -1.
</event>
<event>
 5   0  0.9999162E-06  0.1799862E+04  0.7818609E-02  0.8706373E-01
        2   -1    0    0  501    0  0.00000000000E+00  0.00000000000E+00  0.68427039856E+03  0.68427039857E+03  0.25500000920E-02 0.  1.
       -2   -1    0    0    0  501  0.00000000000E+00  0.00000000000E+00 -0.11835609280E+04  0.11835609280E+04  0.25500000920E-02 0. -1.
    10030    2    1    2    0    0  0.00000000000E+00  0.00000000000E+00 -0.49929052947E+03  0.18678313266E+04  0.17998618924E+04 0.  0.
        1    1    3    3  502    0  0.44854287776E+03 -0.22687079787E+03  0.52501223635E+03  0.72684174375E+03  0.50400001928E-02 0.  1.
       -1    1    3    3    0  502 -0.44854287776E+03  0.22687079787E+03 -0.10243027658E+04  0.11409895829E+04  0.50400001928E-02 0. -1.
</event>
<event>
 5   0  0.1000316E-05  0.1798119E+04  0.7818609E-02  0.8707300E-01
       -2   -1    0    0    0  501  0.00000000000E+00  0.00000000000E+00  0.38647758538E+03  0.38647758539E+03  0.25500000920E-02 0.  1.
        2   -1    0    0  501    0  0.00000000000E+00  0.00000000000E+00 -0.20914749061E+04  0.20914749061E+04  0.25500000920E-02 0. -1.
    10030    2    1    2    0    0  0.00000000000E+00  0.00000000000E+00 -0.17049973207E+04  0.24779524915E+04  0.17981192081E+04 0.  0.
        5    1    3    3  502    0  0.72079468004E+02 -0.20943247250E+03 -0.20532713326E+04  0.20651882882E+04  0.46999998093E+01 0. -1.
       -5    1    3    3    0  502 -0.72079468004E+02  0.20943247250E+03  0.34827401186E+03  0.41276420336E+03  0.46999998093E+01 0.  1.
</event>
<event>
 5   0  0.4994123E-06  0.1799450E+04  0.7818609E-02  0.8706592E-01
        1   -1    0    0  501    0  0.00000000000E+00  0.00000000000E+00  0.16431815434E+04  0.16431815434E+04  0.50400001928E-02 0. -1.
       -1   -1    0    0    0  501  0.00000000000E+00  0.00000000000E+00 -0.49264499227E+03  0.49264499230E+03  0.50400001928E-02 0.  1.
    10030    2    1    2    0    0  0.00000000000E+00  0.00000000000E+00  0.11505365512E+04  0.21358265357E+04  0.17994500924E+04 0.  0.
        1    1    3    3  502    0 -0.31107999977E+03 -0.57594536758E+03 -0.15738891108E+03  0.67324223134E+03  0.50400001928E-02 0.  1.
       -1    1    3    3    0  502  0.31107999977E+03  0.57594536758E+03  0.13079254622E+04  0.14625843044E+04  0.50400001928E-02 0. -1.
</event>
<event>
 5   0  0.4994123E-06  0.1800320E+04  0.7818609E-02  0.8706129E-01
        1   -1    0    0  501    0  0.00000000000E+00  0.00000000000E+00  0.93108341168E+03  0.93108341170E+03  0.50400001928E-02 0. -1.
       -1   -1    0    0    0  501  0.00000000000E+00  0.00000000000E+00 -0.87026354511E+03  0.87026354513E+03  0.50400001928E-02 0.  1.
    10030    2    1    2    0    0  0.00000000000E+00  0.00000000000E+00  0.60819866572E+02  0.18013469568E+04  0.18003199168E+04 0.  0.
        1    1    3    3  502    0 -0.14502763669E+03 -0.84220741013E+03  0.31331070951E+03  0.91022521268E+03  0.50400001928E-02 0.  1.
       -1    1    3    3    0  502  0.14502763669E+03  0.84220741013E+03 -0.25249084294E+03  0.89112174414E+03  0.50400001928E-02 0. -1.
</event>
<event>
 5   0  0.4983159E-06  0.1799773E+04  0.7818609E-02  0.8706420E-01
        1   -1    0    0  501    0  0.00000000000E+00  0.00000000000E+00  0.76896534018E+03  0.76896534020E+03  0.50400001928E-02 0. -1.
       -1   -1    0    0    0  501  0.00000000000E+00  0.00000000000E+00 -0.10530980663E+04  0.10530980663E+04  0.50400001928E-02 0.  1.
    10030    2    1    2    0    0  0.00000000000E+00  0.00000000000E+00 -0.28413272616E+03  0.18220634065E+04  0.17997732222E+04 0.  0.
        4    1    3    3  502    0 -0.28784322311E+03 -0.60195484184E+03  0.46922553617E+03  0.81570679132E+03  0.12699999809E+01 0. -1.
       -4    1    3    3    0  502  0.28784322311E+03  0.60195484184E+03 -0.75335826232E+03  0.10063566152E+04  0.12699999809E+01 0.  1.
</event>
<event>
 5   0  0.1036381E-05  0.1800461E+04  0.7818609E-02  0.8706055E-01
        2   -1    0    0  501    0  0.00000000000E+00  0.00000000000E+00  0.12648668459E+04  0.12648668459E+04  0.25500000920E-02 0. -1.
       -2   -1    0    0    0  501  0.00000000000E+00  0.00000000000E+00 -0.64071144072E+03  0.64071144073E+03  0.25500000920E-02 0.  1.
    10030    2    1    2    0    0  0.00000000000E+00  0.00000000000E+00  0.62415540517E+03  0.19055782866E+04  0.18004606734E+04 0.  0.
        4    1    3    3  502    0 -0.16489938651E+03 -0.20810477622E+03 -0.59832528183E+03  0.65459465422E+03  0.12699999809E+01 0.  1.
       -4    1    3    3    0  502  0.16489938651E+03  0.20810477622E+03  0.12224806870E+04  0.12509836324E+04  0.12699999809E+01 0. -1.
</event>
<event>
 5   0  0.4994123E-06  0.1801114E+04  0.7818609E-02  0.8705707E-01
       -1   -1    0    0    0  501  0.00000000000E+00  0.00000000000E+00  0.42655921100E+03  0.42655921103E+03  0.50400001928E-02 0. -1.
        1   -1    0    0  501    0  0.00000000000E+00  0.00000000000E+00 -0.19012671454E+04  0.19012671454E+04  0.50400001928E-02 0.  1.
    10030    2    1    2    0    0  0.00000000000E+00  0.00000000000E+00 -0.14747079344E+04  0.23278263564E+04  0.18011141146E+04 0.  0.
        1    1    3    3  502    0  0.85367630949E+02 -0.87665072450E+03 -0.97983279560E+03  0.13175266345E+04  0.50400001928E-02 0.  1.
       -1    1    3    3    0  502 -0.85367630949E+02  0.87665072450E+03 -0.49487513878E+03  0.10102997220E+04  0.50400001928E-02 0. -1.
</event>
<event>
 5   0  0.9999162E-06  0.1800141E+04  0.7818609E-02  0.8706225E-01
        2   -1    0    0  501    0  0.00000000000E+00  0.00000000000E+00  0.81162677050E+03  0.81162677051E+03  0.25500000920E-02 0. -1.
       -2   -1    0    0    0  501  0.00000000000E+00  0.00000000000E+00 -0.99815170701E+03  0.99815170702E+03  0.25500000920E-02 0.  1.
    10030    2    1    2    0    0  0.00000000000E+00  0.00000000000E+00 -0.18652493651E+03  0.18097784775E+04  0.18001407128E+04 0.  0.
        1    1    3    3  502    0 -0.10049666656E+03  0.25029175478E+03  0.77004394472E+03  0.81591250715E+03  0.50400001928E-02 0. -1.
       -1    1    3    3    0  502  0.10049666656E+03 -0.25029175478E+03 -0.95656888123E+03  0.99386597037E+03  0.50400001928E-02 0.  1.
</event>
<event>
 5   0  0.3626125E-06  0.1798685E+04  0.7818609E-02  0.8706999E-01
       -3   -1    0    0    0  501  0.00000000000E+00  0.00000000000E+00  0.60480881497E+03  0.60480882340E+03  0.10100000352E+00 0.  1.
        3   -1    0    0  501    0  0.00000000000E+00  0.00000000000E+00 -0.13373104620E+04  0.13373104658E+04  0.10100000352E+00 0. -1.
    10030    2    1    2    0    0  0.00000000000E+00  0.00000000000E+00 -0.73250164701E+03  0.19421192892E+04  0.17986852617E+04 0.  0.
        5    1    3    3  502    0  0.75833942098E+03 -0.43787488816E+03 -0.58748498951E+03  0.10545016823E+04  0.46999998093E+01 0. -1.
       -5    1    3    3    0  502 -0.75833942098E+03  0.43787488816E+03 -0.14501665750E+03  0.88761760688E+03  0.46999998093E+01 0.  1.
</event>
<event>
 5   0  0.4981384E-06  0.1799589E+04  0.7818609E-02  0.8706518E-01
        1   -1    0    0  501    0  0.00000000000E+00  0.00000000000E+00  0.70307052330E+03  0.70307052331E+03  0.50400001928E-02 0. -1.
       -1   -1    0    0    0  501  0.00000000000E+00  0.00000000000E+00 -0.11515633569E+04  0.11515633569E+04  0.50400001928E-02 0.  1.
    10030    2    1    2    0    0  0.00000000000E+00  0.00000000000E+00 -0.44849283356E+03  0.18546338802E+04  0.17995891219E+04 0.  0.
        5    1    3    3  502    0 -0.66536042801E+03  0.15263216245E+03  0.37986338937E+03  0.78122939061E+03  0.46999998093E+01 0. -1.
       -5    1    3    3    0  502  0.66536042801E+03 -0.15263216245E+03 -0.82835622293E+03  0.10734044896E+04  0.46999998093E+01 0.  1.
</event>
<event>
 5   0  0.1035018E-05  0.1800330E+04  0.7818609E-02  0.8706124E-01
       -2   -1    0    0    0  501  0.00000000000E+00  0.00000000000E+00  0.43270003051E+03  0.43270003052E+03  0.25500000920E-02 0. -1.
        2   -1    0    0  501    0  0.00000000000E+00  0.00000000000E+00 -0.18726521343E+04  0.18726521343E+04  0.25500000920E-02 0.  1.
    10030    2    1    2    0    0  0.00000000000E+00  0.00000000000E+00 -0.14399521038E+04  0.23053521649E+04  0.18003295650E+04 0.  0.
        3    1    3    3  502    0 -0.61625488433E+03 -0.23252354198E+03 -0.15056535324E+04  0.16434201684E+04  0.10100000352E+00 0.  1.
       -3    1    3    3    0  502  0.61625488433E+03  0.23252354198E+03  0.65701428579E+02  0.66193199647E+03  0.10100000352E+00 0. -1.
</event>
<event>
 5   0  0.4994123E-06  0.1800550E+04  0.7818609E-02  0.8706007E-01
        1   -1    0    0  501    0  0.00000000000E+00  0.00000000000E+00  0.13007205587E+04  0.13007205587E+04  0.50400001928E-02 0. -1.
       -1   -1    0    0    0  501  0.00000000000E+00  0.00000000000E+00 -0.62311236898E+03  0.62311236900E+03  0.50400001928E-02 0.  1.
    10030    2    1    2    0    0  0.00000000000E+00  0.00000000000E+00  0.67760818972E+03  0.19238329277E+04  0.18005499924E+04 0.  0.
        1    1    3    3  502    0 -0.71738047037E+03 -0.49200397124E+03  0.58661631466E+03  0.10492003372E+04  0.50400001928E-02 0. -1.
       -1    1    3    3    0  502  0.71738047037E+03  0.49200397124E+03  0.90991875064E+02  0.87463259048E+03  0.50400001928E-02 0.  1.
</event>
<event>
 5   0  0.4981384E-06  0.1799614E+04  0.7818609E-02  0.8706505E-01
       -1   -1    0    0    0  501  0.00000000000E+00  0.00000000000E+00  0.57844461224E+03  0.57844461226E+03  0.50400001928E-02 0. -1.
        1   -1    0    0  501    0  0.00000000000E+00  0.00000000000E+00 -0.13997063757E+04  0.13997063757E+04  0.50400001928E-02 0.  1.
    10030    2    1    2    0    0  0.00000000000E+00  0.00000000000E+00 -0.82126176343E+03  0.19781509879E+04  0.17996139717E+04 0.  0.
        5    1    3    3  502    0  0.25489116482E+03  0.67036181602E+03  0.18667142699E+03  0.74109566314E+03  0.46999998093E+01 0. -1.
       -5    1    3    3    0  502 -0.25489116482E+03 -0.67036181602E+03 -0.10079331904E+04  0.12370553248E+04  0.46999998093E+01 0.  1.
</event>
<event>
 5   0  0.1000316E-05  0.1799926E+04  0.7818609E-02  0.8706339E-01
        2   -1    0    0  501    0  0.00000000000E+00  0.00000000000E+00  0.14450002860E+04  0.14450002860E+04  0.25500000920E-02 0. -1.
       -2   -1    0    0    0  501  0.00000000000E+00  0.00000000000E+00 -0.56050723887E+03  0.56050723887E+03  0.25500000920E-02 0.  1.
    10030    2    1    2    0    0  0.00000000000E+00  0.00000000000E+00  0.88449304714E+03  0.20055075249E+04  0.17999256879E+04 0.  0.
        5    1    3    3  502    0 -0.46676077232E+03  0.71965866773E+02 -0.41132381705E+03  0.62630190566E+03  0.46999998093E+01 0.  1.
       -5    1    3    3    0  502  0.46676077232E+03 -0.71965866773E+02  0.12958168642E+04  0.13792056192E+04  0.46999998093E+01 0. -1.
</event>
<event>
 5   0  0.4994123E-06  0.1798978E+04  0.7818609E-02  0.8706843E-01
       -1   -1    0    0    0  501  0.00000000000E+00  0.00000000000E+00  0.13176799188E+04  0.13176799188E+04  0.50400001928E-02 0. -1.
        1   -1    0    0  501    0  0.00000000000E+00  0.00000000000E+00 -0.61401896865E+03  0.61401896867E+03  0.50400001928E-02 0.  1.
    10030    2    1    2    0    0  0.00000000000E+00  0.00000000000E+00  0.70366095012E+03  0.19316988875E+04  0.17989780041E+04 0.  0.
        1    1    3    3  502    0 -0.58842294947E+03 -0.26172906341E+03  0.10261212644E+04  0.12114736974E+04  0.50400001928E-02 0. -1.
       -1    1    3    3    0  502  0.58842294947E+03  0.26172906341E+03 -0.32246031431E+03  0.72022519008E+03  0.50400001928E-02 0.  1.
</event>
<event>
 5   0  0.4981384E-06  0.1799882E+04  0.7818609E-02  0.8706362E-01
        1   -1    0    0  501    0  0.00000000000E+00  0.00000000000E+00  0.11995251809E+04  0.11995251809E+04  0.50400001928E-02 0.  1.
       -1   -1    0    0    0  501  0.00000000000E+00  0.00000000000E+00 -0.67517841757E+03  0.67517841759E+03  0.50400001928E-02 0. -1.
    10030    2    1    2    0    0  0.00000000000E+00  0.00000000000E+00  0.52434676329E+03  0.18747035985E+04  0.17998816777E+04 0.  0.
        5    1    3    3  502    0  0.11815749307E+02  0.38764838502E+03  0.11080033420E+04  0.11739269049E+04  0.46999998093E+01 0.  1.
       -5    1    3    3    0  502 -0.11815749307E+02 -0.38764838502E+03 -0.58365657868E+03  0.70077669351E+03  0.46999998093E+01 0. -1.
</event>
<event>
 5   0  0.4987456E-06  0.1799927E+04  0.7818609E-02  0.8706338E-01
        1   -1    0    0  501    0  0.00000000000E+00  0.00000000000E+00  0.14166941899E+04  0.14166941899E+04  0.50400001928E-02 0.  1.
       -1   -1    0    0    0  501  0.00000000000E+00  0.00000000000E+00 -0.57170711236E+03  0.57170711238E+03  0.50400001928E-02 0. -1.
    10030    2    1    2    0    0  0.00000000000E+00  0.00000000000E+00  0.84498707755E+03  0.19884013023E+04  0.17999268257E+04 0.  0.
        3    1    3    3  502    0 -0.89300479595E+03  0.10670867396E+03  0.45896289377E+03  0.10096985960E+04  0.10100000352E+00 0.  1.
       -3    1    3    3    0  502  0.89300479595E+03 -0.10670867396E+03  0.38602418379E+03  0.97870270632E+03  0.10100000352E+00 0. -1.
</event>
<event>
 5   0  0.1036381E-05  0.1799827E+04  0.7818609E-02  0.8706391E-01
        2   -1    0    0  501    0  0.00000000000E+00  0.00000000000E+00  0.13642389575E+04  0.13642389575E+04  0.25500000920E-02 0. -1.
       -2   -1    0    0    0  501  0.00000000000E+00  0.00000000000E+00 -0.59362367832E+03  0.59362367833E+03  0.25500000920E-02 0.  1.
    10030    2    1    2    0    0  0.00000000000E+00  0.00000000000E+00  0.77061527913E+03  0.19578626358E+04  0.17998272673E+04 0.  0.
        4    1    3    3  502    0  0.40856516112E+03  0.60488291838E+03 -0.18724840696E+03  0.75357309840E+03  0.12699999809E+01 0.  1.
       -4    1    3    3    0  502 -0.40856516112E+03 -0.60488291838E+03  0.95786368609E+03  0.12042895374E+04  0.12699999809E+01 0. -1.
</event>
<event>
 5   0  0.4953155E-06  0.1800298E+04  0.7818609E-02  0.8706141E-01
        1   -1    0    0  501    0  0.00000000000E+00  0.00000000000E+00  0.17595291645E+04  0.17595291645E+04  0.50400001928E-02 0.  1.
       -1   -1    0    0    0  501  0.00000000000E+00  0.00000000000E+00 -0.46050306546E+03  0.46050306548E+03  0.50400001928E-02 0. -1.
    10030    2    1    2    0    0  0.00000000000E+00  0.00000000000E+00  0.12990260991E+04  0.22200322300E+04  0.18002983909E+04 0.  0.
        2    1    3    3  502    0 -0.51150497802E+03 -0.65008100091E+03  0.21174432514E+03  0.85386082562E+03  0.25500000920E-02 0. -1.
       -2    1    3    3    0  502  0.51150497802E+03  0.65008100091E+03  0.10872817739E+04  0.13661714044E+04  0.25500000920E-02 0.  1.
</event>
<event>
 5   0  0.3626125E-06  0.1799893E+04  0.7818609E-02  0.8706356E-01
       -3   -1    0    0    0  501  0.00000000000E+00  0.00000000000E+00  0.41662198806E+03  0.41662200030E+03  0.10100000352E+00 0.  1.
        3   -1    0    0  501    0  0.00000000000E+00  0.00000000000E+00 -0.19439770224E+04  0.19439770250E+04  0.10100000352E+00 0. -1.
    10030    2    1    2    0    0  0.00000000000E+00  0.00000000000E+00 -0.15273550343E+04  0.23605990253E+04  0.17998928739E+04 0.  0.
        1    1    3    3  502    0 -0.88240609746E+03  0.15993312031E+03 -0.66479480170E+03  0.11163204075E+04  0.50400001928E-02 0. -1.
       -1    1    3    3    0  502  0.88240609746E+03 -0.15993312031E+03 -0.86256023261E+03  0.12442786178E+04  0.50400001928E-02 0.  1.
</event>
<event>
 5   0  0.9999162E-06  0.1800343E+04  0.7818609E-02  0.8706117E-01
       -2   -1    0    0    0  501  0.00000000000E+00  0.00000000000E+00  0.50461067567E+03  0.50461067568E+03  0.25500000920E-02 0.  1.
        2   -1    0    0  501    0  0.00000000000E+00  0.00000000000E+00 -0.16058092321E+04  0.16058092321E+04  0.25500000920E-02 0. -1.
    10030    2    1    2    0    0  0.00000000000E+00  0.00000000000E+00 -0.11011985564E+04  0.21104199078E+04  0.18003427247E+04 0.  0.
        1    1    3    3  502    0 -0.17629573595E+03  0.49428307924E+03  0.30674464419E+03  0.60785543158E+03  0.50400001928E-02 0.  1.
       -1    1    3    3    0  502  0.17629573595E+03 -0.49428307924E+03 -0.14079432006E+04  0.15025644762E+04  0.50400001928E-02 0. -1.
</event>
<event>
 5   0  0.1036381E-05  0.1799510E+04  0.7818609E-02  0.8706560E-01
       -2   -1    0    0    0  501  0.00000000000E+00  0.00000000000E+00  0.38372848148E+03  0.38372848149E+03  0.25500000920E-02 0.  1.
        2   -1    0    0  501    0  0.00000000000E+00  0.00000000000E+00 -0.21097187194E+04  0.21097187194E+04  0.25500000920E-02 0. -1.
    10030    2    1    2    0    0  0.00000000000E+00  0.00000000000E+00 -0.17259902379E+04  0.24934472009E+04  0.17995101117E+04 0.  0.
        4    1    3    3  502    0  0.88758046263E+03 -0.10878039440E+02 -0.10668287781E+04  0.13878193917E+04  0.12699999809E+01 0.  1.
       -4    1    3    3    0  502 -0.88758046263E+03  0.10878039440E+02 -0.65916145985E+03  0.11056278092E+04  0.12699999809E+01 0. -1.
</event>
<event>
 5   0  0.1036381E-05  0.1804183E+04  0.7818609E-02  0.8704078E-01
       -2   -1    0    0    0  501  0.00000000000E+00  0.00000000000E+00  0.64893148130E+03  0.64893148131E+03  0.25500000920E-02 0. -1.
        2   -1    0    0  501    0  0.00000000000E+00  0.00000000000E+00 -0.12540135007E+04  0.12540135007E+04  0.25500000920E-02 0.  1.
    10030    2    1    2    0    0  0.00000000000E+00  0.00000000000E+00 -0.60508201942E+03  0.19029449820E+04  0.18041827386E+04 0.  0.
        4    1    3    3  502    0 -0.81054929056E+03 -0.39148978693E+03 -0.36505448705E+03  0.97134998693E+03  0.12699999809E+01 0. -1.
       -4    1    3    3    0  502  0.81054929056E+03  0.39148978693E+03 -0.24002753236E+03  0.93159499509E+03  0.12699999809E+01 0.  1.
</event>
<event>
 5   0  0.9589963E-06  0.1799886E+04  0.7818609E-02  0.8706360E-01
       -2   -1    0    0    0  501  0.00000000000E+00  0.00000000000E+00  0.74970116614E+03  0.74970116615E+03  0.25500000920E-02 0.  1.
        2   -1    0    0  501    0  0.00000000000E+00  0.00000000000E+00 -0.10802938246E+04  0.10802938246E+04  0.25500000920E-02 0. -1.
    10030    2    1    2    0    0  0.00000000000E+00  0.00000000000E+00 -0.33059265850E+03  0.18299949908E+04  0.17998861521E+04 0.  0.
        2    1    3    3  502    0  0.46060036806E+03  0.50215380679E+03  0.43240357193E+03  0.80702168109E+03  0.25500000920E-02 0.  1.
       -2    1    3    3    0  502 -0.46060036806E+03 -0.50215380679E+03 -0.76299623042E+03  0.10229733097E+04  0.25500000920E-02 0. -1.
</event>
<event>
 5   0  0.1035018E-05  0.1800198E+04  0.7818609E-02  0.8706194E-01
       -2   -1    0    0    0  501  0.00000000000E+00  0.00000000000E+00  0.39329659972E+03  0.39329659973E+03  0.25500000920E-02 0. -1.
        2   -1    0    0  501    0  0.00000000000E+00  0.00000000000E+00 -0.20599678928E+04  0.20599678928E+04  0.25500000920E-02 0.  1.
    10030    2    1    2    0    0  0.00000000000E+00  0.00000000000E+00 -0.16666712930E+04  0.24532644925E+04  0.18001981755E+04 0.  0.
        3    1    3    3  502    0  0.37459105662E+03  0.79917680201E+03 -0.10739583486E+04  0.13901037966E+04  0.10100000352E+00 0.  1.
       -3    1    3    3    0  502 -0.37459105662E+03 -0.79917680201E+03 -0.59271294439E+03  0.10631606959E+04  0.10100000352E+00 0. -1.
</event>
<event>
 5   0  0.4987456E-06  0.1798720E+04  0.7818609E-02  0.8706980E-01
       -1   -1    0    0    0  501  0.00000000000E+00  0.00000000000E+00  0.45701307860E+03  0.45701307863E+03  0.50400001928E-02 0. -1.
        1   -1    0    0  501    0  0.00000000000E+00  0.00000000000E+00 -0.17698588621E+04  0.17698588621E+04  0.50400001928E-02 0.  1.
    10030    2    1    2    0    0  0.00000000000E+00  0.00000000000E+00 -0.13128457835E+04  0.22268719408E+04  0.17987202643E+04 0.  0.
        3    1    3    3  502    0  0.63290665900E+03 -0.54142336874E+03 -0.23633325967E+03  0.86577336702E+03  0.10100000352E+00 0. -1.
       -3    1    3    3    0  502 -0.63290665900E+03  0.54142336874E+03 -0.10765125239E+04  0.13610985737E+04  0.10100000352E+00 0.  1.
</event>
<event>
 5   0  0.4983159E-06  0.1799713E+04  0.7818609E-02  0.8706452E-01
        1   -1    0    0  501    0  0.00000000000E+00  0.00000000000E+00  0.60300388371E+03  0.60300388373E+03  0.50400001928E-02 0. -1.
       -1   -1    0    0    0  501  0.00000000000E+00  0.00000000000E+00 -0.13428468607E+04  0.13428468607E+04  0.50400001928E-02 0.  1.
    10030    2    1    2    0    0  0.00000000000E+00  0.00000000000E+00 -0.73984297698E+03  0.19458507444E+04  0.17997131685E+04 0.  0.
        4    1    3    3  502    0 -0.67012701816E+03  0.59647334045E+03 -0.29431786920E+03  0.94417969019E+03  0.12699999809E+01 0.  1.
       -4    1    3    3    0  502  0.67012701816E+03 -0.59647334045E+03 -0.44552510777E+03  0.10016710542E+04  0.12699999809E+01 0. -1.
</event>
<event>
 5   0  0.1035018E-05  0.1796980E+04  0.7818609E-02  0.8707907E-01
       -2   -1    0    0    0  501  0.00000000000E+00  0.00000000000E+00  0.35438455019E+03  0.35438455020E+03  0.25500000920E-02 0.  1.
        2   -1    0    0  501    0  0.00000000000E+00  0.00000000000E+00 -0.22779903263E+04  0.22779903263E+04  0.25500000920E-02 0. -1.
    10030    2    1    2    0    0  0.00000000000E+00  0.00000000000E+00 -0.19236057762E+04  0.26323748765E+04  0.17969803306E+04 0.  0.
        3    1    3    3  502    0  0.43258523481E+03  0.50665977906E+03 -0.78668046086E+02  0.67083737878E+03  0.10100000352E+00 0.  1.
       -3    1    3    3    0  502 -0.43258523481E+03 -0.50665977906E+03 -0.18449377301E+04  0.19615374978E+04  0.10100000352E+00 0. -1.
</event>
<event>
 5   0  0.9589963E-06  0.1800050E+04  0.7818609E-02  0.8706273E-01
       -2   -1    0    0    0  501  0.00000000000E+00  0.00000000000E+00  0.94879984333E+03  0.94879984333E+03  0.25500000920E-02 0. -1.
        2   -1    0    0  501    0  0.00000000000E+00  0.00000000000E+00 -0.85375782472E+03  0.85375782473E+03  0.25500000920E-02 0.  1.
    10030    2    1    2    0    0  0.00000000000E+00  0.00000000000E+00  0.95042018607E+02  0.18025576681E+04  0.18000503219E+04 0.  0.
        2    1    3    3  502    0 -0.61198066954E+02  0.18990374165E+03 -0.83133274620E+03  0.85494021393E+03  0.25500000920E-02 0.  1.
       -2    1    3    3    0  502  0.61198066954E+02 -0.18990374165E+03  0.92637476481E+03  0.94761745413E+03  0.25500000920E-02 0. -1.
</event>
<event>
 5   0  0.4994123E-06  0.1802083E+04  0.7818609E-02  0.8705193E-01
       -1   -1    0    0    0  501  0.00000000000E+00  0.00000000000E+00  0.10832508141E+04  0.10832508141E+04  0.50400001928E-02 0. -1.
        1   -1    0    0  501    0  0.00000000000E+00  0.00000000000E+00 -0.74948054332E+03  0.74948054334E+03  0.50400001928E-02 0.  1.
    10030    2    1    2    0    0  0.00000000000E+00  0.00000000000E+00  0.33377027078E+03  0.18327313575E+04  0.18020825827E+04 0.  0.
        1    1    3    3  502    0 -0.32192234231E+03 -0.68623391979E+03 -0.32855973567E+03  0.82613708734E+03  0.50400001928E-02 0.  1.
       -1    1    3    3    0  502  0.32192234231E+03  0.68623391979E+03  0.66233000645E+03  0.10065942701E+04  0.50400001928E-02 0. -1.
</event>
<event>
 5   0  0.9999162E-06  0.1799746E+04  0.7818609E-02  0.8706434E-01
        2   -1    0    0  501    0  0.00000000000E+00  0.00000000000E+00  0.80036741554E+03  0.80036741554E+03  0.25500000920E-02 0.  1.
       -2   -1    0    0    0  501  0.00000000000E+00  0.00000000000E+00 -0.10117500773E+04  0.10117500773E+04  0.25500000920E-02 0. -1.
    10030    2    1    2    0    0  0.00000000000E+00  0.00000000000E+00 -0.21138266172E+03  0.18121174928E+04  0.17997464205E+04 0.  0.
        1    1    3    3  502    0  0.19395542308E+03 -0.37550141284E+03  0.69422016640E+03  0.81274944273E+03  0.50400001928E-02 0.  1.
       -1    1    3    3    0  502 -0.19395542308E+03  0.37550141284E+03 -0.90560282813E+03  0.99936805008E+03  0.50400001928E-02 0. -1.
</event>
<event>
 5   0  0.4953155E-06  0.1800695E+04  0.7818609E-02  0.8705930E-01
       -1   -1    0    0    0  501  0.00000000000E+00  0.00000000000E+00  0.65637528858E+03  0.65637528860E+03  0.50400001928E-02 0. -1.
        1   -1    0    0  501    0  0.00000000000E+00  0.00000000000E+00 -0.12350026084E+04  0.12350026084E+04  0.50400001928E-02 0.  1.
    10030    2    1    2    0    0  0.00000000000E+00  0.00000000000E+00 -0.57862731979E+03  0.18913778970E+04  0.18006945254E+04 0.  0.
        2    1    3    3  502    0  0.34638342329E+03 -0.47108292116E+03  0.42979933749E+03  0.72569143928E+03  0.25500000920E-02 0. -1.
       -2    1    3    3    0  502 -0.34638342329E+03  0.47108292116E+03 -0.10084266573E+04  0.11656864577E+04  0.25500000920E-02 0.  1.
</event>
<event>
 5   0  0.1000316E-05  0.1799953E+04  0.7818609E-02  0.8706325E-01
        2   -1    0    0  501    0  0.00000000000E+00  0.00000000000E+00  0.16151214434E+04  0.16151214434E+04  0.25500000920E-02 0. -1.
       -2   -1    0    0    0  501  0.00000000000E+00  0.00000000000E+00 -0.50148403036E+03  0.50148403036E+03  0.25500000920E-02 0.  1.
    10030    2    1    2    0    0  0.00000000000E+00  0.00000000000E+00  0.11136374131E+04  0.21166054738E+04  0.17999529005E+04 0.  0.
        5    1    3    3  502    0 -0.98874255000E+02 -0.23463420867E+03  0.15718696981E+04  0.15923648351E+04  0.46999998093E+01 0. -1.
       -5    1    3    3    0  502  0.98874255000E+02  0.23463420867E+03 -0.45823228506E+03  0.52424063869E+03  0.46999998093E+01 0.  1.
</event>
<event>
 5   0  0.4953155E-06  0.1799988E+04  0.7818609E-02  0.8706306E-01
        1   -1    0    0  501    0  0.00000000000E+00  0.00000000000E+00  0.11659624338E+04  0.11659624338E+04  0.50400001928E-02 0.  1.
       -1   -1    0    0    0  501  0.00000000000E+00  0.00000000000E+00 -0.69469550967E+03  0.69469550969E+03  0.50400001928E-02 0. -1.
    10030    2    1    2    0    0  0.00000000000E+00  0.00000000000E+00  0.47126692413E+03  0.18606579435E+04  0.17999876302E+04 0.  0.
        2    1    3    3  502    0 -0.27938352174E+03 -0.41963811753E+03  0.10063079243E+04  0.11255251842E+04  0.25500000920E-02 0.  1.
       -2    1    3    3    0  502  0.27938352174E+03  0.41963811753E+03 -0.53504100014E+03  0.73513275927E+03  0.25500000920E-02 0. -1.
</event>
<event>
 5   0  0.4987456E-06  0.1801463E+04  0.7818609E-02  0.8705522E-01
        1   -1    0    0  501    0  0.00000000000E+00  0.00000000000E+00  0.12317247342E+04  0.12317247342E+04  0.50400001928E-02 0. -1.
       -1   -1    0    0    0  501  0.00000000000E+00  0.00000000000E+00 -0.65868386864E+03  0.65868386866E+03  0.50400001928E-02 0.  1.
    10030    2    1    2    0    0  0.00000000000E+00  0.00000000000E+00  0.57304086555E+03  0.18904086029E+04  0.18014629755E+04 0.  0.
        3    1    3    3  502    0 -0.25797416777E+03  0.20979547580E+03 -0.59192064898E+03  0.67892184955E+03  0.10100000352E+00 0.  1.
       -3    1    3    3    0  502  0.25797416777E+03 -0.20979547580E+03  0.11649615145E+04  0.12114867533E+04  0.10100000352E+00 0. -1.
</event>
<event>
 5   0  0.4981384E-06  0.1797916E+04  0.7818609E-02  0.8707408E-01
       -1   -1    0    0    0  501  0.00000000000E+00  0.00000000000E+00  0.56232755891E+03  0.56232755893E+03  0.50400001928E-02 0.  1.
        1   -1    0    0  501    0  0.00000000000E+00  0.00000000000E+00 -0.14371082943E+04  0.14371082943E+04  0.50400001928E-02 0. -1.
    10030    2    1    2    0    0  0.00000000000E+00  0.00000000000E+00 -0.87478073540E+03  0.19994358532E+04  0.17979161260E+04 0.  0.
        5    1    3    3  502    0 -0.82511066384E+03  0.96461962639E+02 -0.81938958454E+03  0.11668478474E+04  0.46999998093E+01 0. -1.
       -5    1    3    3    0  502  0.82511066384E+03 -0.96461962639E+02 -0.55391150854E+02  0.83258800580E+03  0.46999998093E+01 0.  1.
</event>
<event>
 5   0  0.9999162E-06  0.1799461E+04  0.7818609E-02  0.8706586E-01
        2   -1    0    0  501    0  0.00000000000E+00  0.00000000000E+00  0.12291817968E+04  0.12291817968E+04  0.25500000920E-02 0.  1.
       -2   -1    0    0    0  501  0.00000000000E+00  0.00000000000E+00 -0.65858015264E+03  0.65858015264E+03  0.25500000920E-02 0. -1.
    10030    2    1    2    0    0  0.00000000000E+00  0.00000000000E+00  0.57060164419E+03  0.18877619495E+04  0.17994607363E+04 0.  0.
        1    1    3    3  502    0  0.83123952777E+02 -0.30524983455E+03 -0.59830571165E+03  0.67679891965E+03  0.50400001928E-02 0. -1.
       -1    1    3    3    0  502 -0.83123952777E+02  0.30524983455E+03  0.11689073558E+04  0.12109630298E+04  0.50400001928E-02 0.  1.
</event>
<event>
 5   0  0.4987456E-06  0.1800231E+04  0.7818609E-02  0.8706177E-01
        1   -1    0    0  501    0  0.00000000000E+00  0.00000000000E+00  0.23108039435E+04  0.23108039435E+04  0.50400001928E-02 0.  1.
       -1   -1    0    0    0  501  0.00000000000E+00  0.00000000000E+00 -0.35061729340E+03  0.35061729344E+03  0.50400001928E-02 0. -1.
    10030    2    1    2    0    0  0.00000000000E+00  0.00000000000E+00  0.19601866501E+04  0.26614212370E+04  0.18002309011E+04 0.  0.
        3    1    3    3  502    0  0.24432375748E+03  0.77736996293E+02  0.22556777377E+04  0.22702024592E+04  0.10100000352E+00 0.  1.
       -3    1    3    3    0  502 -0.24432375748E+03 -0.77736996293E+02 -0.29549108758E+03  0.39121877779E+03  0.10100000352E+00 0. -1.
</event>
<event>
 5   0  0.9589963E-06  0.1799305E+04  0.7818609E-02  0.8706669E-01
       -2   -1    0    0    0  501  0.00000000000E+00  0.00000000000E+00  0.94504366537E+03  0.94504366538E+03  0.25500000920E-02 0.  1.
        2   -1    0    0  501    0  0.00000000000E+00  0.00000000000E+00 -0.85644105357E+03  0.85644105357E+03  0.25500000920E-02 0. -1.
    10030    2    1    2    0    0  0.00000000000E+00  0.00000000000E+00  0.88602611805E+02  0.18014847189E+04  0.17993045239E+04 0.  0.
        2    1    3    3  502    0  0.62552134987E+03 -0.50816065383E+03 -0.35602061814E+03  0.88105328431E+03  0.25500000920E-02 0. -1.
       -2    1    3    3    0  502 -0.62552134987E+03  0.50816065383E+03  0.44462322995E+03  0.92043143463E+03  0.25500000920E-02 0.  1.
</event>
<event>
 5   0  0.4983159E-06  0.1800207E+04  0.7818609E-02  0.8706189E-01
        1   -1    0    0  501    0  0.00000000000E+00  0.00000000000E+00  0.10516534787E+04  0.10516534787E+04  0.50400001928E-02 0. -1.
       -1   -1    0    0    0  501  0.00000000000E+00  0.00000000000E+00 -0.77039285038E+03  0.77039285039E+03  0.50400001928E-02 0.  1.
    10030    2    1    2    0    0  0.00000000000E+00  0.00000000000E+00  0.28126062830E+03  0.18220463291E+04  0.18002070115E+04 0.  0.
        4    1    3    3  502    0 -0.61388216786E+03 -0.63126785347E+03 -0.48273377011E+02  0.88186299994E+03  0.12699999809E+01 0.  1.
       -4    1    3    3    0  502  0.61388216786E+03  0.63126785347E+03  0.32953400531E+03  0.94018332914E+03  0.12699999809E+01 0. -1.
</event>
<event>
 5   0  0.4981384E-06  0.1800023E+04  0.7818609E-02  0.8706287E-01
       -1   -1    0    0    0  501  0.00000000000E+00  0.00000000000E+00  0.28185944869E+03  0.28185944873E+03  0.50400001928E-02 0. -1.
        1   -1    0    0  501    0  0.00000000000E+00  0.00000000000E+00 -0.28738463840E+04  0.28738463840E+04  0.50400001928E-02 0.  1.
    10030    2    1    2    0    0  0.00000000000E+00  0.00000000000E+00 -0.25919869353E+04  0.31557058327E+04  0.18000230637E+04 0.  0.
        5    1    3    3  502    0 -0.28584782293E+02 -0.75904157865E+03 -0.44967988419E+03  0.88272039522E+03  0.46999998093E+01 0. -1.
       -5    1    3    3    0  502  0.28584782293E+02  0.75904157865E+03 -0.21423070511E+04  0.22729854375E+04  0.46999998093E+01 0.  1.
</event>
<event>
 5   0  0.1000316E-05  0.1800574E+04  0.7818609E-02  0.8705994E-01
        2   -1    0    0  501    0  0.00000000000E+00  0.00000000000E+00  0.83130071500E+03  0.83130071501E+03  0.25500000920E-02 0. -1.
       -2   -1    0    0    0  501  0.00000000000E+00  0.00000000000E+00 -0.97499846545E+03  0.97499846546E+03  0.25500000920E-02 0.  1.
    10030    2    1    2    0    0  0.00000000000E+00  0.00000000000E+00 -0.14369775045E+03  0.18062991805E+04  0.18005742656E+04 0.  0.
        5    1    3    3  502    0 -0.30160791131E+03  0.80202743652E+03 -0.34891443036E+03  0.92519117528E+03  0.46999998093E+01 0.  1.
       -5    1    3    3    0  502  0.30160791131E+03 -0.80202743652E+03  0.20521667991E+03  0.88110800519E+03  0.46999998093E+01 0. -1.
</event>
<event>
 5   0  0.4981384E-06  0.1800373E+04  0.7818609E-02  0.8706101E-01
       -1   -1    0    0    0  501  0.00000000000E+00  0.00000000000E+00  0.49945736633E+03  0.49945736636E+03  0.50400001928E-02 0.  1.
        1   -1    0    0  501    0  0.00000000000E+00  0.00000000000E+00 -0.16224320073E+04  0.16224320073E+04  0.50400001928E-02 0. -1.
    10030    2    1    2    0    0  0.00000000000E+00  0.00000000000E+00 -0.11229746410E+04  0.21218893737E+04  0.18003728697E+04 0.  0.
        5    1    3    3  502    0  0.70797262719E+03 -0.45174003610E+03 -0.17954772353E+03  0.85880951094E+03  0.46999998093E+01 0. -1.
       -5    1    3    3    0  502 -0.70797262719E+03  0.45174003610E+03 -0.94342691743E+03  0.12630798627E+04  0.46999998093E+01 0.  1.
</event>
<event>
 5   0  0.4953155E-06  0.1798686E+04  0.7818609E-02  0.8706999E-01
       -1   -1    0    0    0  501  0.00000000000E+00  0.00000000000E+00  0.48429958592E+03  0.48429958595E+03  0.50400001928E-02 0. -1.
        1   -1    0    0  501    0  0.00000000000E+00  0.00000000000E+00 -0.16700773940E+04  0.16700773940E+04  0.50400001928E-02 0.  1.
    10030    2    1    2    0    0  0.00000000000E+00  0.00000000000E+00 -0.11857778081E+04  0.21543769799E+04  0.17986859541E+04 0.  0.
        2    1    3    3  502    0 -0.11906657718E+03  0.40257490594E+03 -0.15455143058E+04  0.16015173662E+04  0.25500000920E-02 0.  1.
       -2    1    3    3    0  502  0.11906657718E+03 -0.40257490594E+03  0.35973649776E+03  0.55285961375E+03  0.25500000920E-02 0. -1.
</event>
<event>
 5   0  0.9999162E-06  0.1800131E+04  0.7818609E-02  0.8706230E-01
       -2   -1    0    0    0  501  0.00000000000E+00  0.00000000000E+00  0.87417986423E+03  0.87417986424E+03  0.25500000920E-02 0.  1.
        2   -1    0    0  501    0  0.00000000000E+00  0.00000000000E+00 -0.92671721678E+03  0.92671721679E+03  0.25500000920E-02 0. -1.
    10030    2    1    2    0    0  0.00000000000E+00  0.00000000000E+00 -0.52537352550E+02  0.18008970810E+04  0.18001305850E+04 0.  0.
        1    1    3    3  502    0  0.35816578426E+03  0.22507434523E+02 -0.85204622506E+03  0.92453884898E+03  0.50400001928E-02 0. -1.
       -1    1    3    3    0  502 -0.35816578426E+03 -0.22507434523E+02  0.79950887251E+03  0.87635823204E+03  0.50400001928E-02 0.  1.
</event>
<event>
 5   0  0.4983159E-06  0.1801058E+04  0.7818609E-02  0.8705737E-01
        1   -1    0    0  501    0  0.00000000000E+00  0.00000000000E+00  0.99910245822E+03  0.99910245823E+03  0.50400001928E-02 0.  1.
       -1   -1    0    0    0  501  0.00000000000E+00  0.00000000000E+00 -0.81168136421E+03  0.81168136423E+03  0.50400001928E-02 0. -1.
    10030    2    1    2    0    0  0.00000000000E+00  0.00000000000E+00  0.18742109401E+03  0.18107838225E+04  0.18010584069E+04 0.  0.
        4    1    3    3  502    0 -0.25999858111E+03 -0.76340915678E+03 -0.30915058259E+03  0.86369467896E+03  0.12699999809E+01 0. -1.
       -4    1    3    3    0  502  0.25999858111E+03  0.76340915678E+03  0.49657167660E+03  0.94708914350E+03  0.12699999809E+01 0.  1.
</event>
<event>
 5   0  0.9999162E-06  0.1798923E+04  0.7818609E-02  0.8706873E-01
       -2   -1    0    0    0  501  0.00000000000E+00  0.00000000000E+00  0.52217341451E+03  0.52217341451E+03  0.25500000920E-02 0.  1.
        2   -1    0    0  501    0  0.00000000000E+00  0.00000000000E+00 -0.15493526472E+04  0.15493526472E+04  0.25500000920E-02 0. -1.
    10030    2    1    2    0    0  0.00000000000E+00  0.00000000000E+00 -0.10271792327E+04  0.20715260617E+04  0.17989227466E+04 0.  0.
        1    1    3    3  502    0  0.39299531500E+03  0.50545054476E+03  0.21389125212E+03  0.67503706458E+03  0.50400001928E-02 0.  1.
       -1    1    3    3    0  502 -0.39299531500E+03 -0.50545054476E+03 -0.12410704848E+04  0.13964889971E+04  0.50400001928E-02 0. -1.
</event>
<event>
 5   0  0.9999162E-06  0.1801672E+04  0.7818609E-02  0.8705411E-01
       -2   -1    0    0    0  501  0.00000000000E+00  0.00000000000E+00  0.56949454202E+03  0.56949454203E+03  0.25500000920E-02 0. -1.
        2   -1    0    0  501    0  0.00000000000E+00  0.00000000000E+00 -0.14249577451E+04  0.14249577451E+04  0.25500000920E-02 0.  1.
    10030    2    1    2    0    0  0.00000000000E+00  0.00000000000E+00 -0.85546320303E+03  0.19944522871E+04  0.18016721771E+04 0.  0.
        1    1    3    3  502    0 -0.93254829587E+02  0.36148361588E+03  0.47983260518E+03  0.60795246262E+03  0.50400001928E-02 0. -1.
       -1    1    3    3    0  502  0.93254829587E+02 -0.36148361588E+03 -0.13352958082E+04  0.13864998245E+04  0.50400001928E-02 0.  1.
</event>
<event>
 5   0  0.4983159E-06  0.1800101E+04  0.7818609E-02  0.8706246E-01
        1   -1    0    0  501    0  0.00000000000E+00  0.00000000000E+00  0.99103385757E+03  0.99103385758E+03  0.50400001928E-02 0.  1.
       -1   -1    0    0    0  501  0.00000000000E+00  0.00000000000E+00 -0.81742021447E+03  0.81742021449E+03  0.50400001928E-02 0. -1.
    10030    2    1    2    0    0  0.00000000000E+00  0.00000000000E+00  0.17361364309E+03  0.18084540721E+04  0.18001012287E+04 0.  0.
        4    1    3    3  502    0  0.84512794345E+03 -0.26848739203E+03  0.24167391011E+03  0.91909445228E+03  0.12699999809E+01 0.  1.
       -4    1    3    3    0  502 -0.84512794345E+03  0.26848739203E+03 -0.68060267016E+02  0.88935961980E+03  0.12699999809E+01 0. -1.
</event>
<event>
 5   0  0.4987456E-06  0.1800084E+04  0.7818609E-02  0.8706255E-01
       -1   -1    0    0    0  501  0.00000000000E+00  0.00000000000E+00  0.52643927775E+03  0.52643927777E+03  0.50400001928E-02 0. -1.
        1   -1    0    0  501    0  0.00000000000E+00  0.00000000000E+00 -0.15387823005E+04  0.15387823006E+04  0.50400001928E-02 0.  1.
    10030    2    1    2    0    0  0.00000000000E+00  0.00000000000E+00 -0.10123430228E+04  0.20652215783E+04  0.18000838235E+04 0.  0.
        3    1    3    3  502    0 -0.23021732249E+03 -0.12485112455E+02  0.49198531923E+03  0.54332813119E+03  0.10100000352E+00 0. -1.
       -3    1    3    3    0  502  0.23021732249E+03  0.12485112455E+02 -0.15043283420E+04  0.15218934471E+04  0.10100000352E+00 0.  1.
</event>
<event>
 5   0  0.1036381E-05  0.1799851E+04  0.7818609E-02  0.8706379E-01
        2   -1    0    0  501    0  0.00000000000E+00  0.00000000000E+00  0.19445343985E+04  0.19445343985E+04  0.25500000920E-02 0. -1.
       -2   -1    0    0    0  501  0.00000000000E+00  0.00000000000E+00 -0.41648314660E+03  0.41648314661E+03  0.25500000920E-02 0.  1.
    10030    2    1    2    0    0  0.00000000000E+00  0.00000000000E+00  0.15280512519E+04  0.23610175451E+04  0.17998508883E+04 0.  0.
        4    1    3    3  502    0  0.79192613172E+03  0.12139173749E+01  0.13247515625E+04  0.15434107642E+04  0.12699999809E+01 0. -1.
       -4    1    3    3    0  502 -0.79192613172E+03 -0.12139173749E+01  0.20329968944E+03  0.81760678099E+03  0.12699999809E+01 0.  1.
</event>
<event>
 5   0  0.4983159E-06  0.1800456E+04  0.7818609E-02  0.8706057E-01
        1   -1    0    0  501    0  0.00000000000E+00  0.00000000000E+00  0.68660476908E+03  0.68660476910E+03  0.50400001928E-02 0.  1.
       -1   -1    0    0    0  501  0.00000000000E+00  0.00000000000E+00 -0.11803154462E+04  0.11803154462E+04  0.50400001928E-02 0. -1.
    10030    2    1    2    0    0  0.00000000000E+00  0.00000000000E+00 -0.49371067711E+03  0.18669202153E+04  0.18004557361E+04 0.  0.
        4    1    3    3  502    0  0.85413300032E+03 -0.18306091206E+03 -0.21212163155E+02  0.87378833165E+03  0.12699999809E+01 0.  1.
       -4    1    3    3    0  502 -0.85413300032E+03  0.18306091206E+03 -0.47249851395E+03  0.99313188366E+03  0.12699999809E+01 0. -1.
</event>
<event>
 5   0  0.4994123E-06  0.1800319E+04  0.7818609E-02  0.8706130E-01
        1   -1    0    0  501    0  0.00000000000E+00  0.00000000000E+00  0.12036433313E+04  0.12036433313E+04  0.50400001928E-02 0. -1.
       -1   -1    0    0    0  501  0.00000000000E+00  0.00000000000E+00 -0.67319555050E+03  0.67319555052E+03  0.50400001928E-02 0.  1.
    10030    2    1    2    0    0  0.00000000000E+00  0.00000000000E+00  0.53044778080E+03  0.18768388818E+04  0.18003192328E+04 0.  0.
        1    1    3    3  502    0 -0.56758894086E+03 -0.56587327213E+02 -0.46074181170E+03  0.73324098935E+03  0.50400001928E-02 0.  1.
       -1    1    3    3    0  502  0.56758894086E+03  0.56587327213E+02  0.99118959249E+03  0.11435978925E+04  0.50400001928E-02 0. -1.
</event>
<event>
 5   0  0.4981384E-06  0.1799369E+04  0.7818609E-02  0.8706635E-01
       -1   -1    0    0    0  501  0.00000000000E+00  0.00000000000E+00  0.54083056122E+03  0.54083056125E+03  0.50400001928E-02 0. -1.
        1   -1    0    0  501    0  0.00000000000E+00  0.00000000000E+00 -0.14966458608E+04  0.14966458608E+04  0.50400001928E-02 0.  1.
    10030    2    1    2    0    0  0.00000000000E+00  0.00000000000E+00 -0.95581529954E+03  0.20374764220E+04  0.17993685791E+04 0.  0.
        5    1    3    3  502    0 -0.46196982773E+03  0.13673622976E+03  0.38243616157E+03  0.61513610359E+03  0.46999998093E+01 0. -1.
       -5    1    3    3    0  502  0.46196982773E+03 -0.13673622976E+03 -0.13382514611E+04  0.14223403184E+04  0.46999998093E+01 0.  1.
</event>
<event>
 5   0  0.1036381E-05  0.1801170E+04  0.7818609E-02  0.8705677E-01
        2   -1    0    0  501    0  0.00000000000E+00  0.00000000000E+00  0.11792508418E+04  0.11792508418E+04  0.25500000920E-02 0.  1.
       -2   -1    0    0    0  501  0.00000000000E+00  0.00000000000E+00 -0.68777017831E+03  0.68777017831E+03  0.25500000920E-02 0. -1.
    10030    2    1    2    0    0  0.00000000000E+00  0.00000000000E+00  0.49148066349E+03  0.18670210201E+04  0.18011702437E+04 0.  0.
        4    1    3    3  502    0  0.49313318337E+03 -0.71519790928E+03 -0.34949639435E+00  0.86872902623E+03  0.12699999809E+01 0. -1.
       -4    1    3    3    0  502 -0.49313318337E+03  0.71519790928E+03  0.49183015989E+03  0.99829199388E+03  0.12699999809E+01 0.  1.
</event>
<event>
 5   0  0.9589963E-06  0.1799775E+04  0.7818609E-02  0.8706419E-01
       -2   -1    0    0    0  501  0.00000000000E+00  0.00000000000E+00  0.40320605327E+03  0.40320605328E+03  0.25500000920E-02 0. -1.
        2   -1    0    0  501    0  0.00000000000E+00  0.00000000000E+00 -0.20083957762E+04  0.20083957762E+04  0.25500000920E-02 0.  1.
    10030    2    1    2    0    0  0.00000000000E+00  0.00000000000E+00 -0.16051897229E+04  0.24116018295E+04  0.17997748018E+04 0.  0.
        2    1    3    3  502    0 -0.39985399995E+03  0.17784054673E+03 -0.18562110711E+04  0.19070998983E+04  0.25500000920E-02 0.  1.
       -2    1    3    3    0  502  0.39985399995E+03 -0.17784054673E+03  0.25102134820E+03  0.50450193122E+03  0.25500000920E-02 0. -1.
</event>
<event>
 5   0  0.4981384E-06  0.1799551E+04  0.7818609E-02  0.8706538E-01
        1   -1    0    0  501    0  0.00000000000E+00  0.00000000000E+00  0.22408013857E+04  0.22408013857E+04  0.50400001928E-02 0.  1.
       -1   -1    0    0    0  501  0.00000000000E+00  0.00000000000E+00 -0.36129763684E+03  0.36129763687E+03  0.50400001928E-02 0. -1.
    10030    2    1    2    0    0  0.00000000000E+00  0.00000000000E+00  0.18795037489E+04  0.26020990226E+04  0.17995513278E+04 0.  0.
        5    1    3    3  502    0 -0.60057325709E+03 -0.54083691206E+03  0.36794145594E+03  0.88802917045E+03  0.46999998093E+01 0. -1.
       -5    1    3    3    0  502  0.60057325709E+03  0.54083691206E+03  0.15115622929E+04  0.17140698521E+04  0.46999998093E+01 0.  1.
</event>
<event>
 5   0  0.4994123E-06  0.1799468E+04  0.7818609E-02  0.8706582E-01
       -1   -1    0    0    0  501  0.00000000000E+00  0.00000000000E+00  0.71160522702E+03  0.71160522704E+03  0.50400001928E-02 0.  1.
        1   -1    0    0  501    0  0.00000000000E+00  0.00000000000E+00 -0.11375988014E+04  0.11375988015E+04  0.50400001928E-02 0. -1.
    10030    2    1    2    0    0  0.00000000000E+00  0.00000000000E+00 -0.42599357442E+03  0.18492040285E+04  0.17994679807E+04 0.  0.
        1    1    3    3  502    0 -0.41432233030E+03  0.79107463545E+03 -0.32584628137E+03  0.95059869101E+03  0.50400001928E-02 0. -1.
       -1    1    3    3    0  502  0.41432233030E+03 -0.79107463545E+03 -0.10014729305E+03  0.89860533749E+03  0.50400001928E-02 0.  1.
</event>
<event>
 5   0  0.1035018E-05  0.1800163E+04  0.7818609E-02  0.8706213E-01
        2   -1    0    0  501    0  0.00000000000E+00  0.00000000000E+00  0.21132684463E+04  0.21132684463E+04  0.25500000920E-02 0.  1.
       -2   -1    0    0    0  501  0.00000000000E+00  0.00000000000E+00 -0.38336180566E+03  0.38336180567E+03  0.25500000920E-02 0. -1.
    10030    2    1    2    0    0  0.00000000000E+00  0.00000000000E+00  0.17299066406E+04  0.24966302519E+04  0.18001626676E+04 0.  0.
        3    1    3    3  502    0 -0.66350056583E+03 -0.32385247069E+03  0.15096282193E+03  0.75359352932E+03  0.10100000352E+00 0. -1.
       -3    1    3    3    0  502  0.66350056583E+03  0.32385247069E+03  0.15789438187E+04  0.17430367226E+04  0.10100000352E+00 0.  1.
</event>
<event>
 5   0  0.1036381E-05  0.1812467E+04  0.7818609E-02  0.8699698E-01
        2   -1    0    0  501    0  0.00000000000E+00  0.00000000000E+00  0.65802380456E+03  0.65802380456E+03  0.25500000920E-02 0.  1.
       -2   -1    0    0    0  501  0.00000000000E+00  0.00000000000E+00 -0.12480694023E+04  0.12480694023E+04  0.25500000920E-02 0. -1.
    10030    2    1    2    0    0  0.00000000000E+00  0.00000000000E+00 -0.59004559773E+03  0.19060932069E+04  0.18124672427E+04 0.  0.
        4    1    3    3  502    0 -0.19935659562E+03 -0.74446509207E+03  0.20634995421E+03  0.79784286800E+03  0.12699999809E+01 0.  1.
       -4    1    3    3    0  502  0.19935659562E+03  0.74446509207E+03 -0.79639555194E+03  0.11082503389E+04  0.12699999809E+01 0. -1.
</event>
<event>
 5   0  0.1036381E-05  0.1799061E+04  0.7818609E-02  0.8706799E-01
       -2   -1    0    0    0  501  0.00000000000E+00  0.00000000000E+00  0.10257770245E+04  0.10257770245E+04  0.25500000920E-02 0. -1.
        2   -1    0    0  501    0  0.00000000000E+00  0.00000000000E+00 -0.78882196520E+03  0.78882196520E+03  0.25500000920E-02 0.  1.
    10030    2    1    2    0    0  0.00000000000E+00  0.00000000000E+00  0.23695505925E+03  0.18145989897E+04  0.17990613645E+04 0.  0.
        4    1    3    3  502    0  0.47362542149E+03 -0.35611089242E+03 -0.56413755165E+03  0.81816184075E+03  0.12699999809E+01 0.  1.
       -4    1    3    3    0  502 -0.47362542149E+03  0.35611089242E+03  0.80109261091E+03  0.99643714891E+03  0.12699999809E+01 0. -1.
</event>
<event>
 5   0  0.4987456E-06  0.1800865E+04  0.7818609E-02  0.8705840E-01
        1   -1    0    0  501    0  0.00000000000E+00  0.00000000000E+00  0.94500246396E+03  0.94500246397E+03  0.50400001928E-02 0. -1.
       -1   -1    0    0    0  501  0.00000000000E+00  0.00000000000E+00 -0.85796461841E+03  0.85796461842E+03  0.50400001928E-02 0.  1.
    10030    2    1    2    0    0  0.00000000000E+00  0.00000000000E+00  0.87037845551E+02  0.18029670824E+04  0.18008649904E+04 0.  0.
        3    1    3    3  502    0  0.49772250416E+03 -0.36191783585E+03 -0.61456596575E+03  0.86971463568E+03  0.10100000352E+00 0.  1.
       -3    1    3    3    0  502 -0.49772250416E+03  0.36191783585E+03  0.70160381130E+03  0.93325244671E+03  0.10100000352E+00 0. -1.
</event>
<event>
 5   0  0.4987456E-06  0.1797782E+04  0.7818609E-02  0.8707480E-01
        1   -1    0    0  501    0  0.00000000000E+00  0.00000000000E+00  0.96083248980E+03  0.96083248981E+03  0.50400001928E-02 0.  1.
       -1   -1    0    0    0  501  0.00000000000E+00  0.00000000000E+00 -0.84094273855E+03  0.84094273857E+03  0.50400001928E-02 0. -1.
    10030    2    1    2    0    0  0.00000000000E+00  0.00000000000E+00  0.11988975125E+03  0.18017752284E+04  0.17977820839E+04 0.  0.
        3    1    3    3  502    0  0.84151967832E+02 -0.16225862409E+03 -0.82212115868E+03  0.84219512260E+03  0.10100000352E+00 0. -1.
       -3    1    3    3    0  502 -0.84151967832E+02  0.16225862409E+03  0.94201090993E+03  0.95958010578E+03  0.10100000352E+00 0.  1.
</event>
<event>
 5   0  0.4994123E-06  0.1799722E+04  0.7818609E-02  0.8706447E-01
        1   -1    0    0  501    0  0.00000000000E+00  0.00000000000E+00  0.12131347411E+04  0.12131347411E+04  0.50400001928E-02 0. -1.
       -1   -1    0    0    0  501  0.00000000000E+00  0.00000000000E+00 -0.66748552505E+03  0.66748552507E+03  0.50400001928E-02 0.  1.
    10030    2    1    2    0    0  0.00000000000E+00  0.00000000000E+00  0.54564921608E+03  0.18806202662E+04  0.17997220671E+04 0.  0.
        1    1    3    3  502    0  0.35999873749E+03  0.58986105140E+03 -0.32946464186E+03  0.76555999191E+03  0.50400001928E-02 0.  1.
       -1    1    3    3    0  502 -0.35999873749E+03 -0.58986105140E+03  0.87511385794E+03  0.11150602743E+04  0.50400001928E-02 0. -1.
</event>
<event>
 5   0  0.4953155E-06  0.1795915E+04  0.7818609E-02  0.8708475E-01
       -1   -1    0    0    0  501  0.00000000000E+00  0.00000000000E+00  0.10187334171E+04  0.10187334171E+04  0.50400001928E-02 0.  1.
        1   -1    0    0  501    0  0.00000000000E+00  0.00000000000E+00 -0.79149979975E+03  0.79149979976E+03  0.50400001928E-02 0. -1.
    10030    2    1    2    0    0  0.00000000000E+00  0.00000000000E+00  0.22723361734E+03  0.18102332169E+04  0.17959145811E+04 0.  0.
        2    1    3    3  502    0  0.60476615980E+03 -0.52651446755E+03  0.52102706194E+03  0.95625770159E+03  0.25500000920E-02 0.  1.
       -2    1    3    3    0  502 -0.60476615980E+03  0.52651446755E+03 -0.29379344460E+03  0.85397551527E+03  0.25500000920E-02 0. -1.
</event>
<event>
 5   0  0.1035018E-05  0.1803544E+04  0.7818609E-02  0.8704417E-01
        2   -1    0    0  501    0  0.00000000000E+00  0.00000000000E+00  0.17911670255E+04  0.17911670255E+04  0.25500000920E-02 0. -1.
       -2   -1    0    0    0  501  0.00000000000E+00  0.00000000000E+00 -0.45400165019E+03  0.45400165020E+03  0.25500000920E-02 0.  1.
    10030    2    1    2    0    0  0.00000000000E+00  0.00000000000E+00  0.13371653753E+04  0.22451686757E+04  0.18035440503E+04 0.  0.
        3    1    3    3  502    0  0.58069612918E+03  0.64861157751E+03  0.37587314340E+03  0.94825397603E+03  0.10100000352E+00 0.  1.
       -3    1    3    3    0  502 -0.58069612918E+03 -0.64861157751E+03  0.96129223193E+03  0.12969146997E+04  0.10100000352E+00 0. -1.
</event>
<event>
 5   0  0.1035018E-05  0.1799988E+04  0.7818609E-02  0.8706306E-01
       -2   -1    0    0    0  501  0.00000000000E+00  0.00000000000E+00  0.79665750104E+03  0.79665750104E+03  0.25500000920E-02 0.  1.
        2   -1    0    0  501    0  0.00000000000E+00  0.00000000000E+00 -0.10167346486E+04  0.10167346486E+04  0.25500000920E-02 0. -1.
    10030    2    1    2    0    0  0.00000000000E+00  0.00000000000E+00 -0.22007714753E+03  0.18133921496E+04  0.17999880937E+04 0.  0.
        3    1    3    3  502    0  0.41359291924E+01  0.79786778780E+03 -0.52952754562E+03  0.95760615312E+03  0.10100000352E+00 0. -1.
       -3    1    3    3    0  502 -0.41359291924E+01 -0.79786778780E+03  0.30945039809E+03  0.85578599649E+03  0.10100000352E+00 0.  1.
</event>
<event>
 5   0  0.4987456E-06  0.1800391E+04  0.7818609E-02  0.8706092E-01
       -1   -1    0    0    0  501  0.00000000000E+00  0.00000000000E+00  0.90345329989E+03  0.90345329990E+03  0.50400001928E-02 0. -1.
        1   -1    0    0  501    0  0.00000000000E+00  0.00000000000E+00 -0.89694897593E+03  0.89694897594E+03  0.50400001928E-02 0.  1.
    10030    2    1    2    0    0  0.00000000000E+00  0.00000000000E+00  0.65043239640E+01  0.18004022758E+04  0.18003905267E+04 0.  0.
        3    1    3    3  502    0  0.12187637704E+03 -0.88629419842E+03  0.10315398775E+03  0.90056205384E+03  0.10100000352E+00 0.  1.
       -3    1    3    3    0  502 -0.12187637704E+03  0.88629419842E+03 -0.96649663785E+02  0.89984022200E+03  0.10100000352E+00 0. -1.
</event>
<event>
 5   0  0.9589963E-06  0.1802387E+04  0.7818609E-02  0.8705031E-01
        2   -1    0    0  501    0  0.00000000000E+00  0.00000000000E+00  0.68564405592E+03  0.68564405592E+03  0.25500000920E-02 0. -1.
       -2   -1    0    0    0  501  0.00000000000E+00  0.00000000000E+00 -0.11845061525E+04  0.11845061525E+04  0.25500000920E-02 0.  1.
    10030    2    1    2    0    0  0.00000000000E+00  0.00000000000E+00 -0.49886209658E+03  0.18701502084E+04  0.18023868649E+04 0.  0.
        2    1    3    3  502    0  0.96586090227E+02 -0.89531294266E+03 -0.28590170781E+03  0.94480364344E+03  0.25500000920E-02 0. -1.
       -2    1    3    3    0  502 -0.96586090227E+02  0.89531294266E+03 -0.21296038877E+03  0.92534656498E+03  0.25500000920E-02 0.  1.
</event>
<event>
 5   0  0.9999162E-06  0.1800466E+04  0.7818609E-02  0.8706052E-01
        2   -1    0    0  501    0  0.00000000000E+00  0.00000000000E+00  0.18596794942E+04  0.18596794942E+04  0.25500000920E-02 0.  1.
       -2   -1    0    0    0  501  0.00000000000E+00  0.00000000000E+00 -0.43578427605E+03  0.43578427606E+03  0.25500000920E-02 0. -1.
    10030    2    1    2    0    0  0.00000000000E+00  0.00000000000E+00  0.14238952182E+04  0.22954637703E+04  0.18004655866E+04 0.  0.
        1    1    3    3  502    0 -0.27042506802E+03  0.38677077567E+03  0.16893257573E+04  0.17540076581E+04  0.50400001928E-02 0.  1.
       -1    1    3    3    0  502  0.27042506802E+03 -0.38677077567E+03 -0.26543053912E+03  0.54145611221E+03  0.50400001928E-02 0. -1.
</event>
<event>
 5   0  0.1036381E-05  0.1800927E+04  0.7818609E-02  0.8705807E-01
       -2   -1    0    0    0  501  0.00000000000E+00  0.00000000000E+00  0.83059808358E+03  0.83059808359E+03  0.25500000920E-02 0.  1.
        2   -1    0    0  501    0  0.00000000000E+00  0.00000000000E+00 -0.97620554588E+03  0.97620554588E+03  0.25500000920E-02 0. -1.
    10030    2    1    2    0    0  0.00000000000E+00  0.00000000000E+00 -0.14560746230E+03  0.18068036295E+04  0.18009269342E+04 0.  0.
        4    1    3    3  502    0  0.72603010021E+03 -0.90643838562E+02 -0.59939440661E+03  0.94583892892E+03  0.12699999809E+01 0. -1.
       -4    1    3    3    0  502 -0.72603010021E+03  0.90643838562E+02  0.45378694431E+03  0.86096470056E+03  0.12699999809E+01 0.  1.
</event>
<event>
 5   0  0.4981384E-06  0.1801365E+04  0.7818609E-02  0.8705574E-01
       -1   -1    0    0    0  501  0.00000000000E+00  0.00000000000E+00  0.44885515048E+03  0.44885515050E+03  0.50400001928E-02 0.  1.
        1   -1    0    0  501    0  0.00000000000E+00  0.00000000000E+00 -0.18073290266E+04  0.18073290266E+04  0.50400001928E-02 0. -1.
    10030    2    1    2    0    0  0.00000000000E+00  0.00000000000E+00 -0.13584738761E+04  0.22561841771E+04  0.18013649738E+04 0.  0.
        5    1    3    3  502    0 -0.87377820739E+03  0.13548933556E+03 -0.46462233669E+03  0.99887022256E+03  0.46999998093E+01 0.  1.
       -5    1    3    3    0  502  0.87377820739E+03 -0.13548933556E+03 -0.89385153943E+03  0.12573139546E+04  0.46999998093E+01 0. -1.
</event>
<event>
 5   0  0.9999162E-06  0.1799201E+04  0.7818609E-02  0.8706724E-01
       -2   -1    0    0    0  501  0.00000000000E+00  0.00000000000E+00  0.85023257050E+03  0.85023257050E+03  0.25500000920E-02 0.  1.
        2   -1    0    0  501    0  0.00000000000E+00  0.00000000000E+00 -0.95183542867E+03  0.95183542867E+03  0.25500000920E-02 0. -1.
    10030    2    1    2    0    0  0.00000000000E+00  0.00000000000E+00 -0.10160285817E+03  0.18020679992E+04  0.17992014709E+04 0.  0.
        1    1    3    3  502    0 -0.35225872910E+03 -0.42981949305E+03  0.65775089968E+03  0.86108492896E+03  0.50400001928E-02 0.  1.
       -1    1    3    3    0  502  0.35225872910E+03  0.42981949305E+03 -0.75935375785E+03  0.94098307021E+03  0.50400001928E-02 0. -1.
</event>
<event>
 5   0  0.1035018E-05  0.1800281E+04  0.7818609E-02  0.8706150E-01
        2   -1    0    0  501    0  0.00000000000E+00  0.00000000000E+00  0.12510605191E+04  0.12510605191E+04  0.25500000920E-02 0. -1.
       -2   -1    0    0    0  501  0.00000000000E+00  0.00000000000E+00 -0.64765314064E+03  0.64765314065E+03  0.25500000920E-02 0.  1.
    10030    2    1    2    0    0  0.00000000000E+00  0.00000000000E+00  0.60340737842E+03  0.18987136597E+04  0.18002813939E+04 0.  0.
        3    1    3    3  502    0 -0.56498266180E+03  0.57708294530E+03 -0.11755243185E+03  0.81611807866E+03  0.10100000352E+00 0.  1.
       -3    1    3    3    0  502  0.56498266180E+03 -0.57708294530E+03  0.72095981026E+03  0.10825955810E+04  0.10100000352E+00 0. -1.
</event>
<event>
 5   0  0.4983159E-06  0.1799462E+04  0.7818609E-02  0.8706585E-01
        1   -1    0    0  501    0  0.00000000000E+00  0.00000000000E+00  0.12562110197E+04  0.12562110198E+04  0.50400001928E-02 0. -1.
       -1   -1    0    0    0  501  0.00000000000E+00  0.00000000000E+00 -0.64441106614E+03  0.64441106616E+03  0.50400001928E-02 0.  1.
    10030    2    1    2    0    0  0.00000000000E+00  0.00000000000E+00  0.61179995360E+03  0.19006220859E+04  0.17994624559E+04 0.  0.
        4    1    3    3  502    0 -0.12146059561E+03 -0.15073182785E+03 -0.62215439253E+03  0.65157536883E+03  0.12699999809E+01 0.  1.
       -4    1    3    3    0  502  0.12146059561E+03  0.15073182785E+03  0.12339543461E+04  0.12490467171E+04  0.12699999809E+01 0. -1.
</event>
<event>
 5   0  0.1000316E-05  0.1800158E+04  0.7818609E-02  0.8706215E-01
        2   -1    0    0  501    0  0.00000000000E+00  0.00000000000E+00  0.10991334003E+04  0.10991334003E+04  0.25500000920E-02 0.  1.
       -2   -1    0    0    0  501  0.00000000000E+00  0.00000000000E+00 -0.73707379287E+03  0.73707379287E+03  0.25500000920E-02 0. -1.
    10030    2    1    2    0    0  0.00000000000E+00  0.00000000000E+00  0.36205960741E+03  0.18362071931E+04  0.18001582422E+04 0.  0.
        5    1    3    3  502    0  0.39764664190E+03 -0.50622941749E+03  0.82269736137E+03  0.10446263032E+04  0.46999998093E+01 0.  1.
       -5    1    3    3    0  502 -0.39764664190E+03  0.50622941749E+03 -0.46063775396E+03  0.79158088994E+03  0.46999998093E+01 0. -1.
</event>
<event>
 5   0  0.9589963E-06  0.1799853E+04  0.7818609E-02  0.8706378E-01
       -2   -1    0    0    0  501  0.00000000000E+00  0.00000000000E+00  0.96853588910E+03  0.96853588910E+03  0.25500000920E-02 0.  1.
        2   -1    0    0  501    0  0.00000000000E+00  0.00000000000E+00 -0.83617685143E+03  0.83617685143E+03  0.25500000920E-02 0. -1.
    10030    2    1    2    0    0  0.00000000000E+00  0.00000000000E+00  0.13235903767E+03  0.18047127405E+04  0.17998525387E+04 0.  0.
        2    1    3    3  502    0  0.32589423006E+03 -0.83235771268E+03 -0.38221181439E+02  0.89469954161E+03  0.25500000920E-02 0.  1.
       -2    1    3    3    0  502 -0.32589423006E+03  0.83235771268E+03  0.17058021911E+03  0.91001319892E+03  0.25500000920E-02 0. -1.
</event>
<event>
 5   0  0.9589963E-06  0.1799737E+04  0.7818609E-02  0.8706439E-01
        2   -1    0    0  501    0  0.00000000000E+00  0.00000000000E+00  0.42960219214E+03  0.42960219214E+03  0.25500000920E-02 0. -1.
       -2   -1    0    0    0  501  0.00000000000E+00  0.00000000000E+00 -0.18849142102E+04  0.18849142102E+04  0.25500000920E-02 0.  1.
    10030    2    1    2    0    0  0.00000000000E+00  0.00000000000E+00 -0.14553120180E+04  0.23145164023E+04  0.17997369549E+04 0.  0.
        2    1    3    3  502    0  0.12278433837E+03 -0.82623816040E+03 -0.29723375310E+03  0.88661908137E+03  0.25500000920E-02 0. -1.
       -2    1    3    3    0  502 -0.12278433837E+03  0.82623816040E+03 -0.11580782649E+04  0.14278973209E+04  0.25500000920E-02 0.  1.
</event>
<event>
 5   0  0.4987456E-06  0.1800736E+04  0.7818609E-02  0.8705908E-01
       -1   -1    0    0    0  501  0.00000000000E+00  0.00000000000E+00  0.37145841027E+03  0.37145841030E+03  0.50400001928E-02 0.  1.
        1   -1    0    0  501    0  0.00000000000E+00  0.00000000000E+00 -0.21823781959E+04  0.21823781959E+04  0.50400001928E-02 0. -1.
    10030    2    1    2    0    0  0.00000000000E+00  0.00000000000E+00 -0.18109197856E+04  0.25538366062E+04  0.18007362220E+04 0.  0.
        3    1    3    3  502    0 -0.63849104242E+03  0.11813316737E+03 -0.20877757207E+02  0.64966310303E+03  0.10100000352E+00 0.  1.
       -3    1    3    3    0  502  0.63849104242E+03 -0.11813316737E+03 -0.17900420284E+04  0.19041735032E+04  0.10100000352E+00 0. -1.
</event>
<event>
 5   0  0.4953155E-06  0.1799902E+04  0.7818609E-02  0.8706352E-01
       -1   -1    0    0    0  501  0.00000000000E+00  0.00000000000E+00  0.43884918292E+03  0.43884918295E+03  0.50400001928E-02 0.  1.
        1   -1    0    0  501    0  0.00000000000E+00  0.00000000000E+00 -0.18455355413E+04  0.18455355413E+04  0.50400001928E-02 0. -1.
    10030    2    1    2    0    0  0.00000000000E+00  0.00000000000E+00 -0.14066863584E+04  0.22843847242E+04  0.17999019578E+04 0.  0.
        2    1    3    3  502    0 -0.62023215482E+03 -0.45012709074E+03 -0.10452884572E+03  0.77345239239E+03  0.25500000920E-02 0.  1.
       -2    1    3    3    0  502  0.62023215482E+03  0.45012709074E+03 -0.13021575126E+04  0.15109323319E+04  0.25500000920E-02 0. -1.
</event>
<event>
 5   0  0.9999162E-06  0.1799943E+04  0.7818609E-02  0.8706330E-01
       -2   -1    0    0    0  501  0.00000000000E+00  0.00000000000E+00  0.14561766763E+04  0.14561766763E+04  0.25500000920E-02 0.  1.
        2   -1    0    0  501    0  0.00000000000E+00  0.00000000000E+00 -0.55621575383E+03  0.55621575384E+03  0.25500000920E-02 0. -1.
    10030    2    1    2    0    0  0.00000000000E+00  0.00000000000E+00  0.89996092249E+03  0.20123924302E+04  0.17999426744E+04 0.  0.
        1    1    3    3  502    0  0.83648874387E+03  0.56185114731E+02  0.84129182839E+02  0.84258406415E+03  0.50400001928E-02 0. -1.
       -1    1    3    3    0  502 -0.83648874387E+03 -0.56185114731E+02  0.81583173965E+03  0.11698083660E+04  0.50400001928E-02 0.  1.
</event>
<event>
 5   0  0.4953155E-06  0.1799838E+04  0.7818609E-02  0.8706385E-01
       -1   -1    0    0    0  501  0.00000000000E+00  0.00000000000E+00  0.43735859715E+03  0.43735859718E+03  0.50400001928E-02 0.  1.
        1   -1    0    0  501    0  0.00000000000E+00  0.00000000000E+00 -0.18516945192E+04  0.18516945192E+04  0.50400001928E-02 0. -1.
    10030    2    1    2    0    0  0.00000000000E+00  0.00000000000E+00 -0.14143359221E+04  0.22890531164E+04  0.17998383453E+04 0.  0.
        2    1    3    3  502    0  0.83615993407E+03 -0.21387643658E+02 -0.11294274964E+04  0.14054278125E+04  0.25500000920E-02 0. -1.
       -2    1    3    3    0  502 -0.83615993407E+03  0.21387643658E+02 -0.28490842571E+03  0.88362530390E+03  0.25500000920E-02 0.  1.
</event>
<event>
 5   0  0.4981384E-06  0.1800380E+04  0.7818609E-02  0.8706097E-01
       -1   -1    0    0    0  501  0.00000000000E+00  0.00000000000E+00  0.64021272740E+03  0.64021272742E+03  0.50400001928E-02 0.  1.
        1   -1    0    0  501    0  0.00000000000E+00  0.00000000000E+00 -0.12657393959E+04  0.12657393959E+04  0.50400001928E-02 0. -1.
    10030    2    1    2    0    0  0.00000000000E+00  0.00000000000E+00 -0.62552666845E+03  0.19059521233E+04  0.18003804829E+04 0.  0.
        5    1    3    3  502    0  0.61201183402E+03 -0.64414251623E+03 -0.15992909316E+03  0.90281641048E+03  0.46999998093E+01 0. -1.
       -5    1    3    3    0  502 -0.61201183402E+03  0.64414251623E+03 -0.46559757530E+03  0.10031357128E+04  0.46999998093E+01 0.  1.
</event>
<event>
 5   0  0.1000316E-05  0.1810237E+04  0.7818609E-02  0.8700875E-01
        2   -1    0    0  501    0  0.00000000000E+00  0.00000000000E+00  0.87616278426E+03  0.87616278426E+03  0.25500000920E-02 0.  1.
       -2   -1    0    0    0  501  0.00000000000E+00  0.00000000000E+00 -0.93503086125E+03  0.93503086125E+03  0.25500000920E-02 0. -1.
    10030    2    1    2    0    0  0.00000000000E+00  0.00000000000E+00 -0.58868076989E+02  0.18111936455E+04  0.18102367169E+04 0.  0.
        5    1    3    3  502    0  0.21438991185E+03 -0.80592330059E+03 -0.38138944977E+03  0.91703620601E+03  0.46999998093E+01 0. -1.
       -5    1    3    3    0  502 -0.21438991185E+03  0.80592330059E+03  0.32252137278E+03  0.89415743951E+03  0.46999998093E+01 0.  1.
</event>
<event>
 5   0  0.4953155E-06  0.1804737E+04  0.7818609E-02  0.8703784E-01
        1   -1    0    0  501    0  0.00000000000E+00  0.00000000000E+00  0.83272488065E+03  0.83272488066E+03  0.50400001928E-02 0.  1.
       -1   -1    0    0    0  501  0.00000000000E+00  0.00000000000E+00 -0.97783690688E+03  0.97783690689E+03  0.50400001928E-02 0. -1.
    10030    2    1    2    0    0  0.00000000000E+00  0.00000000000E+00 -0.14511202623E+03  0.18105617876E+04  0.18047372347E+04 0.  0.
        2    1    3    3  502    0  0.34272841415E+03 -0.23547186165E+03 -0.87598979690E+03  0.96967411422E+03  0.25500000920E-02 0. -1.
       -2    1    3    3    0  502 -0.34272841415E+03  0.23547186165E+03  0.73087777068E+03  0.84088767334E+03  0.25500000920E-02 0.  1.
</event>
<event>
 5   0  0.4987456E-06  0.1800008E+04  0.7818609E-02  0.8706295E-01
       -1   -1    0    0    0  501  0.00000000000E+00  0.00000000000E+00  0.16143618317E+04  0.16143618317E+04  0.50400001928E-02 0.  1.
        1   -1    0    0  501    0  0.00000000000E+00  0.00000000000E+00 -0.50175065981E+03  0.50175065984E+03  0.50400001928E-02 0. -1.
    10030    2    1    2    0    0  0.00000000000E+00  0.00000000000E+00  0.11126111719E+04  0.21161124915E+04  0.18000079047E+04 0.  0.
        3    1    3    3  502    0 -0.16590053814E+03  0.27487505424E+03 -0.43213797146E+03  0.53835166998E+03  0.10100000352E+00 0. -1.
       -3    1    3    3    0  502  0.16590053814E+03 -0.27487505424E+03  0.15447491433E+04  0.15777608215E+04  0.10100000352E+00 0.  1.
</event>
<event>
 5   0  0.4981384E-06  0.1799907E+04  0.7818609E-02  0.8706349E-01
        1   -1    0    0  501    0  0.00000000000E+00  0.00000000000E+00  0.84534313501E+03  0.84534313503E+03  0.50400001928E-02 0.  1.
       -1   -1    0    0    0  501  0.00000000000E+00  0.00000000000E+00 -0.95809200017E+03  0.95809200018E+03  0.50400001928E-02 0. -1.
    10030    2    1    2    0    0  0.00000000000E+00  0.00000000000E+00 -0.11274886516E+03  0.18034351352E+04  0.17999072144E+04 0.  0.
        5    1    3    3  502    0  0.70503162027E+03  0.25474854909E+03 -0.55527407657E+03  0.93290824787E+03  0.46999998093E+01 0. -1.
       -5    1    3    3    0  502 -0.70503162027E+03 -0.25474854909E+03  0.44252521141E+03  0.87052688734E+03  0.46999998093E+01 0.  1.
</event>
<event>
 5   0  0.9589963E-06  0.1795816E+04  0.7818609E-02  0.8708527E-01
        2   -1    0    0  501    0  0.00000000000E+00  0.00000000000E+00  0.13715601305E+04  0.13715601305E+04  0.25500000920E-02 0.  1.
       -2   -1    0    0    0  501  0.00000000000E+00  0.00000000000E+00 -0.58782630145E+03  0.58782630145E+03  0.25500000920E-02 0. -1.
    10030    2    1    2    0    0  0.00000000000E+00  0.00000000000E+00  0.78373382906E+03  0.19593864320E+04  0.17958163812E+04 0.  0.
        2    1    3    3  502    0  0.85211042599E+03  0.26362091522E+03  0.27926327803E+03  0.93465295350E+03  0.25500000920E-02 0.  1.
       -2    1    3    3    0  502 -0.85211042599E+03 -0.26362091522E+03  0.50447055103E+03  0.10247334785E+04  0.25500000920E-02 0. -1.
</event>
<event>
 5   0  0.9999162E-06  0.1795487E+04  0.7818609E-02  0.8708703E-01
        2   -1    0    0  501    0  0.00000000000E+00  0.00000000000E+00  0.11509188646E+04  0.11509188646E+04  0.25500000920E-02 0. -1.
       -2   -1    0    0    0  501  0.00000000000E+00  0.00000000000E+00 -0.70026102182E+03  0.70026102183E+03  0.25500000920E-02 0.  1.
    10030    2    1    2    0    0  0.00000000000E+00  0.00000000000E+00  0.45065784274E+03  0.18511798864E+04  0.17954872544E+04 0.  0.
        1    1    3    3  502    0 -0.44946248709E+03  0.75129812267E+03  0.43018322781E+03  0.97546040716E+03  0.50400001928E-02 0. -1.
       -1    1    3    3    0  502  0.44946248709E+03 -0.75129812267E+03  0.20474614926E+02  0.87571947923E+03  0.50400001928E-02 0.  1.
</event>
<event>
 5   0  0.4987456E-06  0.1800046E+04  0.7818609E-02  0.8706275E-01
        1   -1    0    0  501    0  0.00000000000E+00  0.00000000000E+00  0.13540201312E+04  0.13540201312E+04  0.50400001928E-02 0. -1.
       -1   -1    0    0    0  501  0.00000000000E+00  0.00000000000E+00 -0.59824943531E+03  0.59824943533E+03  0.50400001928E-02 0.  1.
    10030    2    1    2    0    0  0.00000000000E+00  0.00000000000E+00  0.75577069584E+03  0.19522695665E+04  0.18000464204E+04 0.  0.
        3    1    3    3  502    0 -0.76872514501E+03  0.33858599654E+02 -0.12845379863E+03  0.78011867170E+03  0.10100000352E+00 0.  1.
       -3    1    3    3    0  502  0.76872514501E+03 -0.33858599654E+02  0.88422449447E+03  0.11721508948E+04  0.10100000352E+00 0. -1.
</event>
<event>
 5   0  0.9999162E-06  0.1799573E+04  0.7818609E-02  0.8706526E-01
       -2   -1    0    0    0  501  0.00000000000E+00  0.00000000000E+00  0.11603043581E+04  0.11603043581E+04  0.25500000920E-02 0.  1.
        2   -1    0    0  501    0  0.00000000000E+00  0.00000000000E+00 -0.69776178934E+03  0.69776178934E+03  0.25500000920E-02 0. -1.
    10030    2    1    2    0    0  0.00000000000E+00  0.00000000000E+00  0.46254256877E+03  0.18580661475E+04  0.17995733329E+04 0.  0.
        1    1    3    3  502    0 -0.85353118226E+03 -0.97801697833E+02  0.50742577407E+03  0.99777831577E+03  0.50400001928E-02 0.  1.
       -1    1    3    3    0  502  0.85353118226E+03  0.97801697833E+02 -0.44883205302E+02  0.86028783168E+03  0.50400001928E-02 0. -1.
</event>
<event>
 5   0  0.9999162E-06  0.1799751E+04  0.7818609E-02  0.8706432E-01
       -2   -1    0    0    0  501  0.00000000000E+00  0.00000000000E+00  0.68461987112E+03  0.68461987113E+03  0.25500000920E-02 0. -1.
        2   -1    0    0  501    0  0.00000000000E+00  0.00000000000E+00 -0.11828107712E+04  0.11828107712E+04  0.25500000920E-02 0.  1.
    10030    2    1    2    0    0  0.00000000000E+00  0.00000000000E+00 -0.49819090004E+03  0.18674306423E+04  0.17997508247E+04 0.  0.
        1    1    3    3  502    0 -0.73022431153E+03 -0.20167844368E+02  0.29615736476E+03  0.78825343122E+03  0.50400001928E-02 0. -1.
       -1    1    3    3    0  502  0.73022431153E+03  0.20167844368E+02 -0.79434826480E+03  0.10791772111E+04  0.50400001928E-02 0.  1.
</event>
<event>
 5   0  0.1000316E-05  0.1800164E+04  0.7818609E-02  0.8706212E-01
        2   -1    0    0  501    0  0.00000000000E+00  0.00000000000E+00  0.66113498655E+03  0.66113498655E+03  0.25500000920E-02 0. -1.
       -2   -1    0    0    0  501  0.00000000000E+00  0.00000000000E+00 -0.12253887564E+04  0.12253887564E+04  0.25500000920E-02 0.  1.
    10030    2    1    2    0    0  0.00000000000E+00  0.00000000000E+00 -0.56425376982E+03  0.18865237429E+04  0.18001637470E+04 0.  0.
        5    1    3    3  502    0  0.80384027250E+03 -0.39645976166E+03 -0.19579929887E+03  0.91744154132E+03  0.46999998093E+01 0. -1.
       -5    1    3    3    0  502 -0.80384027250E+03  0.39645976166E+03 -0.36845447095E+03  0.96908220161E+03  0.46999998093E+01 0.  1.
</event>
<event>
 5   0  0.1035018E-05  0.1800317E+04  0.7818609E-02  0.8706131E-01
        2   -1    0    0  501    0  0.00000000000E+00  0.00000000000E+00  0.80228682149E+03  0.80228682150E+03  0.25500000920E-02 0. -1.
       -2   -1    0    0    0  501  0.00000000000E+00  0.00000000000E+00 -0.10099699524E+04  0.10099699524E+04  0.25500000920E-02 0.  1.
    10030    2    1    2    0    0  0.00000000000E+00  0.00000000000E+00 -0.20768313088E+03  0.18122567739E+04  0.18003172864E+04 0.  0.
        3    1    3    3  502    0 -0.70979793923E+03  0.25070979089E+03 -0.60069068907E+03  0.96306688653E+03  0.10100000352E+00 0.  1.
       -3    1    3    3    0  502  0.70979793923E+03 -0.25070979089E+03  0.39300755819E+03  0.84918988735E+03  0.10100000352E+00 0. -1.
</event>
<event>
 5   0  0.4994123E-06  0.1800432E+04  0.7818609E-02  0.8706070E-01
        1   -1    0    0  501    0  0.00000000000E+00  0.00000000000E+00  0.85260680162E+03  0.85260680163E+03  0.50400001928E-02 0.  1.
       -1   -1    0    0    0  501  0.00000000000E+00  0.00000000000E+00 -0.95048325194E+03  0.95048325195E+03  0.50400001928E-02 0. -1.
    10030    2    1    2    0    0  0.00000000000E+00  0.00000000000E+00 -0.97876450320E+02  0.18030900536E+04  0.18004315988E+04 0.  0.
        1    1    3    3  502    0  0.38428635578E+03  0.53038619680E+03 -0.66742842617E+03  0.93511829470E+03  0.50400001928E-02 0. -1.
       -1    1    3    3    0  502 -0.38428635578E+03 -0.53038619680E+03  0.56955197585E+03  0.86797175888E+03  0.50400001928E-02 0.  1.
</event>
<event>
 5   0  0.4994123E-06  0.1803920E+04  0.7818609E-02  0.8704217E-01
        1   -1    0    0  501    0  0.00000000000E+00  0.00000000000E+00  0.10011043634E+04  0.10011043634E+04  0.50400001928E-02 0.  1.
       -1   -1    0    0    0  501  0.00000000000E+00  0.00000000000E+00 -0.81263465999E+03  0.81263466001E+03  0.50400001928E-02 0. -1.
    10030    2    1    2    0    0  0.00000000000E+00  0.00000000000E+00  0.18846970343E+03  0.18137390234E+04  0.18039202909E+04 0.  0.
        1    1    3    3  502    0  0.55992961916E+03 -0.48326077821E+03  0.61325183648E+03  0.96080173457E+03  0.50400001928E-02 0.  1.
       -1    1    3    3    0  502 -0.55992961916E+03  0.48326077821E+03 -0.42478213305E+03  0.85293728888E+03  0.50400001928E-02 0. -1.
</event>
<event>
 5   0  0.4994123E-06  0.1798879E+04  0.7818609E-02  0.8706896E-01
       -1   -1    0    0    0  501  0.00000000000E+00  0.00000000000E+00  0.70661772897E+03  0.70661772899E+03  0.50400001928E-02 0.  1.
        1   -1    0    0  501    0  0.00000000000E+00  0.00000000000E+00 -0.11448786310E+04  0.11448786310E+04  0.50400001928E-02 0. -1.
    10030    2    1    2    0    0  0.00000000000E+00  0.00000000000E+00 -0.43826090207E+03  0.18514963600E+04  0.17988791379E+04 0.  0.
        1    1    3    3  502    0 -0.65109656478E+03 -0.37107489420E+03  0.29277862938E+03  0.80457606205E+03  0.50400001928E-02 0.  1.
       -1    1    3    3    0  502  0.65109656478E+03  0.37107489420E+03 -0.73103953144E+03  0.10469202980E+04  0.50400001928E-02 0. -1.
</event>
<event>
 5   0  0.1000316E-05  0.1800310E+04  0.7818609E-02  0.8706135E-01
       -2   -1    0    0    0  501  0.00000000000E+00  0.00000000000E+00  0.78271800623E+03  0.78271800623E+03  0.25500000920E-02 0. -1.
        2   -1    0    0  501    0  0.00000000000E+00  0.00000000000E+00 -0.10352115076E+04  0.10352115076E+04  0.25500000920E-02 0.  1.
    10030    2    1    2    0    0  0.00000000000E+00  0.00000000000E+00 -0.25249350135E+03  0.18179295138E+04  0.18003096259E+04 0.  0.
        5    1    3    3  502    0  0.50912230306E+03  0.74001564051E+03 -0.18536829668E+03  0.91717618977E+03  0.46999998093E+01 0. -1.
       -5    1    3    3    0  502 -0.50912230306E+03 -0.74001564051E+03 -0.67125204673E+02  0.90075332404E+03  0.46999998093E+01 0.  1.
</event>
<event>
 5   0  0.9999162E-06  0.1799251E+04  0.7818609E-02  0.8706698E-01
        2   -1    0    0  501    0  0.00000000000E+00  0.00000000000E+00  0.11535205764E+04  0.11535205764E+04  0.25500000920E-02 0.  1.
       -2   -1    0    0    0  501  0.00000000000E+00  0.00000000000E+00 -0.70161370013E+03  0.70161370014E+03  0.25500000920E-02 0. -1.
    10030    2    1    2    0    0  0.00000000000E+00  0.00000000000E+00  0.45190687622E+03  0.18551342765E+04  0.17992507771E+04 0.  0.
        1    1    3    3  502    0  0.57791920496E+03 -0.10653654150E+03  0.92827453389E+03  0.10986511059E+04  0.50400001928E-02 0.  1.
       -1    1    3    3    0  502 -0.57791920496E+03  0.10653654150E+03 -0.47636765767E+03  0.75648317062E+03  0.50400001928E-02 0. -1.
</event>
<event>
 5   0  0.4981384E-06  0.1799707E+04  0.7818609E-02  0.8706456E-01
       -1   -1    0    0    0  501  0.00000000000E+00  0.00000000000E+00  0.35758924612E+03  0.35758924616E+03  0.50400001928E-02 0.  1.
        1   -1    0    0  501    0  0.00000000000E+00  0.00000000000E+00 -0.22644302294E+04  0.22644302294E+04  0.50400001928E-02 0. -1.
    10030    2    1    2    0    0  0.00000000000E+00  0.00000000000E+00 -0.19068409833E+04  0.26220194756E+04  0.17997065302E+04 0.  0.
        5    1    3    3  502    0 -0.32557831226E+03 -0.77067529344E+03 -0.47071712002E+03  0.95996788613E+03  0.46999998093E+01 0.  1.
       -5    1    3    3    0  502  0.32557831226E+03  0.77067529344E+03 -0.14361238633E+04  0.16620515895E+04  0.46999998093E+01 0. -1.
</event>
<event>
 5   0  0.4981384E-06  0.1800996E+04  0.7818609E-02  0.8705770E-01
        1   -1    0    0  501    0  0.00000000000E+00  0.00000000000E+00  0.67098908046E+03  0.67098908048E+03  0.50400001928E-02 0.  1.
       -1   -1    0    0    0  501  0.00000000000E+00  0.00000000000E+00 -0.12085096814E+04  0.12085096814E+04  0.50400001928E-02 0. -1.
    10030    2    1    2    0    0  0.00000000000E+00  0.00000000000E+00 -0.53752060090E+03  0.18794987618E+04  0.18009961686E+04 0.  0.
        5    1    3    3  502    0 -0.89444254484E+03 -0.97239559821E+02 -0.22982855147E+03  0.92861523307E+03  0.46999998093E+01 0.  1.
       -5    1    3    3    0  502  0.89444254484E+03  0.97239559821E+02 -0.30769204943E+03  0.95088352878E+03  0.46999998093E+01 0. -1.
</event>
<event>
 5   0  0.9999162E-06  0.1800481E+04  0.7818609E-02  0.8706044E-01
       -2   -1    0    0    0  501  0.00000000000E+00  0.00000000000E+00  0.91680434125E+03  0.91680434125E+03  0.25500000920E-02 0. -1.
        2   -1    0    0  501    0  0.00000000000E+00  0.00000000000E+00 -0.88397573899E+03  0.88397573899E+03  0.25500000920E-02 0.  1.
    10030    2    1    2    0    0  0.00000000000E+00  0.00000000000E+00  0.32828602256E+02  0.18007800802E+04  0.18004808192E+04 0.  0.
        1    1    3    3  502    0  0.28826030899E+03 -0.48983724826E+03  0.71466948057E+03  0.91311937993E+03  0.50400001928E-02 0. -1.
       -1    1    3    3    0  502 -0.28826030899E+03  0.48983724826E+03 -0.68184087832E+03  0.88766070032E+03  0.50400001928E-02 0.  1.
</event>
<event>
 5   0  0.4987456E-06  0.1800482E+04  0.7818609E-02  0.8706043E-01
        1   -1    0    0  501    0  0.00000000000E+00  0.00000000000E+00  0.20616830760E+04  0.20616830760E+04  0.50400001928E-02 0.  1.
       -1   -1    0    0    0  501  0.00000000000E+00  0.00000000000E+00 -0.39309320388E+03  0.39309320391E+03  0.50400001928E-02 0. -1.
    10030    2    1    2    0    0  0.00000000000E+00  0.00000000000E+00  0.16685898721E+04  0.24547762799E+04  0.18004817197E+04 0.  0.
        3    1    3    3  502    0 -0.13323933116E+03  0.19915564257E+03 -0.34881704821E+03  0.42318912162E+03  0.10100000352E+00 0. -1.
       -3    1    3    3    0  502  0.13323933116E+03 -0.19915564257E+03  0.20174069203E+04  0.20315871583E+04  0.10100000352E+00 0.  1.
</event>
<event>
 5   0  0.4953155E-06  0.1800033E+04  0.7818609E-02  0.8706282E-01
        1   -1    0    0  501    0  0.00000000000E+00  0.00000000000E+00  0.87263097486E+03  0.87263097487E+03  0.50400001928E-02 0.  1.
       -1   -1    0    0    0  501  0.00000000000E+00  0.00000000000E+00 -0.92826097166E+03  0.92826097167E+03  0.50400001928E-02 0. -1.
    10030    2    1    2    0    0  0.00000000000E+00  0.00000000000E+00 -0.55629996799E+02  0.18008919465E+04  0.18000325293E+04 0.  0.
        2    1    3    3  502    0 -0.23646944272E+03  0.59793083179E+02 -0.89456358810E+03  0.92722005118E+03  0.25500000920E-02 0. -1.
       -2    1    3    3    0  502  0.23646944272E+03 -0.59793083179E+02  0.83893359130E+03  0.87367189537E+03  0.25500000920E-02 0.  1.
</event>
<event>
 5   0  0.4983159E-06  0.1799781E+04  0.7818609E-02  0.8706416E-01
        1   -1    0    0  501    0  0.00000000000E+00  0.00000000000E+00  0.10757893892E+04  0.10757893892E+04  0.50400001928E-02 0.  1.
       -1   -1    0    0    0  501  0.00000000000E+00  0.00000000000E+00 -0.75275229605E+03  0.75275229607E+03  0.50400001928E-02 0. -1.
    10030    2    1    2    0    0  0.00000000000E+00  0.00000000000E+00  0.32303709311E+03  0.18285416852E+04  0.17997810231E+04 0.  0.
        4    1    3    3  502    0 -0.58593378368E+03 -0.16841870231E+03 -0.51096362631E+03  0.79546759736E+03  0.12699999809E+01 0. -1.
       -4    1    3    3    0  502  0.58593378368E+03  0.16841870231E+03  0.83400071942E+03  0.10330740879E+04  0.12699999809E+01 0.  1.
</event>
<event>
 5   0  0.4983159E-06  0.1799872E+04  0.7818609E-02  0.8706367E-01
        1   -1    0    0  501    0  0.00000000000E+00  0.00000000000E+00  0.11736946566E+04  0.11736946566E+04  0.50400001928E-02 0.  1.
       -1   -1    0    0    0  501  0.00000000000E+00  0.00000000000E+00 -0.69003044906E+03  0.69003044908E+03  0.50400001928E-02 0. -1.
    10030    2    1    2    0    0  0.00000000000E+00  0.00000000000E+00  0.48366420756E+03  0.18637251057E+04  0.17998722743E+04 0.  0.
        4    1    3    3  502    0  0.61339891523E+03  0.53290620404E+03 -0.15871950870E+03  0.82791348996E+03  0.12699999809E+01 0.  1.
       -4    1    3    3    0  502 -0.61339891523E+03 -0.53290620404E+03  0.64238371625E+03  0.10358116157E+04  0.12699999809E+01 0. -1.
</event>
<event>
 5   0  0.4994123E-06  0.1799226E+04  0.7818609E-02  0.8706711E-01
        1   -1    0    0  501    0  0.00000000000E+00  0.00000000000E+00  0.75882152391E+03  0.75882152393E+03  0.50400001928E-02 0.  1.
       -1   -1    0    0    0  501  0.00000000000E+00  0.00000000000E+00 -0.10665273598E+04  0.10665273598E+04  0.50400001928E-02 0. -1.
    10030    2    1    2    0    0  0.00000000000E+00  0.00000000000E+00 -0.30770583591E+03  0.18253488838E+04  0.17992264076E+04 0.  0.
        1    1    3    3  502    0  0.19014084411E+03 -0.85234113944E+03 -0.37300999879E+03  0.94961856437E+03  0.50400001928E-02 0. -1.
       -1    1    3    3    0  502 -0.19014084411E+03  0.85234113944E+03  0.65304162880E+02  0.87573031938E+03  0.50400001928E-02 0.  1.
</event>
<event>
 5   0  0.4987456E-06  0.1800170E+04  0.7818609E-02  0.8706209E-01
       -1   -1    0    0    0  501  0.00000000000E+00  0.00000000000E+00  0.56404721567E+03  0.56404721569E+03  0.50400001928E-02 0.  1.
        1   -1    0    0  501    0  0.00000000000E+00  0.00000000000E+00 -0.14363210108E+04  0.14363210108E+04  0.50400001928E-02 0. -1.
    10030    2    1    2    0    0  0.00000000000E+00  0.00000000000E+00 -0.87227379515E+03  0.20003682265E+04  0.18001698442E+04 0.  0.
        3    1    3    3  502    0  0.51390272033E+03 -0.73066680599E+03 -0.31348585037E+03  0.94670131294E+03  0.10100000352E+00 0.  1.
       -3    1    3    3    0  502 -0.51390272033E+03  0.73066680599E+03 -0.55878794479E+03  0.10536669136E+04  0.10100000352E+00 0. -1.
</event>
<event>
 5   0  0.4983159E-06  0.1798980E+04  0.7818609E-02  0.8706842E-01
       -1   -1    0    0    0  501  0.00000000000E+00  0.00000000000E+00  0.48038115647E+03  0.48038115649E+03  0.50400001928E-02 0.  1.
        1   -1    0    0  501    0  0.00000000000E+00  0.00000000000E+00 -0.16842513183E+04  0.16842513183E+04  0.50400001928E-02 0. -1.
    10030    2    1    2    0    0  0.00000000000E+00  0.00000000000E+00 -0.12038701618E+04  0.21646324748E+04  0.17989803735E+04 0.  0.
        4    1    3    3  502    0  0.12796028855E+03  0.34041462185E+03 -0.15918456266E+04  0.16328594740E+04  0.12699999809E+01 0. -1.
       -4    1    3    3    0  502 -0.12796028855E+03 -0.34041462185E+03  0.38797546473E+03  0.53177300077E+03  0.12699999809E+01 0.  1.
</event>
<event>
 5   0  0.1000316E-05  0.1808697E+04  0.7818609E-02  0.8701688E-01
       -2   -1    0    0    0  501  0.00000000000E+00  0.00000000000E+00  0.11237984276E+04  0.11237984276E+04  0.25500000920E-02 0. -1.
        2   -1    0    0  501    0  0.00000000000E+00  0.00000000000E+00 -0.72775142652E+03  0.72775142652E+03  0.25500000920E-02 0.  1.
    10030    2    1    2    0    0  0.00000000000E+00  0.00000000000E+00  0.39604700105E+03  0.18515498541E+04  0.18086966675E+04 0.  0.
        5    1    3    3  502    0  0.24915655585E+03  0.61472577696E+03  0.82728829625E+03  0.10603748325E+04  0.46999998093E+01 0. -1.
       -5    1    3    3    0  502 -0.24915655585E+03 -0.61472577696E+03 -0.43124129520E+03  0.79117502164E+03  0.46999998093E+01 0.  1.
</event>
<event>
 5   0  0.4953155E-06  0.1799715E+04  0.7818609E-02  0.8706451E-01
       -1   -1    0    0    0  501  0.00000000000E+00  0.00000000000E+00  0.44226457308E+03  0.44226457311E+03  0.50400001928E-02 0.  1.
        1   -1    0    0  501    0  0.00000000000E+00  0.00000000000E+00 -0.18309019973E+04  0.18309019973E+04  0.50400001928E-02 0. -1.
    10030    2    1    2    0    0  0.00000000000E+00  0.00000000000E+00 -0.13886374242E+04  0.22731665704E+04  0.17997145220E+04 0.  0.
        2    1    3    3  502    0  0.33753303884E+03  0.54015116890E+03  0.10855246722E+03  0.64612342143E+03  0.25500000920E-02 0.  1.
       -2    1    3    3    0  502 -0.33753303884E+03 -0.54015116890E+03 -0.14971898914E+04  0.16270431489E+04  0.25500000920E-02 0. -1.
</event>
<event>
 5   0  0.4987456E-06  0.1800458E+04  0.7818609E-02  0.8706056E-01
        1   -1    0    0  501    0  0.00000000000E+00  0.00000000000E+00  0.13657981750E+04  0.13657981750E+04  0.50400001928E-02 0. -1.
       -1   -1    0    0    0  501  0.00000000000E+00  0.00000000000E+00 -0.59336171263E+03  0.59336171265E+03  0.50400001928E-02 0.  1.
    10030    2    1    2    0    0  0.00000000000E+00  0.00000000000E+00  0.77243646233E+03  0.19591598876E+04  0.18004581020E+04 0.  0.
        3    1    3    3  502    0 -0.87206276995E+03  0.21189863091E+03  0.46329878245E+03  0.10099704335E+04  0.10100000352E+00 0.  1.
       -3    1    3    3    0  502  0.87206276995E+03 -0.21189863091E+03  0.30913767987E+03  0.94918945413E+03  0.10100000352E+00 0. -1.
</event>
<event>
 5   0  0.4953155E-06  0.1799993E+04  0.7818609E-02  0.8706303E-01
        1   -1    0    0  501    0  0.00000000000E+00  0.00000000000E+00  0.91876013489E+03  0.91876013490E+03  0.50400001928E-02 0.  1.
       -1   -1    0    0    0  501  0.00000000000E+00  0.00000000000E+00 -0.88161579185E+03  0.88161579186E+03  0.50400001928E-02 0. -1.
    10030    2    1    2    0    0  0.00000000000E+00  0.00000000000E+00  0.37144343036E+02  0.18003759268E+04  0.17999927154E+04 0.  0.
        2    1    3    3  502    0 -0.59731759230E+03  0.39436452618E+02 -0.65361993900E+03  0.88631967400E+03  0.25500000920E-02 0. -1.
       -2    1    3    3    0  502  0.59731759230E+03 -0.39436452618E+02  0.69076428203E+03  0.91405625276E+03  0.25500000920E-02 0.  1.
</event>
<event>
 5   0  0.9999162E-06  0.1800872E+04  0.7818609E-02  0.8705836E-01
       -2   -1    0    0    0  501  0.00000000000E+00  0.00000000000E+00  0.59453820718E+03  0.59453820719E+03  0.25500000920E-02 0. -1.
        2   -1    0    0  501    0  0.00000000000E+00  0.00000000000E+00 -0.13637225819E+04  0.13637225819E+04  0.25500000920E-02 0.  1.
    10030    2    1    2    0    0  0.00000000000E+00  0.00000000000E+00 -0.76918437476E+03  0.19582607891E+04  0.18008722098E+04 0.  0.
        1    1    3    3  502    0 -0.69427692995E+03  0.54179258270E+03 -0.18050471680E+03  0.89896696877E+03  0.50400001928E-02 0. -1.
       -1    1    3    3    0  502  0.69427692995E+03 -0.54179258270E+03 -0.58867965796E+03  0.10592938204E+04  0.50400001928E-02 0.  1.
</event>
<event>
 5   0  0.4994123E-06  0.1800681E+04  0.7818609E-02  0.8705937E-01
        1   -1    0    0  501    0  0.00000000000E+00  0.00000000000E+00  0.10173125330E+04  0.10173125330E+04  0.50400001928E-02 0. -1.
       -1   -1    0    0    0  501  0.00000000000E+00  0.00000000000E+00 -0.79681805926E+03  0.79681805927E+03  0.50400001928E-02 0.  1.
    10030    2    1    2    0    0  0.00000000000E+00  0.00000000000E+00  0.22049447369E+03  0.18141305922E+04  0.18006809803E+04 0.  0.
        1    1    3    3  502    0 -0.30035928822E+03 -0.48950071447E+03  0.80881386179E+03  0.99197102505E+03  0.50400001928E-02 0. -1.
       -1    1    3    3    0  502  0.30035928822E+03  0.48950071447E+03 -0.58831938810E+03  0.82215956719E+03  0.50400001928E-02 0.  1.
</event>
<event>
 5   0  0.9589963E-06  0.1800079E+04  0.7818609E-02  0.8706257E-01
        2   -1    0    0  501    0  0.00000000000E+00  0.00000000000E+00  0.15436563928E+04  0.15436563928E+04  0.25500000920E-02 0. -1.
       -2   -1    0    0    0  501  0.00000000000E+00  0.00000000000E+00 -0.52477440121E+03  0.52477440121E+03  0.25500000920E-02 0.  1.
    10030    2    1    2    0    0  0.00000000000E+00  0.00000000000E+00  0.10188819916E+04  0.20684307940E+04  0.18000792863E+04 0.  0.
        2    1    3    3  502    0  0.82845580534E+03  0.19837394732E+03  0.17565399724E+03  0.86979628140E+03  0.25500000920E-02 0.  1.
       -2    1    3    3    0  502 -0.82845580534E+03 -0.19837394732E+03  0.84322799437E+03  0.11986345126E+04  0.25500000920E-02 0. -1.
</event>
<event>
 5   0  0.3626125E-06  0.1799799E+04  0.7818609E-02  0.8706406E-01
        3   -1    0    0  501    0  0.00000000000E+00  0.00000000000E+00  0.10321156518E+04  0.10321156568E+04  0.10100000352E+00 0.  1.
       -3   -1    0    0    0  501  0.00000000000E+00  0.00000000000E+00 -0.78462055478E+03  0.78462056128E+03  0.10100000352E+00 0. -1.
    10030    2    1    2    0    0  0.00000000000E+00  0.00000000000E+00  0.24749509704E+03  0.18167362180E+04  0.17997990618E+04 0.  0.
        2    1    3    3  502    0 -0.19490872311E+03 -0.34081281760E+03  0.94110612170E+03  0.10197173723E+04  0.25500000920E-02 0.  1.
       -2    1    3    3    0  502  0.19490872311E+03  0.34081281760E+03 -0.69361102466E+03  0.79701884578E+03  0.25500000920E-02 0. -1.
</event>
<event>
 5   0  0.4994123E-06  0.1800389E+04  0.7818609E-02  0.8706093E-01
        1   -1    0    0  501    0  0.00000000000E+00  0.00000000000E+00  0.12278099170E+04  0.12278099170E+04  0.50400001928E-02 0. -1.
       -1   -1    0    0    0  501  0.00000000000E+00  0.00000000000E+00 -0.65999626321E+03  0.65999626323E+03  0.50400001928E-02 0.  1.
    10030    2    1    2    0    0  0.00000000000E+00  0.00000000000E+00  0.56781365377E+03  0.18878061802E+04  0.18003887993E+04 0.  0.
        1    1    3    3  502    0  0.70443320961E+03  0.38159087096E+03 -0.14652740013E+03  0.81443724044E+03  0.50400001928E-02 0.  1.
       -1    1    3    3    0  502 -0.70443320961E+03 -0.38159087096E+03  0.71434105390E+03  0.10733689398E+04  0.50400001928E-02 0. -1.
</event>
<event>
 5   0  0.4987456E-06  0.1800281E+04  0.7818609E-02  0.8706150E-01
       -1   -1    0    0    0  501  0.00000000000E+00  0.00000000000E+00  0.96061860086E+03  0.96061860087E+03  0.50400001928E-02 0.  1.
        1   -1    0    0  501    0  0.00000000000E+00  0.00000000000E+00 -0.84347040215E+03  0.84347040216E+03  0.50400001928E-02 0. -1.
    10030    2    1    2    0    0  0.00000000000E+00  0.00000000000E+00  0.11714819871E+03  0.18040890030E+04  0.18002814864E+04 0.  0.
        3    1    3    3  502    0  0.13833424202E+03 -0.68637397430E+02  0.94724492610E+03  0.95975018368E+03  0.10100000352E+00 0.  1.
       -3    1    3    3    0  502 -0.13833424202E+03  0.68637397430E+02 -0.83009672739E+03  0.84433881936E+03  0.10100000352E+00 0. -1.
</event>
<event>
 5   0  0.1035018E-05  0.1800079E+04  0.7818609E-02  0.8706257E-01
       -2   -1    0    0    0  501  0.00000000000E+00  0.00000000000E+00  0.11937942948E+04  0.11937942948E+04  0.25500000920E-02 0. -1.
        2   -1    0    0  501    0  0.00000000000E+00  0.00000000000E+00 -0.67856847240E+03  0.67856847241E+03  0.25500000920E-02 0.  1.
    10030    2    1    2    0    0  0.00000000000E+00  0.00000000000E+00  0.51522582236E+03  0.18723627672E+04  0.18000790771E+04 0.  0.
        3    1    3    3  502    0 -0.16886792316E+03 -0.88331939420E+03  0.22008600955E+03  0.92585495054E+03  0.10100000352E+00 0.  1.
       -3    1    3    3    0  502  0.16886792316E+03  0.88331939420E+03  0.29513981281E+03  0.94650781663E+03  0.10100000352E+00 0. -1.
</event>
<event>
 5   0  0.1036381E-05  0.1799610E+04  0.7818609E-02  0.8706507E-01
        2   -1    0    0  501    0  0.00000000000E+00  0.00000000000E+00  0.14330540947E+04  0.14330540947E+04  0.25500000920E-02 0. -1.
       -2   -1    0    0    0  501  0.00000000000E+00  0.00000000000E+00 -0.56498169688E+03  0.56498169689E+03  0.25500000920E-02 0.  1.
    10030    2    1    2    0    0  0.00000000000E+00  0.00000000000E+00  0.86807239780E+03  0.19980357916E+04  0.17996103291E+04 0.  0.
        4    1    3    3  502    0 -0.29930710771E+03 -0.60716979174E+03 -0.22412230588E+03  0.71307245187E+03  0.12699999809E+01 0.  1.
       -4    1    3    3    0  502  0.29930710771E+03  0.60716979174E+03  0.10921947037E+04  0.12849633397E+04  0.12699999809E+01 0. -1.
</event>
<event>
 5   0  0.4994123E-06  0.1800463E+04  0.7818609E-02  0.8706053E-01
        1   -1    0    0  501    0  0.00000000000E+00  0.00000000000E+00  0.21841415587E+04  0.21841415587E+04  0.50400001928E-02 0.  1.
       -1   -1    0    0    0  501  0.00000000000E+00  0.00000000000E+00 -0.37104577046E+03  0.37104577049E+03  0.50400001928E-02 0. -1.
    10030    2    1    2    0    0  0.00000000000E+00  0.00000000000E+00  0.18130957883E+04  0.25551873292E+04  0.18004627044E+04 0.  0.
        1    1    3    3  502    0  0.24365856945E+03  0.28888904205E+03 -0.25301300622E+03  0.45479881093E+03  0.50400001928E-02 0. -1.
       -1    1    3    3    0  502 -0.24365856945E+03 -0.28888904205E+03  0.20661087945E+04  0.21003885183E+04  0.50400001928E-02 0.  1.
</event>
<event>
 5   0  0.4981384E-06  0.1800540E+04  0.7818609E-02  0.8706012E-01
        1   -1    0    0  501    0  0.00000000000E+00  0.00000000000E+00  0.12974342217E+04  0.12974342217E+04  0.50400001928E-02 0.  1.
       -1   -1    0    0    0  501  0.00000000000E+00  0.00000000000E+00 -0.62468372087E+03  0.62468372089E+03  0.50400001928E-02 0. -1.
    10030    2    1    2    0    0  0.00000000000E+00  0.00000000000E+00  0.67275050080E+03  0.19221179426E+04  0.18005399604E+04 0.  0.
        5    1    3    3  502    0 -0.43287043796E+03 -0.53521504522E+03 -0.28300158446E+03  0.74427410777E+03  0.46999998093E+01 0. -1.
       -5    1    3    3    0  502  0.43287043796E+03  0.53521504522E+03  0.95575208526E+03  0.11778438348E+04  0.46999998093E+01 0.  1.
</event>
<event>
 5   0  0.1035018E-05  0.1799180E+04  0.7818609E-02  0.8706736E-01
       -2   -1    0    0    0  501  0.00000000000E+00  0.00000000000E+00  0.72309276919E+03  0.72309276919E+03  0.25500000920E-02 0.  1.
        2   -1    0    0  501    0  0.00000000000E+00  0.00000000000E+00 -0.11191672537E+04  0.11191672537E+04  0.25500000920E-02 0. -1.
    10030    2    1    2    0    0  0.00000000000E+00  0.00000000000E+00 -0.39607448447E+03  0.18422600229E+04  0.17991795337E+04 0.  0.
        3    1    3    3  502    0  0.11730625832E+03  0.53081576935E+03 -0.93195307416E+03  0.10789173656E+04  0.10100000352E+00 0. -1.
       -3    1    3    3    0  502 -0.11730625832E+03 -0.53081576935E+03  0.53587858969E+03  0.76334265722E+03  0.10100000352E+00 0.  1.
</event>
<event>
 5   0  0.4983159E-06  0.1800191E+04  0.7818609E-02  0.8706198E-01
       -1   -1    0    0    0  501  0.00000000000E+00  0.00000000000E+00  0.77444241495E+03  0.77444241496E+03  0.50400001928E-02 0. -1.
        1   -1    0    0  501    0  0.00000000000E+00  0.00000000000E+00 -0.10461363031E+04  0.10461363031E+04  0.50400001928E-02 0.  1.
    10030    2    1    2    0    0  0.00000000000E+00  0.00000000000E+00 -0.27169388815E+03  0.18205787181E+04  0.18001914620E+04 0.  0.
        4    1    3    3  502    0 -0.14507562612E+03  0.82719542869E+03  0.19165923546E+03  0.86141400614E+03  0.12699999809E+01 0. -1.
       -4    1    3    3    0  502  0.14507562612E+03 -0.82719542869E+03 -0.46335312361E+03  0.95916471193E+03  0.12699999809E+01 0.  1.
</event>
<event>
 5   0  0.1035018E-05  0.1799596E+04  0.7818609E-02  0.8706514E-01
       -2   -1    0    0    0  501  0.00000000000E+00  0.00000000000E+00  0.45367672107E+03  0.45367672107E+03  0.25500000920E-02 0.  1.
        2   -1    0    0  501    0  0.00000000000E+00  0.00000000000E+00 -0.17846117560E+04  0.17846117560E+04  0.25500000920E-02 0. -1.
    10030    2    1    2    0    0  0.00000000000E+00  0.00000000000E+00 -0.13309350349E+04  0.22382884771E+04  0.17995964101E+04 0.  0.
        3    1    3    3  502    0 -0.55446987205E+03  0.11383631624E+03 -0.15354339103E+04  0.16364451867E+04  0.10100000352E+00 0. -1.
       -3    1    3    3    0  502  0.55446987205E+03 -0.11383631624E+03  0.20449887541E+03  0.60184329036E+03  0.10100000352E+00 0.  1.
</event>
<event>
 5   0  0.4981384E-06  0.1800349E+04  0.7818609E-02  0.8706114E-01
       -1   -1    0    0    0  501  0.00000000000E+00  0.00000000000E+00  0.15220238053E+04  0.15220238053E+04  0.50400001928E-02 0. -1.
        1   -1    0    0  501    0  0.00000000000E+00  0.00000000000E+00 -0.53239239975E+03  0.53239239977E+03  0.50400001928E-02 0.  1.
    10030    2    1    2    0    0  0.00000000000E+00  0.00000000000E+00  0.98963140559E+03  0.20544162051E+04  0.18003487509E+04 0.  0.
        5    1    3    3  502    0 -0.61857730933E+03  0.23274135545E+03  0.11921942754E+04  0.13631418512E+04  0.46999998093E+01 0. -1.
       -5    1    3    3    0  502  0.61857730933E+03 -0.23274135545E+03 -0.20256286983E+03  0.69127435392E+03  0.46999998093E+01 0.  1.
</event>
<event>
 5   0  0.4953155E-06  0.1800232E+04  0.7818609E-02  0.8706176E-01
       -1   -1    0    0    0  501  0.00000000000E+00  0.00000000000E+00  0.91529882634E+03  0.91529882636E+03  0.50400001928E-02 0.  1.
        1   -1    0    0  501    0  0.00000000000E+00  0.00000000000E+00 -0.88518457105E+03  0.88518457106E+03  0.50400001928E-02 0. -1.
    10030    2    1    2    0    0  0.00000000000E+00  0.00000000000E+00  0.30114255294E+02  0.18004833974E+04  0.18002315396E+04 0.  0.
        2    1    3    3  502    0 -0.34003859857E+03 -0.63063458142E+03  0.56000230878E+03  0.90935626113E+03  0.25500000920E-02 0.  1.
       -2    1    3    3    0  502  0.34003859857E+03  0.63063458142E+03 -0.52988805349E+03  0.89112713629E+03  0.25500000920E-02 0. -1.
</event>
<event>
 5   0  0.1000316E-05  0.1799450E+04  0.7818609E-02  0.8706592E-01
       -2   -1    0    0    0  501  0.00000000000E+00  0.00000000000E+00  0.79451690899E+03  0.79451690900E+03  0.25500000920E-02 0.  1.
        2   -1    0    0  501    0  0.00000000000E+00  0.00000000000E+00 -0.10188647164E+04  0.10188647164E+04  0.25500000920E-02 0. -1.
    10030    2    1    2    0    0  0.00000000000E+00  0.00000000000E+00 -0.22434780741E+03  0.18133816254E+04  0.17994501884E+04 0.  0.
        5    1    3    3  502    0 -0.11998180030E+02 -0.30532879284E+03  0.74061260349E+03  0.80118583769E+03  0.46999998093E+01 0.  1.
       -5    1    3    3    0  502  0.11998180030E+02  0.30532879284E+03 -0.96496041090E+03  0.10121957877E+04  0.46999998093E+01 0. -1.
</event>
<event>
 5   0  0.4994123E-06  0.1796282E+04  0.7818609E-02  0.8708279E-01
        1   -1    0    0  501    0  0.00000000000E+00  0.00000000000E+00  0.64505555226E+03  0.64505555228E+03  0.50400001928E-02 0. -1.
       -1   -1    0    0    0  501  0.00000000000E+00  0.00000000000E+00 -0.12505239575E+04  0.12505239575E+04  0.50400001928E-02 0.  1.
    10030    2    1    2    0    0  0.00000000000E+00  0.00000000000E+00 -0.60546840525E+03  0.18955795098E+04  0.17962821850E+04 0.  0.
        1    1    3    3  502    0 -0.75561861781E+03  0.46186098055E+03 -0.14485664770E+03  0.89736197231E+03  0.50400001928E-02 0.  1.
       -1    1    3    3    0  502  0.75561861781E+03 -0.46186098055E+03 -0.46061175754E+03  0.99821753749E+03  0.50400001928E-02 0. -1.
</event>
<event>
 5   0  0.4994123E-06  0.1800050E+04  0.7818609E-02  0.8706273E-01
       -1   -1    0    0    0  501  0.00000000000E+00  0.00000000000E+00  0.69008541834E+03  0.69008541836E+03  0.50400001928E-02 0. -1.
        1   -1    0    0  501    0  0.00000000000E+00  0.00000000000E+00 -0.11738325697E+04  0.11738325697E+04  0.50400001928E-02 0.  1.
    10030    2    1    2    0    0  0.00000000000E+00  0.00000000000E+00 -0.48374715133E+03  0.18639179880E+04  0.18000497104E+04 0.  0.
        1    1    3    3  502    0  0.12248324608E+03 -0.88942941454E+03 -0.17672944295E+03  0.91505197943E+03  0.50400001928E-02 0. -1.
       -1    1    3    3    0  502 -0.12248324608E+03  0.88942941454E+03 -0.30701770837E+03  0.94886600861E+03  0.50400001928E-02 0.  1.
</event>
<event>
 5   0  0.1035018E-05  0.1800134E+04  0.7818609E-02  0.8706228E-01
       -2   -1    0    0    0  501  0.00000000000E+00  0.00000000000E+00  0.10660700638E+04  0.10660700638E+04  0.25500000920E-02 0. -1.
        2   -1    0    0  501    0  0.00000000000E+00  0.00000000000E+00 -0.75991286747E+03  0.75991286748E+03  0.25500000920E-02 0.  1.
    10030    2    1    2    0    0  0.00000000000E+00  0.00000000000E+00  0.30615719632E+03  0.18259829313E+04  0.18001337274E+04 0.  0.
        3    1    3    3  502    0 -0.43118070229E+03 -0.49389255975E+03 -0.47243979465E+03  0.80811263347E+03  0.10100000352E+00 0.  1.
       -3    1    3    3    0  502  0.43118070229E+03  0.49389255975E+03  0.77859699096E+03  0.10178702978E+04  0.10100000352E+00 0. -1.
</event>
<event>
 5   0  0.4983159E-06  0.1800710E+04  0.7818609E-02  0.8705922E-01
        1   -1    0    0  501    0  0.00000000000E+00  0.00000000000E+00  0.99901383485E+03  0.99901383486E+03  0.50400001928E-02 0. -1.
       -1   -1    0    0    0  501  0.00000000000E+00  0.00000000000E+00 -0.81143973972E+03  0.81143973973E+03  0.50400001928E-02 0.  1.
    10030    2    1    2    0    0  0.00000000000E+00  0.00000000000E+00  0.18757409513E+03  0.18104535746E+04  0.18007104444E+04 0.  0.
        4    1    3    3  502    0  0.51434282486E+03 -0.42553004455E+03  0.70121951896E+03  0.96816051715E+03  0.12699999809E+01 0. -1.
       -4    1    3    3    0  502 -0.51434282486E+03  0.42553004455E+03 -0.51364542383E+03  0.84229305744E+03  0.12699999809E+01 0.  1.
</event>
<event>
 5   0  0.4994123E-06  0.1797066E+04  0.7818609E-02  0.8707862E-01
       -1   -1    0    0    0  501  0.00000000000E+00  0.00000000000E+00  0.42217037975E+03  0.42217037978E+03  0.50400001928E-02 0. -1.
        1   -1    0    0  501    0  0.00000000000E+00  0.00000000000E+00 -0.19124058933E+04  0.19124058933E+04  0.50400001928E-02 0.  1.
    10030    2    1    2    0    0  0.00000000000E+00  0.00000000000E+00 -0.14902355136E+04  0.23345762731E+04  0.17970655216E+04 0.  0.
        1    1    3    3  502    0  0.25371541132E+03 -0.49225788099E+03  0.17410489294E+03  0.58051860014E+03  0.50400001928E-02 0. -1.
       -1    1    3    3    0  502 -0.25371541132E+03  0.49225788099E+03 -0.16643404065E+04  0.17540576730E+04  0.50400001928E-02 0.  1.
</event>
<event>
 5   0  0.1000316E-05  0.1800522E+04  0.7818609E-02  0.8706022E-01
       -2   -1    0    0    0  501  0.00000000000E+00  0.00000000000E+00  0.27226048335E+03  0.27226048336E+03  0.25500000920E-02 0. -1.
        2   -1    0    0  501    0  0.00000000000E+00  0.00000000000E+00 -0.29768177524E+04  0.29768177524E+04  0.25500000920E-02 0.  1.
    10030    2    1    2    0    0  0.00000000000E+00  0.00000000000E+00 -0.27045572691E+04  0.32490782358E+04  0.18005219689E+04 0.  0.
        5    1    3    3  502    0 -0.48322678388E+03  0.75702809270E+03 -0.14642184241E+04  0.17177186444E+04  0.46999998093E+01 0.  1.
       -5    1    3    3    0  502  0.48322678388E+03 -0.75702809270E+03 -0.12403388450E+04  0.15313595914E+04  0.46999998093E+01 0. -1.
</event>
<event>
 5   0  0.4981384E-06  0.1799758E+04  0.7818609E-02  0.8706428E-01
        1   -1    0    0  501    0  0.00000000000E+00  0.00000000000E+00  0.21890963985E+04  0.21890963985E+04  0.50400001928E-02 0.  1.
       -1   -1    0    0    0  501  0.00000000000E+00  0.00000000000E+00 -0.36991607742E+03  0.36991607745E+03  0.50400001928E-02 0. -1.
    10030    2    1    2    0    0  0.00000000000E+00  0.00000000000E+00  0.18191803211E+04  0.25590124760E+04  0.17997577091E+04 0.  0.
        5    1    3    3  502    0 -0.73280443006E+03  0.41091375127E+03  0.13679237011E+04  0.16053316747E+04  0.46999998093E+01 0. -1.
       -5    1    3    3    0  502  0.73280443006E+03 -0.41091375127E+03  0.45125662004E+03  0.95368080133E+03  0.46999998093E+01 0.  1.
</event>
<event>
 5   0  0.1035018E-05  0.1800655E+04  0.7818609E-02  0.8705951E-01
       -2   -1    0    0    0  501  0.00000000000E+00  0.00000000000E+00  0.49716474872E+03  0.49716474873E+03  0.25500000920E-02 0. -1.
        2   -1    0    0  501    0  0.00000000000E+00  0.00000000000E+00 -0.16304238919E+04  0.16304238919E+04  0.25500000920E-02 0.  1.
    10030    2    1    2    0    0  0.00000000000E+00  0.00000000000E+00 -0.11332591432E+04  0.21275886407E+04  0.18006546416E+04 0.  0.
        3    1    3    3  502    0  0.48150532729E+03  0.73838769738E+03 -0.35028555618E+03  0.94855877673E+03  0.10100000352E+00 0. -1.
       -3    1    3    3    0  502 -0.48150532729E+03 -0.73838769738E+03 -0.78297358702E+03  0.11790298639E+04  0.10100000352E+00 0.  1.
</event>
<event>
 5   0  0.4953155E-06  0.1801237E+04  0.7818609E-02  0.8705642E-01
        1   -1    0    0  501    0  0.00000000000E+00  0.00000000000E+00  0.14444102010E+04  0.14444102010E+04  0.50400001928E-02 0.  1.
       -1   -1    0    0    0  501  0.00000000000E+00  0.00000000000E+00 -0.56155328841E+03  0.56155328843E+03  0.50400001928E-02 0. -1.
    10030    2    1    2    0    0  0.00000000000E+00  0.00000000000E+00  0.88285691259E+03  0.20059634894E+04  0.18012365733E+04 0.  0.
        2    1    3    3  502    0  0.67074315568E+03  0.33552669169E+03  0.99673997262E+03  0.12473833071E+04  0.25500000920E-02 0. -1.
       -2    1    3    3    0  502 -0.67074315568E+03 -0.33552669169E+03 -0.11388306003E+03  0.75858018237E+03  0.25500000920E-02 0.  1.
</event>
<event>
 5   0  0.4983159E-06  0.1800328E+04  0.7818609E-02  0.8706125E-01
       -1   -1    0    0    0  501  0.00000000000E+00  0.00000000000E+00  0.14541448074E+04  0.14541448074E+04  0.50400001928E-02 0. -1.
        1   -1    0    0  501    0  0.00000000000E+00  0.00000000000E+00 -0.55723144784E+03  0.55723144786E+03  0.50400001928E-02 0.  1.
    10030    2    1    2    0    0  0.00000000000E+00  0.00000000000E+00  0.89691335955E+03  0.20113762553E+04  0.18003279884E+04 0.  0.
        4    1    3    3  502    0  0.17866955797E+03 -0.45299851147E+03  0.12942822550E+04  0.13828588615E+04  0.12699999809E+01 0. -1.
       -4    1    3    3    0  502 -0.17866955797E+03  0.45299851147E+03 -0.39736889542E+03  0.62851739378E+03  0.12699999809E+01 0.  1.
</event>
<event>
 5   0  0.4994123E-06  0.1799657E+04  0.7818609E-02  0.8706482E-01
       -1   -1    0    0    0  501  0.00000000000E+00  0.00000000000E+00  0.72393461987E+03  0.72393461988E+03  0.50400001928E-02 0.  1.
        1   -1    0    0  501    0  0.00000000000E+00  0.00000000000E+00 -0.11184585908E+04  0.11184585908E+04  0.50400001928E-02 0. -1.
    10030    2    1    2    0    0  0.00000000000E+00  0.00000000000E+00 -0.39452397092E+03  0.18423932107E+04  0.17996565170E+04 0.  0.
        1    1    3    3  502    0 -0.55854244582E+03 -0.67389798705E+03  0.16460362406E+02  0.87543081068E+03  0.50400001928E-02 0.  1.
       -1    1    3    3    0  502  0.55854244582E+03  0.67389798705E+03 -0.41098433333E+03  0.96696240000E+03  0.50400001928E-02 0. -1.
</event>
<event>
 5   0  0.4983159E-06  0.1800180E+04  0.7818609E-02  0.8706204E-01
        1   -1    0    0  501    0  0.00000000000E+00  0.00000000000E+00  0.15263614642E+04  0.15263614642E+04  0.50400001928E-02 0.  1.
       -1   -1    0    0    0  501  0.00000000000E+00  0.00000000000E+00 -0.53078011870E+03  0.53078011873E+03  0.50400001928E-02 0. -1.
    10030    2    1    2    0    0  0.00000000000E+00  0.00000000000E+00  0.99558134552E+03  0.20571415830E+04  0.18001803456E+04 0.  0.
        4    1    3    3  502    0  0.14428725018E+03 -0.29539625320E+03 -0.45971725911E+03  0.56517194569E+03  0.12699999809E+01 0. -1.
       -4    1    3    3    0  502 -0.14428725018E+03  0.29539625320E+03  0.14552986046E+04  0.14919696373E+04  0.12699999809E+01 0.  1.
</event>
<event>
 5   0  0.9589963E-06  0.1799999E+04  0.7818609E-02  0.8706300E-01
        2   -1    0    0  501    0  0.00000000000E+00  0.00000000000E+00  0.27610960818E+04  0.27610960818E+04  0.25500000920E-02 0.  1.
       -2   -1    0    0    0  501  0.00000000000E+00  0.00000000000E+00 -0.29336142357E+03  0.29336142358E+03  0.25500000920E-02 0. -1.
    10030    2    1    2    0    0  0.00000000000E+00  0.00000000000E+00  0.24677346582E+04  0.30544575054E+04  0.17999989747E+04 0.  0.
        2    1    3    3  502    0 -0.47095372872E+03  0.90744062020E+02 -0.58433246661E+02  0.48316285423E+03  0.25500000920E-02 0. -1.
       -2    1    3    3    0  502  0.47095372872E+03 -0.90744062020E+02  0.25261679049E+04  0.25712946511E+04  0.25500000920E-02 0.  1.
</event>
<event>
 5   0  0.9999162E-06  0.1800848E+04  0.7818609E-02  0.8705849E-01
       -2   -1    0    0    0  501  0.00000000000E+00  0.00000000000E+00  0.94352691840E+03  0.94352691840E+03  0.25500000920E-02 0. -1.
        2   -1    0    0  501    0  0.00000000000E+00  0.00000000000E+00 -0.85928996660E+03  0.85928996660E+03  0.25500000920E-02 0.  1.
    10030    2    1    2    0    0  0.00000000000E+00  0.00000000000E+00  0.84236951801E+02  0.18028168850E+04  0.18008478161E+04 0.  0.
        1    1    3    3  502    0 -0.18687242462E+02 -0.83452486941E+03  0.38010018974E+03  0.91720070048E+03  0.50400001928E-02 0. -1.
       -1    1    3    3    0  502  0.18687242462E+02  0.83452486941E+03 -0.29586323794E+03  0.88561618452E+03  0.50400001928E-02 0.  1.
</event>
<event>
 5   0  0.1035018E-05  0.1800015E+04  0.7818609E-02  0.8706291E-01
       -2   -1    0    0    0  501  0.00000000000E+00  0.00000000000E+00  0.59556035164E+03  0.59556035164E+03  0.25500000920E-02 0.  1.
        2   -1    0    0  501    0  0.00000000000E+00  0.00000000000E+00 -0.13600863567E+04  0.13600863567E+04  0.25500000920E-02 0. -1.
    10030    2    1    2    0    0  0.00000000000E+00  0.00000000000E+00 -0.76452600509E+03  0.19556467084E+04  0.18000150098E+04 0.  0.
        3    1    3    3  502    0 -0.32500643034E+03 -0.31451567259E+03  0.46312973602E+03  0.64733179333E+03  0.10100000352E+00 0.  1.
       -3    1    3    3    0  502  0.32500643034E+03  0.31451567259E+03 -0.12276557411E+04  0.13083149150E+04  0.10100000352E+00 0. -1.
</event>
<event>
 5   0  0.9999162E-06  0.1799938E+04  0.7818609E-02  0.8706332E-01
        2   -1    0    0  501    0  0.00000000000E+00  0.00000000000E+00  0.17471029317E+04  0.17471029318E+04  0.25500000920E-02 0.  1.
       -2   -1    0    0    0  501  0.00000000000E+00  0.00000000000E+00 -0.46359271188E+03  0.46359271188E+03  0.25500000920E-02 0. -1.
    10030    2    1    2    0    0  0.00000000000E+00  0.00000000000E+00  0.12835102199E+04  0.22106956436E+04  0.17999379835E+04 0.  0.
        1    1    3    3  502    0 -0.53240485332E+03  0.70302988616E+03  0.86227971754E+03  0.12333824468E+04  0.50400001928E-02 0.  1.
       -1    1    3    3    0  502  0.53240485332E+03 -0.70302988616E+03  0.42123050233E+03  0.97731319688E+03  0.50400001928E-02 0. -1.
</event>
<event>
 5   0  0.1036381E-05  0.1800512E+04  0.7818609E-02  0.8706027E-01
       -2   -1    0    0    0  501  0.00000000000E+00  0.00000000000E+00  0.10941360191E+04  0.10941360191E+04  0.25500000920E-02 0. -1.
        2   -1    0    0  501    0  0.00000000000E+00  0.00000000000E+00 -0.74073164460E+03  0.74073164461E+03  0.25500000920E-02 0.  1.
    10030    2    1    2    0    0  0.00000000000E+00  0.00000000000E+00  0.35340437450E+03  0.18348676637E+04  0.18005123414E+04 0.  0.
        4    1    3    3  502    0 -0.88480640137E+03 -0.26672090331E+02  0.34373756580E+03  0.94960565255E+03  0.12699999809E+01 0.  1.
       -4    1    3    3    0  502  0.88480640137E+03  0.26672090331E+02  0.96668086914E+01  0.88526201116E+03  0.12699999809E+01 0. -1.
</event>
<event>
 5   0  0.4987456E-06  0.1806465E+04  0.7818609E-02  0.8702869E-01
       -1   -1    0    0    0  501  0.00000000000E+00  0.00000000000E+00  0.14535035076E+04  0.14535035076E+04  0.50400001928E-02 0.  1.
        1   -1    0    0  501    0  0.00000000000E+00  0.00000000000E+00 -0.56128422187E+03  0.56128422189E+03  0.50400001928E-02 0. -1.
    10030    2    1    2    0    0  0.00000000000E+00  0.00000000000E+00  0.89221928571E+03  0.20147877295E+04  0.18064645972E+04 0.  0.
        3    1    3    3  502    0  0.70096419338E+03  0.42186396621E+03  0.19204530930E+02  0.81834517814E+03  0.10100000352E+00 0. -1.
       -3    1    3    3    0  502 -0.70096419338E+03 -0.42186396621E+03  0.87301475478E+03  0.11964425513E+04  0.10100000352E+00 0.  1.
</event>
<event>
 5   0  0.4994123E-06  0.1799994E+04  0.7818609E-02  0.8706303E-01
       -1   -1    0    0    0  501  0.00000000000E+00  0.00000000000E+00  0.87282373241E+03  0.87282373242E+03  0.50400001928E-02 0. -1.
        1   -1    0    0  501    0  0.00000000000E+00  0.00000000000E+00 -0.92801590749E+03  0.92801590750E+03  0.50400001928E-02 0.  1.
    10030    2    1    2    0    0  0.00000000000E+00  0.00000000000E+00 -0.55192175082E+02  0.18008396399E+04  0.17999936757E+04 0.  0.
        1    1    3    3  502    0 -0.61107418404E+02  0.74206260523E+03  0.47821375388E+03  0.88491774820E+03  0.50400001928E-02 0. -1.
       -1    1    3    3    0  502  0.61107418404E+02 -0.74206260523E+03 -0.53340592896E+03  0.91592189172E+03  0.50400001928E-02 0.  1.
</event>
<event>
 5   0  0.3626125E-06  0.1802073E+04  0.7818609E-02  0.8705198E-01
       -3   -1    0    0    0  501  0.00000000000E+00  0.00000000000E+00  0.10270271116E+04  0.10270271165E+04  0.10100000352E+00 0.  1.
        3   -1    0    0  501    0  0.00000000000E+00  0.00000000000E+00 -0.79050172062E+03  0.79050172707E+03  0.10100000352E+00 0. -1.
    10030    2    1    2    0    0  0.00000000000E+00  0.00000000000E+00  0.23652539094E+03  0.18175288436E+04  0.18020729277E+04 0.  0.
        2    1    3    3  502    0  0.66955486574E+03  0.58402945286E+03  0.26945702562E+03  0.92844020201E+03  0.25500000920E-02 0.  1.
       -2    1    3    3    0  502 -0.66955486574E+03 -0.58402945286E+03 -0.32931634681E+02  0.88908864159E+03  0.25500000920E-02 0. -1.
</event>
<event>
 5   0  0.4994123E-06  0.1799733E+04  0.7818609E-02  0.8706441E-01
       -1   -1    0    0    0  501  0.00000000000E+00  0.00000000000E+00  0.10974955136E+04  0.10974955136E+04  0.50400001928E-02 0. -1.
        1   -1    0    0  501    0  0.00000000000E+00  0.00000000000E+00 -0.73782532523E+03  0.73782532525E+03  0.50400001928E-02 0.  1.
    10030    2    1    2    0    0  0.00000000000E+00  0.00000000000E+00  0.35967018838E+03  0.18353208389E+04  0.17997332961E+04 0.  0.
        1    1    3    3  502    0 -0.54015051346E+02 -0.25100877375E+03 -0.69967883015E+03  0.74530094302E+03  0.50400001928E-02 0.  1.
       -1    1    3    3    0  502  0.54015051346E+02  0.25100877375E+03  0.10593490185E+04  0.10900198959E+04  0.50400001928E-02 0. -1.
</event>
<event>
 5   0  0.4983159E-06  0.1806879E+04  0.7818609E-02  0.8702650E-01
       -1   -1    0    0    0  501  0.00000000000E+00  0.00000000000E+00  0.74737238717E+03  0.74737238719E+03  0.50400001928E-02 0.  1.
        1   -1    0    0  501    0  0.00000000000E+00  0.00000000000E+00 -0.10920962758E+04  0.10920962758E+04  0.50400001928E-02 0. -1.
    10030    2    1    2    0    0  0.00000000000E+00  0.00000000000E+00 -0.34472388860E+03  0.18394686630E+04  0.18068786353E+04 0.  0.
        4    1    3    3  502    0  0.25119721641E+03 -0.85923599230E+03 -0.29627191716E+03  0.94295556300E+03  0.12699999809E+01 0.  1.
       -4    1    3    3    0  502 -0.25119721641E+03  0.85923599230E+03 -0.48451971444E+02  0.89651309997E+03  0.12699999809E+01 0. -1.
</event>
<event>
 5   0  0.4987456E-06  0.1805782E+04  0.7818609E-02  0.8703231E-01
        1   -1    0    0  501    0  0.00000000000E+00  0.00000000000E+00  0.55554303567E+03  0.55554303569E+03  0.50400001928E-02 0. -1.
       -1   -1    0    0    0  501  0.00000000000E+00  0.00000000000E+00 -0.14674146092E+04  0.14674146092E+04  0.50400001928E-02 0.  1.
    10030    2    1    2    0    0  0.00000000000E+00  0.00000000000E+00 -0.91187157353E+03  0.20229576449E+04  0.18057817882E+04 0.  0.
        3    1    3    3  502    0 -0.76656740926E+02  0.43106266938E+03  0.42866424518E+03  0.61273511908E+03  0.10100000352E+00 0. -1.
       -3    1    3    3    0  502  0.76656740926E+02 -0.43106266938E+03 -0.13405358187E+04  0.14102225258E+04  0.10100000352E+00 0.  1.
</event>
<event>
 5   0  0.1036381E-05  0.1800368E+04  0.7818609E-02  0.8706104E-01
       -2   -1    0    0    0  501  0.00000000000E+00  0.00000000000E+00  0.40447429570E+03  0.40447429571E+03  0.25500000920E-02 0. -1.
        2   -1    0    0  501    0  0.00000000000E+00  0.00000000000E+00 -0.20034177666E+04  0.20034177666E+04  0.25500000920E-02 0.  1.
    10030    2    1    2    0    0  0.00000000000E+00  0.00000000000E+00 -0.15989434709E+04  0.24078920623E+04  0.18003677293E+04 0.  0.
        4    1    3    3  502    0  0.84138880136E+03  0.15193058928E+03 -0.11761265203E+04  0.14540609422E+04  0.12699999809E+01 0. -1.
       -4    1    3    3    0  502 -0.84138880136E+03 -0.15193058928E+03 -0.42281695056E+03  0.95383112006E+03  0.12699999809E+01 0.  1.
</event>
<event>
 5   0  0.4953155E-06  0.1799692E+04  0.7818609E-02  0.8706463E-01
       -1   -1    0    0    0  501  0.00000000000E+00  0.00000000000E+00  0.59008491609E+03  0.59008491611E+03  0.50400001928E-02 0.  1.
        1   -1    0    0  501    0  0.00000000000E+00  0.00000000000E+00 -0.13722146602E+04  0.13722146603E+04  0.50400001928E-02 0. -1.
    10030    2    1    2    0    0  0.00000000000E+00  0.00000000000E+00 -0.78212974415E+03  0.19622995764E+04  0.17996923878E+04 0.  0.
        2    1    3    3  502    0 -0.81976078202E+03  0.28343683032E+03 -0.12988271560E+03  0.87704828621E+03  0.25500000920E-02 0.  1.
       -2    1    3    3    0  502  0.81976078202E+03 -0.28343683032E+03 -0.65224702855E+03  0.10852512902E+04  0.25500000920E-02 0. -1.
</event>
<event>
 5   0  0.4987456E-06  0.1799884E+04  0.7818609E-02  0.8706361E-01
       -1   -1    0    0    0  501  0.00000000000E+00  0.00000000000E+00  0.22391915481E+04  0.22391915481E+04  0.50400001928E-02 0.  1.
        1   -1    0    0  501    0  0.00000000000E+00  0.00000000000E+00 -0.36169111391E+03  0.36169111394E+03  0.50400001928E-02 0. -1.
    10030    2    1    2    0    0  0.00000000000E+00  0.00000000000E+00  0.18775004342E+04  0.26008826620E+04  0.17998840911E+04 0.  0.
        3    1    3    3  502    0 -0.30221374779E+03 -0.47591547227E+03  0.19524009452E+04  0.20321658759E+04  0.10100000352E+00 0.  1.
       -3    1    3    3    0  502  0.30221374779E+03  0.47591547227E+03 -0.74900511018E+02  0.56871678615E+03  0.10100000352E+00 0. -1.
</event>
<event>
 5   0  0.1000316E-05  0.1800362E+04  0.7818609E-02  0.8706107E-01
       -2   -1    0    0    0  501  0.00000000000E+00  0.00000000000E+00  0.74471843987E+03  0.74471843988E+03  0.25500000920E-02 0. -1.
        2   -1    0    0  501    0  0.00000000000E+00  0.00000000000E+00 -0.10880967588E+04  0.10880967588E+04  0.25500000920E-02 0.  1.
    10030    2    1    2    0    0  0.00000000000E+00  0.00000000000E+00 -0.34337831892E+03  0.18328151987E+04  0.18003618755E+04 0.  0.
        5    1    3    3  502    0 -0.50921853121E+03 -0.38521082849E+03  0.47426637597E+03  0.79538769181E+03  0.46999998093E+01 0. -1.
       -5    1    3    3    0  502  0.50921853121E+03  0.38521082849E+03 -0.81764469489E+03  0.10374275069E+04  0.46999998093E+01 0.  1.
</event>
<event>
 5   0  0.4953155E-06  0.1800071E+04  0.7818609E-02  0.8706262E-01
        1   -1    0    0  501    0  0.00000000000E+00  0.00000000000E+00  0.11289477559E+04  0.11289477559E+04  0.50400001928E-02 0. -1.
       -1   -1    0    0    0  501  0.00000000000E+00  0.00000000000E+00 -0.71753884100E+03  0.71753884102E+03  0.50400001928E-02 0.  1.
    10030    2    1    2    0    0  0.00000000000E+00  0.00000000000E+00  0.41140891489E+03  0.18464865969E+04  0.18000709590E+04 0.  0.
        2    1    3    3  502    0  0.20106769165E+03 -0.29006563156E+03 -0.64359235923E+03  0.73401458575E+03  0.25500000920E-02 0.  1.
       -2    1    3    3    0  502 -0.20106769165E+03  0.29006563156E+03  0.10550012741E+04  0.11124720112E+04  0.25500000920E-02 0. -1.
</event>
<event>
 5   0  0.4981384E-06  0.1800014E+04  0.7818609E-02  0.8706292E-01
        1   -1    0    0  501    0  0.00000000000E+00  0.00000000000E+00  0.11421230992E+04  0.11421230992E+04  0.50400001928E-02 0.  1.
       -1   -1    0    0    0  501  0.00000000000E+00  0.00000000000E+00 -0.70921618838E+03  0.70921618840E+03  0.50400001928E-02 0. -1.
    10030    2    1    2    0    0  0.00000000000E+00  0.00000000000E+00  0.43290691083E+03  0.18513392876E+04  0.18000135456E+04 0.  0.
        5    1    3    3  502    0 -0.41983018546E+03  0.38214859153E+03  0.93471807041E+03  0.10936246576E+04  0.46999998093E+01 0.  1.
       -5    1    3    3    0  502  0.41983018546E+03 -0.38214859153E+03 -0.50181115958E+03  0.75771462999E+03  0.46999998093E+01 0. -1.
</event>
<event>
 5   0  0.4981384E-06  0.1800656E+04  0.7818609E-02  0.8705951E-01
        1   -1    0    0  501    0  0.00000000000E+00  0.00000000000E+00  0.14802512035E+04  0.14802512035E+04  0.50400001928E-02 0.  1.
       -1   -1    0    0    0  501  0.00000000000E+00  0.00000000000E+00 -0.54760313035E+03  0.54760313037E+03  0.50400001928E-02 0. -1.
    10030    2    1    2    0    0  0.00000000000E+00  0.00000000000E+00  0.93264807316E+03  0.20278543339E+04  0.18006556503E+04 0.  0.
        5    1    3    3  502    0  0.15971308538E+03  0.80248028640E+03  0.43317720837E+02  0.81937866377E+03  0.46999998093E+01 0.  1.
       -5    1    3    3    0  502 -0.15971308538E+03 -0.80248028640E+03  0.88933035232E+03  0.12084756701E+04  0.46999998093E+01 0. -1.
</event>
<event>
 5   0  0.9589963E-06  0.1800178E+04  0.7818609E-02  0.8706205E-01
        2   -1    0    0  501    0  0.00000000000E+00  0.00000000000E+00  0.23254026833E+04  0.23254026834E+04  0.25500000920E-02 0. -1.
       -2   -1    0    0    0  501  0.00000000000E+00  0.00000000000E+00 -0.34839548314E+03  0.34839548315E+03  0.25500000920E-02 0.  1.
    10030    2    1    2    0    0  0.00000000000E+00  0.00000000000E+00  0.19770072002E+04  0.26737981665E+04  0.18001775372E+04 0.  0.
        2    1    3    3  502    0  0.84163734413E+03  0.28984351553E+03  0.11866508327E+04  0.14834092090E+04  0.25500000920E-02 0.  1.
       -2    1    3    3    0  502 -0.84163734413E+03 -0.28984351553E+03  0.79035636747E+03  0.11903889575E+04  0.25500000920E-02 0. -1.
</event>
<event>
 5   0  0.9589963E-06  0.1800217E+04  0.7818609E-02  0.8706184E-01
        2   -1    0    0  501    0  0.00000000000E+00  0.00000000000E+00  0.15564273333E+04  0.15564273333E+04  0.25500000920E-02 0. -1.
       -2   -1    0    0    0  501  0.00000000000E+00  0.00000000000E+00 -0.52054819904E+03  0.52054819905E+03  0.25500000920E-02 0.  1.
    10030    2    1    2    0    0  0.00000000000E+00  0.00000000000E+00  0.10358791343E+04  0.20769755323E+04  0.18002171483E+04 0.  0.
        2    1    3    3  502    0  0.27603015251E+03 -0.87622834979E+02 -0.46532863348E+03  0.54808862736E+03  0.25500000920E-02 0.  1.
       -2    1    3    3    0  502 -0.27603015251E+03  0.87622834979E+02  0.15012077677E+04  0.15288869050E+04  0.25500000920E-02 0. -1.
</event>
<event>
 5   0  0.1000316E-05  0.1799871E+04  0.7818609E-02  0.8706368E-01
       -2   -1    0    0    0  501  0.00000000000E+00  0.00000000000E+00  0.91803544122E+03  0.91803544123E+03  0.25500000920E-02 0. -1.
        2   -1    0    0  501    0  0.00000000000E+00  0.00000000000E+00 -0.88219260124E+03  0.88219260124E+03  0.25500000920E-02 0.  1.
    10030    2    1    2    0    0  0.00000000000E+00  0.00000000000E+00  0.35842839982E+02  0.18002280425E+04  0.17998711886E+04 0.  0.
        5    1    3    3  502    0 -0.48885654040E+03  0.51182850650E+03  0.57383090268E+03  0.91118227157E+03  0.46999998093E+01 0. -1.
       -5    1    3    3    0  502  0.48885654040E+03 -0.51182850650E+03 -0.53798806270E+03  0.88904577090E+03  0.46999998093E+01 0.  1.
</event>
<event>
 5   0  0.1036381E-05  0.1799536E+04  0.7818609E-02  0.8706546E-01
        2   -1    0    0  501    0  0.00000000000E+00  0.00000000000E+00  0.88303529013E+03  0.88303529014E+03  0.25500000920E-02 0. -1.
       -2   -1    0    0    0  501  0.00000000000E+00  0.00000000000E+00 -0.91681813444E+03  0.91681813444E+03  0.25500000920E-02 0.  1.
    10030    2    1    2    0    0  0.00000000000E+00  0.00000000000E+00 -0.33782844307E+02  0.17998534246E+04  0.17995363485E+04 0.  0.
        4    1    3    3  502    0 -0.27622598630E+03  0.62265489273E+03  0.57107374368E+03  0.88889073826E+03  0.12699999809E+01 0. -1.
       -4    1    3    3    0  502  0.27622598630E+03 -0.62265489273E+03 -0.60485658799E+03  0.91096268632E+03  0.12699999809E+01 0.  1.
</event>
<event>
 5   0  0.4994123E-06  0.1800526E+04  0.7818609E-02  0.8706020E-01
       -1   -1    0    0    0  501  0.00000000000E+00  0.00000000000E+00  0.83171893944E+03  0.83171893945E+03  0.50400001928E-02 0. -1.
        1   -1    0    0  501    0  0.00000000000E+00  0.00000000000E+00 -0.97445570714E+03  0.97445570715E+03  0.50400001928E-02 0.  1.
    10030    2    1    2    0    0  0.00000000000E+00  0.00000000000E+00 -0.14273676770E+03  0.18061746466E+04  0.18005257758E+04 0.  0.
        1    1    3    3  502    0  0.61310771137E+03  0.18988088124E+03  0.56189455416E+03  0.85304238161E+03  0.50400001928E-02 0. -1.
       -1    1    3    3    0  502 -0.61310771137E+03 -0.18988088124E+03 -0.70463132186E+03  0.95313226499E+03  0.50400001928E-02 0.  1.
</event>
<event>
 5   0  0.1036381E-05  0.1800385E+04  0.7818609E-02  0.8706095E-01
        2   -1    0    0  501    0  0.00000000000E+00  0.00000000000E+00  0.19668585170E+04  0.19668585170E+04  0.25500000920E-02 0.  1.
       -2   -1    0    0    0  501  0.00000000000E+00  0.00000000000E+00 -0.41200050955E+03  0.41200050956E+03  0.25500000920E-02 0. -1.
    10030    2    1    2    0    0  0.00000000000E+00  0.00000000000E+00  0.15548580074E+04  0.23788590265E+04  0.18003851935E+04 0.  0.
        4    1    3    3  502    0 -0.14731860307E+03 -0.25256837685E+03 -0.34750697556E+03  0.45415445254E+03  0.12699999809E+01 0. -1.
       -4    1    3    3    0  502  0.14731860307E+03  0.25256837685E+03  0.19023649830E+04  0.19247045740E+04  0.12699999809E+01 0.  1.
</event>
<event>
 5   0  0.4983159E-06  0.1798497E+04  0.7818609E-02  0.8707099E-01
        1   -1    0    0  501    0  0.00000000000E+00  0.00000000000E+00  0.68660497417E+03  0.68660497418E+03  0.50400001928E-02 0.  1.
       -1   -1    0    0    0  501  0.00000000000E+00  0.00000000000E+00 -0.11777483467E+04  0.11777483467E+04  0.50400001928E-02 0. -1.
    10030    2    1    2    0    0  0.00000000000E+00  0.00000000000E+00 -0.49114337254E+03  0.18643533209E+04  0.17984970094E+04 0.  0.
        4    1    3    3  502    0 -0.15319787263E+03 -0.14485554978E+03 -0.11517635995E+04  0.11709029509E+04  0.12699999809E+01 0. -1.
       -4    1    3    3    0  502  0.15319787263E+03  0.14485554978E+03  0.66062022694E+03  0.69345036998E+03  0.12699999809E+01 0.  1.
</event>
<event>
 5   0  0.9999162E-06  0.1800301E+04  0.7818609E-02  0.8706139E-01
       -2   -1    0    0    0  501  0.00000000000E+00  0.00000000000E+00  0.57647771417E+03  0.57647771418E+03  0.25500000920E-02 0.  1.
        2   -1    0    0  501    0  0.00000000000E+00  0.00000000000E+00 -0.14055549323E+04  0.14055549323E+04  0.25500000920E-02 0. -1.
    10030    2    1    2    0    0  0.00000000000E+00  0.00000000000E+00 -0.82907721810E+03  0.19820326465E+04  0.18003011909E+04 0.  0.
        1    1    3    3  502    0 -0.31700914029E+03 -0.25340871919E+03 -0.12991123624E+04  0.13610303833E+04  0.50400001928E-02 0. -1.
       -1    1    3    3    0  502  0.31700914029E+03  0.25340871919E+03  0.47003514430E+03  0.62100226319E+03  0.50400001928E-02 0.  1.
</event>
<event>
 5   0  0.4987456E-06  0.1800195E+04  0.7818609E-02  0.8706196E-01
        1   -1    0    0  501    0  0.00000000000E+00  0.00000000000E+00  0.16529255961E+04  0.16529255961E+04  0.50400001928E-02 0. -1.
       -1   -1    0    0    0  501  0.00000000000E+00  0.00000000000E+00 -0.49014618860E+03  0.49014618863E+03  0.50400001928E-02 0.  1.
    10030    2    1    2    0    0  0.00000000000E+00  0.00000000000E+00  0.11627794075E+04  0.21430717847E+04  0.18001946350E+04 0.  0.
        3    1    3    3  502    0  0.39279388637E+03 -0.56767395180E+03  0.12690163199E+04  0.14446256204E+04  0.10100000352E+00 0. -1.
       -3    1    3    3    0  502 -0.39279388637E+03  0.56767395180E+03 -0.10623691240E+03  0.69844616434E+03  0.10100000352E+00 0.  1.
</event>
<event>
 5   0  0.1035018E-05  0.1800962E+04  0.7818609E-02  0.8705788E-01
        2   -1    0    0  501    0  0.00000000000E+00  0.00000000000E+00  0.11490297748E+04  0.11490297748E+04  0.25500000920E-02 0. -1.
       -2   -1    0    0    0  501  0.00000000000E+00  0.00000000000E+00 -0.70569663520E+03  0.70569663520E+03  0.25500000920E-02 0.  1.
    10030    2    1    2    0    0  0.00000000000E+00  0.00000000000E+00  0.44333313956E+03  0.18547264100E+04  0.18009624602E+04 0.  0.
        3    1    3    3  502    0 -0.78430269564E+03  0.26916859058E+03 -0.13993352138E+03  0.84093034738E+03  0.10100000352E+00 0.  1.
       -3    1    3    3    0  502  0.78430269564E+03 -0.26916859058E+03  0.58326666094E+03  0.10137960626E+04  0.10100000352E+00 0. -1.
</event>
<event>
 5   0  0.4981384E-06  0.1799896E+04  0.7818609E-02  0.8706355E-01
       -1   -1    0    0    0  501  0.00000000000E+00  0.00000000000E+00  0.14327355738E+04  0.14327355738E+04  0.50400001928E-02 0.  1.
        1   -1    0    0  501    0  0.00000000000E+00  0.00000000000E+00 -0.56528658868E+03  0.56528658870E+03  0.50400001928E-02 0. -1.
    10030    2    1    2    0    0  0.00000000000E+00  0.00000000000E+00  0.86744898512E+03  0.19980221625E+04  0.17998957803E+04 0.  0.
        5    1    3    3  502    0  0.78710730936E+03  0.30327388539E+03  0.78189085851E+03  0.11501688444E+04  0.46999998093E+01 0.  1.
       -5    1    3    3    0  502 -0.78710730936E+03 -0.30327388539E+03  0.85558126615E+02  0.84785331812E+03  0.46999998093E+01 0. -1.
</event>
<event>
 5   0  0.9999162E-06  0.1800004E+04  0.7818609E-02  0.8706297E-01
        2   -1    0    0  501    0  0.00000000000E+00  0.00000000000E+00  0.87981121743E+03  0.87981121744E+03  0.25500000920E-02 0.  1.
       -2   -1    0    0    0  501  0.00000000000E+00  0.00000000000E+00 -0.92065609121E+03  0.92065609122E+03  0.25500000920E-02 0. -1.
    10030    2    1    2    0    0  0.00000000000E+00  0.00000000000E+00 -0.40844873777E+02  0.18004673087E+04  0.18000039516E+04 0.  0.
        1    1    3    3  502    0  0.38704417911E+03 -0.53233574441E+03  0.59359144044E+03  0.88630431543E+03  0.50400001928E-02 0.  1.
       -1    1    3    3    0  502 -0.38704417911E+03  0.53233574441E+03 -0.63443631422E+03  0.91416299323E+03  0.50400001928E-02 0. -1.
</event>
<event>
 5   0  0.1035018E-05  0.1801002E+04  0.7818609E-02  0.8705767E-01
       -2   -1    0    0    0  501  0.00000000000E+00  0.00000000000E+00  0.11639236704E+04  0.11639236704E+04  0.25500000920E-02 0.  1.
        2   -1    0    0  501    0  0.00000000000E+00  0.00000000000E+00 -0.69669728308E+03  0.69669728308E+03  0.25500000920E-02 0. -1.
    10030    2    1    2    0    0  0.00000000000E+00  0.00000000000E+00  0.46722638729E+03  0.18606209534E+04  0.18010024529E+04 0.  0.
        3    1    3    3  502    0 -0.59351283640E+03  0.53473558938E+03  0.66294524008E+03  0.10381213990E+04  0.10100000352E+00 0. -1.
       -3    1    3    3    0  502  0.59351283640E+03 -0.53473558938E+03 -0.19571885279E+03  0.82249955444E+03  0.10100000352E+00 0.  1.
</event>
<event>
 5   0  0.3626125E-06  0.1799340E+04  0.7818609E-02  0.8706650E-01
       -3   -1    0    0    0  501  0.00000000000E+00  0.00000000000E+00  0.14057395646E+04  0.14057395683E+04  0.10100000352E+00 0. -1.
        3   -1    0    0  501    0  0.00000000000E+00  0.00000000000E+00 -0.57578690185E+03  0.57578691071E+03  0.10100000352E+00 0.  1.
    10030    2    1    2    0    0  0.00000000000E+00  0.00000000000E+00  0.82995266278E+03  0.19815264790E+04  0.17993403692E+04 0.  0.
        2    1    3    3  502    0 -0.67689721478E+03 -0.39649754378E+03  0.90003522563E+03  0.11939277821E+04  0.25500000920E-02 0. -1.
       -2    1    3    3    0  502  0.67689721478E+03  0.39649754378E+03 -0.70082562859E+02  0.78759869681E+03  0.25500000920E-02 0.  1.
</event>
<event>
 5   0  0.4983159E-06  0.1800639E+04  0.7818609E-02  0.8705960E-01
        1   -1    0    0  501    0  0.00000000000E+00  0.00000000000E+00  0.10830786449E+04  0.10830786449E+04  0.50400001928E-02 0.  1.
       -1   -1    0    0    0  501  0.00000000000E+00  0.00000000000E+00 -0.74839930574E+03  0.74839930576E+03  0.50400001928E-02 0. -1.
    10030    2    1    2    0    0  0.00000000000E+00  0.00000000000E+00  0.33467933913E+03  0.18314779506E+04  0.18006391153E+04 0.  0.
        4    1    3    3  502    0 -0.47999875165E+03  0.17013053558E+03 -0.58782494403E+03  0.77774223136E+03  0.12699999809E+01 0. -1.
       -4    1    3    3    0  502  0.47999875165E+03 -0.17013053558E+03  0.92250428316E+03  0.10537357193E+04  0.12699999809E+01 0.  1.
</event>
<event>
 5   0  0.4953155E-06  0.1800331E+04  0.7818609E-02  0.8706124E-01
       -1   -1    0    0    0  501  0.00000000000E+00  0.00000000000E+00  0.81644834130E+03  0.81644834131E+03  0.50400001928E-02 0.  1.
        1   -1    0    0  501    0  0.00000000000E+00  0.00000000000E+00 -0.99246640001E+03  0.99246640002E+03  0.50400001928E-02 0. -1.
    10030    2    1    2    0    0  0.00000000000E+00  0.00000000000E+00 -0.17601805871E+03  0.18089147413E+04  0.18003305764E+04 0.  0.
        2    1    3    3  502    0  0.35454897714E+03 -0.10779773916E+03  0.73625131810E+03  0.82425198402E+03  0.25500000920E-02 0.  1.
       -2    1    3    3    0  502 -0.35454897714E+03  0.10779773916E+03 -0.91226937681E+03  0.98466275731E+03  0.25500000920E-02 0. -1.
</event>
<event>
 5   0  0.1036381E-05  0.1800215E+04  0.7818609E-02  0.8706185E-01
       -2   -1    0    0    0  501  0.00000000000E+00  0.00000000000E+00  0.85500330456E+03  0.85500330456E+03  0.25500000920E-02 0.  1.
        2   -1    0    0  501    0  0.00000000000E+00  0.00000000000E+00 -0.94759099435E+03  0.94759099435E+03  0.25500000920E-02 0. -1.
    10030    2    1    2    0    0  0.00000000000E+00  0.00000000000E+00 -0.92587689788E+02  0.18025942989E+04  0.18002149111E+04 0.  0.
        4    1    3    3  502    0 -0.42828258912E+03 -0.15563121379E+03  0.73096969892E+03  0.86137411413E+03  0.12699999809E+01 0.  1.
       -4    1    3    3    0  502  0.42828258912E+03  0.15563121379E+03 -0.82355738871E+03  0.94122018479E+03  0.12699999809E+01 0. -1.
</event>
<event>
 5   0  0.9999162E-06  0.1799713E+04  0.7818609E-02  0.8706452E-01
        2   -1    0    0  501    0  0.00000000000E+00  0.00000000000E+00  0.17303777971E+04  0.17303777971E+04  0.25500000920E-02 0. -1.
       -2   -1    0    0    0  501  0.00000000000E+00  0.00000000000E+00 -0.46795662949E+03  0.46795662950E+03  0.25500000920E-02 0.  1.
    10030    2    1    2    0    0  0.00000000000E+00  0.00000000000E+00  0.12624211676E+04  0.21983344266E+04  0.17997130456E+04 0.  0.
        1    1    3    3  502    0  0.16096073494E+03  0.75105635834E+03  0.12038123917E+04  0.14279909965E+04  0.50400001928E-02 0. -1.
       -1    1    3    3    0  502 -0.16096073494E+03 -0.75105635834E+03  0.58608775843E+02  0.77034343006E+03  0.50400001928E-02 0.  1.
</event>
<event>
 5   0  0.4994123E-06  0.1800034E+04  0.7818609E-02  0.8706281E-01
       -1   -1    0    0    0  501  0.00000000000E+00  0.00000000000E+00  0.65661707332E+03  0.65661707334E+03  0.50400001928E-02 0.  1.
        1   -1    0    0  501    0  0.00000000000E+00  0.00000000000E+00 -0.12336425230E+04  0.12336425230E+04  0.50400001928E-02 0. -1.
    10030    2    1    2    0    0  0.00000000000E+00  0.00000000000E+00 -0.57702544969E+03  0.18902595964E+04  0.18000341586E+04 0.  0.
        1    1    3    3  502    0 -0.71728394731E+01  0.43975403945E+03  0.53608274222E+03  0.69341168967E+03  0.50400001928E-02 0.  1.
       -1    1    3    3    0  502  0.71728394731E+01 -0.43975403945E+03 -0.11131081919E+04  0.11968479067E+04  0.50400001928E-02 0. -1.
</event>
<event>
 5   0  0.1000316E-05  0.1800929E+04  0.7818609E-02  0.8705806E-01
        2   -1    0    0  501    0  0.00000000000E+00  0.00000000000E+00  0.10653142972E+04  0.10653142972E+04  0.25500000920E-02 0.  1.
       -2   -1    0    0    0  501  0.00000000000E+00  0.00000000000E+00 -0.76112412169E+03  0.76112412169E+03  0.25500000920E-02 0. -1.
    10030    2    1    2    0    0  0.00000000000E+00  0.00000000000E+00  0.30419017550E+03  0.18264384189E+04  0.18009291033E+04 0.  0.
        5    1    3    3  502    0 -0.64770992662E+03  0.48404628442E+03 -0.24973088067E+03  0.84629578592E+03  0.46999998093E+01 0. -1.
       -5    1    3    3    0  502  0.64770992662E+03 -0.48404628442E+03  0.55392105617E+03  0.98014263297E+03  0.46999998093E+01 0.  1.
</event>
<event>
 5   0  0.4983159E-06  0.1799967E+04  0.7818609E-02  0.8706317E-01
        1   -1    0    0  501    0  0.00000000000E+00  0.00000000000E+00  0.16722061981E+04  0.16722061981E+04  0.50400001928E-02 0.  1.
       -1   -1    0    0    0  501  0.00000000000E+00  0.00000000000E+00 -0.48437248667E+03  0.48437248670E+03  0.50400001928E-02 0. -1.
    10030    2    1    2    0    0  0.00000000000E+00  0.00000000000E+00  0.11878337114E+04  0.21565786848E+04  0.17999674157E+04 0.  0.
        4    1    3    3  502    0  0.14205598270E+03 -0.76852535206E+03  0.11286036778E+04  0.13727924073E+04  0.12699999809E+01 0.  1.
       -4    1    3    3    0  502 -0.14205598270E+03  0.76852535206E+03  0.59230033560E+02  0.78378627748E+03  0.12699999809E+01 0. -1.
</event>
<event>
 5   0  0.4987456E-06  0.1800127E+04  0.7818609E-02  0.8706232E-01
        1   -1    0    0  501    0  0.00000000000E+00  0.00000000000E+00  0.23507076415E+04  0.23507076415E+04  0.50400001928E-02 0. -1.
       -1   -1    0    0    0  501  0.00000000000E+00  0.00000000000E+00 -0.34462583848E+03  0.34462583851E+03  0.50400001928E-02 0.  1.
    10030    2    1    2    0    0  0.00000000000E+00  0.00000000000E+00  0.20060818030E+04  0.26953334800E+04  0.18001273199E+04 0.  0.
        3    1    3    3  502    0  0.13461739272E+03  0.88667756542E+03  0.88905273396E+03  0.12628276689E+04  0.10100000352E+00 0. -1.
       -3    1    3    3    0  502 -0.13461739272E+03 -0.88667756542E+03  0.11170290690E+04  0.14325058111E+04  0.10100000352E+00 0.  1.
</event>
<event>
 5   0  0.4953155E-06  0.1803193E+04  0.7818609E-02  0.8704603E-01
       -1   -1    0    0    0  501  0.00000000000E+00  0.00000000000E+00  0.13536125127E+04  0.13536125127E+04  0.50400001928E-02 0.  1.
        1   -1    0    0  501    0  0.00000000000E+00  0.00000000000E+00 -0.60052337849E+03  0.60052337851E+03  0.50400001928E-02 0. -1.
    10030    2    1    2    0    0  0.00000000000E+00  0.00000000000E+00  0.75308913418E+03  0.19541358912E+04  0.18031926789E+04 0.  0.
        2    1    3    3  502    0 -0.45788705431E+03 -0.37739844218E+03  0.11121792203E+04  0.12605684261E+04  0.25500000920E-02 0.  1.
       -2    1    3    3    0  502  0.45788705431E+03  0.37739844218E+03 -0.35909008617E+03  0.69356746511E+03  0.25500000920E-02 0. -1.
</event>
<event>
 5   0  0.1036381E-05  0.1799666E+04  0.7818609E-02  0.8706477E-01
       -2   -1    0    0    0  501  0.00000000000E+00  0.00000000000E+00  0.67046940936E+03  0.67046940936E+03  0.25500000920E-02 0. -1.
        2   -1    0    0  501    0  0.00000000000E+00  0.00000000000E+00 -0.12076599635E+04  0.12076599635E+04  0.25500000920E-02 0.  1.
    10030    2    1    2    0    0  0.00000000000E+00  0.00000000000E+00 -0.53719055414E+03  0.18781293729E+04  0.17996655939E+04 0.  0.
        4    1    3    3  502    0 -0.39781592107E+03  0.31908514550E+03 -0.10422849093E+04  0.11603586869E+04  0.12699999809E+01 0.  1.
       -4    1    3    3    0  502  0.39781592107E+03 -0.31908514550E+03  0.50509435517E+03  0.71777068599E+03  0.12699999809E+01 0. -1.
</event>
<event>
 5   0  0.4994123E-06  0.1800082E+04  0.7818609E-02  0.8706256E-01
        1   -1    0    0  501    0  0.00000000000E+00  0.00000000000E+00  0.10377487539E+04  0.10377487539E+04  0.50400001928E-02 0.  1.
       -1   -1    0    0    0  501  0.00000000000E+00  0.00000000000E+00 -0.78060706055E+03  0.78060706057E+03  0.50400001928E-02 0. -1.
    10030    2    1    2    0    0  0.00000000000E+00  0.00000000000E+00  0.25714169338E+03  0.18183558145E+04  0.18000822253E+04 0.  0.
        1    1    3    3  502    0 -0.35045196597E+03 -0.22322145503E+03 -0.67792594021E+03  0.79512764941E+03  0.50400001928E-02 0. -1.
       -1    1    3    3    0  502  0.35045196597E+03  0.22322145503E+03  0.93506763359E+03  0.10232281651E+04  0.50400001928E-02 0.  1.
</event>
<event>
 5   0  0.4987456E-06  0.1799874E+04  0.7818609E-02  0.8706366E-01
       -1   -1    0    0    0  501  0.00000000000E+00  0.00000000000E+00  0.11390691175E+04  0.11390691175E+04  0.50400001928E-02 0. -1.
        1   -1    0    0  501    0  0.00000000000E+00  0.00000000000E+00 -0.71100765065E+03  0.71100765067E+03  0.50400001928E-02 0.  1.
    10030    2    1    2    0    0  0.00000000000E+00  0.00000000000E+00  0.42806146681E+03  0.18500767681E+04  0.17998742813E+04 0.  0.
        3    1    3    3  502    0  0.52128129014E+03 -0.32031914566E+03 -0.46433787710E+03  0.76808086347E+03  0.10100000352E+00 0.  1.
       -3    1    3    3    0  502 -0.52128129014E+03  0.32031914566E+03  0.89239934391E+03  0.10819959047E+04  0.10100000352E+00 0. -1.
</event>
<event>
 5   0  0.9589963E-06  0.1801842E+04  0.7818609E-02  0.8705320E-01
        2   -1    0    0  501    0  0.00000000000E+00  0.00000000000E+00  0.14728276550E+04  0.14728276550E+04  0.25500000920E-02 0.  1.
       -2   -1    0    0    0  501  0.00000000000E+00  0.00000000000E+00 -0.55108889578E+03  0.55108889579E+03  0.25500000920E-02 0. -1.
    10030    2    1    2    0    0  0.00000000000E+00  0.00000000000E+00  0.92173875923E+03  0.20239165508E+04  0.18018423528E+04 0.  0.
        2    1    3    3  502    0 -0.86621753677E+01  0.52427134939E+03 -0.36203829069E+03  0.63718694667E+03  0.25500000920E-02 0. -1.
       -2    1    3    3    0  502  0.86621753677E+01 -0.52427134939E+03  0.12837770499E+04  0.13867296041E+04  0.25500000920E-02 0.  1.
</event>
<event>
 5   0  0.1036381E-05  0.1801957E+04  0.7818609E-02  0.8705259E-01
       -2   -1    0    0    0  501  0.00000000000E+00  0.00000000000E+00  0.15244340622E+04  0.15244340622E+04  0.25500000920E-02 0. -1.
        2   -1    0    0  501    0  0.00000000000E+00  0.00000000000E+00 -0.53250096991E+03  0.53250096992E+03  0.25500000920E-02 0.  1.
    10030    2    1    2    0    0  0.00000000000E+00  0.00000000000E+00  0.99193309230E+03  0.20569350321E+04  0.18019573987E+04 0.  0.
        4    1    3    3  502    0 -0.53281292872E+03 -0.64818073229E+03  0.12129502426E+03  0.84778651472E+03  0.12699999809E+01 0.  1.
       -4    1    3    3    0  502  0.53281292872E+03  0.64818073229E+03  0.87063806805E+03  0.12091485174E+04  0.12699999809E+01 0. -1.
</event>
<event>
 5   0  0.4981384E-06  0.1800342E+04  0.7818609E-02  0.8706118E-01
       -1   -1    0    0    0  501  0.00000000000E+00  0.00000000000E+00  0.50782688935E+03  0.50782688938E+03  0.50400001928E-02 0. -1.
        1   -1    0    0  501    0  0.00000000000E+00  0.00000000000E+00 -0.15956379189E+04  0.15956379189E+04  0.50400001928E-02 0.  1.
    10030    2    1    2    0    0  0.00000000000E+00  0.00000000000E+00 -0.10878110296E+04  0.21034648083E+04  0.18003420130E+04 0.  0.
        5    1    3    3  502    0  0.32262869293E+03 -0.22241791733E+03  0.40292574232E+03  0.56207672721E+03  0.46999998093E+01 0. -1.
       -5    1    3    3    0  502 -0.32262869293E+03  0.22241791733E+03 -0.14907367719E+04  0.15413880811E+04  0.46999998093E+01 0.  1.
</event>
<event>
 5   0  0.1036381E-05  0.1801203E+04  0.7818609E-02  0.8705660E-01
       -2   -1    0    0    0  501  0.00000000000E+00  0.00000000000E+00  0.73757657164E+03  0.73757657165E+03  0.25500000920E-02 0. -1.
        2   -1    0    0  501    0  0.00000000000E+00  0.00000000000E+00 -0.10996595978E+04  0.10996595979E+04  0.25500000920E-02 0.  1.
    10030    2    1    2    0    0  0.00000000000E+00  0.00000000000E+00 -0.36208302621E+03  0.18372361695E+04  0.18012031048E+04 0.  0.
        4    1    3    3  502    0  0.25253627403E+03 -0.21522319251E+02  0.70044805934E+03  0.74489386940E+03  0.12699999809E+01 0. -1.
       -4    1    3    3    0  502 -0.25253627403E+03  0.21522319251E+02 -0.10625310856E+04  0.10923423001E+04  0.12699999809E+01 0.  1.
</event>
<event>
 5   0  0.4953155E-06  0.1802401E+04  0.7818609E-02  0.8705024E-01
        1   -1    0    0  501    0  0.00000000000E+00  0.00000000000E+00  0.19420271029E+04  0.19420271029E+04  0.50400001928E-02 0. -1.
       -1   -1    0    0    0  501  0.00000000000E+00  0.00000000000E+00 -0.41820321754E+03  0.41820321757E+03  0.50400001928E-02 0.  1.
    10030    2    1    2    0    0  0.00000000000E+00  0.00000000000E+00  0.15238238854E+04  0.23602303205E+04  0.18024006026E+04 0.  0.
        2    1    3    3  502    0  0.57154745791E+02  0.63741785875E+03 -0.68964790775E+02  0.64368030418E+03  0.25500000920E-02 0.  1.
       -2    1    3    3    0  502 -0.57154745791E+02 -0.63741785875E+03  0.15927886762E+04  0.17165500163E+04  0.25500000920E-02 0. -1.
</event>
<event>
 5   0  0.1000316E-05  0.1800093E+04  0.7818609E-02  0.8706250E-01
        2   -1    0    0  501    0  0.00000000000E+00  0.00000000000E+00  0.14232042641E+04  0.14232042641E+04  0.25500000920E-02 0.  1.
       -2   -1    0    0    0  501  0.00000000000E+00  0.00000000000E+00 -0.56919703416E+03  0.56919703417E+03  0.25500000920E-02 0. -1.
    10030    2    1    2    0    0  0.00000000000E+00  0.00000000000E+00  0.85400722989E+03  0.19924012982E+04  0.18000929377E+04 0.  0.
        5    1    3    3  502    0 -0.64557178887E+03 -0.56325849651E+03  0.73221351960E+03  0.11270234233E+04  0.46999998093E+01 0.  1.
       -5    1    3    3    0  502  0.64557178887E+03  0.56325849651E+03  0.12179371029E+03  0.86537787488E+03  0.46999998093E+01 0. -1.
</event>
<event>
 5   0  0.4983159E-06  0.1797832E+04  0.7818609E-02  0.8707453E-01
        1   -1    0    0  501    0  0.00000000000E+00  0.00000000000E+00  0.83708375575E+03  0.83708375577E+03  0.50400001928E-02 0.  1.
       -1   -1    0    0    0  501  0.00000000000E+00  0.00000000000E+00 -0.96531513610E+03  0.96531513611E+03  0.50400001928E-02 0. -1.
    10030    2    1    2    0    0  0.00000000000E+00  0.00000000000E+00 -0.12823138035E+03  0.18023988919E+04  0.17978316046E+04 0.  0.
        4    1    3    3  502    0  0.29848173769E+02  0.23763631915E+03 -0.93273820142E+03  0.96299745532E+03  0.12699999809E+01 0. -1.
       -4    1    3    3    0  502 -0.29848173769E+02 -0.23763631915E+03  0.80450682107E+03  0.83940143657E+03  0.12699999809E+01 0.  1.
</event>
<event>
 5   0  0.1035018E-05  0.1798205E+04  0.7818609E-02  0.8707255E-01
       -2   -1    0    0    0  501  0.00000000000E+00  0.00000000000E+00  0.71115712426E+03  0.71115712427E+03  0.25500000920E-02 0.  1.
        2   -1    0    0  501    0  0.00000000000E+00  0.00000000000E+00 -0.11367177779E+04  0.11367177779E+04  0.25500000920E-02 0. -1.
    10030    2    1    2    0    0  0.00000000000E+00  0.00000000000E+00 -0.42556065368E+03  0.18478749022E+04  0.17982046002E+04 0.  0.
        3    1    3    3  502    0 -0.41209728509E+03 -0.79105819569E+03 -0.96574049442E+02  0.89717545585E+03  0.10100000352E+00 0.  1.
       -3    1    3    3    0  502  0.41209728509E+03  0.79105819569E+03 -0.32898660423E+03  0.95069944636E+03  0.10100000352E+00 0. -1.
</event>
<event>
 5   0  0.3626125E-06  0.1799940E+04  0.7818609E-02  0.8706331E-01
        4   -1    0    0  501    0  0.00000000000E+00  0.00000000000E+00  0.63941842416E+03  0.63941968538E+03  0.12699999809E+01 0.  1.
       -4   -1    0    0    0  501  0.00000000000E+00  0.00000000000E+00 -0.12666890782E+04  0.12666897149E+04  0.12699999809E+01 0. -1.
    10030    2    1    2    0    0  0.00000000000E+00  0.00000000000E+00 -0.62727065405E+03  0.19061094002E+04  0.17999401580E+04 0.  0.
        5    1    3    3  502    0  0.73942249145E+03  0.19325144224E+03  0.18961353010E+03  0.78744340850E+03  0.46999998093E+01 0.  1.
       -5    1    3    3    0  502 -0.73942249145E+03 -0.19325144224E+03 -0.81688418415E+03  0.11186659918E+04  0.46999998093E+01 0. -1.
</event>
<event>
 5   0  0.9589963E-06  0.1799382E+04  0.7818609E-02  0.8706628E-01
        2   -1    0    0  501    0  0.00000000000E+00  0.00000000000E+00  0.10398099407E+04  0.10398099407E+04  0.25500000920E-02 0. -1.
       -2   -1    0    0    0  501  0.00000000000E+00  0.00000000000E+00 -0.77845373108E+03  0.77845373109E+03  0.25500000920E-02 0.  1.
    10030    2    1    2    0    0  0.00000000000E+00  0.00000000000E+00  0.26135620957E+03  0.18182636717E+04  0.17993820361E+04 0.  0.
        2    1    3    3  502    0  0.62778676472E+03  0.89777949068E+02 -0.51419375455E+03  0.81643831324E+03  0.25500000920E-02 0.  1.
       -2    1    3    3    0  502 -0.62778676472E+03 -0.89777949068E+02  0.77554996412E+03  0.10018253585E+04  0.25500000920E-02 0. -1.
</event>
<event>
 5   0  0.3626125E-06  0.1800222E+04  0.7818609E-02  0.8706181E-01
       -3   -1    0    0    0  501  0.00000000000E+00  0.00000000000E+00  0.11999403666E+04  0.11999403708E+04  0.10100000352E+00 0.  1.
        3   -1    0    0  501    0  0.00000000000E+00  0.00000000000E+00 -0.67520028696E+03  0.67520029451E+03  0.10100000352E+00 0. -1.
    10030    2    1    2    0    0  0.00000000000E+00  0.00000000000E+00  0.52474007961E+03  0.18751406653E+04  0.18002223095E+04 0.  0.
        1    1    3    3  502    0  0.42148821501E+03  0.73226861130E+03  0.58565799308E+03  0.10280393569E+04  0.50400001928E-02 0. -1.
       -1    1    3    3    0  502 -0.42148821501E+03 -0.73226861130E+03 -0.60917913469E+02  0.84710130841E+03  0.50400001928E-02 0.  1.
</event>
<event>
 5   0  0.1036381E-05  0.1799589E+04  0.7818609E-02  0.8706518E-01
       -2   -1    0    0    0  501  0.00000000000E+00  0.00000000000E+00  0.63628021014E+03  0.63628021015E+03  0.25500000920E-02 0. -1.
        2   -1    0    0  501    0  0.00000000000E+00  0.00000000000E+00 -0.12724428639E+04  0.12724428639E+04  0.25500000920E-02 0.  1.
    10030    2    1    2    0    0  0.00000000000E+00  0.00000000000E+00 -0.63616265374E+03  0.19087230740E+04  0.17995890785E+04 0.  0.
        4    1    3    3  502    0 -0.56608972642E+03 -0.62077901835E+03 -0.65980693329E+03  0.10682560415E+04  0.12699999809E+01 0.  1.
       -4    1    3    3    0  502  0.56608972642E+03  0.62077901835E+03  0.23644279556E+02  0.84046703257E+03  0.12699999809E+01 0. -1.
</event>
<event>
 5   0  0.1000316E-05  0.1798894E+04  0.7818609E-02  0.8706888E-01
       -2   -1    0    0    0  501  0.00000000000E+00  0.00000000000E+00  0.85639007754E+03  0.85639007754E+03  0.25500000920E-02 0. -1.
        2   -1    0    0  501    0  0.00000000000E+00  0.00000000000E+00 -0.94466822556E+03  0.94466822557E+03  0.25500000920E-02 0.  1.
    10030    2    1    2    0    0  0.00000000000E+00  0.00000000000E+00 -0.88278148027E+02  0.18010583031E+04  0.17988935432E+04 0.  0.
        5    1    3    3  502    0 -0.37232286925E+01  0.89895559230E+03 -0.14994155377E+02  0.89910062509E+03  0.46999998093E+01 0. -1.
       -5    1    3    3    0  502  0.37232286925E+01 -0.89895559230E+03 -0.73283992650E+02  0.90195767801E+03  0.46999998093E+01 0.  1.
</event>
<event>
 5   0  0.4983159E-06  0.1799588E+04  0.7818609E-02  0.8706519E-01
        1   -1    0    0  501    0  0.00000000000E+00  0.00000000000E+00  0.88375002247E+03  0.88375002248E+03  0.50400001928E-02 0.  1.
       -1   -1    0    0    0  501  0.00000000000E+00  0.00000000000E+00 -0.91612876738E+03  0.91612876739E+03  0.50400001928E-02 0. -1.
    10030    2    1    2    0    0  0.00000000000E+00  0.00000000000E+00 -0.32378744913E+02  0.17998787899E+04  0.17995875292E+04 0.  0.
        4    1    3    3  502    0 -0.20179858131E+03  0.67626404055E+03  0.54208685746E+03  0.88989633885E+03  0.12699999809E+01 0.  1.
       -4    1    3    3    0  502  0.20179858131E+03 -0.67626404055E+03 -0.57446560237E+03  0.90998245102E+03  0.12699999809E+01 0. -1.
</event>
<event>
 5   0  0.4953155E-06  0.1800231E+04  0.7818609E-02  0.8706177E-01
       -1   -1    0    0    0  501  0.00000000000E+00  0.00000000000E+00  0.67400497187E+03  0.67400497189E+03  0.50400001928E-02 0. -1.
        1   -1    0    0  501    0  0.00000000000E+00  0.00000000000E+00 -0.12020799399E+04  0.12020799399E+04  0.50400001928E-02 0.  1.
    10030    2    1    2    0    0  0.00000000000E+00  0.00000000000E+00 -0.52807496807E+03  0.18760849118E+04  0.18002309364E+04 0.  0.
        2    1    3    3  502    0  0.42687204678E+03 -0.77720537114E+03 -0.42528225638E+03  0.98342916921E+03  0.25500000920E-02 0.  1.
       -2    1    3    3    0  502 -0.42687204678E+03  0.77720537114E+03 -0.10279271169E+03  0.89265574263E+03  0.25500000920E-02 0. -1.
</event>
<event>
 5   0  0.1000316E-05  0.1799614E+04  0.7818609E-02  0.8706505E-01
        2   -1    0    0  501    0  0.00000000000E+00  0.00000000000E+00  0.17401555438E+04  0.17401555438E+04  0.25500000920E-02 0.  1.
       -2   -1    0    0    0  501  0.00000000000E+00  0.00000000000E+00 -0.46527619826E+03  0.46527619827E+03  0.25500000920E-02 0. -1.
    10030    2    1    2    0    0  0.00000000000E+00  0.00000000000E+00  0.12748793455E+04  0.22054317421E+04  0.17996143540E+04 0.  0.
        5    1    3    3  502    0  0.33238473722E+03  0.53538444316E+03  0.14245469243E+04  0.15577137558E+04  0.46999998093E+01 0.  1.
       -5    1    3    3    0  502 -0.33238473722E+03 -0.53538444316E+03 -0.14966757880E+03  0.64771798621E+03  0.46999998093E+01 0. -1.
</event>
<event>
 5   0  0.4987456E-06  0.1800104E+04  0.7818609E-02  0.8706244E-01
        1   -1    0    0  501    0  0.00000000000E+00  0.00000000000E+00  0.16183462683E+04  0.16183462683E+04  0.50400001928E-02 0. -1.
       -1   -1    0    0    0  501  0.00000000000E+00  0.00000000000E+00 -0.50056869016E+03  0.50056869018E+03  0.50400001928E-02 0.  1.
    10030    2    1    2    0    0  0.00000000000E+00  0.00000000000E+00  0.11177775781E+04  0.21189149585E+04  0.18001038545E+04 0.  0.
        3    1    3    3  502    0  0.16955536170E+03  0.88298747984E+03  0.51067693029E+03  0.10340245875E+04  0.10100000352E+00 0.  1.
       -3    1    3    3    0  502 -0.16955536170E+03 -0.88298747984E+03  0.60710064785E+03  0.10848903710E+04  0.10100000352E+00 0. -1.
</event>
<event>
 5   0  0.9999162E-06  0.1797006E+04  0.7818609E-02  0.8707893E-01
       -2   -1    0    0    0  501  0.00000000000E+00  0.00000000000E+00  0.99808295829E+03  0.99808295830E+03  0.25500000920E-02 0. -1.
        2   -1    0    0  501    0  0.00000000000E+00  0.00000000000E+00 -0.80885826185E+03  0.80885826185E+03  0.25500000920E-02 0.  1.
    10030    2    1    2    0    0  0.00000000000E+00  0.00000000000E+00  0.18922469644E+03  0.18069412202E+04  0.17970060065E+04 0.  0.
        1    1    3    3  502    0 -0.15602825544E+03  0.82477975109E+03 -0.22762972250E+03  0.86972509731E+03  0.50400001928E-02 0. -1.
       -1    1    3    3    0  502  0.15602825544E+03 -0.82477975109E+03  0.41685441894E+03  0.93721612284E+03  0.50400001928E-02 0.  1.
</event>
<event>
 5   0  0.4994123E-06  0.1799546E+04  0.7818609E-02  0.8706541E-01
        1   -1    0    0  501    0  0.00000000000E+00  0.00000000000E+00  0.10640815095E+04  0.10640815095E+04  0.50400001928E-02 0.  1.
       -1   -1    0    0    0  501  0.00000000000E+00  0.00000000000E+00 -0.76083577784E+03  0.76083577785E+03  0.50400001928E-02 0. -1.
    10030    2    1    2    0    0  0.00000000000E+00  0.00000000000E+00  0.30324573165E+03  0.18249172873E+04  0.17995458127E+04 0.  0.
        1    1    3    3  502    0 -0.15092489595E+03  0.66553908052E+03 -0.44304963844E+03  0.81364216586E+03  0.50400001928E-02 0. -1.
       -1    1    3    3    0  502  0.15092489595E+03 -0.66553908052E+03  0.74629537009E+03  0.10112751215E+04  0.50400001928E-02 0.  1.
</event>
<event>
 5   0  0.9999162E-06  0.1795467E+04  0.7818609E-02  0.8708714E-01
       -2   -1    0    0    0  501  0.00000000000E+00  0.00000000000E+00  0.50720089811E+03  0.50720089811E+03  0.25500000920E-02 0.  1.
        2   -1    0    0  501    0  0.00000000000E+00  0.00000000000E+00 -0.15889667145E+04  0.15889667145E+04  0.25500000920E-02 0. -1.
    10030    2    1    2    0    0  0.00000000000E+00  0.00000000000E+00 -0.10817658164E+04  0.20961676126E+04  0.17954668971E+04 0.  0.
        1    1    3    3  502    0  0.66952292271E+03  0.74198643961E+02 -0.12336990162E+04  0.14056242903E+04  0.50400001928E-02 0. -1.
       -1    1    3    3    0  502 -0.66952292271E+03 -0.74198643961E+02  0.15193319981E+03  0.69054332234E+03  0.50400001928E-02 0.  1.
</event>
<event>
 5   0  0.9999162E-06  0.1798243E+04  0.7818609E-02  0.8707234E-01
        2   -1    0    0  501    0  0.00000000000E+00  0.00000000000E+00  0.13145412499E+04  0.13145412499E+04  0.25500000920E-02 0.  1.
       -2   -1    0    0    0  501  0.00000000000E+00  0.00000000000E+00 -0.61498226410E+03  0.61498226411E+03  0.25500000920E-02 0. -1.
    10030    2    1    2    0    0  0.00000000000E+00  0.00000000000E+00  0.69955898579E+03  0.19295235140E+04  0.17982430916E+04 0.  0.
        1    1    3    3  502    0  0.56082428873E+03 -0.12789035792E+03  0.10912714226E+04  0.12335935896E+04  0.50400001928E-02 0.  1.
       -1    1    3    3    0  502 -0.56082428873E+03  0.12789035792E+03 -0.39171243682E+03  0.69592992439E+03  0.50400001928E-02 0. -1.
</event>
<event>
 5   0  0.1000316E-05  0.1800069E+04  0.7818609E-02  0.8706263E-01
       -2   -1    0    0    0  501  0.00000000000E+00  0.00000000000E+00  0.72980490991E+03  0.72980490992E+03  0.25500000920E-02 0. -1.
        2   -1    0    0  501    0  0.00000000000E+00  0.00000000000E+00 -0.11099705041E+04  0.11099705042E+04  0.25500000920E-02 0.  1.
    10030    2    1    2    0    0  0.00000000000E+00  0.00000000000E+00 -0.38016559424E+03  0.18397754141E+04  0.18000688029E+04 0.  0.
        5    1    3    3  502    0  0.11052585649E+03  0.32415470518E+02 -0.11023940654E+04  0.11084049319E+04  0.46999998093E+01 0.  1.
       -5    1    3    3    0  502 -0.11052585649E+03 -0.32415470518E+02  0.72222847114E+03  0.73137048218E+03  0.46999998093E+01 0. -1.
</event>
<event>
 5   0  0.1035018E-05  0.1800003E+04  0.7818609E-02  0.8706298E-01
       -2   -1    0    0    0  501  0.00000000000E+00  0.00000000000E+00  0.62627925777E+03  0.62627925777E+03  0.25500000920E-02 0.  1.
        2   -1    0    0  501    0  0.00000000000E+00  0.00000000000E+00 -0.12933568083E+04  0.12933568083E+04  0.25500000920E-02 0. -1.
    10030    2    1    2    0    0  0.00000000000E+00  0.00000000000E+00 -0.66707755055E+03  0.19196360661E+04  0.18000028244E+04 0.  0.
        3    1    3    3  502    0  0.45922757595E+03  0.20016091992E+03 -0.11309279399E+04  0.12369124366E+04  0.10100000352E+00 0. -1.
       -3    1    3    3    0  502 -0.45922757595E+03 -0.20016091992E+03  0.46385038934E+03  0.68272362949E+03  0.10100000352E+00 0.  1.
</event>
<event>
 5   0  0.4953155E-06  0.1800399E+04  0.7818609E-02  0.8706087E-01
        1   -1    0    0  501    0  0.00000000000E+00  0.00000000000E+00  0.18513318564E+04  0.18513318564E+04  0.50400001928E-02 0.  1.
       -1   -1    0    0    0  501  0.00000000000E+00  0.00000000000E+00 -0.43771701744E+03  0.43771701746E+03  0.50400001928E-02 0. -1.
    10030    2    1    2    0    0  0.00000000000E+00  0.00000000000E+00  0.14136148390E+04  0.22890488739E+04  0.18003993541E+04 0.  0.
        2    1    3    3  502    0  0.75627786906E+03 -0.28663008691E+03  0.12093713061E+04  0.14548855550E+04  0.25500000920E-02 0.  1.
       -2    1    3    3    0  502 -0.75627786906E+03  0.28663008691E+03  0.20424353288E+03  0.83416331895E+03  0.25500000920E-02 0. -1.
</event>
<event>
 5   0  0.4987456E-06  0.1801432E+04  0.7818609E-02  0.8705538E-01
       -1   -1    0    0    0  501  0.00000000000E+00  0.00000000000E+00  0.10053673241E+04  0.10053673241E+04  0.50400001928E-02 0.  1.
        1   -1    0    0  501    0  0.00000000000E+00  0.00000000000E+00 -0.80695790884E+03  0.80695790885E+03  0.50400001928E-02 0. -1.
    10030    2    1    2    0    0  0.00000000000E+00  0.00000000000E+00  0.19840941529E+03  0.18123252330E+04  0.18014317789E+04 0.  0.
        3    1    3    3  502    0 -0.46345139547E+03 -0.74078468436E+03  0.31902072610E+03  0.93022759496E+03  0.10100000352E+00 0. -1.
       -3    1    3    3    0  502  0.46345139547E+03  0.74078468436E+03 -0.12061131081E+03  0.88209763804E+03  0.10100000352E+00 0.  1.
</event>
<event>
 5   0  0.3626125E-06  0.1797872E+04  0.7818609E-02  0.8707432E-01
        3   -1    0    0  501    0  0.00000000000E+00  0.00000000000E+00  0.10728910708E+04  0.10728910755E+04  0.10100000352E+00 0.  1.
       -3   -1    0    0    0  501  0.00000000000E+00  0.00000000000E+00 -0.75318515496E+03  0.75318516173E+03  0.10100000352E+00 0. -1.
    10030    2    1    2    0    0  0.00000000000E+00  0.00000000000E+00  0.31970591583E+03  0.18260762373E+04  0.17978716728E+04 0.  0.
        5    1    3    3  502    0 -0.43427491378E+03  0.43792890617E+03 -0.50438440574E+03  0.79674471843E+03  0.46999998093E+01 0. -1.
       -5    1    3    3    0  502  0.43427491378E+03 -0.43792890617E+03  0.82409032157E+03  0.10293315188E+04  0.46999998093E+01 0.  1.
</event>
<event>
 5   0  0.4953155E-06  0.1803384E+04  0.7818609E-02  0.8704502E-01
        1   -1    0    0  501    0  0.00000000000E+00  0.00000000000E+00  0.46088864680E+03  0.46088864683E+03  0.50400001928E-02 0. -1.
       -1   -1    0    0    0  501  0.00000000000E+00  0.00000000000E+00 -0.17640883513E+04  0.17640883513E+04  0.50400001928E-02 0.  1.
    10030    2    1    2    0    0  0.00000000000E+00  0.00000000000E+00 -0.13031997045E+04  0.22249769981E+04  0.18033838117E+04 0.  0.
        2    1    3    3  502    0  0.76554922735E+03  0.25844895162E+02 -0.64659788220E+02  0.76870961118E+03  0.25500000920E-02 0. -1.
       -2    1    3    3    0  502 -0.76554922735E+03 -0.25844895162E+02 -0.12385399163E+04  0.14562673870E+04  0.25500000920E-02 0.  1.
</event>
<event>
 5   0  0.4994123E-06  0.1795261E+04  0.7818609E-02  0.8708824E-01
        1   -1    0    0  501    0  0.00000000000E+00  0.00000000000E+00  0.69367398030E+03  0.69367398031E+03  0.50400001928E-02 0. -1.
       -1   -1    0    0    0  501  0.00000000000E+00  0.00000000000E+00 -0.11615549794E+04  0.11615549794E+04  0.50400001928E-02 0.  1.
    10030    2    1    2    0    0  0.00000000000E+00  0.00000000000E+00 -0.46788099908E+03  0.18552289597E+04  0.17952609458E+04 0.  0.
        1    1    3    3  502    0 -0.41540301379E+03 -0.49774364973E+03  0.40762920842E+03  0.76581327770E+03  0.50400001928E-02 0. -1.
       -1    1    3    3    0  502  0.41540301379E+03  0.49774364973E+03 -0.87551020751E+03  0.10894156820E+04  0.50400001928E-02 0.  1.
</event>
<event>
 5   0  0.9999162E-06  0.1800093E+04  0.7818609E-02  0.8706250E-01
        2   -1    0    0  501    0  0.00000000000E+00  0.00000000000E+00  0.20640364576E+04  0.20640364577E+04  0.25500000920E-02 0.  1.
       -2   -1    0    0    0  501  0.00000000000E+00  0.00000000000E+00 -0.39247530804E+03  0.39247530805E+03  0.25500000920E-02 0. -1.
    10030    2    1    2    0    0  0.00000000000E+00  0.00000000000E+00  0.16715611496E+04  0.24565117657E+04  0.18000926027E+04 0.  0.
        1    1    3    3  502    0 -0.46899834361E+03 -0.73708089399E+03  0.11311137913E+04  0.14292187025E+04  0.50400001928E-02 0.  1.
       -1    1    3    3    0  502  0.46899834361E+03  0.73708089399E+03  0.54044735826E+03  0.10272930632E+04  0.50400001928E-02 0. -1.
</event>
<event>
 5   0  0.4987456E-06  0.1800112E+04  0.7818609E-02  0.8706240E-01
        1   -1    0    0  501    0  0.00000000000E+00  0.00000000000E+00  0.87117941959E+03  0.87117941961E+03  0.50400001928E-02 0. -1.
       -1   -1    0    0    0  501  0.00000000000E+00  0.00000000000E+00 -0.92988962531E+03  0.92988962532E+03  0.50400001928E-02 0.  1.
    10030    2    1    2    0    0  0.00000000000E+00  0.00000000000E+00 -0.58710205718E+02  0.18010690449E+04  0.18001118900E+04 0.  0.
        3    1    3    3  502    0 -0.79946457471E+03  0.39088261239E+03 -0.16421501743E+03  0.90493060786E+03  0.10100000352E+00 0.  1.
       -3    1    3    3    0  502  0.79946457471E+03 -0.39088261239E+03  0.10550481171E+03  0.89613843707E+03  0.10100000352E+00 0. -1.
</event>
<event>
 5   0  0.9589963E-06  0.1800503E+04  0.7818609E-02  0.8706032E-01
        2   -1    0    0  501    0  0.00000000000E+00  0.00000000000E+00  0.72566162852E+03  0.72566162853E+03  0.25500000920E-02 0.  1.
       -2   -1    0    0    0  501  0.00000000000E+00  0.00000000000E+00 -0.11168467726E+04  0.11168467726E+04  0.25500000920E-02 0. -1.
    10030    2    1    2    0    0  0.00000000000E+00  0.00000000000E+00 -0.39118514404E+03  0.18425084011E+04  0.18005030939E+04 0.  0.
        2    1    3    3  502    0  0.86852172965E+03  0.30650401282E+02  0.44799341900E+02  0.87021630817E+03  0.25500000920E-02 0. -1.
       -2    1    3    3    0  502 -0.86852172965E+03 -0.30650401282E+02 -0.43598448594E+03  0.97229209292E+03  0.25500000920E-02 0.  1.
</event>
<event>
 5   0  0.4981384E-06  0.1799643E+04  0.7818609E-02  0.8706490E-01
        1   -1    0    0  501    0  0.00000000000E+00  0.00000000000E+00  0.84193008040E+03  0.84193008042E+03  0.50400001928E-02 0.  1.
       -1   -1    0    0    0  501  0.00000000000E+00  0.00000000000E+00 -0.96169314803E+03  0.96169314805E+03  0.50400001928E-02 0. -1.
    10030    2    1    2    0    0  0.00000000000E+00  0.00000000000E+00 -0.11976306763E+03  0.18036232285E+04  0.17996426195E+04 0.  0.
        5    1    3    3  502    0 -0.80702805365E+03 -0.39597551557E+03 -0.20228742585E+02  0.89917861426E+03  0.46999998093E+01 0.  1.
       -5    1    3    3    0  502  0.80702805365E+03  0.39597551557E+03 -0.99534325045E+02  0.90444461421E+03  0.46999998093E+01 0. -1.
</event>
<event>
 5   0  0.1036381E-05  0.1800258E+04  0.7818609E-02  0.8706162E-01
        2   -1    0    0  501    0  0.00000000000E+00  0.00000000000E+00  0.24878560733E+04  0.24878560733E+04  0.25500000920E-02 0. -1.
       -2   -1    0    0    0  501  0.00000000000E+00  0.00000000000E+00 -0.32567502001E+03  0.32567502002E+03  0.25500000920E-02 0.  1.
    10030    2    1    2    0    0  0.00000000000E+00  0.00000000000E+00  0.21621810533E+04  0.28135310934E+04  0.18002583998E+04 0.  0.
        4    1    3    3  502    0  0.37758240214E+03 -0.30561130291E+03 -0.10323953735E+03  0.49661529763E+03  0.12699999809E+01 0.  1.
       -4    1    3    3    0  502 -0.37758240214E+03  0.30561130291E+03  0.22654205907E+04  0.23169157957E+04  0.12699999809E+01 0. -1.
</event>
<event>
 5   0  0.9999162E-06  0.1800310E+04  0.7818609E-02  0.8706135E-01
       -2   -1    0    0    0  501  0.00000000000E+00  0.00000000000E+00  0.13187144760E+04  0.13187144760E+04  0.25500000920E-02 0. -1.
        2   -1    0    0  501    0  0.00000000000E+00  0.00000000000E+00 -0.61444611176E+03  0.61444611176E+03  0.25500000920E-02 0.  1.
    10030    2    1    2    0    0  0.00000000000E+00  0.00000000000E+00  0.70426836421E+03  0.19331605877E+04  0.18003099536E+04 0.  0.
        1    1    3    3  502    0  0.41673937102E+03  0.45634671163E+03  0.10549192875E+04  0.12226114377E+04  0.50400001928E-02 0. -1.
       -1    1    3    3    0  502 -0.41673937102E+03 -0.45634671163E+03 -0.35065092326E+03  0.71054915001E+03  0.50400001928E-02 0.  1.
</event>
<event>
 5   0  0.9999162E-06  0.1800263E+04  0.7818609E-02  0.8706160E-01
       -2   -1    0    0    0  501  0.00000000000E+00  0.00000000000E+00  0.82417636679E+03  0.82417636679E+03  0.25500000920E-02 0. -1.
        2   -1    0    0  501    0  0.00000000000E+00  0.00000000000E+00 -0.98308656799E+03  0.98308656800E+03  0.25500000920E-02 0.  1.
    10030    2    1    2    0    0  0.00000000000E+00  0.00000000000E+00 -0.15891020121E+03  0.18072629348E+04  0.18002629984E+04 0.  0.
        1    1    3    3  502    0  0.20851826613E+03 -0.79554513764E+03 -0.44675309315E+03  0.93592748629E+03  0.50400001928E-02 0.  1.
       -1    1    3    3    0  502 -0.20851826613E+03  0.79554513764E+03  0.28784289194E+03  0.87133544849E+03  0.50400001928E-02 0. -1.
</event>
<event>
 5   0  0.4983159E-06  0.1801496E+04  0.7818609E-02  0.8705505E-01
       -1   -1    0    0    0  501  0.00000000000E+00  0.00000000000E+00  0.41729614616E+03  0.41729614619E+03  0.50400001928E-02 0. -1.
        1   -1    0    0  501    0  0.00000000000E+00  0.00000000000E+00 -0.19442946048E+04  0.19442946048E+04  0.50400001928E-02 0.  1.
    10030    2    1    2    0    0  0.00000000000E+00  0.00000000000E+00 -0.15269984586E+04  0.23615907510E+04  0.18014956515E+04 0.  0.
        4    1    3    3  502    0  0.13282847543E+02 -0.84619570051E+03 -0.35919282745E+03  0.91937190396E+03  0.12699999809E+01 0. -1.
       -4    1    3    3    0  502 -0.13282847543E+02  0.84619570051E+03 -0.11678056312E+04  0.14422188470E+04  0.12699999809E+01 0.  1.
</event>
<event>
 5   0  0.1036381E-05  0.1799964E+04  0.7818609E-02  0.8706319E-01
       -2   -1    0    0    0  501  0.00000000000E+00  0.00000000000E+00  0.47412698001E+03  0.47412698002E+03  0.25500000920E-02 0.  1.
        2   -1    0    0  501    0  0.00000000000E+00  0.00000000000E+00 -0.17083345304E+04  0.17083345304E+04  0.25500000920E-02 0. -1.
    10030    2    1    2    0    0  0.00000000000E+00  0.00000000000E+00 -0.12342075504E+04  0.21824615105E+04  0.17999638794E+04 0.  0.
        4    1    3    3  502    0  0.17914625244E+03 -0.83336097693E+03 -0.26698217206E+03  0.89323288718E+03  0.12699999809E+01 0.  1.
       -4    1    3    3    0  502 -0.17914625244E+03  0.83336097693E+03 -0.96722537838E+03  0.12892286233E+04  0.12699999809E+01 0. -1.
</event>
<event>
 5   0  0.1036381E-05  0.1799835E+04  0.7818609E-02  0.8706387E-01
        2   -1    0    0  501    0  0.00000000000E+00  0.00000000000E+00  0.10121524895E+04  0.10121524895E+04  0.25500000920E-02 0. -1.
       -2   -1    0    0    0  501  0.00000000000E+00  0.00000000000E+00 -0.80012831343E+03  0.80012831343E+03  0.25500000920E-02 0.  1.
    10030    2    1    2    0    0  0.00000000000E+00  0.00000000000E+00  0.21202417603E+03  0.18122808029E+04  0.17998353973E+04 0.  0.
        4    1    3    3  502    0 -0.64079973260E+01 -0.77454453935E+03  0.56731746706E+03  0.96010990371E+03  0.12699999809E+01 0. -1.
       -4    1    3    3    0  502  0.64079973260E+01  0.77454453935E+03 -0.35529329103E+03  0.85217089919E+03  0.12699999809E+01 0.  1.
</event>
<event>
 5   0  0.4953155E-06  0.1800392E+04  0.7818609E-02  0.8706091E-01
       -1   -1    0    0    0  501  0.00000000000E+00  0.00000000000E+00  0.10564755009E+04  0.10564755009E+04  0.50400001928E-02 0.  1.
        1   -1    0    0  501    0  0.00000000000E+00  0.00000000000E+00 -0.76703451237E+03  0.76703451238E+03  0.50400001928E-02 0. -1.
    10030    2    1    2    0    0  0.00000000000E+00  0.00000000000E+00  0.28944098854E+03  0.18235100133E+04  0.18003923691E+04 0.  0.
        2    1    3    3  502    0  0.50376888184E+03  0.74387129661E+03  0.87197061620E+02  0.90262446221E+03  0.25500000920E-02 0.  1.
       -2    1    3    3    0  502 -0.50376888184E+03 -0.74387129661E+03  0.20224392692E+03  0.92088555109E+03  0.25500000920E-02 0. -1.
</event>
<event>
 5   0  0.9999162E-06  0.1792713E+04  0.7818609E-02  0.8710184E-01
       -2   -1    0    0    0  501  0.00000000000E+00  0.00000000000E+00  0.73083910252E+03  0.73083910252E+03  0.25500000920E-02 0. -1.
        2   -1    0    0  501    0  0.00000000000E+00  0.00000000000E+00 -0.10993594029E+04  0.10993594029E+04  0.25500000920E-02 0.  1.
    10030    2    1    2    0    0  0.00000000000E+00  0.00000000000E+00 -0.36852030038E+03  0.18301985054E+04  0.17927128486E+04 0.  0.
        1    1    3    3  502    0  0.82601017769E+03 -0.10972093706E+03  0.15298545094E+03  0.84719303934E+03  0.50400001928E-02 0. -1.
       -1    1    3    3    0  502 -0.82601017769E+03  0.10972093706E+03 -0.52150575132E+03  0.98300546609E+03  0.50400001928E-02 0.  1.
</event>
<event>
 5   0  0.4981384E-06  0.1801387E+04  0.7818609E-02  0.8705562E-01
       -1   -1    0    0    0  501  0.00000000000E+00  0.00000000000E+00  0.80968802639E+03  0.80968802640E+03  0.50400001928E-02 0. -1.
        1   -1    0    0  501    0  0.00000000000E+00  0.00000000000E+00 -0.10019279474E+04  0.10019279474E+04  0.50400001928E-02 0.  1.
    10030    2    1    2    0    0  0.00000000000E+00  0.00000000000E+00 -0.19223992102E+03  0.18116159738E+04  0.18013873124E+04 0.  0.
        5    1    3    3  502    0  0.57507666728E+03  0.41102982367E+03  0.46523254113E+03  0.84623997573E+03  0.46999998093E+01 0. -1.
       -5    1    3    3    0  502 -0.57507666728E+03 -0.41102982367E+03 -0.65747246216E+03  0.96537599810E+03  0.46999998093E+01 0.  1.
</event>
<event>
 5   0  0.4981384E-06  0.1800667E+04  0.7818609E-02  0.8705945E-01
        1   -1    0    0  501    0  0.00000000000E+00  0.00000000000E+00  0.25194760631E+04  0.25194760631E+04  0.50400001928E-02 0. -1.
       -1   -1    0    0    0  501  0.00000000000E+00  0.00000000000E+00 -0.32173389707E+03  0.32173389711E+03  0.50400001928E-02 0.  1.
    10030    2    1    2    0    0  0.00000000000E+00  0.00000000000E+00  0.21977421660E+04  0.28412099602E+04  0.18006674900E+04 0.  0.
        5    1    3    3  502    0  0.24061675765E+03  0.52999813935E+03  0.21826521299E+04  0.22589348955E+04  0.46999998093E+01 0. -1.
       -5    1    3    3    0  502 -0.24061675765E+03 -0.52999813935E+03  0.15090036066E+02  0.58227506469E+03  0.46999998093E+01 0.  1.
</event>
<event>
 5   0  0.4981384E-06  0.1800141E+04  0.7818609E-02  0.8706225E-01
       -1   -1    0    0    0  501  0.00000000000E+00  0.00000000000E+00  0.57299116959E+03  0.57299116961E+03  0.50400001928E-02 0. -1.
        1   -1    0    0  501    0  0.00000000000E+00  0.00000000000E+00 -0.14138552969E+04  0.14138552969E+04  0.50400001928E-02 0.  1.
    10030    2    1    2    0    0  0.00000000000E+00  0.00000000000E+00 -0.84086412729E+03  0.19868464665E+04  0.18001406614E+04 0.  0.
        5    1    3    3  502    0  0.69876585112E+03 -0.38531671091E+03 -0.87998400502E+03  0.11879127163E+04  0.46999998093E+01 0.  1.
       -5    1    3    3    0  502 -0.69876585112E+03  0.38531671091E+03  0.39119877732E+02  0.79893375021E+03  0.46999998093E+01 0. -1.
</event>
<event>
 5   0  0.4953155E-06  0.1799943E+04  0.7818609E-02  0.8706330E-01
       -1   -1    0    0    0  501  0.00000000000E+00  0.00000000000E+00  0.73985041565E+03  0.73985041567E+03  0.50400001928E-02 0. -1.
        1   -1    0    0  501    0  0.00000000000E+00  0.00000000000E+00 -0.10947461441E+04  0.10947461441E+04  0.50400001928E-02 0.  1.
    10030    2    1    2    0    0  0.00000000000E+00  0.00000000000E+00 -0.35489572847E+03  0.18345965598E+04  0.17999426544E+04 0.  0.
        2    1    3    3  502    0  0.44695879969E+03  0.23559376503E+02  0.61836678348E+03  0.76335096237E+03  0.25500000920E-02 0. -1.
       -2    1    3    3    0  502 -0.44695879969E+03 -0.23559376503E+02 -0.97326251195E+03  0.10712455974E+04  0.25500000920E-02 0.  1.
</event>
<event>
 5   0  0.1035018E-05  0.1800001E+04  0.7818609E-02  0.8706299E-01
       -2   -1    0    0    0  501  0.00000000000E+00  0.00000000000E+00  0.45037755009E+03  0.45037755009E+03  0.25500000920E-02 0.  1.
        2   -1    0    0  501    0  0.00000000000E+00  0.00000000000E+00 -0.17984939906E+04  0.17984939906E+04  0.25500000920E-02 0. -1.
    10030    2    1    2    0    0  0.00000000000E+00  0.00000000000E+00 -0.13481164405E+04  0.22488715407E+04  0.18000014637E+04 0.  0.
        3    1    3    3  502    0 -0.44371122273E+03  0.14462759749E+03 -0.16355103100E+04  0.17007912204E+04  0.10100000352E+00 0. -1.
       -3    1    3    3    0  502  0.44371122273E+03 -0.14462759749E+03  0.28739386944E+03  0.54808032032E+03  0.10100000352E+00 0.  1.
</event>
<event>
 5   0  0.1000316E-05  0.1799991E+04  0.7818609E-02  0.8706304E-01
       -2   -1    0    0    0  501  0.00000000000E+00  0.00000000000E+00  0.63436215752E+03  0.63436215753E+03  0.25500000920E-02 0. -1.
        2   -1    0    0  501    0  0.00000000000E+00  0.00000000000E+00 -0.12768598397E+04  0.12768598397E+04  0.25500000920E-02 0.  1.
    10030    2    1    2    0    0  0.00000000000E+00  0.00000000000E+00 -0.64249768221E+03  0.19112219973E+04  0.17999906253E+04 0.  0.
        5    1    3    3  502    0  0.20883100692E+03 -0.74266783468E+03 -0.81335821787E+03  0.11210439700E+04  0.46999998093E+01 0.  1.
       -5    1    3    3    0  502 -0.20883100692E+03  0.74266783468E+03  0.17086053566E+03  0.79017802726E+03  0.46999998093E+01 0. -1.
</event>
<event>
 5   0  0.9589963E-06  0.1799483E+04  0.7818609E-02  0.8706574E-01
       -2   -1    0    0    0  501  0.00000000000E+00  0.00000000000E+00  0.55209322608E+03  0.55209322609E+03  0.25500000920E-02 0. -1.
        2   -1    0    0  501    0  0.00000000000E+00  0.00000000000E+00 -0.14663016539E+04  0.14663016539E+04  0.25500000920E-02 0.  1.
    10030    2    1    2    0    0  0.00000000000E+00  0.00000000000E+00 -0.91420842784E+03  0.20183948800E+04  0.17994834932E+04 0.  0.
        2    1    3    3  502    0  0.14079268519E+03  0.60174208871E+02 -0.14515815101E+04  0.14596343364E+04  0.25500000920E-02 0.  1.
       -2    1    3    3    0  502 -0.14079268519E+03 -0.60174208871E+02  0.53737308222E+03  0.55876054363E+03  0.25500000920E-02 0. -1.
</event>
<event>
 5   0  0.4953155E-06  0.1801052E+04  0.7818609E-02  0.8705740E-01
        1   -1    0    0  501    0  0.00000000000E+00  0.00000000000E+00  0.12208575799E+04  0.12208575799E+04  0.50400001928E-02 0. -1.
       -1   -1    0    0    0  501  0.00000000000E+00  0.00000000000E+00 -0.66424358825E+03  0.66424358827E+03  0.50400001928E-02 0.  1.
    10030    2    1    2    0    0  0.00000000000E+00  0.00000000000E+00  0.55661399161E+03  0.18851011681E+04  0.18010517145E+04 0.  0.
        2    1    3    3  502    0 -0.76607081616E+02  0.89650201444E+03  0.23967502263E+03  0.93114371787E+03  0.25500000920E-02 0.  1.
       -2    1    3    3    0  502  0.76607081616E+02 -0.89650201444E+03  0.31693896897E+03  0.95395745026E+03  0.25500000920E-02 0. -1.
</event>
<event>
 5   0  0.9999162E-06  0.1799142E+04  0.7818609E-02  0.8706756E-01
       -2   -1    0    0    0  501  0.00000000000E+00  0.00000000000E+00  0.82962197315E+03  0.82962197315E+03  0.25500000920E-02 0. -1.
        2   -1    0    0  501    0  0.00000000000E+00  0.00000000000E+00 -0.97541722951E+03  0.97541722952E+03  0.25500000920E-02 0.  1.
    10030    2    1    2    0    0  0.00000000000E+00  0.00000000000E+00 -0.14579525636E+03  0.18050392027E+04  0.17991415360E+04 0.  0.
        1    1    3    3  502    0  0.26913275254E+03 -0.50586114067E+03 -0.76864012593E+03  0.95871558626E+03  0.50400001928E-02 0.  1.
       -1    1    3    3    0  502 -0.26913275254E+03  0.50586114067E+03  0.62284486956E+03  0.84632361641E+03  0.50400001928E-02 0. -1.
</event>
<event>
 5   0  0.4953155E-06  0.1800030E+04  0.7818609E-02  0.8706284E-01
       -1   -1    0    0    0  501  0.00000000000E+00  0.00000000000E+00  0.10951412573E+04  0.10951412573E+04  0.50400001928E-02 0.  1.
        1   -1    0    0  501    0  0.00000000000E+00  0.00000000000E+00 -0.73965514884E+03  0.73965514885E+03  0.50400001928E-02 0. -1.
    10030    2    1    2    0    0  0.00000000000E+00  0.00000000000E+00  0.35548610844E+03  0.18347964061E+04  0.18000298549E+04 0.  0.
        2    1    3    3  502    0 -0.73464745838E+03  0.45860526958E+03 -0.71939442362E+02  0.86902299438E+03  0.25500000920E-02 0. -1.
       -2    1    3    3    0  502  0.73464745838E+03 -0.45860526958E+03  0.42742555080E+03  0.96577341176E+03  0.25500000920E-02 0.  1.
</event>
<event>
 5   0  0.4994123E-06  0.1800922E+04  0.7818609E-02  0.8705809E-01
        1   -1    0    0  501    0  0.00000000000E+00  0.00000000000E+00  0.69716545229E+03  0.69716545231E+03  0.50400001928E-02 0. -1.
       -1   -1    0    0    0  501  0.00000000000E+00  0.00000000000E+00 -0.11630385060E+04  0.11630385060E+04  0.50400001928E-02 0.  1.
    10030    2    1    2    0    0  0.00000000000E+00  0.00000000000E+00 -0.46587305371E+03  0.18602039583E+04  0.18009222816E+04 0.  0.
        1    1    3    3  502    0 -0.75789963755E+03  0.48428681308E+03 -0.18809448898E+03  0.91887165303E+03  0.50400001928E-02 0.  1.
       -1    1    3    3    0  502  0.75789963755E+03 -0.48428681308E+03 -0.27777856473E+03  0.94133230529E+03  0.50400001928E-02 0. -1.
</event>
<event>
 5   0  0.4987456E-06  0.1800060E+04  0.7818609E-02  0.8706267E-01
        1   -1    0    0  501    0  0.00000000000E+00  0.00000000000E+00  0.17333004783E+04  0.17333004783E+04  0.50400001928E-02 0.  1.
       -1   -1    0    0    0  501  0.00000000000E+00  0.00000000000E+00 -0.46734781126E+03  0.46734781128E+03  0.50400001928E-02 0. -1.
    10030    2    1    2    0    0  0.00000000000E+00  0.00000000000E+00  0.12659526671E+04  0.22006482896E+04  0.18000602044E+04 0.  0.
        3    1    3    3  502    0  0.64412521686E+03 -0.28334465493E+03 -0.53034702720E+02  0.70568702579E+03  0.10100000352E+00 0. -1.
       -3    1    3    3    0  502 -0.64412521686E+03  0.28334465493E+03  0.13189873698E+04  0.14949612638E+04  0.10100000352E+00 0.  1.
</event>
<event>
 5   0  0.4953155E-06  0.1800338E+04  0.7818609E-02  0.8706120E-01
       -1   -1    0    0    0  501  0.00000000000E+00  0.00000000000E+00  0.57298581034E+03  0.57298581036E+03  0.50400001928E-02 0. -1.
        1   -1    0    0  501    0  0.00000000000E+00  0.00000000000E+00 -0.14141791114E+04  0.14141791114E+04  0.50400001928E-02 0.  1.
    10030    2    1    2    0    0  0.00000000000E+00  0.00000000000E+00 -0.84119330107E+03  0.19871649218E+04  0.18003383728E+04 0.  0.
        2    1    3    3  502    0 -0.44696011170E+02 -0.43595659155E+03  0.44728673257E+03  0.62619589928E+03  0.25500000920E-02 0. -1.
       -2    1    3    3    0  502  0.44696011170E+02  0.43595659155E+03 -0.12884800336E+04  0.13609690225E+04  0.25500000920E-02 0.  1.
</event>
<event>
 5   0  0.4987456E-06  0.1800332E+04  0.7818609E-02  0.8706123E-01
       -1   -1    0    0    0  501  0.00000000000E+00  0.00000000000E+00  0.37272098007E+03  0.37272098011E+03  0.50400001928E-02 0. -1.
        1   -1    0    0  501    0  0.00000000000E+00  0.00000000000E+00 -0.21740085128E+04  0.21740085128E+04  0.50400001928E-02 0.  1.
    10030    2    1    2    0    0  0.00000000000E+00  0.00000000000E+00 -0.18012875327E+04  0.25467294929E+04  0.18003317290E+04 0.  0.
        3    1    3    3  502    0 -0.81111767604E+03  0.24026397994E+03 -0.13358682548E+04  0.15811965940E+04  0.10100000352E+00 0.  1.
       -3    1    3    3    0  502  0.81111767604E+03 -0.24026397994E+03 -0.46541927794E+03  0.96553289893E+03  0.10100000352E+00 0. -1.
</event>
<event>
 5   0  0.4983159E-06  0.1799803E+04  0.7818609E-02  0.8706404E-01
       -1   -1    0    0    0  501  0.00000000000E+00  0.00000000000E+00  0.10117870227E+04  0.10117870227E+04  0.50400001928E-02 0. -1.
        1   -1    0    0  501    0  0.00000000000E+00  0.00000000000E+00 -0.80038826107E+03  0.80038826109E+03  0.50400001928E-02 0.  1.
    10030    2    1    2    0    0  0.00000000000E+00  0.00000000000E+00  0.21139876166E+03  0.18121752838E+04  0.17998027178E+04 0.  0.
        4    1    3    3  502    0 -0.25642171775E+03  0.53348093465E+02  0.97256077664E+03  0.10072110968E+04  0.12699999809E+01 0. -1.
       -4    1    3    3    0  502  0.25642171775E+03 -0.53348093465E+02 -0.76116201498E+03  0.80496418700E+03  0.12699999809E+01 0.  1.
</event>
<event>
 5   0  0.4953155E-06  0.1797684E+04  0.7818609E-02  0.8707532E-01
       -1   -1    0    0    0  501  0.00000000000E+00  0.00000000000E+00  0.10406694230E+04  0.10406694230E+04  0.50400001928E-02 0. -1.
        1   -1    0    0  501    0  0.00000000000E+00  0.00000000000E+00 -0.77634351197E+03  0.77634351198E+03  0.50400001928E-02 0.  1.
    10030    2    1    2    0    0  0.00000000000E+00  0.00000000000E+00  0.26432591105E+03  0.18170129350E+04  0.17976840153E+04 0.  0.
        2    1    3    3  502    0  0.75639270799E+02 -0.42501890593E+03 -0.66470121391E+03  0.79258442671E+03  0.25500000920E-02 0.  1.
       -2    1    3    3    0  502 -0.75639270799E+02  0.42501890593E+03  0.92902712496E+03  0.10244285083E+04  0.25500000920E-02 0. -1.
</event>
<event>
 5   0  0.9589963E-06  0.1800250E+04  0.7818609E-02  0.8706167E-01
       -2   -1    0    0    0  501  0.00000000000E+00  0.00000000000E+00  0.77076464551E+03  0.77076464552E+03  0.25500000920E-02 0.  1.
        2   -1    0    0  501    0  0.00000000000E+00  0.00000000000E+00 -0.10511962068E+04  0.10511962068E+04  0.25500000920E-02 0. -1.
    10030    2    1    2    0    0  0.00000000000E+00  0.00000000000E+00 -0.28043156131E+03  0.18219608523E+04  0.18002498401E+04 0.  0.
        2    1    3    3  502    0  0.50807609153E+03  0.73832173292E+03 -0.22467626932E+03  0.92398036889E+03  0.25500000920E-02 0. -1.
       -2    1    3    3    0  502 -0.50807609153E+03 -0.73832173292E+03 -0.55755291990E+02  0.89798048346E+03  0.25500000920E-02 0.  1.
</event>
<event>
 5   0  0.4953155E-06  0.1800214E+04  0.7818609E-02  0.8706186E-01
        1   -1    0    0  501    0  0.00000000000E+00  0.00000000000E+00  0.12020081789E+04  0.12020081789E+04  0.50400001928E-02 0. -1.
       -1   -1    0    0    0  501  0.00000000000E+00  0.00000000000E+00 -0.67403238311E+03  0.67403238313E+03  0.50400001928E-02 0.  1.
    10030    2    1    2    0    0  0.00000000000E+00  0.00000000000E+00  0.52797579582E+03  0.18760405621E+04  0.18002138066E+04 0.  0.
        2    1    3    3  502    0  0.82463101232E+03  0.36048791439E+03  0.24837017644E+03  0.93362497152E+03  0.25500000920E-02 0.  1.
       -2    1    3    3    0  502 -0.82463101232E+03 -0.36048791439E+03  0.27960561938E+03  0.94241559054E+03  0.25500000920E-02 0. -1.
</event>
<event>
 5   0  0.4981384E-06  0.1799667E+04  0.7818609E-02  0.8706476E-01
       -1   -1    0    0    0  501  0.00000000000E+00  0.00000000000E+00  0.11411730255E+04  0.11411730255E+04  0.50400001928E-02 0.  1.
        1   -1    0    0  501    0  0.00000000000E+00  0.00000000000E+00 -0.70953351433E+03  0.70953351435E+03  0.50400001928E-02 0. -1.
    10030    2    1    2    0    0  0.00000000000E+00  0.00000000000E+00  0.43163951115E+03  0.18507065399E+04  0.17996671995E+04 0.  0.
        5    1    3    3  502    0 -0.35328973936E+02 -0.55340469647E+03  0.94455917729E+03  0.10953168600E+04  0.46999998093E+01 0.  1.
       -5    1    3    3    0  502  0.35328973936E+02  0.55340469647E+03 -0.51291966613E+03  0.75538967982E+03  0.46999998093E+01 0. -1.
</event>
<event>
 5   0  0.3626125E-06  0.1799974E+04  0.7818609E-02  0.8706313E-01
        3   -1    0    0  501    0  0.00000000000E+00  0.00000000000E+00  0.13053927051E+04  0.13053927090E+04  0.10100000352E+00 0. -1.
       -3   -1    0    0    0  501  0.00000000000E+00  0.00000000000E+00 -0.62048478197E+03  0.62048479019E+03  0.10100000352E+00 0.  1.
    10030    2    1    2    0    0  0.00000000000E+00  0.00000000000E+00  0.68490792317E+03  0.19258774992E+04  0.17999736884E+04 0.  0.
        3    1    3    3  502    0  0.71325715267E+03 -0.41920616156E+03 -0.36595621365E+02  0.82813575061E+03  0.10100000352E+00 0.  1.
       -3    1    3    3    0  502 -0.71325715267E+03  0.41920616156E+03  0.72150354453E+03  0.10977417486E+04  0.10100000352E+00 0. -1.
</event>
<event>
 5   0  0.1035018E-05  0.1800153E+04  0.7818609E-02  0.8706218E-01
       -2   -1    0    0    0  501  0.00000000000E+00  0.00000000000E+00  0.16911397455E+04  0.16911397455E+04  0.25500000920E-02 0.  1.
        2   -1    0    0  501    0  0.00000000000E+00  0.00000000000E+00 -0.47904818775E+03  0.47904818775E+03  0.25500000920E-02 0. -1.
    10030    2    1    2    0    0  0.00000000000E+00  0.00000000000E+00  0.12120915577E+04  0.21701879332E+04  0.18001526939E+04 0.  0.
        3    1    3    3  502    0  0.52090711677E+03 -0.41689034885E+03  0.13343818746E+04  0.14918836364E+04  0.10100000352E+00 0.  1.
       -3    1    3    3    0  502 -0.52090711677E+03  0.41689034885E+03 -0.12229031684E+03  0.67830429680E+03  0.10100000352E+00 0. -1.
</event>
<event>
 5   0  0.1035018E-05  0.1800820E+04  0.7818609E-02  0.8705864E-01
       -2   -1    0    0    0  501  0.00000000000E+00  0.00000000000E+00  0.64291079210E+03  0.64291079211E+03  0.25500000920E-02 0. -1.
        2   -1    0    0  501    0  0.00000000000E+00  0.00000000000E+00 -0.12610427070E+04  0.12610427070E+04  0.25500000920E-02 0.  1.
    10030    2    1    2    0    0  0.00000000000E+00  0.00000000000E+00 -0.61813191486E+03  0.19039534991E+04  0.18008197751E+04 0.  0.
        3    1    3    3  502    0  0.29212841995E+03 -0.48847780862E+02 -0.12080647118E+04  0.12438430276E+04  0.10100000352E+00 0.  1.
       -3    1    3    3    0  502 -0.29212841995E+03  0.48847780862E+02  0.58993279689E+03  0.66011047143E+03  0.10100000352E+00 0. -1.
</event>
<event>
 5   0  0.1036381E-05  0.1799855E+04  0.7818609E-02  0.8706377E-01
        2   -1    0    0  501    0  0.00000000000E+00  0.00000000000E+00  0.50291199056E+03  0.50291199057E+03  0.25500000920E-02 0. -1.
       -2   -1    0    0    0  501  0.00000000000E+00  0.00000000000E+00 -0.16103600365E+04  0.16103600365E+04  0.25500000920E-02 0.  1.
    10030    2    1    2    0    0  0.00000000000E+00  0.00000000000E+00 -0.11074480460E+04  0.21132720271E+04  0.17998548514E+04 0.  0.
        4    1    3    3  502    0  0.26455838405E+03  0.61022638377E+03 -0.12655057229E+04  0.14296411178E+04  0.12699999809E+01 0.  1.
       -4    1    3    3    0  502 -0.26455838405E+03 -0.61022638377E+03  0.15805767696E+03  0.68363090931E+03  0.12699999809E+01 0. -1.
</event>
<event>
 5   0  0.1035018E-05  0.1799127E+04  0.7818609E-02  0.8706764E-01
        2   -1    0    0  501    0  0.00000000000E+00  0.00000000000E+00  0.14133518254E+04  0.14133518254E+04  0.25500000920E-02 0.  1.
       -2   -1    0    0    0  501  0.00000000000E+00  0.00000000000E+00 -0.57255024121E+03  0.57255024122E+03  0.25500000920E-02 0. -1.
    10030    2    1    2    0    0  0.00000000000E+00  0.00000000000E+00  0.84080158419E+03  0.19859020666E+04  0.17991274869E+04 0.  0.
        3    1    3    3  502    0  0.59766246899E+02  0.66403758920E+03 -0.24619409926E+03  0.71072460831E+03  0.10100000352E+00 0. -1.
       -3    1    3    3    0  502 -0.59766246899E+02 -0.66403758920E+03  0.10869956834E+04  0.12751774583E+04  0.10100000352E+00 0.  1.
</event>
<event>
 5   0  0.9999162E-06  0.1799874E+04  0.7818609E-02  0.8706366E-01
        2   -1    0    0  501    0  0.00000000000E+00  0.00000000000E+00  0.17726307068E+04  0.17726307068E+04  0.25500000920E-02 0.  1.
       -2   -1    0    0    0  501  0.00000000000E+00  0.00000000000E+00 -0.45688400084E+03  0.45688400084E+03  0.25500000920E-02 0. -1.
    10030    2    1    2    0    0  0.00000000000E+00  0.00000000000E+00  0.13157467060E+04  0.22295147077E+04  0.17998740060E+04 0.  0.
        1    1    3    3  502    0  0.50614802949E+03 -0.38011449890E+03  0.14502713068E+04  0.15823905091E+04  0.50400001928E-02 0.  1.
       -1    1    3    3    0  502 -0.50614802949E+03  0.38011449890E+03 -0.13452460085E+03  0.64712419851E+03  0.50400001928E-02 0. -1.
</event>
<event>
 5   0  0.1000316E-05  0.1799987E+04  0.7818609E-02  0.8706306E-01
        2   -1    0    0  501    0  0.00000000000E+00  0.00000000000E+00  0.12699182718E+04  0.12699182718E+04  0.25500000920E-02 0.  1.
       -2   -1    0    0    0  501  0.00000000000E+00  0.00000000000E+00 -0.63782738669E+03  0.63782738669E+03  0.25500000920E-02 0. -1.
    10030    2    1    2    0    0  0.00000000000E+00  0.00000000000E+00  0.63209088507E+03  0.19077456584E+04  0.17999873917E+04 0.  0.
        5    1    3    3  502    0 -0.67243316572E+03 -0.37315627025E+03 -0.17944009761E+03  0.78970425035E+03  0.46999998093E+01 0.  1.
       -5    1    3    3    0  502  0.67243316572E+03  0.37315627025E+03  0.81153098268E+03  0.11180414081E+04  0.46999998093E+01 0. -1.
</event>
<event>
 5   0  0.1000316E-05  0.1797757E+04  0.7818609E-02  0.8707493E-01
       -2   -1    0    0    0  501  0.00000000000E+00  0.00000000000E+00  0.54107749738E+03  0.54107749739E+03  0.25500000920E-02 0.  1.
        2   -1    0    0  501    0  0.00000000000E+00  0.00000000000E+00 -0.14932847329E+04  0.14932847329E+04  0.25500000920E-02 0. -1.
    10030    2    1    2    0    0  0.00000000000E+00  0.00000000000E+00 -0.95220723552E+03  0.20343622303E+04  0.17977572318E+04 0.  0.
        5    1    3    3  502    0 -0.11335539303E+03  0.64675331392E+03 -0.11707519682E+04  0.13423194684E+04  0.46999998093E+01 0. -1.
       -5    1    3    3    0  502  0.11335539303E+03 -0.64675331392E+03  0.21854473263E+03  0.69204276194E+03  0.46999998093E+01 0.  1.
</event>
<event>
 5   0  0.4987456E-06  0.1799626E+04  0.7818609E-02  0.8706498E-01
       -1   -1    0    0    0  501  0.00000000000E+00  0.00000000000E+00  0.41874301025E+03  0.41874301028E+03  0.50400001928E-02 0. -1.
        1   -1    0    0  501    0  0.00000000000E+00  0.00000000000E+00 -0.19335572154E+04  0.19335572154E+04  0.50400001928E-02 0.  1.
    10030    2    1    2    0    0  0.00000000000E+00  0.00000000000E+00 -0.15148142052E+04  0.23523002257E+04  0.17996261489E+04 0.  0.
        3    1    3    3  502    0 -0.46144727997E+03  0.18229026897E+03 -0.17386070177E+04  0.18080148524E+04  0.10100000352E+00 0.  1.
       -3    1    3    3    0  502  0.46144727997E+03 -0.18229026897E+03  0.22379281258E+03  0.54428537324E+03  0.10100000352E+00 0. -1.
</event>
<event>
 5   0  0.4994123E-06  0.1800119E+04  0.7818609E-02  0.8706236E-01
       -1   -1    0    0    0  501  0.00000000000E+00  0.00000000000E+00  0.69472879402E+03  0.69472879403E+03  0.50400001928E-02 0.  1.
        1   -1    0    0  501    0  0.00000000000E+00  0.00000000000E+00 -0.11660761935E+04  0.11660761935E+04  0.50400001928E-02 0. -1.
    10030    2    1    2    0    0  0.00000000000E+00  0.00000000000E+00 -0.47134739950E+03  0.18608049876E+04  0.18001185602E+04 0.  0.
        1    1    3    3  502    0 -0.83732527261E+03 -0.12385134819E+03  0.80672612341E+02  0.85027103855E+03  0.50400001928E-02 0.  1.
       -1    1    3    3    0  502  0.83732527261E+03  0.12385134819E+03 -0.55202001184E+03  0.10105339490E+04  0.50400001928E-02 0. -1.
</event>
<event>
 5   0  0.4987456E-06  0.1800275E+04  0.7818609E-02  0.8706153E-01
       -1   -1    0    0    0  501  0.00000000000E+00  0.00000000000E+00  0.18600903549E+04  0.18600903549E+04  0.50400001928E-02 0. -1.
        1   -1    0    0  501    0  0.00000000000E+00  0.00000000000E+00 -0.43559596989E+03  0.43559596992E+03  0.50400001928E-02 0.  1.
    10030    2    1    2    0    0  0.00000000000E+00  0.00000000000E+00  0.14244943850E+04  0.22956863248E+04  0.18002753815E+04 0.  0.
        3    1    3    3  502    0 -0.29024290386E+03 -0.27020286626E+02  0.17982363799E+04  0.18217093971E+04  0.10100000352E+00 0. -1.
       -3    1    3    3    0  502  0.29024290386E+03  0.27020286626E+02 -0.37374199488E+03  0.47397692778E+03  0.10100000352E+00 0.  1.
</event>
<event>
 5   0  0.4994123E-06  0.1799889E+04  0.7818609E-02  0.8706359E-01
        1   -1    0    0  501    0  0.00000000000E+00  0.00000000000E+00  0.75493431161E+03  0.75493431163E+03  0.50400001928E-02 0. -1.
       -1   -1    0    0    0  501  0.00000000000E+00  0.00000000000E+00 -0.10728085343E+04  0.10728085343E+04  0.50400001928E-02 0.  1.
    10030    2    1    2    0    0  0.00000000000E+00  0.00000000000E+00 -0.31787422272E+03  0.18277428460E+04  0.17998888548E+04 0.  0.
        1    1    3    3  502    0 -0.56997123881E+03 -0.43923795472E+03  0.38989213833E+03  0.81842108568E+03  0.50400001928E-02 0. -1.
       -1    1    3    3    0  502  0.56997123881E+03  0.43923795472E+03 -0.70776636105E+03  0.10093217603E+04  0.50400001928E-02 0.  1.
</event>
<event>
 5   0  0.4983159E-06  0.1800282E+04  0.7818609E-02  0.8706150E-01
        1   -1    0    0  501    0  0.00000000000E+00  0.00000000000E+00  0.10958128544E+04  0.10958128544E+04  0.50400001928E-02 0.  1.
       -1   -1    0    0    0  501  0.00000000000E+00  0.00000000000E+00 -0.73940864177E+03  0.73940864179E+03  0.50400001928E-02 0. -1.
    10030    2    1    2    0    0  0.00000000000E+00  0.00000000000E+00  0.35640421259E+03  0.18352214962E+04  0.18002816383E+04 0.  0.
        4    1    3    3  502    0  0.30964623865E+02  0.83769262072E+03  0.51253707577E+03  0.98253936394E+03  0.12699999809E+01 0.  1.
       -4    1    3    3    0  502 -0.30964623865E+02 -0.83769262072E+03 -0.15613286318E+03  0.85268213222E+03  0.12699999809E+01 0. -1.
</event>
<event>
 5   0  0.1036381E-05  0.1799322E+04  0.7818609E-02  0.8706660E-01
       -2   -1    0    0    0  501  0.00000000000E+00  0.00000000000E+00  0.40193878864E+03  0.40193878865E+03  0.25500000920E-02 0.  1.
        2   -1    0    0  501    0  0.00000000000E+00  0.00000000000E+00 -0.20137136356E+04  0.20137136356E+04  0.25500000920E-02 0. -1.
    10030    2    1    2    0    0  0.00000000000E+00  0.00000000000E+00 -0.16117748469E+04  0.24156524242E+04  0.17993216715E+04 0.  0.
        4    1    3    3  502    0  0.77018244642E+03 -0.45464002779E+03 -0.67496822021E+03  0.11204741259E+04  0.12699999809E+01 0. -1.
       -4    1    3    3    0  502 -0.77018244642E+03  0.45464002779E+03 -0.93680662670E+03  0.12951782983E+04  0.12699999809E+01 0.  1.
</event>
<event>
 5   0  0.1000316E-05  0.1797812E+04  0.7818609E-02  0.8707464E-01
        2   -1    0    0  501    0  0.00000000000E+00  0.00000000000E+00  0.13968482646E+04  0.13968482646E+04  0.25500000920E-02 0. -1.
       -2   -1    0    0    0  501  0.00000000000E+00  0.00000000000E+00 -0.57846829742E+03  0.57846829743E+03  0.25500000920E-02 0.  1.
    10030    2    1    2    0    0  0.00000000000E+00  0.00000000000E+00  0.81837996713E+03  0.19753165620E+04  0.17978124901E+04 0.  0.
        5    1    3    3  502    0 -0.61882457930E+03  0.42858102590E+03  0.94900786175E+03  0.12113065538E+04  0.46999998093E+01 0. -1.
       -5    1    3    3    0  502  0.61882457930E+03 -0.42858102590E+03 -0.13062789462E+03  0.76401000815E+03  0.46999998093E+01 0.  1.
</event>
<event>
 5   0  0.4994123E-06  0.1800343E+04  0.7818609E-02  0.8706117E-01
       -1   -1    0    0    0  501  0.00000000000E+00  0.00000000000E+00  0.11446292050E+04  0.11446292050E+04  0.50400001928E-02 0. -1.
        1   -1    0    0  501    0  0.00000000000E+00  0.00000000000E+00 -0.70792211394E+03  0.70792211395E+03  0.50400001928E-02 0.  1.
    10030    2    1    2    0    0  0.00000000000E+00  0.00000000000E+00  0.43670709109E+03  0.18525513190E+04  0.18003425524E+04 0.  0.
        1    1    3    3  502    0 -0.91898831691E+02 -0.72091223198E+03  0.76493383011E+03  0.10551225549E+04  0.50400001928E-02 0. -1.
       -1    1    3    3    0  502  0.91898831691E+02  0.72091223198E+03 -0.32822673902E+03  0.79742876404E+03  0.50400001928E-02 0.  1.
</event>
<event>
 5   0  0.1035018E-05  0.1799648E+04  0.7818609E-02  0.8706486E-01
       -2   -1    0    0    0  501  0.00000000000E+00  0.00000000000E+00  0.95024783340E+03  0.95024783340E+03  0.25500000920E-02 0.  1.
        2   -1    0    0  501    0  0.00000000000E+00  0.00000000000E+00 -0.85207620586E+03  0.85207620586E+03  0.25500000920E-02 0. -1.
    10030    2    1    2    0    0  0.00000000000E+00  0.00000000000E+00  0.98171627536E+02  0.18023240393E+04  0.17996483751E+04 0.  0.
        3    1    3    3  502    0  0.30449538313E+03  0.20930605656E+03 -0.77259553743E+03  0.85640547541E+03  0.10100000352E+00 0. -1.
       -3    1    3    3    0  502 -0.30449538313E+03 -0.20930605656E+03  0.87076716496E+03  0.94591856385E+03  0.10100000352E+00 0.  1.
</event>
<event>
 5   0  0.9999162E-06  0.1799462E+04  0.7818609E-02  0.8706585E-01
       -2   -1    0    0    0  501  0.00000000000E+00  0.00000000000E+00  0.52851727436E+03  0.52851727436E+03  0.25500000920E-02 0.  1.
        2   -1    0    0  501    0  0.00000000000E+00  0.00000000000E+00 -0.15316739588E+04  0.15316739588E+04  0.25500000920E-02 0. -1.
    10030    2    1    2    0    0  0.00000000000E+00  0.00000000000E+00 -0.10031566844E+04  0.20601912331E+04  0.17994623040E+04 0.  0.
        1    1    3    3  502    0 -0.51222801053E+03  0.62779471256E+03 -0.53732951021E+02  0.81202891940E+03  0.50400001928E-02 0.  1.
       -1    1    3    3    0  502  0.51222801053E+03 -0.62779471256E+03 -0.94942373340E+03  0.12481623137E+04  0.50400001928E-02 0. -1.
</event>
<event>
 5   0  0.9589963E-06  0.1800707E+04  0.7818609E-02  0.8705923E-01
        2   -1    0    0  501    0  0.00000000000E+00  0.00000000000E+00  0.10654849592E+04  0.10654849592E+04  0.25500000920E-02 0.  1.
       -2   -1    0    0    0  501  0.00000000000E+00  0.00000000000E+00 -0.76081466680E+03  0.76081466680E+03  0.25500000920E-02 0. -1.
    10030    2    1    2    0    0  0.00000000000E+00  0.00000000000E+00  0.30467029236E+03  0.18262996260E+04  0.18007071768E+04 0.  0.
        2    1    3    3  502    0 -0.94927272300E+01 -0.32197992285E+03  0.10050432084E+04  0.10554018350E+04  0.25500000920E-02 0.  1.
       -2    1    3    3    0  502  0.94927272300E+01  0.32197992285E+03 -0.70037291603E+03  0.77089779096E+03  0.25500000920E-02 0. -1.
</event>
<event>
 5   0  0.4953155E-06  0.1800646E+04  0.7818609E-02  0.8705956E-01
       -1   -1    0    0    0  501  0.00000000000E+00  0.00000000000E+00  0.27142555258E+03  0.27142555263E+03  0.50400001928E-02 0. -1.
        1   -1    0    0  501    0  0.00000000000E+00  0.00000000000E+00 -0.29863870401E+04  0.29863870401E+04  0.50400001928E-02 0.  1.
    10030    2    1    2    0    0  0.00000000000E+00  0.00000000000E+00 -0.27149614875E+04  0.32578125927E+04  0.18006462758E+04 0.  0.
        2    1    3    3  502    0 -0.29833494187E+03 -0.11518449628E+03  0.16520241675E+03  0.35994866888E+03  0.25500000920E-02 0. -1.
       -2    1    3    3    0  502  0.29833494187E+03  0.11518449628E+03 -0.28801639042E+04  0.28978639238E+04  0.25500000920E-02 0.  1.
</event>
<event>
 5   0  0.4983159E-06  0.1799281E+04  0.7818609E-02  0.8706682E-01
        1   -1    0    0  501    0  0.00000000000E+00  0.00000000000E+00  0.17412176366E+04  0.17412176366E+04  0.50400001928E-02 0.  1.
       -1   -1    0    0    0  501  0.00000000000E+00  0.00000000000E+00 -0.46482014350E+03  0.46482014353E+03  0.50400001928E-02 0. -1.
    10030    2    1    2    0    0  0.00000000000E+00  0.00000000000E+00  0.12763974931E+04  0.22060377802E+04  0.17992810028E+04 0.  0.
        4    1    3    3  502    0  0.69586095640E+03  0.14242667635E+03  0.13151423440E+04  0.14946935561E+04  0.12699999809E+01 0.  1.
       -4    1    3    3    0  502 -0.69586095640E+03 -0.14242667635E+03 -0.38744850855E+02  0.71134422408E+03  0.12699999809E+01 0. -1.
</event>
<event>
 5   0  0.1000316E-05  0.1799997E+04  0.7818609E-02  0.8706301E-01
        2   -1    0    0  501    0  0.00000000000E+00  0.00000000000E+00  0.72771922568E+03  0.72771922569E+03  0.25500000920E-02 0. -1.
       -2   -1    0    0    0  501  0.00000000000E+00  0.00000000000E+00 -0.11130628365E+04  0.11130628365E+04  0.25500000920E-02 0.  1.
    10030    2    1    2    0    0  0.00000000000E+00  0.00000000000E+00 -0.38534361079E+03  0.18407820622E+04  0.17999969172E+04 0.  0.
        5    1    3    3  502    0 -0.95844365038E+02 -0.63404421974E+03 -0.83846820583E+03  0.10555800477E+04  0.46999998093E+01 0.  1.
       -5    1    3    3    0  502  0.95844365038E+02  0.63404421974E+03  0.45312459504E+03  0.78520201447E+03  0.46999998093E+01 0. -1.
</event>
<event>
 5   0  0.3626125E-06  0.1800645E+04  0.7818609E-02  0.8705956E-01
       -4   -1    0    0    0  501  0.00000000000E+00  0.00000000000E+00  0.49863318627E+03  0.49863480359E+03  0.12699999809E+01 0.  1.
        4   -1    0    0  501    0  0.00000000000E+00  0.00000000000E+00 -0.16256006535E+04  0.16256011496E+04  0.12699999809E+01 0. -1.
    10030    2    1    2    0    0  0.00000000000E+00  0.00000000000E+00 -0.11269674672E+04  0.21242359532E+04  0.18006450824E+04 0.  0.
        5    1    3    3  502    0 -0.36558415425E+03 -0.78869795382E+03 -0.83980343239E+03  0.12087134198E+04  0.46999998093E+01 0. -1.
       -5    1    3    3    0  502  0.36558415425E+03  0.78869795382E+03 -0.28716403485E+03  0.91552253337E+03  0.46999998093E+01 0.  1.
</event>
<event>
 5   0  0.4981384E-06  0.1800024E+04  0.7818609E-02  0.8706287E-01
       -1   -1    0    0    0  501  0.00000000000E+00  0.00000000000E+00  0.35993246834E+03  0.35993246838E+03  0.50400001928E-02 0. -1.
        1   -1    0    0  501    0  0.00000000000E+00  0.00000000000E+00 -0.22504825307E+04  0.22504825307E+04  0.50400001928E-02 0.  1.
    10030    2    1    2    0    0  0.00000000000E+00  0.00000000000E+00 -0.18905500623E+04  0.26104149991E+04  0.18000241468E+04 0.  0.
        5    1    3    3  502    0 -0.21844957416E+03 -0.27526061520E+03 -0.21468613683E+04  0.21754366108E+04  0.46999998093E+01 0.  1.
       -5    1    3    3    0  502  0.21844957416E+03  0.27526061520E+03  0.25631130596E+03  0.43497838830E+03  0.46999998093E+01 0. -1.
</event>
<event>
 5   0  0.4983159E-06  0.1799758E+04  0.7818609E-02  0.8706428E-01
        1   -1    0    0  501    0  0.00000000000E+00  0.00000000000E+00  0.11482999140E+04  0.11482999140E+04  0.50400001928E-02 0. -1.
       -1   -1    0    0    0  501  0.00000000000E+00  0.00000000000E+00 -0.70520095381E+03  0.70520095383E+03  0.50400001928E-02 0.  1.
    10030    2    1    2    0    0  0.00000000000E+00  0.00000000000E+00  0.44309896014E+03  0.18535008678E+04  0.17997579777E+04 0.  0.
        4    1    3    3  502    0  0.37660225071E+03 -0.68058972813E+03  0.68755335328E+03  0.10381535820E+04  0.12699999809E+01 0. -1.
       -4    1    3    3    0  502 -0.37660225071E+03  0.68058972813E+03 -0.24445439314E+03  0.81534728582E+03  0.12699999809E+01 0.  1.
</event>
<event>
 5   0  0.4987456E-06  0.1798694E+04  0.7818609E-02  0.8706995E-01
       -1   -1    0    0    0  501  0.00000000000E+00  0.00000000000E+00  0.40332414630E+03  0.40332414633E+03  0.50400001928E-02 0. -1.
        1   -1    0    0  501    0  0.00000000000E+00  0.00000000000E+00 -0.20053959706E+04  0.20053959706E+04  0.50400001928E-02 0.  1.
    10030    2    1    2    0    0  0.00000000000E+00  0.00000000000E+00 -0.16020718243E+04  0.24087201170E+04  0.17986935458E+04 0.  0.
        3    1    3    3  502    0 -0.45126053288E+03 -0.46160952314E+03  0.37516972670E+02  0.64662736860E+03  0.10100000352E+00 0. -1.
       -3    1    3    3    0  502  0.45126053288E+03  0.46160952314E+03 -0.16395887970E+04  0.17620927484E+04  0.10100000352E+00 0.  1.
</event>
<event>
 5   0  0.4981384E-06  0.1796865E+04  0.7818609E-02  0.8707968E-01
       -1   -1    0    0    0  501  0.00000000000E+00  0.00000000000E+00  0.38018503302E+03  0.38018503305E+03  0.50400001928E-02 0. -1.
        1   -1    0    0  501    0  0.00000000000E+00  0.00000000000E+00 -0.21231268579E+04  0.21231268579E+04  0.50400001928E-02 0.  1.
    10030    2    1    2    0    0  0.00000000000E+00  0.00000000000E+00 -0.17429418249E+04  0.25033118910E+04  0.17968651086E+04 0.  0.
        5    1    3    3  502    0 -0.38950906285E+03  0.27382479121E+03  0.18994659864E+03  0.51263937291E+03  0.46999998093E+01 0. -1.
       -5    1    3    3    0  502  0.38950906285E+03 -0.27382479121E+03 -0.19328884235E+04  0.19906725181E+04  0.46999998093E+01 0.  1.
</event>
<event>
 5   0  0.4994123E-06  0.1800211E+04  0.7818609E-02  0.8706187E-01
        1   -1    0    0  501    0  0.00000000000E+00  0.00000000000E+00  0.14915208115E+04  0.14915208116E+04  0.50400001928E-02 0.  1.
       -1   -1    0    0    0  501  0.00000000000E+00  0.00000000000E+00 -0.54319732988E+03  0.54319732990E+03  0.50400001928E-02 0. -1.
    10030    2    1    2    0    0  0.00000000000E+00  0.00000000000E+00  0.94832348166E+03  0.20347181415E+04  0.18002112346E+04 0.  0.
        1    1    3    3  502    0  0.75889772526E+03 -0.33870979833E+03  0.86494637910E+03  0.11994925275E+04  0.50400001928E-02 0.  1.
       -1    1    3    3    0  502 -0.75889772526E+03  0.33870979833E+03  0.83377102567E+02  0.83522561392E+03  0.50400001928E-02 0. -1.
</event>
<event>
 5   0  0.3626125E-06  0.1799343E+04  0.7818609E-02  0.8706649E-01
       -3   -1    0    0    0  501  0.00000000000E+00  0.00000000000E+00  0.91877490899E+03  0.91877491454E+03  0.10100000352E+00 0.  1.
        3   -1    0    0  501    0  0.00000000000E+00  0.00000000000E+00 -0.88096576293E+03  0.88096576872E+03  0.10100000352E+00 0. -1.
    10030    2    1    2    0    0  0.00000000000E+00  0.00000000000E+00  0.37809146058E+02  0.17997406833E+04  0.17993434901E+04 0.  0.
        3    1    3    3  502    0  0.18155799978E+03  0.88091576824E+03 -0.19168575251E+01  0.89943292277E+03  0.10100000352E+00 0. -1.
       -3    1    3    3    0  502 -0.18155799978E+03 -0.88091576824E+03  0.39726003583E+02  0.90030776048E+03  0.10100000352E+00 0.  1.
</event>
<event>
 5   0  0.9999162E-06  0.1799669E+04  0.7818609E-02  0.8706476E-01
       -2   -1    0    0    0  501  0.00000000000E+00  0.00000000000E+00  0.57233296163E+03  0.57233296164E+03  0.25500000920E-02 0.  1.
        2   -1    0    0  501    0  0.00000000000E+00  0.00000000000E+00 -0.14147394756E+04  0.14147394756E+04  0.25500000920E-02 0. -1.
    10030    2    1    2    0    0  0.00000000000E+00  0.00000000000E+00 -0.84240651399E+03  0.19870724373E+04  0.17996688962E+04 0.  0.
        1    1    3    3  502    0  0.68126511691E+03  0.13337498767E+03  0.21094594287E+03  0.72554065199E+03  0.50400001928E-02 0.  1.
       -1    1    3    3    0  502 -0.68126511691E+03 -0.13337498767E+03 -0.10533524569E+04  0.12615317853E+04  0.50400001928E-02 0. -1.
</event>
<event>
 5   0  0.4994123E-06  0.1800343E+04  0.7818609E-02  0.8706117E-01
       -1   -1    0    0    0  501  0.00000000000E+00  0.00000000000E+00  0.82963314956E+03  0.82963314958E+03  0.50400001928E-02 0.  1.
        1   -1    0    0  501    0  0.00000000000E+00  0.00000000000E+00 -0.97670703093E+03  0.97670703095E+03  0.50400001928E-02 0. -1.
    10030    2    1    2    0    0  0.00000000000E+00  0.00000000000E+00 -0.14707388137E+03  0.18063401805E+04  0.18003427788E+04 0.  0.
        1    1    3    3  502    0 -0.63452824519E+03  0.61132550183E+03 -0.25844293488E+03  0.91822530663E+03  0.50400001928E-02 0. -1.
       -1    1    3    3    0  502  0.63452824519E+03 -0.61132550183E+03  0.11136905350E+03  0.88811487389E+03  0.50400001928E-02 0.  1.
</event>
<event>
 5   0  0.1036381E-05  0.1800567E+04  0.7818609E-02  0.8705998E-01
       -2   -1    0    0    0  501  0.00000000000E+00  0.00000000000E+00  0.63945069322E+03  0.63945069323E+03  0.25500000920E-02 0. -1.
        2   -1    0    0  501    0  0.00000000000E+00  0.00000000000E+00 -0.12675099188E+04  0.12675099188E+04  0.25500000920E-02 0.  1.
    10030    2    1    2    0    0  0.00000000000E+00  0.00000000000E+00 -0.62805922558E+03  0.19069606120E+04  0.18005666844E+04 0.  0.
        4    1    3    3  502    0 -0.64270286012E+03 -0.21065911112E+03  0.31527278802E+03  0.74621898346E+03  0.12699999809E+01 0. -1.
       -4    1    3    3    0  502  0.64270286012E+03  0.21065911112E+03 -0.94333201360E+03  0.11607416286E+04  0.12699999809E+01 0.  1.
</event>
<event>
 5   0  0.1000316E-05  0.1798561E+04  0.7818609E-02  0.8707065E-01
       -2   -1    0    0    0  501  0.00000000000E+00  0.00000000000E+00  0.63836424692E+03  0.63836424692E+03  0.25500000920E-02 0. -1.
        2   -1    0    0  501    0  0.00000000000E+00  0.00000000000E+00 -0.12668401333E+04  0.12668401333E+04  0.25500000920E-02 0.  1.
    10030    2    1    2    0    0  0.00000000000E+00  0.00000000000E+00 -0.62847588634E+03  0.19052043802E+04  0.17985610333E+04 0.  0.
        5    1    3    3  502    0  0.87354075089E+03  0.11751705032E+03 -0.12533983454E+03  0.89028976446E+03  0.46999998093E+01 0. -1.
       -5    1    3    3    0  502 -0.87354075089E+03 -0.11751705032E+03 -0.50313605180E+03  0.10149146157E+04  0.46999998093E+01 0.  1.
</event>
<event>
 5   0  0.4953155E-06  0.1799989E+04  0.7818609E-02  0.8706305E-01
       -1   -1    0    0    0  501  0.00000000000E+00  0.00000000000E+00  0.59331465777E+03  0.59331465779E+03  0.50400001928E-02 0.  1.
        1   -1    0    0  501    0  0.00000000000E+00  0.00000000000E+00 -0.13651951696E+04  0.13651951696E+04  0.50400001928E-02 0. -1.
    10030    2    1    2    0    0  0.00000000000E+00  0.00000000000E+00 -0.77188051185E+03  0.19585098274E+04  0.17999892276E+04 0.  0.
        2    1    3    3  502    0 -0.21767254521E+01  0.67954245100E+03 -0.10279993283E+04  0.12323008155E+04  0.25500000920E-02 0. -1.
       -2    1    3    3    0  502  0.21767254521E+01 -0.67954245100E+03  0.25611881647E+03  0.72620901192E+03  0.25500000920E-02 0.  1.
</event>
<event>
 5   0  0.4994123E-06  0.1799606E+04  0.7818609E-02  0.8706509E-01
       -1   -1    0    0    0  501  0.00000000000E+00  0.00000000000E+00  0.54742547083E+03  0.54742547085E+03  0.50400001928E-02 0. -1.
        1   -1    0    0  501    0  0.00000000000E+00  0.00000000000E+00 -0.14790056498E+04  0.14790056498E+04  0.50400001928E-02 0.  1.
    10030    2    1    2    0    0  0.00000000000E+00  0.00000000000E+00 -0.93158017899E+03  0.20264311207E+04  0.17996059171E+04 0.  0.
        1    1    3    3  502    0  0.10896253858E+03 -0.33343173300E+03  0.46726010560E+03  0.58427866784E+03  0.50400001928E-02 0. -1.
       -1    1    3    3    0  502 -0.10896253858E+03  0.33343173300E+03 -0.13988402846E+04  0.14421524528E+04  0.50400001928E-02 0.  1.
</event>
<event>
 5   0  0.9589963E-06  0.1797629E+04  0.7818609E-02  0.8707561E-01
       -2   -1    0    0    0  501  0.00000000000E+00  0.00000000000E+00  0.52691759349E+03  0.52691759350E+03  0.25500000920E-02 0. -1.
        2   -1    0    0  501    0  0.00000000000E+00  0.00000000000E+00 -0.15331952735E+04  0.15331952735E+04  0.25500000920E-02 0.  1.
    10030    2    1    2    0    0  0.00000000000E+00  0.00000000000E+00 -0.10062776800E+04  0.20601128670E+04  0.17976290650E+04 0.  0.
        2    1    3    3  502    0 -0.24540231556E+02 -0.47553229208E+02  0.52509042609E+03  0.52781008721E+03  0.25500000920E-02 0. -1.
       -2    1    3    3    0  502  0.24540231556E+02  0.47553229208E+02 -0.15313681061E+04  0.15323027798E+04  0.25500000920E-02 0.  1.
</event>
<event>
 5   0  0.4987456E-06  0.1798649E+04  0.7818609E-02  0.8707018E-01
       -1   -1    0    0    0  501  0.00000000000E+00  0.00000000000E+00  0.67489904785E+03  0.67489904787E+03  0.50400001928E-02 0.  1.
        1   -1    0    0  501    0  0.00000000000E+00  0.00000000000E+00 -0.11983789214E+04  0.11983789214E+04  0.50400001928E-02 0. -1.
    10030    2    1    2    0    0  0.00000000000E+00  0.00000000000E+00 -0.52347987350E+03  0.18732779692E+04  0.17986492632E+04 0.  0.
        3    1    3    3  502    0  0.50207899390E+03  0.50469947576E+03  0.31058776115E+03  0.77670434821E+03  0.10100000352E+00 0.  1.
       -3    1    3    3    0  502 -0.50207899390E+03 -0.50469947576E+03 -0.83406763465E+03  0.10965736210E+04  0.10100000352E+00 0. -1.
</event>
<event>
 5   0  0.4987456E-06  0.1802021E+04  0.7818609E-02  0.8705225E-01
       -1   -1    0    0    0  501  0.00000000000E+00  0.00000000000E+00  0.13046991115E+04  0.13046991115E+04  0.50400001928E-02 0. -1.
        1   -1    0    0  501    0  0.00000000000E+00  0.00000000000E+00 -0.62222792893E+03  0.62222792895E+03  0.50400001928E-02 0.  1.
    10030    2    1    2    0    0  0.00000000000E+00  0.00000000000E+00  0.68247118258E+03  0.19269270405E+04  0.18020213385E+04 0.  0.
        3    1    3    3  502    0  0.25684875619E+03  0.47586074111E+03  0.11118881215E+04  0.12364100992E+04  0.10100000352E+00 0. -1.
       -3    1    3    3    0  502 -0.25684875619E+03 -0.47586074111E+03 -0.42941693895E+03  0.69051694124E+03  0.10100000352E+00 0.  1.
</event>
<event>
 5   0  0.9589963E-06  0.1800260E+04  0.7818609E-02  0.8706161E-01
       -2   -1    0    0    0  501  0.00000000000E+00  0.00000000000E+00  0.75906193135E+03  0.75906193135E+03  0.25500000920E-02 0. -1.
        2   -1    0    0  501    0  0.00000000000E+00  0.00000000000E+00 -0.10674150667E+04  0.10674150667E+04  0.25500000920E-02 0.  1.
    10030    2    1    2    0    0  0.00000000000E+00  0.00000000000E+00 -0.30835313539E+03  0.18264769981E+04  0.18002601391E+04 0.  0.
        2    1    3    3  502    0 -0.71687178827E+03 -0.16917274602E+03 -0.67911803943E+03  0.10018612131E+04  0.25500000920E-02 0.  1.
       -2    1    3    3    0  502  0.71687178827E+03  0.16917274602E+03  0.37076490404E+03  0.82461578501E+03  0.25500000920E-02 0. -1.
</event>
<event>
 5   0  0.4981384E-06  0.1800028E+04  0.7818609E-02  0.8706285E-01
       -1   -1    0    0    0  501  0.00000000000E+00  0.00000000000E+00  0.41425429076E+03  0.41425429079E+03  0.50400001928E-02 0. -1.
        1   -1    0    0  501    0  0.00000000000E+00  0.00000000000E+00 -0.19553812468E+04  0.19553812468E+04  0.50400001928E-02 0.  1.
    10030    2    1    2    0    0  0.00000000000E+00  0.00000000000E+00 -0.15411269561E+04  0.23696355376E+04  0.18000278571E+04 0.  0.
        5    1    3    3  502    0  0.52257215675E+03 -0.55321614001E+03 -0.13802184873E+03  0.77343511512E+03  0.46999998093E+01 0. -1.
       -5    1    3    3    0  502 -0.52257215675E+03  0.55321614001E+03 -0.14031051073E+04  0.15962004225E+04  0.46999998093E+01 0.  1.
</event>
<event>
 5   0  0.1035018E-05  0.1800584E+04  0.7818609E-02  0.8705989E-01
       -2   -1    0    0    0  501  0.00000000000E+00  0.00000000000E+00  0.33865781381E+03  0.33865781382E+03  0.25500000920E-02 0.  1.
        2   -1    0    0  501    0  0.00000000000E+00  0.00000000000E+00 -0.23933470903E+04  0.23933470903E+04  0.25500000920E-02 0. -1.
    10030    2    1    2    0    0  0.00000000000E+00  0.00000000000E+00 -0.20546892764E+04  0.27320049041E+04  0.18005840089E+04 0.  0.
        3    1    3    3  502    0 -0.30953120466E+03 -0.73717045385E+03 -0.16553183906E+04  0.18382896478E+04  0.10100000352E+00 0. -1.
       -3    1    3    3    0  502  0.30953120466E+03  0.73717045385E+03 -0.39937088588E+03  0.89371525632E+03  0.10100000352E+00 0.  1.
</event>
<event>
 5   0  0.1035018E-05  0.1802990E+04  0.7818609E-02  0.8704711E-01
       -2   -1    0    0    0  501  0.00000000000E+00  0.00000000000E+00  0.53915017931E+03  0.53915017931E+03  0.25500000920E-02 0.  1.
        2   -1    0    0  501    0  0.00000000000E+00  0.00000000000E+00 -0.15073603089E+04  0.15073603089E+04  0.25500000920E-02 0. -1.
    10030    2    1    2    0    0  0.00000000000E+00  0.00000000000E+00 -0.96821012959E+03  0.20465104882E+04  0.18029903836E+04 0.  0.
        3    1    3    3  502    0 -0.24758520921E+02 -0.25856867149E+03  0.49575405579E+03  0.55968101296E+03  0.10100000352E+00 0.  1.
       -3    1    3    3    0  502  0.24758520921E+02  0.25856867149E+03 -0.14639641854E+04  0.14868294753E+04  0.10100000352E+00 0. -1.
</event>
<event>
 5   0  0.9589963E-06  0.1799554E+04  0.7818609E-02  0.8706536E-01
       -2   -1    0    0    0  501  0.00000000000E+00  0.00000000000E+00  0.10147213535E+04  0.10147213535E+04  0.25500000920E-02 0. -1.
        2   -1    0    0  501    0  0.00000000000E+00  0.00000000000E+00 -0.79785357989E+03  0.79785357990E+03  0.25500000920E-02 0.  1.
    10030    2    1    2    0    0  0.00000000000E+00  0.00000000000E+00  0.21686777360E+03  0.18125749334E+04  0.17995544609E+04 0.  0.
        2    1    3    3  502    0  0.57042855415E+03  0.33669523835E+03  0.72181182696E+03  0.97967583029E+03  0.25500000920E-02 0. -1.
       -2    1    3    3    0  502 -0.57042855415E+03 -0.33669523835E+03 -0.50494405336E+03  0.83289910310E+03  0.25500000920E-02 0.  1.
</event>
<event>
 5   0  0.4983159E-06  0.1799996E+04  0.7818609E-02  0.8706301E-01
       -1   -1    0    0    0  501  0.00000000000E+00  0.00000000000E+00  0.71381815784E+03  0.71381815785E+03  0.50400001928E-02 0. -1.
        1   -1    0    0  501    0  0.00000000000E+00  0.00000000000E+00 -0.11347380897E+04  0.11347380897E+04  0.50400001928E-02 0.  1.
    10030    2    1    2    0    0  0.00000000000E+00  0.00000000000E+00 -0.42091993190E+03  0.18485562476E+04  0.17999962810E+04 0.  0.
        4    1    3    3  502    0  0.58679396227E+03  0.17891066671E+03 -0.88675340381E+03  0.10782714838E+04  0.12699999809E+01 0.  1.
       -4    1    3    3    0  502 -0.58679396227E+03 -0.17891066671E+03  0.46583347191E+03  0.77028476375E+03  0.12699999809E+01 0. -1.
</event>
<event>
 5   0  0.9999162E-06  0.1800365E+04  0.7818609E-02  0.8706106E-01
       -2   -1    0    0    0  501  0.00000000000E+00  0.00000000000E+00  0.75000241786E+03  0.75000241787E+03  0.25500000920E-02 0.  1.
        2   -1    0    0  501    0  0.00000000000E+00  0.00000000000E+00 -0.10804341351E+04  0.10804341351E+04  0.25500000920E-02 0. -1.
    10030    2    1    2    0    0  0.00000000000E+00  0.00000000000E+00 -0.33043171721E+03  0.18304365529E+04  0.18003646449E+04 0.  0.
        1    1    3    3  502    0 -0.69971606544E+02 -0.81443782052E+03  0.21807347183E+03  0.84602661209E+03  0.50400001928E-02 0.  1.
       -1    1    3    3    0  502  0.69971606544E+02  0.81443782052E+03 -0.54850518904E+03  0.98440994085E+03  0.50400001928E-02 0. -1.
</event>
<event>
 5   0  0.9589963E-06  0.1800060E+04  0.7818609E-02  0.8706267E-01
       -2   -1    0    0    0  501  0.00000000000E+00  0.00000000000E+00  0.41254173505E+03  0.41254173505E+03  0.25500000920E-02 0.  1.
        2   -1    0    0  501    0  0.00000000000E+00  0.00000000000E+00 -0.19635690163E+04  0.19635690163E+04  0.25500000920E-02 0. -1.
    10030    2    1    2    0    0  0.00000000000E+00  0.00000000000E+00 -0.15510272813E+04  0.23761107514E+04  0.18000601866E+04 0.  0.
        2    1    3    3  502    0 -0.54297496019E+03 -0.68305358267E+03 -0.10667268435E+04  0.13781473662E+04  0.25500000920E-02 0.  1.
       -2    1    3    3    0  502  0.54297496019E+03  0.68305358267E+03 -0.48430043775E+03  0.99796338520E+03  0.25500000920E-02 0. -1.
</event>
<event>
 5   0  0.9999162E-06  0.1800064E+04  0.7818609E-02  0.8706265E-01
        2   -1    0    0  501    0  0.00000000000E+00  0.00000000000E+00  0.11547138110E+04  0.11547138110E+04  0.25500000920E-02 0. -1.
       -2   -1    0    0    0  501  0.00000000000E+00  0.00000000000E+00 -0.70152236182E+03  0.70152236183E+03  0.25500000920E-02 0.  1.
    10030    2    1    2    0    0  0.00000000000E+00  0.00000000000E+00  0.45319144915E+03  0.18562361728E+04  0.18000639543E+04 0.  0.
        1    1    3    3  502    0 -0.40152147295E+03 -0.76956566175E+03  0.47194198391E+03  0.98801823728E+03  0.50400001928E-02 0. -1.
       -1    1    3    3    0  502  0.40152147295E+03  0.76956566175E+03 -0.18750534766E+02  0.86821793553E+03  0.50400001928E-02 0.  1.
</event>
<event>
 5   0  0.1035018E-05  0.1803931E+04  0.7818609E-02  0.8704212E-01
        2   -1    0    0  501    0  0.00000000000E+00  0.00000000000E+00  0.96337729569E+03  0.96337729569E+03  0.25500000920E-02 0. -1.
       -2   -1    0    0    0  501  0.00000000000E+00  0.00000000000E+00 -0.84446845430E+03  0.84446845431E+03  0.25500000920E-02 0.  1.
    10030    2    1    2    0    0  0.00000000000E+00  0.00000000000E+00  0.11890884139E+03  0.18078457500E+04  0.18039309696E+04 0.  0.
        3    1    3    3  502    0 -0.66709594319E+03  0.54924812103E+03  0.31857157074E+03  0.92096598838E+03  0.10100000352E+00 0. -1.
       -3    1    3    3    0  502  0.66709594319E+03 -0.54924812103E+03 -0.19966272935E+03  0.88687976162E+03  0.10100000352E+00 0.  1.
</event>
<event>
 5   0  0.4953155E-06  0.1799613E+04  0.7818609E-02  0.8706505E-01
        1   -1    0    0  501    0  0.00000000000E+00  0.00000000000E+00  0.11807439342E+04  0.11807439343E+04  0.50400001928E-02 0.  1.
       -1   -1    0    0    0  501  0.00000000000E+00  0.00000000000E+00 -0.68571335310E+03  0.68571335312E+03  0.50400001928E-02 0. -1.
    10030    2    1    2    0    0  0.00000000000E+00  0.00000000000E+00  0.49503058114E+03  0.18664572874E+04  0.17996131610E+04 0.  0.
        2    1    3    3  502    0  0.23586586665E+03  0.30355164297E+01 -0.65307536576E+03  0.69436975365E+03  0.25500000920E-02 0. -1.
       -2    1    3    3    0  502 -0.23586586665E+03 -0.30355164297E+01  0.11481059469E+04  0.11720875337E+04  0.25500000920E-02 0.  1.
</event>
<event>
 5   0  0.9999162E-06  0.1799826E+04  0.7818609E-02  0.8706392E-01
       -2   -1    0    0    0  501  0.00000000000E+00  0.00000000000E+00  0.71455601697E+03  0.71455601698E+03  0.25500000920E-02 0.  1.
        2   -1    0    0  501    0  0.00000000000E+00  0.00000000000E+00 -0.11333519357E+04  0.11333519357E+04  0.25500000920E-02 0. -1.
    10030    2    1    2    0    0  0.00000000000E+00  0.00000000000E+00 -0.41879591877E+03  0.18479079527E+04  0.17998260416E+04 0.  0.
        1    1    3    3  502    0  0.48940855093E+03  0.32733835243E+03  0.48935088243E+03  0.76559480984E+03  0.50400001928E-02 0.  1.
       -1    1    3    3    0  502 -0.48940855093E+03 -0.32733835243E+03 -0.90814680120E+03  0.10823131429E+04  0.50400001928E-02 0. -1.
</event>
<event>
 5   0  0.1036381E-05  0.1801097E+04  0.7818609E-02  0.8705717E-01
        2   -1    0    0  501    0  0.00000000000E+00  0.00000000000E+00  0.12756149465E+04  0.12756149465E+04  0.25500000920E-02 0.  1.
       -2   -1    0    0    0  501  0.00000000000E+00  0.00000000000E+00 -0.63576173111E+03  0.63576173111E+03  0.25500000920E-02 0. -1.
    10030    2    1    2    0    0  0.00000000000E+00  0.00000000000E+00  0.63985321538E+03  0.19113766776E+04  0.18010965178E+04 0.  0.
        4    1    3    3  502    0  0.89257010373E+03  0.51139422063E+02  0.43466177354E+03  0.99409712847E+03  0.12699999809E+01 0.  1.
       -4    1    3    3    0  502 -0.89257010373E+03 -0.51139422063E+02  0.20519144185E+03  0.91727954914E+03  0.12699999809E+01 0. -1.
</event>
<event>
 5   0  0.4994123E-06  0.1800877E+04  0.7818609E-02  0.8705833E-01
        1   -1    0    0  501    0  0.00000000000E+00  0.00000000000E+00  0.82971482777E+03  0.82971482779E+03  0.50400001928E-02 0. -1.
       -1   -1    0    0    0  501  0.00000000000E+00  0.00000000000E+00 -0.97719032517E+03  0.97719032519E+03  0.50400001928E-02 0.  1.
    10030    2    1    2    0    0  0.00000000000E+00  0.00000000000E+00 -0.14747549740E+03  0.18069051530E+04  0.18008767891E+04 0.  0.
        1    1    3    3  502    0 -0.65383479031E+03  0.11164607000E+03  0.53725433025E+03  0.85358478979E+03  0.50400001928E-02 0. -1.
       -1    1    3    3    0  502  0.65383479031E+03 -0.11164607000E+03 -0.68472982765E+03  0.95332036318E+03  0.50400001928E-02 0.  1.
</event>
<event>
 5   0  0.4953155E-06  0.1800382E+04  0.7818609E-02  0.8706096E-01
       -1   -1    0    0    0  501  0.00000000000E+00  0.00000000000E+00  0.11524008244E+04  0.11524008244E+04  0.50400001928E-02 0.  1.
        1   -1    0    0  501    0  0.00000000000E+00  0.00000000000E+00 -0.70317883299E+03  0.70317883301E+03  0.50400001928E-02 0. -1.
    10030    2    1    2    0    0  0.00000000000E+00  0.00000000000E+00  0.44922199141E+03  0.18555796574E+04  0.18003820338E+04 0.  0.
        2    1    3    3  502    0 -0.54324511252E+03 -0.61713808463E+03  0.60241346889E+03  0.10192529889E+04  0.25500000920E-02 0.  1.
       -2    1    3    3    0  502  0.54324511252E+03  0.61713808463E+03 -0.15319147748E+03  0.83632666857E+03  0.25500000920E-02 0. -1.
</event>
<event>
 5   0  0.4981384E-06  0.1800960E+04  0.7818609E-02  0.8705789E-01
       -1   -1    0    0    0  501  0.00000000000E+00  0.00000000000E+00  0.92562859550E+03  0.92562859551E+03  0.50400001928E-02 0. -1.
        1   -1    0    0  501    0  0.00000000000E+00  0.00000000000E+00 -0.87601491613E+03  0.87601491614E+03  0.50400001928E-02 0.  1.
    10030    2    1    2    0    0  0.00000000000E+00  0.00000000000E+00  0.49613679367E+02  0.18016435117E+04  0.18009602511E+04 0.  0.
        5    1    3    3  502    0 -0.56915733449E+01 -0.90039595166E+03  0.14949030410E+02  0.90055029136E+03  0.46999998093E+01 0. -1.
       -5    1    3    3    0  502  0.56915733449E+01  0.90039595166E+03  0.34664648956E+02  0.90109322029E+03  0.46999998093E+01 0.  1.
</event>
<event>
 5   0  0.3626125E-06  0.1799938E+04  0.7818609E-02  0.8706332E-01
        3   -1    0    0  501    0  0.00000000000E+00  0.00000000000E+00  0.10254996778E+04  0.10254996828E+04  0.10100000352E+00 0.  1.
       -3   -1    0    0    0  501  0.00000000000E+00  0.00000000000E+00 -0.78980446651E+03  0.78980447297E+03  0.10100000352E+00 0. -1.
    10030    2    1    2    0    0  0.00000000000E+00  0.00000000000E+00  0.23569521131E+03  0.18153041558E+04  0.17999380393E+04 0.  0.
        3    1    3    3  502    0 -0.12160380402E+03 -0.46264567342E+03  0.88666492672E+03  0.10074736755E+04  0.10100000352E+00 0.  1.
       -3    1    3    3    0  502  0.12160380402E+03  0.46264567342E+03 -0.65096971542E+03  0.80783048028E+03  0.10100000352E+00 0. -1.
</event>
<event>
 5   0  0.4987456E-06  0.1799566E+04  0.7818609E-02  0.8706530E-01
       -1   -1    0    0    0  501  0.00000000000E+00  0.00000000000E+00  0.71189353887E+03  0.71189353889E+03  0.50400001928E-02 0. -1.
        1   -1    0    0  501    0  0.00000000000E+00  0.00000000000E+00 -0.11372625457E+04  0.11372625457E+04  0.50400001928E-02 0.  1.
    10030    2    1    2    0    0  0.00000000000E+00  0.00000000000E+00 -0.42536900685E+03  0.18491560846E+04  0.17995664570E+04 0.  0.
        3    1    3    3  502    0 -0.42782658732E+03  0.38778708094E+03 -0.92176950133E+03  0.10876917912E+04  0.10100000352E+00 0.  1.
       -3    1    3    3    0  502  0.42782658732E+03 -0.38778708094E+03  0.49640049448E+03  0.76146429338E+03  0.10100000352E+00 0. -1.
</event>
<event>
 5   0  0.1036381E-05  0.1799532E+04  0.7818609E-02  0.8706549E-01
        2   -1    0    0  501    0  0.00000000000E+00  0.00000000000E+00  0.12696533956E+04  0.12696533956E+04  0.25500000920E-02 0. -1.
       -2   -1    0    0    0  501  0.00000000000E+00  0.00000000000E+00 -0.63763745206E+03  0.63763745207E+03  0.25500000920E-02 0.  1.
    10030    2    1    2    0    0  0.00000000000E+00  0.00000000000E+00  0.63201594351E+03  0.19072908476E+04  0.17995316681E+04 0.  0.
        4    1    3    3  502    0  0.40761511431E+03  0.69531690442E+03  0.73990936599E+03  0.10941129566E+04  0.12699999809E+01 0. -1.
       -4    1    3    3    0  502 -0.40761511431E+03 -0.69531690442E+03 -0.10789342248E+03  0.81317789106E+03  0.12699999809E+01 0.  1.
</event>
<event>
 5   0  0.4994123E-06  0.1801176E+04  0.7818609E-02  0.8705674E-01
       -1   -1    0    0    0  501  0.00000000000E+00  0.00000000000E+00  0.39525036922E+03  0.39525036926E+03  0.50400001928E-02 0.  1.
        1   -1    0    0  501    0  0.00000000000E+00  0.00000000000E+00 -0.20520120874E+04  0.20520120874E+04  0.50400001928E-02 0. -1.
    10030    2    1    2    0    0  0.00000000000E+00  0.00000000000E+00 -0.16567617182E+04  0.24472624566E+04  0.18011757663E+04 0.  0.
        1    1    3    3  502    0 -0.11691477277E+01 -0.29220854083E+03  0.32904834786E+03  0.44006819187E+03  0.50400001928E-02 0.  1.
       -1    1    3    3    0  502  0.11691477277E+01  0.29220854083E+03 -0.19858100660E+04  0.20071942648E+04  0.50400001928E-02 0. -1.
</event>
<event>
 5   0  0.1000316E-05  0.1800954E+04  0.7818609E-02  0.8705792E-01
       -2   -1    0    0    0  501  0.00000000000E+00  0.00000000000E+00  0.48019596598E+03  0.48019596599E+03  0.25500000920E-02 0.  1.
        2   -1    0    0  501    0  0.00000000000E+00  0.00000000000E+00 -0.16885992919E+04  0.16885992919E+04  0.25500000920E-02 0. -1.
    10030    2    1    2    0    0  0.00000000000E+00  0.00000000000E+00 -0.12084033259E+04  0.21687952579E+04  0.18009537119E+04 0.  0.
        5    1    3    3  502    0 -0.21801166796E+02 -0.58118674111E+03 -0.14320582808E+04  0.15456604829E+04  0.46999998093E+01 0. -1.
       -5    1    3    3    0  502  0.21801166796E+02  0.58118674111E+03  0.22365495488E+03  0.62313477495E+03  0.46999998093E+01 0.  1.
</event>
<event>
 5   0  0.1000316E-05  0.1800110E+04  0.7818609E-02  0.8706241E-01
       -2   -1    0    0    0  501  0.00000000000E+00  0.00000000000E+00  0.40310656935E+03  0.40310656936E+03  0.25500000920E-02 0. -1.
        2   -1    0    0  501    0  0.00000000000E+00  0.00000000000E+00 -0.20096396625E+04  0.20096396625E+04  0.25500000920E-02 0.  1.
    10030    2    1    2    0    0  0.00000000000E+00  0.00000000000E+00 -0.16065330932E+04  0.24127462319E+04  0.18001099411E+04 0.  0.
        5    1    3    3  502    0  0.47790567802E+03 -0.84548085068E+02 -0.18192127847E+04  0.18828434512E+04  0.46999998093E+01 0.  1.
       -5    1    3    3    0  502 -0.47790567802E+03  0.84548085068E+02  0.21267969153E+03  0.52990278067E+03  0.46999998093E+01 0. -1.
</event>
<event>
 5   0  0.1000316E-05  0.1810908E+04  0.7818609E-02  0.8700520E-01
        2   -1    0    0  501    0  0.00000000000E+00  0.00000000000E+00  0.18959604526E+04  0.18959604526E+04  0.25500000920E-02 0. -1.
       -2   -1    0    0    0  501  0.00000000000E+00  0.00000000000E+00 -0.43241795642E+03  0.43241795643E+03  0.25500000920E-02 0.  1.
    10030    2    1    2    0    0  0.00000000000E+00  0.00000000000E+00  0.14635424962E+04  0.23283784090E+04  0.18109084399E+04 0.  0.
        5    1    3    3  502    0 -0.45079854318E+03  0.62572711593E+03  0.12178881574E+03  0.78077420281E+03  0.46999998093E+01 0.  1.
       -5    1    3    3    0  502  0.45079854318E+03 -0.62572711593E+03  0.13417536804E+04  0.15476042062E+04  0.46999998093E+01 0. -1.
</event>
<event>
 5   0  0.9589963E-06  0.1800468E+04  0.7818609E-02  0.8706051E-01
       -2   -1    0    0    0  501  0.00000000000E+00  0.00000000000E+00  0.62500007481E+03  0.62500007481E+03  0.25500000920E-02 0.  1.
        2   -1    0    0  501    0  0.00000000000E+00  0.00000000000E+00 -0.12966740969E+04  0.12966740969E+04  0.25500000920E-02 0. -1.
    10030    2    1    2    0    0  0.00000000000E+00  0.00000000000E+00 -0.67167402208E+03  0.19216741717E+04  0.18004681697E+04 0.  0.
        2    1    3    3  502    0 -0.21753321834E+03  0.86076417382E+03 -0.49481291360E+03  0.10164032091E+04  0.25500000920E-02 0. -1.
       -2    1    3    3    0  502  0.21753321834E+03 -0.86076417382E+03 -0.17686110848E+03  0.90527096259E+03  0.25500000920E-02 0.  1.
</event>
<event>
 5   0  0.4983159E-06  0.1799664E+04  0.7818609E-02  0.8706478E-01
       -1   -1    0    0    0  501  0.00000000000E+00  0.00000000000E+00  0.48581277286E+03  0.48581277288E+03  0.50400001928E-02 0.  1.
        1   -1    0    0  501    0  0.00000000000E+00  0.00000000000E+00 -0.16666863878E+04  0.16666863878E+04  0.50400001928E-02 0. -1.
    10030    2    1    2    0    0  0.00000000000E+00  0.00000000000E+00 -0.11808736149E+04  0.21524991607E+04  0.17996638970E+04 0.  0.
        4    1    3    3  502    0 -0.45567574383E+03  0.35809478646E+03  0.23286668810E+03  0.62458047275E+03  0.12699999809E+01 0.  1.
       -4    1    3    3    0  502  0.45567574383E+03 -0.35809478646E+03 -0.14137403030E+04  0.15279186879E+04  0.12699999809E+01 0. -1.
</event>
<event>
 5   0  0.9999162E-06  0.1800471E+04  0.7818609E-02  0.8706049E-01
        2   -1    0    0  501    0  0.00000000000E+00  0.00000000000E+00  0.23327769052E+04  0.23327769052E+04  0.25500000920E-02 0. -1.
       -2   -1    0    0    0  501  0.00000000000E+00  0.00000000000E+00 -0.34740727219E+03  0.34740727220E+03  0.25500000920E-02 0.  1.
    10030    2    1    2    0    0  0.00000000000E+00  0.00000000000E+00  0.19853696330E+04  0.26801841774E+04  0.18004706732E+04 0.  0.
        1    1    3    3  502    0  0.17789607871E+02 -0.86561033226E+03  0.13598174718E+04  0.16120487815E+04  0.50400001928E-02 0.  1.
       -1    1    3    3    0  502 -0.17789607871E+02  0.86561033226E+03  0.62555216125E+03  0.10681353959E+04  0.50400001928E-02 0. -1.
</event>
<event>
 5   0  0.1000316E-05  0.1798734E+04  0.7818609E-02  0.8706973E-01
       -2   -1    0    0    0  501  0.00000000000E+00  0.00000000000E+00  0.63120072215E+03  0.63120072216E+03  0.25500000920E-02 0. -1.
        2   -1    0    0  501    0  0.00000000000E+00  0.00000000000E+00 -0.12814636253E+04  0.12814636253E+04  0.25500000920E-02 0.  1.
    10030    2    1    2    0    0  0.00000000000E+00  0.00000000000E+00 -0.65026290313E+03  0.19126643474E+04  0.17987337387E+04 0.  0.
        5    1    3    3  502    0 -0.32403941900E+03  0.47584274626E+02 -0.12157839166E+04  0.12591340001E+04  0.46999998093E+01 0.  1.
       -5    1    3    3    0  502  0.32403941900E+03 -0.47584274626E+02  0.56552101347E+03  0.65353034737E+03  0.46999998093E+01 0. -1.
</event>
<event>
 5   0  0.1036381E-05  0.1799497E+04  0.7818609E-02  0.8706567E-01
       -2   -1    0    0    0  501  0.00000000000E+00  0.00000000000E+00  0.10563161700E+04  0.10563161700E+04  0.25500000920E-02 0. -1.
        2   -1    0    0  501    0  0.00000000000E+00  0.00000000000E+00 -0.76638751300E+03  0.76638751300E+03  0.25500000920E-02 0.  1.
    10030    2    1    2    0    0  0.00000000000E+00  0.00000000000E+00  0.28992865702E+03  0.18227036830E+04  0.17994971770E+04 0.  0.
        4    1    3    3  502    0  0.48937552732E+03 -0.48629766387E+03  0.72996956183E+03  0.10044057939E+04  0.12699999809E+01 0. -1.
       -4    1    3    3    0  502 -0.48937552732E+03  0.48629766387E+03 -0.44004090481E+03  0.81829788918E+03  0.12699999809E+01 0.  1.
</event>
<event>
 5   0  0.1035018E-05  0.1799354E+04  0.7818609E-02  0.8706643E-01
       -2   -1    0    0    0  501  0.00000000000E+00  0.00000000000E+00  0.98818908309E+03  0.98818908309E+03  0.25500000920E-02 0.  1.
        2   -1    0    0  501    0  0.00000000000E+00  0.00000000000E+00 -0.81909311098E+03  0.81909311098E+03  0.25500000920E-02 0. -1.
    10030    2    1    2    0    0  0.00000000000E+00  0.00000000000E+00  0.16909597211E+03  0.18072821941E+04  0.17993541845E+04 0.  0.
        3    1    3    3  502    0 -0.49442527223E+03  0.66849310101E+03  0.42968897191E+03  0.93593375765E+03  0.10100000352E+00 0. -1.
       -3    1    3    3    0  502  0.49442527223E+03 -0.66849310101E+03 -0.26059299980E+03  0.87134843643E+03  0.10100000352E+00 0.  1.
</event>
<event>
 5   0  0.1000316E-05  0.1799302E+04  0.7818609E-02  0.8706671E-01
       -2   -1    0    0    0  501  0.00000000000E+00  0.00000000000E+00  0.53215497889E+03  0.53215497890E+03  0.25500000920E-02 0. -1.
        2   -1    0    0  501    0  0.00000000000E+00  0.00000000000E+00 -0.15209322395E+04  0.15209322395E+04  0.25500000920E-02 0.  1.
    10030    2    1    2    0    0  0.00000000000E+00  0.00000000000E+00 -0.98877726059E+03  0.20530872184E+04  0.17993017132E+04 0.  0.
        5    1    3    3  502    0 -0.36116695953E+03  0.35958003047E+03 -0.13403115635E+04  0.14339444020E+04  0.46999998093E+01 0.  1.
       -5    1    3    3    0  502  0.36116695953E+03 -0.35958003047E+03  0.35153430286E+03  0.61914281636E+03  0.46999998093E+01 0. -1.
</event>
<event>
 5   0  0.4983159E-06  0.1800589E+04  0.7818609E-02  0.8705986E-01
        1   -1    0    0  501    0  0.00000000000E+00  0.00000000000E+00  0.96454052541E+03  0.96454052543E+03  0.50400001928E-02 0. -1.
       -1   -1    0    0    0  501  0.00000000000E+00  0.00000000000E+00 -0.84032795222E+03  0.84032795223E+03  0.50400001928E-02 0.  1.
    10030    2    1    2    0    0  0.00000000000E+00  0.00000000000E+00  0.12421257320E+03  0.18048684777E+04  0.18005891975E+04 0.  0.
        4    1    3    3  502    0 -0.44797091683E+03  0.70204382125E+03  0.40495027091E+03  0.92602905143E+03  0.12699999809E+01 0. -1.
       -4    1    3    3    0  502  0.44797091683E+03 -0.70204382125E+03 -0.28073769771E+03  0.87883942623E+03  0.12699999809E+01 0.  1.
</event>
<event>
 5   0  0.4987456E-06  0.1799684E+04  0.7818609E-02  0.8706468E-01
       -1   -1    0    0    0  501  0.00000000000E+00  0.00000000000E+00  0.37307526665E+03  0.37307526669E+03  0.50400001928E-02 0. -1.
        1   -1    0    0  501    0  0.00000000000E+00  0.00000000000E+00 -0.21703814375E+04  0.21703814376E+04  0.50400001928E-02 0.  1.
    10030    2    1    2    0    0  0.00000000000E+00  0.00000000000E+00 -0.17973061709E+04  0.25434567042E+04  0.17996840096E+04 0.  0.
        3    1    3    3  502    0 -0.61883072251E+03  0.53227024979E+03 -0.36337160901E+03  0.89347748621E+03  0.10100000352E+00 0.  1.
       -3    1    3    3    0  502  0.61883072251E+03 -0.53227024979E+03 -0.14339345619E+04  0.16499792180E+04  0.10100000352E+00 0. -1.
</event>
<event>
 5   0  0.4981384E-06  0.1801288E+04  0.7818609E-02  0.8705615E-01
        1   -1    0    0  501    0  0.00000000000E+00  0.00000000000E+00  0.72031521599E+03  0.72031521601E+03  0.50400001928E-02 0. -1.
       -1   -1    0    0    0  501  0.00000000000E+00  0.00000000000E+00 -0.11261175201E+04  0.11261175201E+04  0.50400001928E-02 0.  1.
    10030    2    1    2    0    0  0.00000000000E+00  0.00000000000E+00 -0.40580230413E+03  0.18464327361E+04  0.18012879667E+04 0.  0.
        5    1    3    3  502    0 -0.15476823737E+03  0.88150188398E+03 -0.30611591579E+03  0.94590053529E+03  0.46999998093E+01 0.  1.
       -5    1    3    3    0  502  0.15476823737E+03 -0.88150188398E+03 -0.99686388339E+02  0.90053220085E+03  0.46999998093E+01 0. -1.
</event>
<event>
 5   0  0.9999162E-06  0.1800103E+04  0.7818609E-02  0.8706245E-01
       -2   -1    0    0    0  501  0.00000000000E+00  0.00000000000E+00  0.48955848066E+03  0.48955848067E+03  0.25500000920E-02 0.  1.
        2   -1    0    0  501    0  0.00000000000E+00  0.00000000000E+00 -0.16547418022E+04  0.16547418022E+04  0.25500000920E-02 0. -1.
    10030    2    1    2    0    0  0.00000000000E+00  0.00000000000E+00 -0.11651833216E+04  0.21443002829E+04  0.18001031999E+04 0.  0.
        1    1    3    3  502    0 -0.78390692357E+03  0.82469378844E+01 -0.55873825438E+02  0.78593890424E+03  0.50400001928E-02 0.  1.
       -1    1    3    3    0  502  0.78390692357E+03 -0.82469378844E+01 -0.11093094961E+04  0.13583613787E+04  0.50400001928E-02 0. -1.
</event>
<event>
 5   0  0.1000316E-05  0.1800060E+04  0.7818609E-02  0.8706268E-01
       -2   -1    0    0    0  501  0.00000000000E+00  0.00000000000E+00  0.33054723993E+03  0.33054723994E+03  0.25500000920E-02 0. -1.
        2   -1    0    0  501    0  0.00000000000E+00  0.00000000000E+00 -0.24506450850E+04  0.24506450850E+04  0.25500000920E-02 0.  1.
    10030    2    1    2    0    0  0.00000000000E+00  0.00000000000E+00 -0.21200978451E+04  0.27811923250E+04  0.18000599645E+04 0.  0.
        5    1    3    3  502    0 -0.21248905804E+03 -0.44845854360E+03 -0.22201429394E+04  0.22749337191E+04  0.46999998093E+01 0.  1.
       -5    1    3    3    0  502  0.21248905804E+03  0.44845854360E+03  0.10004509427E+03  0.50625860586E+03  0.46999998093E+01 0. -1.
</event>
<event>
 5   0  0.4981384E-06  0.1798854E+04  0.7818609E-02  0.8706909E-01
        1   -1    0    0  501    0  0.00000000000E+00  0.00000000000E+00  0.18269358112E+04  0.18269358112E+04  0.50400001928E-02 0.  1.
       -1   -1    0    0    0  501  0.00000000000E+00  0.00000000000E+00 -0.44280105933E+03  0.44280105936E+03  0.50400001928E-02 0. -1.
    10030    2    1    2    0    0  0.00000000000E+00  0.00000000000E+00  0.13841347519E+04  0.22697368706E+04  0.17988542049E+04 0.  0.
        5    1    3    3  502    0 -0.14371367342E+02 -0.86887927342E+03  0.39943156495E+03  0.95641277337E+03  0.46999998093E+01 0. -1.
       -5    1    3    3    0  502  0.14371367342E+02  0.86887927342E+03  0.98470318695E+03  0.13133240972E+04  0.46999998093E+01 0.  1.
</event>
<event>
 5   0  0.4994123E-06  0.1800621E+04  0.7818609E-02  0.8705969E-01
        1   -1    0    0  501    0  0.00000000000E+00  0.00000000000E+00  0.11903888948E+04  0.11903888948E+04  0.50400001928E-02 0. -1.
       -1   -1    0    0    0  501  0.00000000000E+00  0.00000000000E+00 -0.68091983817E+03  0.68091983819E+03  0.50400001928E-02 0.  1.
    10030    2    1    2    0    0  0.00000000000E+00  0.00000000000E+00  0.50946905660E+03  0.18713087330E+04  0.18006214634E+04 0.  0.
        1    1    3    3  502    0  0.71545141132E+03  0.30152523035E+03  0.72844798745E+03  0.10646241858E+04  0.50400001928E-02 0. -1.
       -1    1    3    3    0  502 -0.71545141132E+03 -0.30152523035E+03 -0.21897893085E+03  0.80668454719E+03  0.50400001928E-02 0.  1.
</event>
<event>
 5   0  0.9589963E-06  0.1800562E+04  0.7818609E-02  0.8706001E-01
       -2   -1    0    0    0  501  0.00000000000E+00  0.00000000000E+00  0.11905812740E+04  0.11905812740E+04  0.25500000920E-02 0.  1.
        2   -1    0    0  501    0  0.00000000000E+00  0.00000000000E+00 -0.68076468749E+03  0.68076468749E+03  0.25500000920E-02 0. -1.
    10030    2    1    2    0    0  0.00000000000E+00  0.00000000000E+00  0.50981658653E+03  0.18713459615E+04  0.18005617889E+04 0.  0.
        2    1    3    3  502    0 -0.65189378075E+03  0.22287704918E+03 -0.34741419936E+03  0.77158039526E+03  0.25500000920E-02 0. -1.
       -2    1    3    3    0  502  0.65189378075E+03 -0.22287704918E+03  0.85723078589E+03  0.10997655663E+04  0.25500000920E-02 0.  1.
</event>
<event>
 5   0  0.4994123E-06  0.1799778E+04  0.7818609E-02  0.8706417E-01
       -1   -1    0    0    0  501  0.00000000000E+00  0.00000000000E+00  0.77465051650E+03  0.77465051652E+03  0.50400001928E-02 0. -1.
        1   -1    0    0  501    0  0.00000000000E+00  0.00000000000E+00 -0.10453750233E+04  0.10453750233E+04  0.50400001928E-02 0.  1.
    10030    2    1    2    0    0  0.00000000000E+00  0.00000000000E+00 -0.27072450676E+03  0.18200255398E+04  0.17997780994E+04 0.  0.
        1    1    3    3  502    0  0.15128410048E+03  0.51753170174E+03  0.59321114165E+03  0.80163919562E+03  0.50400001928E-02 0. -1.
       -1    1    3    3    0  502 -0.15128410048E+03 -0.51753170174E+03 -0.86393564840E+03  0.10183863442E+04  0.50400001928E-02 0.  1.
</event>
<event>
 5   0  0.1036381E-05  0.1799703E+04  0.7818609E-02  0.8706457E-01
       -2   -1    0    0    0  501  0.00000000000E+00  0.00000000000E+00  0.61418722639E+03  0.61418722640E+03  0.25500000920E-02 0.  1.
        2   -1    0    0  501    0  0.00000000000E+00  0.00000000000E+00 -0.13183808482E+04  0.13183808482E+04  0.25500000920E-02 0. -1.
    10030    2    1    2    0    0  0.00000000000E+00  0.00000000000E+00 -0.70419362182E+03  0.19325680746E+04  0.17997029494E+04 0.  0.
        4    1    3    3  502    0  0.41887806418E+03 -0.72673730384E+03 -0.22780685800E+01  0.83881627543E+03  0.12699999809E+01 0.  1.
       -4    1    3    3    0  502 -0.41887806418E+03  0.72673730384E+03 -0.70191555324E+03  0.10937517992E+04  0.12699999809E+01 0. -1.
</event>
<event>
 5   0  0.9999162E-06  0.1800219E+04  0.7818609E-02  0.8706183E-01
        2   -1    0    0  501    0  0.00000000000E+00  0.00000000000E+00  0.10241297342E+04  0.10241297342E+04  0.25500000920E-02 0.  1.
       -2   -1    0    0    0  501  0.00000000000E+00  0.00000000000E+00 -0.79110747990E+03  0.79110747990E+03  0.25500000920E-02 0. -1.
    10030    2    1    2    0    0  0.00000000000E+00  0.00000000000E+00  0.23302225435E+03  0.18152372141E+04  0.18002185347E+04 0.  0.
        1    1    3    3  502    0  0.49957740546E+03 -0.31263209320E+03 -0.56951791078E+03  0.81955296379E+03  0.50400001928E-02 0. -1.
       -1    1    3    3    0  502 -0.49957740546E+03  0.31263209320E+03  0.80254016512E+03  0.99568425036E+03  0.50400001928E-02 0.  1.
</event>
<event>
 5   0  0.3626125E-06  0.1799894E+04  0.7818609E-02  0.8706356E-01
       -4   -1    0    0    0  501  0.00000000000E+00  0.00000000000E+00  0.89991390212E+03  0.89991479826E+03  0.12699999809E+01 0. -1.
        4   -1    0    0  501    0  0.00000000000E+00  0.00000000000E+00 -0.89997847340E+03  0.89997936947E+03  0.12699999809E+01 0.  1.
    10030    2    1    2    0    0  0.00000000000E+00  0.00000000000E+00 -0.64571278791E-01  0.17998941677E+04  0.17998941666E+04 0.  0.
        3    1    3    3  502    0 -0.27420912385E+03 -0.13072618433E+03 -0.84715964594E+03  0.89997747460E+03  0.10100000352E+00 0.  1.
       -3    1    3    3    0  502  0.27420912385E+03  0.13072618433E+03  0.84709507466E+03  0.89991669314E+03  0.10100000352E+00 0. -1.
</event>
<event>
 5   0  0.4994123E-06  0.1807646E+04  0.7818609E-02  0.8702244E-01
        1   -1    0    0  501    0  0.00000000000E+00  0.00000000000E+00  0.83487469352E+03  0.83487469353E+03  0.50400001928E-02 0.  1.
       -1   -1    0    0    0  501  0.00000000000E+00  0.00000000000E+00 -0.97846557648E+03  0.97846557649E+03  0.50400001928E-02 0. -1.
    10030    2    1    2    0    0  0.00000000000E+00  0.00000000000E+00 -0.14359088296E+03  0.18133402700E+04  0.18076461471E+04 0.  0.
        1    1    3    3  502    0  0.38518476990E+03 -0.21604014429E+03 -0.86285762821E+03  0.96931106333E+03  0.50400001928E-02 0. -1.
       -1    1    3    3    0  502 -0.38518476990E+03  0.21604014429E+03  0.71926674525E+03  0.84402920669E+03  0.50400001928E-02 0.  1.
</event>
<event>
 5   0  0.3626125E-06  0.1800122E+04  0.7818609E-02  0.8706234E-01
       -3   -1    0    0    0  501  0.00000000000E+00  0.00000000000E+00  0.14798192807E+04  0.14798192842E+04  0.10100000352E+00 0. -1.
        3   -1    0    0  501    0  0.00000000000E+00  0.00000000000E+00 -0.54743853587E+03  0.54743854519E+03  0.10100000352E+00 0.  1.
    10030    2    1    2    0    0  0.00000000000E+00  0.00000000000E+00  0.93238074483E+03  0.20272578293E+04  0.18001223440E+04 0.  0.
        4    1    3    3  502    0 -0.27770241513E+03  0.85614798131E+03  0.46539153104E+03  0.10132615098E+04  0.12699999809E+01 0.  1.
       -4    1    3    3    0  502  0.27770241513E+03 -0.85614798131E+03  0.46698921379E+03  0.10139963195E+04  0.12699999809E+01 0. -1.
</event>
<event>
 5   0  0.1036381E-05  0.1799941E+04  0.7818609E-02  0.8706331E-01
       -2   -1    0    0    0  501  0.00000000000E+00  0.00000000000E+00  0.50659021572E+03  0.50659021573E+03  0.25500000920E-02 0.  1.
        2   -1    0    0  501    0  0.00000000000E+00  0.00000000000E+00 -0.15988209579E+04  0.15988209579E+04  0.25500000920E-02 0. -1.
    10030    2    1    2    0    0  0.00000000000E+00  0.00000000000E+00 -0.10922307422E+04  0.21054111737E+04  0.17999411701E+04 0.  0.
        4    1    3    3  502    0 -0.93796437098E+01  0.46921144708E+03 -0.14443576031E+04  0.15186895200E+04  0.12699999809E+01 0. -1.
       -4    1    3    3    0  502  0.93796437098E+01 -0.46921144708E+03  0.35212686087E+03  0.58672165362E+03  0.12699999809E+01 0.  1.
</event>
<event>
 5   0  0.4983159E-06  0.1799772E+04  0.7818609E-02  0.8706421E-01
       -1   -1    0    0    0  501  0.00000000000E+00  0.00000000000E+00  0.76007218795E+03  0.76007218796E+03  0.50400001928E-02 0. -1.
        1   -1    0    0  501    0  0.00000000000E+00  0.00000000000E+00 -0.10654185167E+04  0.10654185167E+04  0.50400001928E-02 0.  1.
    10030    2    1    2    0    0  0.00000000000E+00  0.00000000000E+00 -0.30534632878E+03  0.18254907047E+04  0.17997721890E+04 0.  0.
        4    1    3    3  502    0 -0.50322353480E+03  0.28728473812E+03 -0.85100781832E+03  0.10295544505E+04  0.12699999809E+01 0.  1.
       -4    1    3    3    0  502  0.50322353480E+03 -0.28728473812E+03  0.54566148954E+03  0.79593625423E+03  0.12699999809E+01 0. -1.
</event>
<event>
 5   0  0.1036381E-05  0.1804492E+04  0.7818609E-02  0.8703914E-01
       -2   -1    0    0    0  501  0.00000000000E+00  0.00000000000E+00  0.27236473821E+04  0.27236473821E+04  0.25500000920E-02 0. -1.
        2   -1    0    0  501    0  0.00000000000E+00  0.00000000000E+00 -0.29888157350E+03  0.29888157352E+03  0.25500000920E-02 0.  1.
    10030    2    1    2    0    0  0.00000000000E+00  0.00000000000E+00  0.24247658085E+04  0.30225289556E+04  0.18044921892E+04 0.  0.
        4    1    3    3  502    0  0.76962743975E+03  0.45832033699E+03  0.10314944587E+04  0.13661501962E+04  0.12699999809E+01 0.  1.
       -4    1    3    3    0  502 -0.76962743975E+03 -0.45832033699E+03  0.13932713498E+04  0.16563787593E+04  0.12699999809E+01 0. -1.
</event>
<event>
 5   0  0.4953155E-06  0.1800919E+04  0.7818609E-02  0.8705811E-01
        1   -1    0    0  501    0  0.00000000000E+00  0.00000000000E+00  0.10569535347E+04  0.10569535347E+04  0.50400001928E-02 0. -1.
       -1   -1    0    0    0  501  0.00000000000E+00  0.00000000000E+00 -0.76713645018E+03  0.76713645020E+03  0.50400001928E-02 0.  1.
    10030    2    1    2    0    0  0.00000000000E+00  0.00000000000E+00  0.28981708449E+03  0.18240899849E+04  0.18009193015E+04 0.  0.
        2    1    3    3  502    0  0.38503015873E+03 -0.38788580493E+03  0.86974420746E+03  0.10272091351E+04  0.25500000920E-02 0. -1.
       -2    1    3    3    0  502 -0.38503015873E+03  0.38788580493E+03 -0.57992712297E+03  0.79688084979E+03  0.25500000920E-02 0.  1.
</event>
<event>
 5   0  0.9999162E-06  0.1799981E+04  0.7818609E-02  0.8706309E-01
       -2   -1    0    0    0  501  0.00000000000E+00  0.00000000000E+00  0.74918809488E+03  0.74918809488E+03  0.25500000920E-02 0. -1.
        2   -1    0    0  501    0  0.00000000000E+00  0.00000000000E+00 -0.10811480825E+04  0.10811480825E+04  0.25500000920E-02 0.  1.
    10030    2    1    2    0    0  0.00000000000E+00  0.00000000000E+00 -0.33195998767E+03  0.18303361774E+04  0.17999814135E+04 0.  0.
        1    1    3    3  502    0  0.12824379599E+03  0.88641571017E+03 -0.76150037329E+02  0.89887602630E+03  0.50400001928E-02 0.  1.
       -1    1    3    3    0  502 -0.12824379599E+03 -0.88641571017E+03 -0.25580995034E+03  0.93146015114E+03  0.50400001928E-02 0. -1.
</event>
<event>
 5   0  0.4987456E-06  0.1800103E+04  0.7818609E-02  0.8706245E-01
        1   -1    0    0  501    0  0.00000000000E+00  0.00000000000E+00  0.72131224649E+03  0.72131224651E+03  0.50400001928E-02 0. -1.
       -1   -1    0    0    0  501  0.00000000000E+00  0.00000000000E+00 -0.11230819956E+04  0.11230819957E+04  0.50400001928E-02 0.  1.
    10030    2    1    2    0    0  0.00000000000E+00  0.00000000000E+00 -0.40176974916E+03  0.18443942422E+04  0.18001031052E+04 0.  0.
        3    1    3    3  502    0  0.57745341894E+03  0.40754266641E+03 -0.77186588106E+03  0.10465755704E+04  0.10100000352E+00 0.  1.
       -3    1    3    3    0  502 -0.57745341894E+03 -0.40754266641E+03  0.37009613190E+03  0.79781867178E+03  0.10100000352E+00 0. -1.
</event>
<event>
 5   0  0.4994123E-06  0.1805913E+04  0.7818609E-02  0.8703161E-01
        1   -1    0    0  501    0  0.00000000000E+00  0.00000000000E+00  0.28962071594E+03  0.28962071598E+03  0.50400001928E-02 0. -1.
       -1   -1    0    0    0  501  0.00000000000E+00  0.00000000000E+00 -0.28151660832E+04  0.28151660832E+04  0.50400001928E-02 0.  1.
    10030    2    1    2    0    0  0.00000000000E+00  0.00000000000E+00 -0.25255453672E+04  0.31047867991E+04  0.18059129731E+04 0.  0.
        1    1    3    3  502    0 -0.40488963988E+03  0.63530194904E+03 -0.40697018708E+03  0.85625283657E+03  0.50400001928E-02 0. -1.
       -1    1    3    3    0  502  0.40488963988E+03 -0.63530194904E+03 -0.21185751801E+04  0.22485339626E+04  0.50400001928E-02 0.  1.
</event>
<event>
 5   0  0.4987456E-06  0.1799460E+04  0.7818609E-02  0.8706587E-01
        1   -1    0    0  501    0  0.00000000000E+00  0.00000000000E+00  0.83093704901E+03  0.83093704902E+03  0.50400001928E-02 0.  1.
       -1   -1    0    0    0  501  0.00000000000E+00  0.00000000000E+00 -0.97421853280E+03  0.97421853281E+03  0.50400001928E-02 0. -1.
    10030    2    1    2    0    0  0.00000000000E+00  0.00000000000E+00 -0.14328148379E+03  0.18051555818E+04  0.17994602221E+04 0.  0.
        3    1    3    3  502    0  0.77573326047E+03 -0.45367269225E+03 -0.27532732363E+02  0.89907678462E+03  0.10100000352E+00 0. -1.
       -3    1    3    3    0  502 -0.77573326047E+03  0.45367269225E+03 -0.11574875143E+03  0.90607879721E+03  0.10100000352E+00 0.  1.
</event>
<event>
 5   0  0.1035018E-05  0.1799935E+04  0.7818609E-02  0.8706334E-01
        2   -1    0    0  501    0  0.00000000000E+00  0.00000000000E+00  0.13637405991E+04  0.13637405991E+04  0.25500000920E-02 0. -1.
       -2   -1    0    0    0  501  0.00000000000E+00  0.00000000000E+00 -0.59391139131E+03  0.59391139131E+03  0.25500000920E-02 0.  1.
    10030    2    1    2    0    0  0.00000000000E+00  0.00000000000E+00  0.76982920778E+03  0.19576519904E+04  0.17999345284E+04 0.  0.
        3    1    3    3  502    0 -0.28664443390E+03 -0.35842183136E+03  0.12268998492E+04  0.13099291931E+04  0.10100000352E+00 0. -1.
       -3    1    3    3    0  502  0.28664443390E+03  0.35842183136E+03 -0.45707064144E+03  0.64772279731E+03  0.10100000352E+00 0.  1.
</event>
<event>
 5   0  0.9589963E-06  0.1799758E+04  0.7818609E-02  0.8706428E-01
       -2   -1    0    0    0  501  0.00000000000E+00  0.00000000000E+00  0.11044632117E+04  0.11044632117E+04  0.25500000920E-02 0.  1.
        2   -1    0    0  501    0  0.00000000000E+00  0.00000000000E+00 -0.73319112981E+03  0.73319112982E+03  0.25500000920E-02 0. -1.
    10030    2    1    2    0    0  0.00000000000E+00  0.00000000000E+00  0.37127208188E+03  0.18376543415E+04  0.17997584616E+04 0.  0.
        2    1    3    3  502    0  0.24279857741E+03  0.73418801456E+03 -0.28427105661E+03  0.82388908449E+03  0.25500000920E-02 0. -1.
       -2    1    3    3    0  502 -0.24279857741E+03 -0.73418801456E+03  0.65554313848E+03  0.10137652570E+04  0.25500000920E-02 0.  1.
</event>
<event>
 5   0  0.4983159E-06  0.1798689E+04  0.7818609E-02  0.8706997E-01
        1   -1    0    0  501    0  0.00000000000E+00  0.00000000000E+00  0.74991487069E+03  0.74991487070E+03  0.50400001928E-02 0.  1.
       -1   -1    0    0    0  501  0.00000000000E+00  0.00000000000E+00 -0.10785498740E+04  0.10785498740E+04  0.50400001928E-02 0. -1.
    10030    2    1    2    0    0  0.00000000000E+00  0.00000000000E+00 -0.32863500329E+03  0.18284647447E+04  0.17986890663E+04 0.  0.
        4    1    3    3  502    0  0.13957032462E+03 -0.35356818668E+03 -0.99287372478E+03  0.10631510638E+04  0.12699999809E+01 0. -1.
       -4    1    3    3    0  502 -0.13957032462E+03  0.35356818668E+03  0.66423872150E+03  0.76531368091E+03  0.12699999809E+01 0.  1.
</event>
<event>
 5   0  0.9999162E-06  0.1799458E+04  0.7818609E-02  0.8706588E-01
       -2   -1    0    0    0  501  0.00000000000E+00  0.00000000000E+00  0.10188432059E+04  0.10188432059E+04  0.25500000920E-02 0.  1.
        2   -1    0    0  501    0  0.00000000000E+00  0.00000000000E+00 -0.79454064884E+03  0.79454064884E+03  0.25500000920E-02 0. -1.
    10030    2    1    2    0    0  0.00000000000E+00  0.00000000000E+00  0.22430255708E+03  0.18133838548E+04  0.17994580761E+04 0.  0.
        1    1    3    3  502    0  0.28085549363E+03 -0.35959325573E+03 -0.66930146944E+03  0.81003183572E+03  0.50400001928E-02 0. -1.
       -1    1    3    3    0  502 -0.28085549363E+03  0.35959325573E+03  0.89360402651E+03  0.10033520190E+04  0.50400001928E-02 0.  1.
</event>
<event>
 5   0  0.1000316E-05  0.1799452E+04  0.7818609E-02  0.8706591E-01
       -2   -1    0    0    0  501  0.00000000000E+00  0.00000000000E+00  0.15562954157E+04  0.15562954157E+04  0.25500000920E-02 0.  1.
        2   -1    0    0  501    0  0.00000000000E+00  0.00000000000E+00 -0.52014992618E+03  0.52014992619E+03  0.25500000920E-02 0. -1.
    10030    2    1    2    0    0  0.00000000000E+00  0.00000000000E+00  0.10361454895E+04  0.20764453419E+04  0.17994520784E+04 0.  0.
        5    1    3    3  502    0  0.11783159326E+03  0.86802962084E+03  0.75491050271E+03  0.11564046282E+04  0.46999998093E+01 0. -1.
       -5    1    3    3    0  502 -0.11783159326E+03 -0.86802962084E+03  0.28123498680E+03  0.92004071367E+03  0.46999998093E+01 0.  1.
</event>
<event>
 5   0  0.4983159E-06  0.1799921E+04  0.7818609E-02  0.8706341E-01
       -1   -1    0    0    0  501  0.00000000000E+00  0.00000000000E+00  0.14485978348E+04  0.14485978348E+04  0.50400001928E-02 0.  1.
        1   -1    0    0  501    0  0.00000000000E+00  0.00000000000E+00 -0.55911253071E+03  0.55911253074E+03  0.50400001928E-02 0. -1.
    10030    2    1    2    0    0  0.00000000000E+00  0.00000000000E+00  0.88948530404E+03  0.20077103655E+04  0.17999213332E+04 0.  0.
        4    1    3    3  502    0  0.89885369383E+03 -0.43672334119E+02  0.45486512859E+03  0.10083397908E+04  0.12699999809E+01 0. -1.
       -4    1    3    3    0  502 -0.89885369383E+03  0.43672334119E+02  0.43462017545E+03  0.99937057466E+03  0.12699999809E+01 0.  1.
</event>
<event>
 5   0  0.9999162E-06  0.1800323E+04  0.7818609E-02  0.8706127E-01
        2   -1    0    0  501    0  0.00000000000E+00  0.00000000000E+00  0.10761435919E+04  0.10761435919E+04  0.25500000920E-02 0. -1.
       -2   -1    0    0    0  501  0.00000000000E+00  0.00000000000E+00 -0.75295821427E+03  0.75295821427E+03  0.25500000920E-02 0.  1.
    10030    2    1    2    0    0  0.00000000000E+00  0.00000000000E+00  0.32318537761E+03  0.18291018061E+04  0.18003234790E+04 0.  0.
        1    1    3    3  502    0 -0.70190073576E+02 -0.37502719316E+03 -0.66674308355E+03  0.76819163074E+03  0.50400001928E-02 0.  1.
       -1    1    3    3    0  502  0.70190073576E+02  0.37502719316E+03  0.98992846117E+03  0.10609101754E+04  0.50400001928E-02 0. -1.
</event>
<event>
 5   0  0.4994123E-06  0.1799644E+04  0.7818609E-02  0.8706489E-01
        1   -1    0    0  501    0  0.00000000000E+00  0.00000000000E+00  0.13737927094E+04  0.13737927094E+04  0.50400001928E-02 0.  1.
       -1   -1    0    0    0  501  0.00000000000E+00  0.00000000000E+00 -0.58937508080E+03  0.58937508082E+03  0.50400001928E-02 0. -1.
    10030    2    1    2    0    0  0.00000000000E+00  0.00000000000E+00  0.78441762859E+03  0.19631677902E+04  0.17996435082E+04 0.  0.
        1    1    3    3  502    0 -0.63389808639E+03 -0.61953320682E+03  0.56131401158E+03  0.10491528001E+04  0.50400001928E-02 0.  1.
       -1    1    3    3    0  502  0.63389808639E+03  0.61953320682E+03  0.22310361701E+03  0.91401499015E+03  0.50400001928E-02 0. -1.
</event>
<event>
 5   0  0.9999162E-06  0.1799813E+04  0.7818609E-02  0.8706399E-01
        2   -1    0    0  501    0  0.00000000000E+00  0.00000000000E+00  0.13178971324E+04  0.13178971324E+04  0.25500000920E-02 0.  1.
       -2   -1    0    0    0  501  0.00000000000E+00  0.00000000000E+00 -0.61448777544E+03  0.61448777545E+03  0.25500000920E-02 0. -1.
    10030    2    1    2    0    0  0.00000000000E+00  0.00000000000E+00  0.70340935700E+03  0.19323849079E+04  0.17998129649E+04 0.  0.
        1    1    3    3  502    0 -0.55320176130E+03  0.14073599855E+03 -0.39523536337E+03  0.69429806457E+03  0.50400001928E-02 0. -1.
       -1    1    3    3    0  502  0.55320176130E+03 -0.14073599855E+03  0.10986447204E+04  0.12380868433E+04  0.50400001928E-02 0.  1.
</event>
<event>
 5   0  0.4983159E-06  0.1799816E+04  0.7818609E-02  0.8706397E-01
        1   -1    0    0  501    0  0.00000000000E+00  0.00000000000E+00  0.12009529547E+04  0.12009529547E+04  0.50400001928E-02 0. -1.
       -1   -1    0    0    0  501  0.00000000000E+00  0.00000000000E+00 -0.67432666772E+03  0.67432666774E+03  0.50400001928E-02 0.  1.
    10030    2    1    2    0    0  0.00000000000E+00  0.00000000000E+00  0.52662628699E+03  0.18752796225E+04  0.17998162174E+04 0.  0.
        4    1    3    3  502    0  0.55983549093E+02  0.16922637633E+03  0.11823750626E+04  0.11957358094E+04  0.12699999809E+01 0. -1.
       -4    1    3    3    0  502 -0.55983549093E+02 -0.16922637633E+03 -0.65574877565E+03  0.67954381307E+03  0.12699999809E+01 0.  1.
</event>
<event>
 5   0  0.9589963E-06  0.1799724E+04  0.7818609E-02  0.8706446E-01
       -2   -1    0    0    0  501  0.00000000000E+00  0.00000000000E+00  0.64556975929E+03  0.64556975930E+03  0.25500000920E-02 0. -1.
        2   -1    0    0  501    0  0.00000000000E+00  0.00000000000E+00 -0.12543214017E+04  0.12543214017E+04  0.25500000920E-02 0.  1.
    10030    2    1    2    0    0  0.00000000000E+00  0.00000000000E+00 -0.60875164242E+03  0.18998911610E+04  0.17997243849E+04 0.  0.
        2    1    3    3  502    0 -0.69547983786E+03 -0.41791386012E+03  0.10639236185E+03  0.81832972207E+03  0.25500000920E-02 0. -1.
       -2    1    3    3    0  502  0.69547983786E+03  0.41791386012E+03 -0.71514400427E+03  0.10815614389E+04  0.25500000920E-02 0.  1.
</event>
<event>
 5   0  0.9589963E-06  0.1799840E+04  0.7818609E-02  0.8706384E-01
       -2   -1    0    0    0  501  0.00000000000E+00  0.00000000000E+00  0.36978176794E+03  0.36978176795E+03  0.25500000920E-02 0.  1.
        2   -1    0    0  501    0  0.00000000000E+00  0.00000000000E+00 -0.21900922214E+04  0.21900922214E+04  0.25500000920E-02 0. -1.
    10030    2    1    2    0    0  0.00000000000E+00  0.00000000000E+00 -0.18203104535E+04  0.25598739894E+04  0.17998401858E+04 0.  0.
        2    1    3    3  502    0 -0.77023731264E+03  0.18150099360E+03 -0.15196609643E+04  0.17133527293E+04  0.25500000920E-02 0. -1.
       -2    1    3    3    0  502  0.77023731264E+03 -0.18150099360E+03 -0.30064948917E+03  0.84652126010E+03  0.25500000920E-02 0.  1.
</event>
<event>
 5   0  0.4983159E-06  0.1799852E+04  0.7818609E-02  0.8706378E-01
       -1   -1    0    0    0  501  0.00000000000E+00  0.00000000000E+00  0.48143572070E+03  0.48143572072E+03  0.50400001928E-02 0.  1.
        1   -1    0    0  501    0  0.00000000000E+00  0.00000000000E+00 -0.16821904750E+04  0.16821904750E+04  0.50400001928E-02 0. -1.
    10030    2    1    2    0    0  0.00000000000E+00  0.00000000000E+00 -0.12007547543E+04  0.21636261957E+04  0.17998517536E+04 0.  0.
        4    1    3    3  502    0 -0.15774748950E+03  0.87912541205E+03 -0.46803995962E+03  0.10083693655E+04  0.12699999809E+01 0.  1.
       -4    1    3    3    0  502  0.15774748950E+03 -0.87912541205E+03 -0.73271479464E+03  0.11552568302E+04  0.12699999809E+01 0. -1.
</event>
<event>
 5   0  0.4981384E-06  0.1799961E+04  0.7818609E-02  0.8706320E-01
       -1   -1    0    0    0  501  0.00000000000E+00  0.00000000000E+00  0.31504520291E+03  0.31504520295E+03  0.50400001928E-02 0. -1.
        1   -1    0    0  501    0  0.00000000000E+00  0.00000000000E+00 -0.25709488681E+04  0.25709488681E+04  0.50400001928E-02 0.  1.
    10030    2    1    2    0    0  0.00000000000E+00  0.00000000000E+00 -0.22559036652E+04  0.28859940711E+04  0.17999612306E+04 0.  0.
        5    1    3    3  502    0  0.13153838444E+03 -0.13935025768E+03 -0.25378392493E+04  0.25450679728E+04  0.46999998093E+01 0.  1.
       -5    1    3    3    0  502 -0.13153838444E+03  0.13935025768E+03  0.28193558410E+03  0.34092609827E+03  0.46999998093E+01 0. -1.
</event>
<event>
 5   0  0.4953155E-06  0.1800033E+04  0.7818609E-02  0.8706282E-01
        1   -1    0    0  501    0  0.00000000000E+00  0.00000000000E+00  0.19914197967E+04  0.19914197967E+04  0.50400001928E-02 0.  1.
       -1   -1    0    0    0  501  0.00000000000E+00  0.00000000000E+00 -0.40676000897E+03  0.40676000900E+03  0.50400001928E-02 0. -1.
    10030    2    1    2    0    0  0.00000000000E+00  0.00000000000E+00  0.15846597877E+04  0.23981798057E+04  0.18000332602E+04 0.  0.
        2    1    3    3  502    0 -0.61855842524E+03  0.28154681250E+03  0.15784382567E+04  0.17185314845E+04  0.25500000920E-02 0.  1.
       -2    1    3    3    0  502  0.61855842524E+03 -0.28154681250E+03  0.62215310570E+01  0.67964832121E+03  0.25500000920E-02 0. -1.
</event>
<event>
 5   0  0.1035018E-05  0.1799254E+04  0.7818609E-02  0.8706696E-01
        2   -1    0    0  501    0  0.00000000000E+00  0.00000000000E+00  0.10356049928E+04  0.10356049928E+04  0.25500000920E-02 0.  1.
       -2   -1    0    0    0  501  0.00000000000E+00  0.00000000000E+00 -0.78150367737E+03  0.78150367737E+03  0.25500000920E-02 0. -1.
    10030    2    1    2    0    0  0.00000000000E+00  0.00000000000E+00  0.25410131540E+03  0.18171086701E+04  0.17992544124E+04 0.  0.
        3    1    3    3  502    0 -0.16512989869E+03  0.88259284315E+03  0.70901385591E+02  0.90070251854E+03  0.10100000352E+00 0. -1.
       -3    1    3    3    0  502  0.16512989869E+03 -0.88259284315E+03  0.18319992981E+03  0.91640615161E+03  0.10100000352E+00 0.  1.
</event>
<event>
 5   0  0.4953155E-06  0.1800173E+04  0.7818609E-02  0.8706208E-01
       -1   -1    0    0    0  501  0.00000000000E+00  0.00000000000E+00  0.13465800320E+04  0.13465800320E+04  0.50400001928E-02 0.  1.
        1   -1    0    0  501    0  0.00000000000E+00  0.00000000000E+00 -0.60163918677E+03  0.60163918679E+03  0.50400001928E-02 0. -1.
    10030    2    1    2    0    0  0.00000000000E+00  0.00000000000E+00  0.74494084519E+03  0.19482192187E+04  0.18001725644E+04 0.  0.
        2    1    3    3  502    0 -0.26978218664E+03 -0.79693173998E+03  0.71857195485E+03  0.11064484989E+04  0.25500000920E-02 0. -1.
       -2    1    3    3    0  502  0.26978218664E+03  0.79693173998E+03  0.26368890336E+02  0.84177071985E+03  0.25500000920E-02 0.  1.
</event>
<event>
 5   0  0.4994123E-06  0.1800712E+04  0.7818609E-02  0.8705921E-01
       -1   -1    0    0    0  501  0.00000000000E+00  0.00000000000E+00  0.10546777729E+04  0.10546777729E+04  0.50400001928E-02 0.  1.
        1   -1    0    0  501    0  0.00000000000E+00  0.00000000000E+00 -0.76861449433E+03  0.76861449435E+03  0.50400001928E-02 0. -1.
    10030    2    1    2    0    0  0.00000000000E+00  0.00000000000E+00  0.28606327857E+03  0.18232922673E+04  0.18007116628E+04 0.  0.
        1    1    3    3  502    0 -0.46085638012E+02  0.23034423658E+03  0.10231019140E+04  0.10497237160E+04  0.50400001928E-02 0.  1.
       -1    1    3    3    0  502  0.46085638012E+02 -0.23034423658E+03 -0.73703863546E+03  0.77356855129E+03  0.50400001928E-02 0. -1.
</event>
<event>
 5   0  0.9999162E-06  0.1801807E+04  0.7818609E-02  0.8705339E-01
       -2   -1    0    0    0  501  0.00000000000E+00  0.00000000000E+00  0.17438120660E+04  0.17438120660E+04  0.25500000920E-02 0.  1.
        2   -1    0    0  501    0  0.00000000000E+00  0.00000000000E+00 -0.46543274013E+03  0.46543274014E+03  0.25500000920E-02 0. -1.
    10030    2    1    2    0    0  0.00000000000E+00  0.00000000000E+00  0.12783793259E+04  0.22092448061E+04  0.18018071242E+04 0.  0.
        1    1    3    3  502    0 -0.36275858765E+03  0.79829177316E+03  0.89274518840E+03  0.12513422871E+04  0.50400001928E-02 0. -1.
       -1    1    3    3    0  502  0.36275858765E+03 -0.79829177316E+03  0.38563413747E+03  0.95790251906E+03  0.50400001928E-02 0.  1.
</event>
<event>
 5   0  0.4981384E-06  0.1800596E+04  0.7818609E-02  0.8705982E-01
       -1   -1    0    0    0  501  0.00000000000E+00  0.00000000000E+00  0.38850347128E+03  0.38850347131E+03  0.50400001928E-02 0.  1.
        1   -1    0    0  501    0  0.00000000000E+00  0.00000000000E+00 -0.20863053450E+04  0.20863053450E+04  0.50400001928E-02 0. -1.
    10030    2    1    2    0    0  0.00000000000E+00  0.00000000000E+00 -0.16978018737E+04  0.24748088163E+04  0.18005964220E+04 0.  0.
        5    1    3    3  502    0 -0.33052288470E+03 -0.22340716697E+03 -0.19581660655E+04  0.19983975004E+04  0.46999998093E+01 0. -1.
       -5    1    3    3    0  502  0.33052288470E+03  0.22340716697E+03  0.26036419178E+03  0.47641131591E+03  0.46999998093E+01 0.  1.
</event>
<event>
 5   0  0.4981384E-06  0.1800819E+04  0.7818609E-02  0.8705864E-01
        1   -1    0    0  501    0  0.00000000000E+00  0.00000000000E+00  0.22987846798E+04  0.22987846799E+04  0.50400001928E-02 0.  1.
       -1   -1    0    0    0  501  0.00000000000E+00  0.00000000000E+00 -0.35268075299E+03  0.35268075303E+03  0.50400001928E-02 0. -1.
    10030    2    1    2    0    0  0.00000000000E+00  0.00000000000E+00  0.19461039269E+04  0.26514654329E+04  0.18008188270E+04 0.  0.
        5    1    3    3  502    0  0.56071901402E+03 -0.30405243737E+03  0.37361765726E+02  0.63896141424E+03  0.46999998093E+01 0. -1.
       -5    1    3    3    0  502 -0.56071901402E+03  0.30405243737E+03  0.19087421611E+04  0.20125040186E+04  0.46999998093E+01 0.  1.
</event>
<event>
 5   0  0.9589963E-06  0.1797226E+04  0.7818609E-02  0.8707776E-01
       -2   -1    0    0    0  501  0.00000000000E+00  0.00000000000E+00  0.53459624572E+03  0.53459624573E+03  0.25500000920E-02 0.  1.
        2   -1    0    0  501    0  0.00000000000E+00  0.00000000000E+00 -0.15104959942E+04  0.15104959942E+04  0.25500000920E-02 0. -1.
    10030    2    1    2    0    0  0.00000000000E+00  0.00000000000E+00 -0.97589974852E+03  0.20450922400E+04  0.17972261824E+04 0.  0.
        2    1    3    3  502    0 -0.88974256520E+03 -0.79652280354E+02 -0.59897204042E+03  0.10755249059E+04  0.25500000920E-02 0. -1.
       -2    1    3    3    0  502  0.88974256520E+03  0.79652280354E+02 -0.37692770810E+03  0.96956733404E+03  0.25500000920E-02 0.  1.
</event>
<event>
 5   0  0.9589963E-06  0.1800950E+04  0.7818609E-02  0.8705795E-01
        2   -1    0    0  501    0  0.00000000000E+00  0.00000000000E+00  0.95886256887E+03  0.95886256887E+03  0.25500000920E-02 0.  1.
       -2   -1    0    0    0  501  0.00000000000E+00  0.00000000000E+00 -0.84564255990E+03  0.84564255990E+03  0.25500000920E-02 0. -1.
    10030    2    1    2    0    0  0.00000000000E+00  0.00000000000E+00  0.11322000897E+03  0.18045051288E+04  0.18009497465E+04 0.  0.
        2    1    3    3  502    0  0.28962667829E+02  0.78542697825E+03  0.49693247934E+03  0.92987970368E+03  0.25500000920E-02 0.  1.
       -2    1    3    3    0  502 -0.28962667829E+02 -0.78542697825E+03 -0.38371247037E+03  0.87462542509E+03  0.25500000920E-02 0. -1.
</event>
<event>
 5   0  0.4987456E-06  0.1800661E+04  0.7818609E-02  0.8705948E-01
       -1   -1    0    0    0  501  0.00000000000E+00  0.00000000000E+00  0.13871076185E+04  0.13871076185E+04  0.50400001928E-02 0.  1.
        1   -1    0    0  501    0  0.00000000000E+00  0.00000000000E+00 -0.58437777169E+03  0.58437777172E+03  0.50400001928E-02 0. -1.
    10030    2    1    2    0    0  0.00000000000E+00  0.00000000000E+00  0.80272984681E+03  0.19714853902E+04  0.18006608334E+04 0.  0.
        3    1    3    3  502    0 -0.70015360733E+03 -0.31475931392E+03 -0.11369597619E+03  0.77602531193E+03  0.10100000352E+00 0.  1.
       -3    1    3    3    0  502  0.70015360733E+03  0.31475931392E+03  0.91642582299E+03  0.11954600783E+04  0.10100000352E+00 0. -1.
</event>
<event>
 5   0  0.1000316E-05  0.1800266E+04  0.7818609E-02  0.8706158E-01
       -2   -1    0    0    0  501  0.00000000000E+00  0.00000000000E+00  0.14065921952E+04  0.14065921952E+04  0.25500000920E-02 0.  1.
        2   -1    0    0  501    0  0.00000000000E+00  0.00000000000E+00 -0.57602983810E+03  0.57602983811E+03  0.25500000920E-02 0. -1.
    10030    2    1    2    0    0  0.00000000000E+00  0.00000000000E+00  0.83056235714E+03  0.19826220334E+04  0.18002656187E+04 0.  0.
        5    1    3    3  502    0 -0.36289681629E+03  0.94726148387E+02  0.13164264264E+04  0.13688198452E+04  0.46999998093E+01 0.  1.
       -5    1    3    3    0  502  0.36289681629E+03 -0.94726148387E+02 -0.48586406923E+03  0.61380218819E+03  0.46999998093E+01 0. -1.
</event>
<event>
 5   0  0.4983159E-06  0.1799786E+04  0.7818609E-02  0.8706413E-01
        1   -1    0    0  501    0  0.00000000000E+00  0.00000000000E+00  0.75707751782E+03  0.75707751783E+03  0.50400001928E-02 0. -1.
       -1   -1    0    0    0  501  0.00000000000E+00  0.00000000000E+00 -0.10696498005E+04  0.10696498005E+04  0.50400001928E-02 0.  1.
    10030    2    1    2    0    0  0.00000000000E+00  0.00000000000E+00 -0.31257228264E+03  0.18267273183E+04  0.17997864494E+04 0.  0.
        4    1    3    3  502    0 -0.63963956557E+03  0.40192761977E+03  0.34003430409E+03  0.82843800386E+03  0.12699999809E+01 0. -1.
       -4    1    3    3    0  502  0.63963956557E+03 -0.40192761977E+03 -0.65260658672E+03  0.99828931444E+03  0.12699999809E+01 0.  1.
</event>
<event>
 5   0  0.9589963E-06  0.1803113E+04  0.7818609E-02  0.8704646E-01
        2   -1    0    0  501    0  0.00000000000E+00  0.00000000000E+00  0.19704400901E+04  0.19704400901E+04  0.25500000920E-02 0. -1.
       -2   -1    0    0    0  501  0.00000000000E+00  0.00000000000E+00 -0.41249889265E+03  0.41249889266E+03  0.25500000920E-02 0.  1.
    10030    2    1    2    0    0  0.00000000000E+00  0.00000000000E+00  0.15579411975E+04  0.23829389828E+04  0.18031132579E+04 0.  0.
        2    1    3    3  502    0  0.85093031843E+03  0.26971710056E+03  0.94600478836E+03  0.13006747406E+04  0.25500000920E-02 0.  1.
       -2    1    3    3    0  502 -0.85093031843E+03 -0.26971710056E+03  0.61193640910E+03  0.10822642422E+04  0.25500000920E-02 0. -1.
</event>
<event>
 5   0  0.4981384E-06  0.1801235E+04  0.7818609E-02  0.8705643E-01
       -1   -1    0    0    0  501  0.00000000000E+00  0.00000000000E+00  0.17425731301E+04  0.17425731301E+04  0.50400001928E-02 0.  1.
        1   -1    0    0  501    0  0.00000000000E+00  0.00000000000E+00 -0.46546801500E+03  0.46546801502E+03  0.50400001928E-02 0. -1.
    10030    2    1    2    0    0  0.00000000000E+00  0.00000000000E+00  0.12771051151E+04  0.22080411451E+04  0.18012351938E+04 0.  0.
        5    1    3    3  502    0 -0.25508480521E+03  0.76197082803E+03  0.13997400950E+03  0.81564858484E+03  0.46999998093E+01 0. -1.
       -5    1    3    3    0  502  0.25508480521E+03 -0.76197082803E+03  0.11371311056E+04  0.13923925603E+04  0.46999998093E+01 0.  1.
</event>
<event>
 5   0  0.4981384E-06  0.1798927E+04  0.7818609E-02  0.8706870E-01
       -1   -1    0    0    0  501  0.00000000000E+00  0.00000000000E+00  0.77012500422E+03  0.77012500423E+03  0.50400001928E-02 0. -1.
        1   -1    0    0  501    0  0.00000000000E+00  0.00000000000E+00 -0.10505241069E+04  0.10505241069E+04  0.50400001928E-02 0.  1.
    10030    2    1    2    0    0  0.00000000000E+00  0.00000000000E+00 -0.28039910264E+03  0.18206491111E+04  0.17989273273E+04 0.  0.
        5    1    3    3  502    0 -0.76356250832E+03  0.39515787536E+03 -0.40765427057E+03  0.95151539393E+03  0.46999998093E+01 0. -1.
       -5    1    3    3    0  502  0.76356250832E+03 -0.39515787536E+03  0.12725516793E+03  0.86913371718E+03  0.46999998093E+01 0.  1.
</event>
<event>
 5   0  0.4953155E-06  0.1799955E+04  0.7818609E-02  0.8706324E-01
        1   -1    0    0  501    0  0.00000000000E+00  0.00000000000E+00  0.11665758903E+04  0.11665758903E+04  0.50400001928E-02 0. -1.
       -1   -1    0    0    0  501  0.00000000000E+00  0.00000000000E+00 -0.69430473462E+03  0.69430473463E+03  0.50400001928E-02 0.  1.
    10030    2    1    2    0    0  0.00000000000E+00  0.00000000000E+00  0.47227115572E+03  0.18608806250E+04  0.17999546261E+04 0.  0.
        2    1    3    3  502    0  0.28456591657E+03  0.11126441889E+02 -0.64649364366E+03  0.70643866675E+03  0.25500000920E-02 0.  1.
       -2    1    3    3    0  502 -0.28456591657E+03 -0.11126441889E+02  0.11187647994E+04  0.11544419582E+04  0.25500000920E-02 0. -1.
</event>
<event>
 5   0  0.4981384E-06  0.1800005E+04  0.7818609E-02  0.8706297E-01
       -1   -1    0    0    0  501  0.00000000000E+00  0.00000000000E+00  0.51848522105E+03  0.51848522108E+03  0.50400001928E-02 0. -1.
        1   -1    0    0  501    0  0.00000000000E+00  0.00000000000E+00 -0.15622516992E+04  0.15622516992E+04  0.50400001928E-02 0.  1.
    10030    2    1    2    0    0  0.00000000000E+00  0.00000000000E+00 -0.10437664781E+04  0.20807369203E+04  0.18000049085E+04 0.  0.
        5    1    3    3  502    0  0.17484962375E+03  0.33968354073E+03  0.42008380476E+03  0.56784662699E+03  0.46999998093E+01 0. -1.
       -5    1    3    3    0  502 -0.17484962375E+03 -0.33968354073E+03 -0.14638502829E+04  0.15128902933E+04  0.46999998093E+01 0.  1.
</event>
<event>
 5   0  0.9589963E-06  0.1800100E+04  0.7818609E-02  0.8706246E-01
        2   -1    0    0  501    0  0.00000000000E+00  0.00000000000E+00  0.85845334162E+03  0.85845334162E+03  0.25500000920E-02 0. -1.
       -2   -1    0    0    0  501  0.00000000000E+00  0.00000000000E+00 -0.94366240869E+03  0.94366240869E+03  0.25500000920E-02 0.  1.
    10030    2    1    2    0    0  0.00000000000E+00  0.00000000000E+00 -0.85209067071E+02  0.18021157503E+04  0.18001001618E+04 0.  0.
        2    1    3    3  502    0 -0.88824665157E+03 -0.92606983400E+02  0.69467143304E+02  0.89575881319E+03  0.25500000920E-02 0. -1.
       -2    1    3    3    0  502  0.88824665157E+03  0.92606983400E+02 -0.15467621038E+03  0.90635693712E+03  0.25500000920E-02 0.  1.
</event>
<event>
 5   0  0.9589963E-06  0.1800617E+04  0.7818609E-02  0.8705972E-01
       -2   -1    0    0    0  501  0.00000000000E+00  0.00000000000E+00  0.59903717172E+03  0.59903717173E+03  0.25500000920E-02 0. -1.
        2   -1    0    0  501    0  0.00000000000E+00  0.00000000000E+00 -0.13530966030E+04  0.13530966030E+04  0.25500000920E-02 0.  1.
    10030    2    1    2    0    0  0.00000000000E+00  0.00000000000E+00 -0.75405943124E+03  0.19521337747E+04  0.18006167411E+04 0.  0.
        2    1    3    3  502    0  0.59962084771E+03  0.35001969878E+03 -0.99840428396E+03  0.12160880169E+04  0.25500000920E-02 0.  1.
       -2    1    3    3    0  502 -0.59962084771E+03 -0.35001969878E+03  0.24434485272E+03  0.73604575782E+03  0.25500000920E-02 0. -1.
</event>
<event>
 5   0  0.4983159E-06  0.1800174E+04  0.7818609E-02  0.8706207E-01
        1   -1    0    0  501    0  0.00000000000E+00  0.00000000000E+00  0.12212401163E+04  0.12212401163E+04  0.50400001928E-02 0.  1.
       -1   -1    0    0    0  501  0.00000000000E+00  0.00000000000E+00 -0.66338823572E+03  0.66338823574E+03  0.50400001928E-02 0. -1.
    10030    2    1    2    0    0  0.00000000000E+00  0.00000000000E+00  0.55785188054E+03  0.18846283520E+04  0.18001736873E+04 0.  0.
        4    1    3    3  502    0  0.15776813478E+03 -0.87389304246E+03  0.43270085592E+03  0.98783170511E+03  0.12699999809E+01 0. -1.
       -4    1    3    3    0  502 -0.15776813478E+03  0.87389304246E+03  0.12515102462E+03  0.89679664689E+03  0.12699999809E+01 0.  1.
</event>
<event>
 5   0  0.1036381E-05  0.1800232E+04  0.7818609E-02  0.8706176E-01
       -2   -1    0    0    0  501  0.00000000000E+00  0.00000000000E+00  0.47966545906E+03  0.47966545907E+03  0.25500000920E-02 0. -1.
        2   -1    0    0  501    0  0.00000000000E+00  0.00000000000E+00 -0.16891132056E+04  0.16891132056E+04  0.25500000920E-02 0.  1.
    10030    2    1    2    0    0  0.00000000000E+00  0.00000000000E+00 -0.12094477466E+04  0.21687786647E+04  0.18002324974E+04 0.  0.
        4    1    3    3  502    0  0.57319389005E+03  0.17806443085E-01 -0.14408182610E+04  0.15506482870E+04  0.12699999809E+01 0.  1.
       -4    1    3    3    0  502 -0.57319389005E+03 -0.17806443085E-01  0.23137051446E+03  0.61813037765E+03  0.12699999809E+01 0. -1.
</event>
<event>
 5   0  0.3626125E-06  0.1792003E+04  0.7818609E-02  0.8710564E-01
        3   -1    0    0  501    0  0.00000000000E+00  0.00000000000E+00  0.10665647436E+04  0.10665647484E+04  0.10100000352E+00 0. -1.
       -3   -1    0    0    0  501  0.00000000000E+00  0.00000000000E+00 -0.75271457369E+03  0.75271458047E+03  0.10100000352E+00 0.  1.
    10030    2    1    2    0    0  0.00000000000E+00  0.00000000000E+00  0.31385016994E+03  0.18192793289E+04  0.17920031661E+04 0.  0.
        1    1    3    3  502    0  0.46704323560E+03  0.74918504475E+03  0.15888944632E+01  0.88284208090E+03  0.50400001928E-02 0.  1.
       -1    1    3    3    0  502 -0.46704323560E+03 -0.74918504475E+03  0.31226127548E+03  0.93643724797E+03  0.50400001928E-02 0. -1.
</event>
<event>
 5   0  0.4981384E-06  0.1800783E+04  0.7818609E-02  0.8705883E-01
        1   -1    0    0  501    0  0.00000000000E+00  0.00000000000E+00  0.13850701620E+04  0.13850701620E+04  0.50400001928E-02 0.  1.
       -1   -1    0    0    0  501  0.00000000000E+00  0.00000000000E+00 -0.58531682677E+03  0.58531682679E+03  0.50400001928E-02 0. -1.
    10030    2    1    2    0    0  0.00000000000E+00  0.00000000000E+00  0.79975333518E+03  0.19703869888E+04  0.18007830209E+04 0.  0.
        5    1    3    3  502    0  0.46741733238E+03 -0.62404435991E+03  0.89259035267E+03  0.11851792917E+04  0.46999998093E+01 0.  1.
       -5    1    3    3    0  502 -0.46741733238E+03  0.62404435991E+03 -0.92837017489E+02  0.78520769708E+03  0.46999998093E+01 0. -1.
</event>
<event>
 5   0  0.4987456E-06  0.1799616E+04  0.7818609E-02  0.8706504E-01
       -1   -1    0    0    0  501  0.00000000000E+00  0.00000000000E+00  0.36336326633E+03  0.36336326637E+03  0.50400001928E-02 0.  1.
        1   -1    0    0  501    0  0.00000000000E+00  0.00000000000E+00 -0.22282229731E+04  0.22282229731E+04  0.50400001928E-02 0. -1.
    10030    2    1    2    0    0  0.00000000000E+00  0.00000000000E+00 -0.18648597068E+04  0.25915862395E+04  0.17996159342E+04 0.  0.
        3    1    3    3  502    0  0.41749373712E+02  0.20966231944E+03 -0.21911209941E+04  0.22015250440E+04  0.10100000352E+00 0. -1.
       -3    1    3    3    0  502 -0.41749373712E+02 -0.20966231944E+03  0.32626128733E+03  0.39006119547E+03  0.10100000352E+00 0.  1.
</event>
<event>
 5   0  0.9589963E-06  0.1799687E+04  0.7818609E-02  0.8706466E-01
        2   -1    0    0  501    0  0.00000000000E+00  0.00000000000E+00  0.18131562321E+04  0.18131562321E+04  0.25500000920E-02 0.  1.
       -2   -1    0    0    0  501  0.00000000000E+00  0.00000000000E+00 -0.44657941294E+03  0.44657941294E+03  0.25500000920E-02 0. -1.
    10030    2    1    2    0    0  0.00000000000E+00  0.00000000000E+00  0.13665768191E+04  0.22597356450E+04  0.17996869124E+04 0.  0.
        2    1    3    3  502    0  0.45410158023E+03  0.76330585785E+03  0.50187672175E+03  0.10201589688E+04  0.25500000920E-02 0. -1.
       -2    1    3    3    0  502 -0.45410158023E+03 -0.76330585785E+03  0.86470009738E+03  0.12395766762E+04  0.25500000920E-02 0.  1.
</event>
<event>
 5   0  0.4994123E-06  0.1799876E+04  0.7818609E-02  0.8706365E-01
       -1   -1    0    0    0  501  0.00000000000E+00  0.00000000000E+00  0.64283064272E+03  0.64283064274E+03  0.50400001928E-02 0. -1.
        1   -1    0    0  501    0  0.00000000000E+00  0.00000000000E+00 -0.12598784786E+04  0.12598784786E+04  0.50400001928E-02 0.  1.
    10030    2    1    2    0    0  0.00000000000E+00  0.00000000000E+00 -0.61704783589E+03  0.19027091214E+04  0.17998760982E+04 0.  0.
        1    1    3    3  502    0 -0.68353068221E+03  0.28029378298E+03 -0.85180172114E+03  0.11275393432E+04  0.50400001928E-02 0.  1.
       -1    1    3    3    0  502  0.68353068221E+03 -0.28029378298E+03  0.23475388525E+03  0.77516977815E+03  0.50400001928E-02 0. -1.
</event>
<event>
 5   0  0.9589963E-06  0.1799781E+04  0.7818609E-02  0.8706416E-01
       -2   -1    0    0    0  501  0.00000000000E+00  0.00000000000E+00  0.94340573300E+03  0.94340573300E+03  0.25500000920E-02 0. -1.
        2   -1    0    0  501    0  0.00000000000E+00  0.00000000000E+00 -0.85838270192E+03  0.85838270192E+03  0.25500000920E-02 0.  1.
    10030    2    1    2    0    0  0.00000000000E+00  0.00000000000E+00  0.85023031082E+02  0.18017884349E+04  0.17997812779E+04 0.  0.
        2    1    3    3  502    0 -0.69316697676E+03  0.54877360317E+03  0.21053860891E+03  0.90882310218E+03  0.25500000920E-02 0.  1.
       -2    1    3    3    0  502  0.69316697676E+03 -0.54877360317E+03 -0.12551557783E+03  0.89296533275E+03  0.25500000920E-02 0. -1.
</event>
<event>
 5   0  0.9589963E-06  0.1798836E+04  0.7818609E-02  0.8706919E-01
        2   -1    0    0  501    0  0.00000000000E+00  0.00000000000E+00  0.71296690711E+03  0.71296690712E+03  0.25500000920E-02 0.  1.
       -2   -1    0    0    0  501  0.00000000000E+00  0.00000000000E+00 -0.11346289384E+04  0.11346289384E+04  0.25500000920E-02 0. -1.
    10030    2    1    2    0    0  0.00000000000E+00  0.00000000000E+00 -0.42166203129E+03  0.18475958455E+04  0.17988361626E+04 0.  0.
        2    1    3    3  502    0  0.63240690741E+03  0.91119912202E+02 -0.86100755949E+03  0.10721825183E+04  0.25500000920E-02 0. -1.
       -2    1    3    3    0  502 -0.63240690741E+03 -0.91119912202E+02  0.43934552821E+03  0.77541332727E+03  0.25500000920E-02 0.  1.
</event>
<event>
 5   0  0.4987456E-06  0.1800033E+04  0.7818609E-02  0.8706282E-01
        1   -1    0    0  501    0  0.00000000000E+00  0.00000000000E+00  0.16136960645E+04  0.16136960645E+04  0.50400001928E-02 0.  1.
       -1   -1    0    0    0  501  0.00000000000E+00  0.00000000000E+00 -0.50197172825E+03  0.50197172827E+03  0.50400001928E-02 0. -1.
    10030    2    1    2    0    0  0.00000000000E+00  0.00000000000E+00  0.11117243363E+04  0.21156677928E+04  0.18000331135E+04 0.  0.
        3    1    3    3  502    0 -0.76925304624E+03 -0.46718509749E+03  0.56079691945E+03  0.10604269704E+04  0.10100000352E+00 0.  1.
       -3    1    3    3    0  502  0.76925304624E+03  0.46718509749E+03  0.55092741682E+03  0.10552408224E+04  0.10100000352E+00 0. -1.
</event>
<event>
 5   0  0.4994123E-06  0.1799134E+04  0.7818609E-02  0.8706760E-01
       -1   -1    0    0    0  501  0.00000000000E+00  0.00000000000E+00  0.79137506177E+03  0.79137506179E+03  0.50400001928E-02 0. -1.
        1   -1    0    0  501    0  0.00000000000E+00  0.00000000000E+00 -0.10225498858E+04  0.10225498858E+04  0.50400001928E-02 0.  1.
    10030    2    1    2    0    0  0.00000000000E+00  0.00000000000E+00 -0.23117482402E+03  0.18139249476E+04  0.17991336571E+04 0.  0.
        1    1    3    3  502    0 -0.19382333961E+01  0.75920448025E+03  0.37089926615E+03  0.84496240463E+03  0.50400001928E-02 0. -1.
       -1    1    3    3    0  502  0.19382333961E+01 -0.75920448025E+03 -0.60207409017E+03  0.96896254296E+03  0.50400001928E-02 0.  1.
</event>
<event>
 5   0  0.4987456E-06  0.1800299E+04  0.7818609E-02  0.8706141E-01
        1   -1    0    0  501    0  0.00000000000E+00  0.00000000000E+00  0.13845719077E+04  0.13845719077E+04  0.50400001928E-02 0. -1.
       -1   -1    0    0    0  501  0.00000000000E+00  0.00000000000E+00 -0.58521247074E+03  0.58521247076E+03  0.50400001928E-02 0.  1.
    10030    2    1    2    0    0  0.00000000000E+00  0.00000000000E+00  0.79935943697E+03  0.19697843785E+04  0.18002985831E+04 0.  0.
        3    1    3    3  502    0  0.22618916667E+03 -0.71337089368E+03  0.94698010735E+03  0.12069925041E+04  0.10100000352E+00 0. -1.
       -3    1    3    3    0  502 -0.22618916667E+03  0.71337089368E+03 -0.14762067038E+03  0.76279187436E+03  0.10100000352E+00 0.  1.
</event>
<event>
 5   0  0.3626125E-06  0.1798391E+04  0.7818609E-02  0.8707156E-01
       -3   -1    0    0    0  501  0.00000000000E+00  0.00000000000E+00  0.90804539449E+03  0.90804540010E+03  0.10100000352E+00 0. -1.
        3   -1    0    0  501    0  0.00000000000E+00  0.00000000000E+00 -0.89043199287E+03  0.89043199860E+03  0.10100000352E+00 0.  1.
    10030    2    1    2    0    0  0.00000000000E+00  0.00000000000E+00  0.17613401614E+02  0.17984773987E+04  0.17983911481E+04 0.  0.
        4    1    3    3  502    0  0.52902289976E+03  0.72566976407E+03 -0.36903615076E+02  0.89879103504E+03  0.12699999809E+01 0.  1.
       -4    1    3    3    0  502 -0.52902289976E+03 -0.72566976407E+03  0.54517016690E+02  0.89968636367E+03  0.12699999809E+01 0. -1.
</event>
<event>
 5   0  0.4983159E-06  0.1799737E+04  0.7818609E-02  0.8706439E-01
        1   -1    0    0  501    0  0.00000000000E+00  0.00000000000E+00  0.12798983710E+04  0.12798983710E+04  0.50400001928E-02 0.  1.
       -1   -1    0    0    0  501  0.00000000000E+00  0.00000000000E+00 -0.63267775971E+03  0.63267775973E+03  0.50400001928E-02 0. -1.
    10030    2    1    2    0    0  0.00000000000E+00  0.00000000000E+00  0.64722061124E+03  0.19125761307E+04  0.17997369075E+04 0.  0.
        4    1    3    3  502    0 -0.48385888903E+03 -0.13738910569E+03 -0.46934047230E+03  0.68795151187E+03  0.12699999809E+01 0. -1.
       -4    1    3    3    0  502  0.48385888903E+03  0.13738910569E+03  0.11165610835E+04  0.12246246188E+04  0.12699999809E+01 0.  1.
</event>
<event>
 5   0  0.4983159E-06  0.1799652E+04  0.7818609E-02  0.8706485E-01
        1   -1    0    0  501    0  0.00000000000E+00  0.00000000000E+00  0.17868330249E+04  0.17868330249E+04  0.50400001928E-02 0. -1.
       -1   -1    0    0    0  501  0.00000000000E+00  0.00000000000E+00 -0.45314077812E+03  0.45314077815E+03  0.50400001928E-02 0.  1.
    10030    2    1    2    0    0  0.00000000000E+00  0.00000000000E+00  0.13336922468E+04  0.22399738031E+04  0.17996520856E+04 0.  0.
        4    1    3    3  502    0  0.10782692787E+03 -0.23023192051E+03  0.17412007332E+04  0.17596633171E+04  0.12699999809E+01 0. -1.
       -4    1    3    3    0  502 -0.10782692787E+03  0.23023192051E+03 -0.40750848634E+03  0.48031048597E+03  0.12699999809E+01 0.  1.
</event>
<event>
 5   0  0.9999162E-06  0.1800881E+04  0.7818609E-02  0.8705831E-01
        2   -1    0    0  501    0  0.00000000000E+00  0.00000000000E+00  0.19567883867E+04  0.19567883867E+04  0.25500000920E-02 0. -1.
       -2   -1    0    0    0  501  0.00000000000E+00  0.00000000000E+00 -0.41434896841E+03  0.41434896842E+03  0.25500000920E-02 0.  1.
    10030    2    1    2    0    0  0.00000000000E+00  0.00000000000E+00  0.15424394183E+04  0.23711373551E+04  0.18008811726E+04 0.  0.
        1    1    3    3  502    0  0.80913637165E+03 -0.37348276926E+03  0.60156945726E+03  0.10752101463E+04  0.50400001928E-02 0. -1.
       -1    1    3    3    0  502 -0.80913637165E+03  0.37348276926E+03  0.94086996102E+03  0.12959272088E+04  0.50400001928E-02 0.  1.
</event>
<event>
 5   0  0.1035018E-05  0.1800208E+04  0.7818609E-02  0.8706189E-01
       -2   -1    0    0    0  501  0.00000000000E+00  0.00000000000E+00  0.10312369123E+04  0.10312369123E+04  0.25500000920E-02 0.  1.
        2   -1    0    0  501    0  0.00000000000E+00  0.00000000000E+00 -0.78564566598E+03  0.78564566598E+03  0.25500000920E-02 0. -1.
    10030    2    1    2    0    0  0.00000000000E+00  0.00000000000E+00  0.24559124633E+03  0.18168825783E+04  0.18002075555E+04 0.  0.
        3    1    3    3  502    0 -0.66896602254E+03 -0.33174840012E+03 -0.38446740745E+03  0.83987364400E+03  0.10100000352E+00 0. -1.
       -3    1    3    3    0  502  0.66896602254E+03  0.33174840012E+03  0.63005865379E+03  0.97700893430E+03  0.10100000352E+00 0.  1.
</event>
<event>
 5   0  0.4981384E-06  0.1799265E+04  0.7818609E-02  0.8706690E-01
       -1   -1    0    0    0  501  0.00000000000E+00  0.00000000000E+00  0.11151423534E+04  0.11151423534E+04  0.50400001928E-02 0. -1.
        1   -1    0    0  501    0  0.00000000000E+00  0.00000000000E+00 -0.72577189668E+03  0.72577189670E+03  0.50400001928E-02 0.  1.
    10030    2    1    2    0    0  0.00000000000E+00  0.00000000000E+00  0.38937045668E+03  0.18409142501E+04  0.17992653844E+04 0.  0.
        5    1    3    3  502    0 -0.31031294113E+03 -0.42634422347E+03 -0.55105777046E+03  0.76272555661E+03  0.46999998093E+01 0.  1.
       -5    1    3    3    0  502  0.31031294113E+03  0.42634422347E+03  0.94042822714E+03  0.10781886935E+04  0.46999998093E+01 0. -1.
</event>
<event>
 5   0  0.9589963E-06  0.1800629E+04  0.7818609E-02  0.8705965E-01
        2   -1    0    0  501    0  0.00000000000E+00  0.00000000000E+00  0.97542525678E+03  0.97542525679E+03  0.25500000920E-02 0.  1.
       -2   -1    0    0    0  501  0.00000000000E+00  0.00000000000E+00 -0.83098753836E+03  0.83098753836E+03  0.25500000920E-02 0. -1.
    10030    2    1    2    0    0  0.00000000000E+00  0.00000000000E+00  0.14443771843E+03  0.18064127951E+04  0.18006290379E+04 0.  0.
        2    1    3    3  502    0 -0.40036299019E+03  0.38765527077E+03 -0.63715856432E+03  0.84648577600E+03  0.25500000920E-02 0. -1.
       -2    1    3    3    0  502  0.40036299019E+03 -0.38765527077E+03  0.78159628275E+03  0.95992701915E+03  0.25500000920E-02 0.  1.
</event>
<event>
 5   0  0.1036381E-05  0.1804251E+04  0.7818609E-02  0.8704042E-01
       -2   -1    0    0    0  501  0.00000000000E+00  0.00000000000E+00  0.10813336280E+04  0.10813336280E+04  0.25500000920E-02 0.  1.
        2   -1    0    0  501    0  0.00000000000E+00  0.00000000000E+00 -0.75261737981E+03  0.75261737981E+03  0.25500000920E-02 0. -1.
    10030    2    1    2    0    0  0.00000000000E+00  0.00000000000E+00  0.32871624815E+03  0.18339510078E+04  0.18042510710E+04 0.  0.
        4    1    3    3  502    0 -0.10524833974E+03  0.49100182683E+03 -0.59742427118E+03  0.78043409694E+03  0.12699999809E+01 0. -1.
       -4    1    3    3    0  502  0.10524833974E+03 -0.49100182683E+03  0.92614051933E+03  0.10535169108E+04  0.12699999809E+01 0.  1.
</event>
<event>
 5   0  0.4983159E-06  0.1800886E+04  0.7818609E-02  0.8705828E-01
        1   -1    0    0  501    0  0.00000000000E+00  0.00000000000E+00  0.11464691636E+04  0.11464691636E+04  0.50400001928E-02 0.  1.
       -1   -1    0    0    0  501  0.00000000000E+00  0.00000000000E+00 -0.70721290576E+03  0.70721290578E+03  0.50400001928E-02 0. -1.
    10030    2    1    2    0    0  0.00000000000E+00  0.00000000000E+00  0.43925625779E+03  0.18536820693E+04  0.18008862136E+04 0.  0.
        4    1    3    3  502    0 -0.23369743363E+01  0.34080462762E+03  0.10775145277E+04  0.11301293846E+04  0.12699999809E+01 0.  1.
       -4    1    3    3    0  502  0.23369743363E+01 -0.34080462762E+03 -0.63825826988E+03  0.72355268476E+03  0.12699999809E+01 0. -1.
</event>
<event>
 5   0  0.1000316E-05  0.1800418E+04  0.7818609E-02  0.8706077E-01
       -2   -1    0    0    0  501  0.00000000000E+00  0.00000000000E+00  0.70827494323E+03  0.70827494324E+03  0.25500000920E-02 0. -1.
        2   -1    0    0  501    0  0.00000000000E+00  0.00000000000E+00 -0.11441550362E+04  0.11441550362E+04  0.25500000920E-02 0.  1.
    10030    2    1    2    0    0  0.00000000000E+00  0.00000000000E+00 -0.43588009301E+03  0.18524299795E+04  0.18004181107E+04 0.  0.
        5    1    3    3  502    0 -0.21679195424E+03  0.74411541404E+03  0.25316041916E+03  0.81536420614E+03  0.46999998093E+01 0.  1.
       -5    1    3    3    0  502  0.21679195424E+03 -0.74411541404E+03 -0.68904051217E+03  0.10370657733E+04  0.46999998093E+01 0. -1.
</event>
<event>
 5   0  0.9999162E-06  0.1801565E+04  0.7818609E-02  0.8705468E-01
        2   -1    0    0  501    0  0.00000000000E+00  0.00000000000E+00  0.12668830371E+04  0.12668830371E+04  0.25500000920E-02 0.  1.
       -2   -1    0    0    0  501  0.00000000000E+00  0.00000000000E+00 -0.64047663016E+03  0.64047663017E+03  0.25500000920E-02 0. -1.
    10030    2    1    2    0    0  0.00000000000E+00  0.00000000000E+00  0.62640640696E+03  0.19073596673E+04  0.18015648514E+04 0.  0.
        1    1    3    3  502    0  0.21776218347E+03  0.18548162420E+03  0.12175202046E+04  0.12506715197E+04  0.50400001928E-02 0.  1.
       -1    1    3    3    0  502 -0.21776218347E+03 -0.18548162420E+03 -0.59111379763E+03  0.65668814763E+03  0.50400001928E-02 0. -1.
</event>
<event>
 5   0  0.4983159E-06  0.1799523E+04  0.7818609E-02  0.8706553E-01
        1   -1    0    0  501    0  0.00000000000E+00  0.00000000000E+00  0.10577189586E+04  0.10577189586E+04  0.50400001928E-02 0. -1.
       -1   -1    0    0    0  501  0.00000000000E+00  0.00000000000E+00 -0.76539284108E+03  0.76539284110E+03  0.50400001928E-02 0.  1.
    10030    2    1    2    0    0  0.00000000000E+00  0.00000000000E+00  0.29232611750E+03  0.18231117997E+04  0.17995227354E+04 0.  0.
        4    1    3    3  502    0 -0.52201177886E+03 -0.52439775774E+03 -0.37248478045E+03  0.82839352373E+03  0.12699999809E+01 0.  1.
       -4    1    3    3    0  502  0.52201177886E+03  0.52439775774E+03  0.66481089795E+03  0.99471827596E+03  0.12699999809E+01 0. -1.
</event>
<event>
 5   0  0.4987456E-06  0.1800221E+04  0.7818609E-02  0.8706182E-01
       -1   -1    0    0    0  501  0.00000000000E+00  0.00000000000E+00  0.70309439310E+03  0.70309439312E+03  0.50400001928E-02 0. -1.
        1   -1    0    0  501    0  0.00000000000E+00  0.00000000000E+00 -0.11523328956E+04  0.11523328956E+04  0.50400001928E-02 0.  1.
    10030    2    1    2    0    0  0.00000000000E+00  0.00000000000E+00 -0.44923850246E+03  0.18554272887E+04  0.18002208730E+04 0.  0.
        3    1    3    3  502    0 -0.20353376337E+03 -0.67491075982E+03 -0.80148711382E+03  0.10673856521E+04  0.10100000352E+00 0.  1.
       -3    1    3    3    0  502  0.20353376337E+03  0.67491075982E+03  0.35224861136E+03  0.78804163656E+03  0.10100000352E+00 0. -1.
</event>
<event>
 5   0  0.1036381E-05  0.1802067E+04  0.7818609E-02  0.8705201E-01
        2   -1    0    0  501    0  0.00000000000E+00  0.00000000000E+00  0.75335813712E+03  0.75335813712E+03  0.25500000920E-02 0.  1.
       -2   -1    0    0    0  501  0.00000000000E+00  0.00000000000E+00 -0.10776568224E+04  0.10776568224E+04  0.25500000920E-02 0. -1.
    10030    2    1    2    0    0  0.00000000000E+00  0.00000000000E+00 -0.32429868527E+03  0.18310149595E+04  0.18020671865E+04 0.  0.
        4    1    3    3  502    0  0.69679098134E+03 -0.57126344868E+03 -0.16272750407E+03  0.91560988033E+03  0.12699999809E+01 0. -1.
       -4    1    3    3    0  502 -0.69679098134E+03  0.57126344868E+03 -0.16157118119E+03  0.91540507917E+03  0.12699999809E+01 0.  1.
</event>
<event>
 5   0  0.1035018E-05  0.1799460E+04  0.7818609E-02  0.8706587E-01
        2   -1    0    0  501    0  0.00000000000E+00  0.00000000000E+00  0.92275996120E+03  0.92275996121E+03  0.25500000920E-02 0.  1.
       -2   -1    0    0    0  501  0.00000000000E+00  0.00000000000E+00 -0.87727464138E+03  0.87727464138E+03  0.25500000920E-02 0. -1.
    10030    2    1    2    0    0  0.00000000000E+00  0.00000000000E+00  0.45485319825E+02  0.18000346026E+04  0.17994598234E+04 0.  0.
        3    1    3    3  502    0  0.79460381236E+03  0.83264062778E+02  0.43662085219E+03  0.91047564577E+03  0.10100000352E+00 0. -1.
       -3    1    3    3    0  502 -0.79460381236E+03 -0.83264062778E+02 -0.39113553237E+03  0.88955895682E+03  0.10100000352E+00 0.  1.
</event>
<event>
 5   0  0.9589963E-06  0.1799779E+04  0.7818609E-02  0.8706417E-01
       -2   -1    0    0    0  501  0.00000000000E+00  0.00000000000E+00  0.11341510593E+04  0.11341510593E+04  0.25500000920E-02 0. -1.
        2   -1    0    0  501    0  0.00000000000E+00  0.00000000000E+00 -0.71401489002E+03  0.71401489003E+03  0.25500000920E-02 0.  1.
    10030    2    1    2    0    0  0.00000000000E+00  0.00000000000E+00  0.42013616931E+03  0.18481659494E+04  0.17997785907E+04 0.  0.
        2    1    3    3  502    0  0.66249132147E+03 -0.23443139727E+03 -0.36713630939E+03  0.79286940963E+03  0.25500000920E-02 0.  1.
       -2    1    3    3    0  502 -0.66249132147E+03  0.23443139727E+03  0.78727247871E+03  0.10552965397E+04  0.25500000920E-02 0. -1.
</event>
<event>
 5   0  0.9589963E-06  0.1800434E+04  0.7818609E-02  0.8706069E-01
        2   -1    0    0  501    0  0.00000000000E+00  0.00000000000E+00  0.78050602059E+03  0.78050602059E+03  0.25500000920E-02 0. -1.
       -2   -1    0    0    0  501  0.00000000000E+00  0.00000000000E+00 -0.10382885515E+04  0.10382885515E+04  0.25500000920E-02 0.  1.
    10030    2    1    2    0    0  0.00000000000E+00  0.00000000000E+00 -0.25778253093E+03  0.18187945721E+04  0.18004337984E+04 0.  0.
        2    1    3    3  502    0  0.60100308271E+03 -0.13349417443E+03 -0.79237300958E+03  0.10034342960E+04  0.25500000920E-02 0.  1.
       -2    1    3    3    0  502 -0.60100308271E+03  0.13349417443E+03  0.53459047865E+03  0.81536027613E+03  0.25500000920E-02 0. -1.
</event>
<event>
 5   0  0.1036381E-05  0.1801462E+04  0.7818609E-02  0.8705522E-01
       -2   -1    0    0    0  501  0.00000000000E+00  0.00000000000E+00  0.28075658311E+03  0.28075658312E+03  0.25500000920E-02 0. -1.
        2   -1    0    0  501    0  0.00000000000E+00  0.00000000000E+00 -0.28897493394E+04  0.28897493394E+04  0.25500000920E-02 0.  1.
    10030    2    1    2    0    0  0.00000000000E+00  0.00000000000E+00 -0.26089927563E+04  0.31705059225E+04  0.18014617960E+04 0.  0.
        4    1    3    3  502    0  0.62922828845E+03 -0.16364845274E+03 -0.24016260841E+04  0.24880752632E+04  0.12699999809E+01 0.  1.
       -4    1    3    3    0  502 -0.62922828845E+03  0.16364845274E+03 -0.20736667226E+03  0.68243065929E+03  0.12699999809E+01 0. -1.
</event>
<event>
 5   0  0.1000316E-05  0.1799963E+04  0.7818609E-02  0.8706319E-01
        2   -1    0    0  501    0  0.00000000000E+00  0.00000000000E+00  0.13355965110E+04  0.13355965110E+04  0.25500000920E-02 0.  1.
       -2   -1    0    0    0  501  0.00000000000E+00  0.00000000000E+00 -0.60644535573E+03  0.60644535573E+03  0.25500000920E-02 0. -1.
    10030    2    1    2    0    0  0.00000000000E+00  0.00000000000E+00  0.72915115524E+03  0.19420418667E+04  0.17999625565E+04 0.  0.
        5    1    3    3  502    0 -0.89380206249E+03 -0.46560314040E+02  0.26282214087E+03  0.93281700107E+03  0.46999998093E+01 0. -1.
       -5    1    3    3    0  502  0.89380206249E+03  0.46560314040E+02  0.46632901437E+03  0.10092248656E+04  0.46999998093E+01 0.  1.
</event>
<event>
 5   0  0.1000316E-05  0.1799698E+04  0.7818609E-02  0.8706460E-01
       -2   -1    0    0    0  501  0.00000000000E+00  0.00000000000E+00  0.66154958968E+03  0.66154958969E+03  0.25500000920E-02 0.  1.
        2   -1    0    0  501    0  0.00000000000E+00  0.00000000000E+00 -0.12239873833E+04  0.12239873833E+04  0.25500000920E-02 0. -1.
    10030    2    1    2    0    0  0.00000000000E+00  0.00000000000E+00 -0.56243779358E+03  0.18855369730E+04  0.17996981427E+04 0.  0.
        5    1    3    3  502    0  0.45891533988E+03  0.56969570175E+03  0.26774771813E+03  0.77901695253E+03  0.46999998093E+01 0.  1.
       -5    1    3    3    0  502 -0.45891533988E+03 -0.56969570175E+03 -0.83018551171E+03  0.11065200204E+04  0.46999998093E+01 0. -1.
</event>
<event>
 5   0  0.1035018E-05  0.1800214E+04  0.7818609E-02  0.8706186E-01
        2   -1    0    0  501    0  0.00000000000E+00  0.00000000000E+00  0.15059622804E+04  0.15059622804E+04  0.25500000920E-02 0.  1.
       -2   -1    0    0    0  501  0.00000000000E+00  0.00000000000E+00 -0.53798980315E+03  0.53798980316E+03  0.25500000920E-02 0. -1.
    10030    2    1    2    0    0  0.00000000000E+00  0.00000000000E+00  0.96797247728E+03  0.20439520836E+04  0.18002137104E+04 0.  0.
        3    1    3    3  502    0  0.19401307577E+03 -0.86298475114E+03  0.29464897274E+03  0.93230991715E+03  0.10100000352E+00 0. -1.
       -3    1    3    3    0  502 -0.19401307577E+03  0.86298475114E+03  0.67332350454E+03  0.11116421665E+04  0.10100000352E+00 0.  1.
</event>
<event>
 5   0  0.4994123E-06  0.1799629E+04  0.7818609E-02  0.8706497E-01
       -1   -1    0    0    0  501  0.00000000000E+00  0.00000000000E+00  0.73734915875E+03  0.73734915876E+03  0.50400001928E-02 0.  1.
        1   -1    0    0  501    0  0.00000000000E+00  0.00000000000E+00 -0.10980767526E+04  0.10980767526E+04  0.50400001928E-02 0. -1.
    10030    2    1    2    0    0  0.00000000000E+00  0.00000000000E+00 -0.36072759381E+03  0.18354259113E+04  0.17996288170E+04 0.  0.
        1    1    3    3  502    0  0.71505377602E+03 -0.31245837694E+03 -0.63730908674E+03  0.10075192365E+04  0.50400001928E-02 0. -1.
       -1    1    3    3    0  502 -0.71505377602E+03  0.31245837694E+03  0.27658149292E+03  0.82790667480E+03  0.50400001928E-02 0.  1.
</event>
<event>
 5   0  0.4994123E-06  0.1800596E+04  0.7818609E-02  0.8705982E-01
       -1   -1    0    0    0  501  0.00000000000E+00  0.00000000000E+00  0.46706115222E+03  0.46706115225E+03  0.50400001928E-02 0. -1.
        1   -1    0    0  501    0  0.00000000000E+00  0.00000000000E+00 -0.17353973788E+04  0.17353973788E+04  0.50400001928E-02 0.  1.
    10030    2    1    2    0    0  0.00000000000E+00  0.00000000000E+00 -0.12683362266E+04  0.22024585311E+04  0.18005962339E+04 0.  0.
        1    1    3    3  502    0  0.80895037199E+03 -0.39474278711E+03 -0.65584735264E+03  0.11137137524E+04  0.50400001928E-02 0. -1.
       -1    1    3    3    0  502 -0.80895037199E+03  0.39474278711E+03 -0.61248887396E+03  0.10887447787E+04  0.50400001928E-02 0.  1.
</event>
<event>
 5   0  0.9589963E-06  0.1800582E+04  0.7818609E-02  0.8705990E-01
       -2   -1    0    0    0  501  0.00000000000E+00  0.00000000000E+00  0.51377720979E+03  0.51377720980E+03  0.25500000920E-02 0.  1.
        2   -1    0    0  501    0  0.00000000000E+00  0.00000000000E+00 -0.15775777293E+04  0.15775777293E+04  0.25500000920E-02 0. -1.
    10030    2    1    2    0    0  0.00000000000E+00  0.00000000000E+00 -0.10638005195E+04  0.20913549391E+04  0.18005815549E+04 0.  0.
        2    1    3    3  502    0  0.28340800403E+03 -0.22283646980E+03 -0.14900736494E+04  0.15330674054E+04  0.25500000920E-02 0. -1.
       -2    1    3    3    0  502 -0.28340800403E+03  0.22283646980E+03  0.42627312986E+03  0.55828753368E+03  0.25500000920E-02 0.  1.
</event>
<event>
 5   0  0.1036381E-05  0.1800317E+04  0.7818609E-02  0.8706131E-01
        2   -1    0    0  501    0  0.00000000000E+00  0.00000000000E+00  0.20435114217E+04  0.20435114217E+04  0.25500000920E-02 0.  1.
       -2   -1    0    0    0  501  0.00000000000E+00  0.00000000000E+00 -0.39651600639E+03  0.39651600640E+03  0.25500000920E-02 0. -1.
    10030    2    1    2    0    0  0.00000000000E+00  0.00000000000E+00  0.16469954153E+04  0.24400274281E+04  0.18003166254E+04 0.  0.
        4    1    3    3  502    0 -0.79944856173E+03 -0.17274801500E+03  0.13330080471E+04  0.15639283699E+04  0.12699999809E+01 0.  1.
       -4    1    3    3    0  502  0.79944856173E+03  0.17274801500E+03  0.31398736821E+03  0.87609905824E+03  0.12699999809E+01 0. -1.
</event>
<event>
 5   0  0.4981384E-06  0.1808770E+04  0.7818609E-02  0.8701649E-01
       -1   -1    0    0    0  501  0.00000000000E+00  0.00000000000E+00  0.98703791394E+03  0.98703791395E+03  0.50400001928E-02 0.  1.
        1   -1    0    0  501    0  0.00000000000E+00  0.00000000000E+00 -0.82865364920E+03  0.82865364921E+03  0.50400001928E-02 0. -1.
    10030    2    1    2    0    0  0.00000000000E+00  0.00000000000E+00  0.15838426474E+03  0.18156915632E+04  0.18087703771E+04 0.  0.
        5    1    3    3  502    0 -0.62422358415E+03  0.14816255350E+03  0.71903465623E+03  0.96365976990E+03  0.46999998093E+01 0.  1.
       -5    1    3    3    0  502  0.62422358415E+03 -0.14816255350E+03 -0.56065039148E+03  0.85203179327E+03  0.46999998093E+01 0. -1.
</event>
<event>
 5   0  0.9999162E-06  0.1801174E+04  0.7818609E-02  0.8705675E-01
       -2   -1    0    0    0  501  0.00000000000E+00  0.00000000000E+00  0.41687798640E+03  0.41687798640E+03  0.25500000920E-02 0.  1.
        2   -1    0    0  501    0  0.00000000000E+00  0.00000000000E+00 -0.19455505721E+04  0.19455505721E+04  0.25500000920E-02 0. -1.
    10030    2    1    2    0    0  0.00000000000E+00  0.00000000000E+00 -0.15286725857E+04  0.23624285585E+04  0.18011742891E+04 0.  0.
        1    1    3    3  502    0 -0.15963457109E+03 -0.91984255793E+02 -0.19205683484E+04  0.19293851560E+04  0.50400001928E-02 0. -1.
       -1    1    3    3    0  502  0.15963457109E+03  0.91984255793E+02  0.39189576266E+03  0.43304340246E+03  0.50400001928E-02 0.  1.
</event>
<event>
 5   0  0.4981384E-06  0.1799455E+04  0.7818609E-02  0.8706589E-01
       -1   -1    0    0    0  501  0.00000000000E+00  0.00000000000E+00  0.11001699258E+04  0.11001699258E+04  0.50400001928E-02 0. -1.
        1   -1    0    0  501    0  0.00000000000E+00  0.00000000000E+00 -0.73580443910E+03  0.73580443912E+03  0.50400001928E-02 0.  1.
    10030    2    1    2    0    0  0.00000000000E+00  0.00000000000E+00  0.36436548670E+03  0.18359743649E+04  0.17994553789E+04 0.  0.
        5    1    3    3  502    0  0.69253745962E+03 -0.33052183617E+03  0.66143342857E+03  0.10130987551E+04  0.46999998093E+01 0. -1.
       -5    1    3    3    0  502 -0.69253745962E+03  0.33052183617E+03 -0.29706794187E+03  0.82287560983E+03  0.46999998093E+01 0.  1.
</event>
<event>
 5   0  0.4983159E-06  0.1799798E+04  0.7818609E-02  0.8706407E-01
        1   -1    0    0  501    0  0.00000000000E+00  0.00000000000E+00  0.13116799349E+04  0.13116799349E+04  0.50400001928E-02 0. -1.
       -1   -1    0    0    0  501  0.00000000000E+00  0.00000000000E+00 -0.61739039263E+03  0.61739039265E+03  0.50400001928E-02 0.  1.
    10030    2    1    2    0    0  0.00000000000E+00  0.00000000000E+00  0.69428954227E+03  0.19290703276E+04  0.17997984221E+04 0.  0.
        4    1    3    3  502    0 -0.22490265330E+03  0.46380760619E+03 -0.44348079108E+03  0.67998200268E+03  0.12699999809E+01 0.  1.
       -4    1    3    3    0  502  0.22490265330E+03 -0.46380760619E+03  0.11377703333E+04  0.12490883249E+04  0.12699999809E+01 0. -1.
</event>
<event>
 5   0  0.4994123E-06  0.1801495E+04  0.7818609E-02  0.8705505E-01
        1   -1    0    0  501    0  0.00000000000E+00  0.00000000000E+00  0.16044728603E+04  0.16044728603E+04  0.50400001928E-02 0.  1.
       -1   -1    0    0    0  501  0.00000000000E+00  0.00000000000E+00 -0.50567744244E+03  0.50567744247E+03  0.50400001928E-02 0. -1.
    10030    2    1    2    0    0  0.00000000000E+00  0.00000000000E+00  0.10987954179E+04  0.21101503028E+04  0.18014946378E+04 0.  0.
        1    1    3    3  502    0  0.26641263592E+03  0.30733977417E+03 -0.39198712032E+03  0.56487815667E+03  0.50400001928E-02 0. -1.
       -1    1    3    3    0  502 -0.26641263592E+03 -0.30733977417E+03  0.14907825382E+04  0.15452721461E+04  0.50400001928E-02 0.  1.
</event>
<event>
 5   0  0.4994123E-06  0.1800317E+04  0.7818609E-02  0.8706131E-01
       -1   -1    0    0    0  501  0.00000000000E+00  0.00000000000E+00  0.68056844208E+03  0.68056844210E+03  0.50400001928E-02 0. -1.
        1   -1    0    0  501    0  0.00000000000E+00  0.00000000000E+00 -0.11906002451E+04  0.11906002451E+04  0.50400001928E-02 0.  1.
    10030    2    1    2    0    0  0.00000000000E+00  0.00000000000E+00 -0.51003180301E+03  0.18711686872E+04  0.18003165877E+04 0.  0.
        1    1    3    3  502    0  0.58102400364E+03 -0.10466562130E+03  0.45124206107E+03  0.74307683506E+03  0.50400001928E-02 0. -1.
       -1    1    3    3    0  502 -0.58102400364E+03  0.10466562130E+03 -0.96127386409E+03  0.11280918522E+04  0.50400001928E-02 0.  1.
</event>
<event>
 5   0  0.4994123E-06  0.1798974E+04  0.7818609E-02  0.8706846E-01
       -1   -1    0    0    0  501  0.00000000000E+00  0.00000000000E+00  0.12008615293E+04  0.12008615293E+04  0.50400001928E-02 0. -1.
        1   -1    0    0  501    0  0.00000000000E+00  0.00000000000E+00 -0.67374667347E+03  0.67374667349E+03  0.50400001928E-02 0.  1.
    10030    2    1    2    0    0  0.00000000000E+00  0.00000000000E+00  0.52711485586E+03  0.18746082028E+04  0.17989735526E+04 0.  0.
        1    1    3    3  502    0 -0.31993405980E+02 -0.83487168744E+03 -0.83682503558E+02  0.83966485810E+03  0.50400001928E-02 0.  1.
       -1    1    3    3    0  502  0.31993405980E+02  0.83487168744E+03  0.61079735942E+03  0.10349433447E+04  0.50400001928E-02 0. -1.
</event>
<event>
 5   0  0.4953155E-06  0.1799460E+04  0.7818609E-02  0.8706587E-01
       -1   -1    0    0    0  501  0.00000000000E+00  0.00000000000E+00  0.15744297931E+04  0.15744297931E+04  0.50400001928E-02 0. -1.
        1   -1    0    0  501    0  0.00000000000E+00  0.00000000000E+00 -0.51416309704E+03  0.51416309706E+03  0.50400001928E-02 0.  1.
    10030    2    1    2    0    0  0.00000000000E+00  0.00000000000E+00  0.10602666960E+04  0.20885928901E+04  0.17994595839E+04 0.  0.
        2    1    3    3  502    0  0.17800777588E+03  0.87787370177E+03  0.62837836242E+03  0.10941701746E+04  0.25500000920E-02 0. -1.
       -2    1    3    3    0  502 -0.17800777588E+03 -0.87787370177E+03  0.43188833360E+03  0.99442271557E+03  0.25500000920E-02 0.  1.
</event>
<event>
 5   0  0.4981384E-06  0.1798281E+04  0.7818609E-02  0.8707214E-01
       -1   -1    0    0    0  501  0.00000000000E+00  0.00000000000E+00  0.70847100374E+03  0.70847100376E+03  0.50400001928E-02 0.  1.
        1   -1    0    0  501    0  0.00000000000E+00  0.00000000000E+00 -0.11411247327E+04  0.11411247327E+04  0.50400001928E-02 0. -1.
    10030    2    1    2    0    0  0.00000000000E+00  0.00000000000E+00 -0.43265372898E+03  0.18495957365E+04  0.17982811625E+04 0.  0.
        5    1    3    3  502    0 -0.72290726050E+03  0.48884211744E+03 -0.43899983011E+03  0.97688508224E+03  0.46999998093E+01 0. -1.
       -5    1    3    3    0  502  0.72290726050E+03 -0.48884211744E+03  0.63461011221E+01  0.87271065426E+03  0.46999998093E+01 0.  1.
</event>
<event>
 5   0  0.1035018E-05  0.1800829E+04  0.7818609E-02  0.8705859E-01
       -2   -1    0    0    0  501  0.00000000000E+00  0.00000000000E+00  0.60349540907E+03  0.60349540908E+03  0.25500000920E-02 0. -1.
        2   -1    0    0  501    0  0.00000000000E+00  0.00000000000E+00 -0.13434168140E+04  0.13434168140E+04  0.25500000920E-02 0.  1.
    10030    2    1    2    0    0  0.00000000000E+00  0.00000000000E+00 -0.73992140493E+03  0.19469122231E+04  0.18008285646E+04 0.  0.
        3    1    3    3  502    0 -0.75355955106E+02  0.55510777353E+03  0.39215063628E+03  0.68381670932E+03  0.10100000352E+00 0. -1.
       -3    1    3    3    0  502  0.75355955106E+02 -0.55510777353E+03 -0.11320720412E+04  0.12630955138E+04  0.10100000352E+00 0.  1.
</event>
<event>
 5   0  0.4987456E-06  0.1800944E+04  0.7818609E-02  0.8705798E-01
        1   -1    0    0  501    0  0.00000000000E+00  0.00000000000E+00  0.23788518775E+03  0.23788518780E+03  0.50400001928E-02 0.  1.
       -1   -1    0    0    0  501  0.00000000000E+00  0.00000000000E+00 -0.34085751774E+04  0.34085751774E+04  0.50400001928E-02 0. -1.
    10030    2    1    2    0    0  0.00000000000E+00  0.00000000000E+00 -0.31706899896E+04  0.36464603652E+04  0.18009436928E+04 0.  0.
        3    1    3    3  502    0 -0.68729970909E+03 -0.56385208238E+03 -0.18755240298E+04  0.20755482306E+04  0.10100000352E+00 0.  1.
       -3    1    3    3    0  502  0.68729970909E+03  0.56385208238E+03 -0.12951659598E+04  0.15709121346E+04  0.10100000352E+00 0. -1.
</event>
<event>
 5   0  0.4953155E-06  0.1797360E+04  0.7818609E-02  0.8707705E-01
        1   -1    0    0  501    0  0.00000000000E+00  0.00000000000E+00  0.68517222464E+03  0.68517222465E+03  0.50400001928E-02 0. -1.
       -1   -1    0    0    0  501  0.00000000000E+00  0.00000000000E+00 -0.11787195335E+04  0.11787195335E+04  0.50400001928E-02 0.  1.
    10030    2    1    2    0    0  0.00000000000E+00  0.00000000000E+00 -0.49354730888E+03  0.18638917582E+04  0.17973601587E+04 0.  0.
        2    1    3    3  502    0 -0.79939128154E+03  0.12597093168E+03 -0.65204777692E+03  0.10392600252E+04  0.25500000920E-02 0.  1.
       -2    1    3    3    0  502  0.79939128154E+03 -0.12597093168E+03  0.15850046804E+03  0.82463173296E+03  0.25500000920E-02 0. -1.
</event>
<event>
 5   0  0.1000316E-05  0.1799676E+04  0.7818609E-02  0.8706472E-01
       -2   -1    0    0    0  501  0.00000000000E+00  0.00000000000E+00  0.10321792239E+04  0.10321792239E+04  0.25500000920E-02 0. -1.
        2   -1    0    0  501    0  0.00000000000E+00  0.00000000000E+00 -0.78446455695E+03  0.78446455695E+03  0.25500000920E-02 0.  1.
    10030    2    1    2    0    0  0.00000000000E+00  0.00000000000E+00  0.24771466696E+03  0.18166437809E+04  0.17996755459E+04 0.  0.
        5    1    3    3  502    0  0.52239650177E+03 -0.54278315042E+03 -0.37289459788E+03  0.84058558432E+03  0.46999998093E+01 0.  1.
       -5    1    3    3    0  502 -0.52239650177E+03  0.54278315042E+03  0.62060926484E+03  0.97605819654E+03  0.46999998093E+01 0. -1.
</event>
<event>
 5   0  0.1035018E-05  0.1799679E+04  0.7818609E-02  0.8706470E-01
       -2   -1    0    0    0  501  0.00000000000E+00  0.00000000000E+00  0.45534829114E+03  0.45534829114E+03  0.25500000920E-02 0.  1.
        2   -1    0    0  501    0  0.00000000000E+00  0.00000000000E+00 -0.17782234468E+04  0.17782234468E+04  0.25500000920E-02 0. -1.
    10030    2    1    2    0    0  0.00000000000E+00  0.00000000000E+00 -0.13228751557E+04  0.22335717379E+04  0.17996788689E+04 0.  0.
        3    1    3    3  502    0 -0.71556447630E+03  0.30029238447E+03 -0.12267871114E+04  0.14516248354E+04  0.10100000352E+00 0. -1.
       -3    1    3    3    0  502  0.71556447630E+03 -0.30029238447E+03 -0.96088044260E+02  0.78194690252E+03  0.10100000352E+00 0.  1.
</event>
<event>
 5   0  0.4994123E-06  0.1799748E+04  0.7818609E-02  0.8706433E-01
       -1   -1    0    0    0  501  0.00000000000E+00  0.00000000000E+00  0.44982091929E+03  0.44982091932E+03  0.50400001928E-02 0.  1.
        1   -1    0    0  501    0  0.00000000000E+00  0.00000000000E+00 -0.18002125187E+04  0.18002125187E+04  0.50400001928E-02 0. -1.
    10030    2    1    2    0    0  0.00000000000E+00  0.00000000000E+00 -0.13503915994E+04  0.22500334381E+04  0.17997480381E+04 0.  0.
        1    1    3    3  502    0 -0.18552892652E+03 -0.84884305686E+03 -0.38248564008E+03  0.94934228951E+03  0.50400001928E-02 0.  1.
       -1    1    3    3    0  502  0.18552892652E+03  0.84884305686E+03 -0.96790595936E+03  0.13006911486E+04  0.50400001928E-02 0. -1.
</event>
<event>
 5   0  0.1036381E-05  0.1799737E+04  0.7818609E-02  0.8706439E-01
        2   -1    0    0  501    0  0.00000000000E+00  0.00000000000E+00  0.19866958735E+04  0.19866958735E+04  0.25500000920E-02 0. -1.
       -2   -1    0    0    0  501  0.00000000000E+00  0.00000000000E+00 -0.40759286251E+03  0.40759286251E+03  0.25500000920E-02 0.  1.
    10030    2    1    2    0    0  0.00000000000E+00  0.00000000000E+00  0.15791030110E+04  0.23942887360E+04  0.17997367119E+04 0.  0.
        4    1    3    3  502    0  0.25125606093E+03 -0.20873539060E+03  0.19050376130E+04  0.19328398773E+04  0.12699999809E+01 0. -1.
       -4    1    3    3    0  502 -0.25125606093E+03  0.20873539060E+03 -0.32593460206E+03  0.46144885866E+03  0.12699999809E+01 0.  1.
</event>
<event>
 5   0  0.9999162E-06  0.1799967E+04  0.7818609E-02  0.8706317E-01
       -2   -1    0    0    0  501  0.00000000000E+00  0.00000000000E+00  0.90684909885E+03  0.90684909886E+03  0.25500000920E-02 0. -1.
        2   -1    0    0  501    0  0.00000000000E+00  0.00000000000E+00 -0.89316941391E+03  0.89316941391E+03  0.25500000920E-02 0.  1.
    10030    2    1    2    0    0  0.00000000000E+00  0.00000000000E+00  0.13679684943E+02  0.18000185128E+04  0.17999665309E+04 0.  0.
        1    1    3    3  502    0 -0.51569120053E+03 -0.47393699434E+03  0.57202533283E+03  0.90430452301E+03  0.50400001928E-02 0. -1.
       -1    1    3    3    0  502  0.51569120053E+03  0.47393699434E+03 -0.55834564789E+03  0.89571398976E+03  0.50400001928E-02 0.  1.
</event>
<event>
 5   0  0.1035018E-05  0.1800131E+04  0.7818609E-02  0.8706230E-01
        2   -1    0    0  501    0  0.00000000000E+00  0.00000000000E+00  0.12806869509E+04  0.12806869509E+04  0.25500000920E-02 0. -1.
       -2   -1    0    0    0  501  0.00000000000E+00  0.00000000000E+00 -0.63256502624E+03  0.63256502625E+03  0.25500000920E-02 0.  1.
    10030    2    1    2    0    0  0.00000000000E+00  0.00000000000E+00  0.64812192462E+03  0.19132519771E+04  0.18001308560E+04 0.  0.
        3    1    3    3  502    0 -0.11492264718E+03 -0.70294461040E+03 -0.26077123480E+03  0.75851169221E+03  0.10100000352E+00 0.  1.
       -3    1    3    3    0  502  0.11492264718E+03  0.70294461040E+03  0.90889315942E+03  0.11547402849E+04  0.10100000352E+00 0. -1.
</event>
<event>
 5   0  0.4981384E-06  0.1798579E+04  0.7818609E-02  0.8707056E-01
        1   -1    0    0  501    0  0.00000000000E+00  0.00000000000E+00  0.93985237866E+03  0.93985237867E+03  0.50400001928E-02 0.  1.
       -1   -1    0    0    0  501  0.00000000000E+00  0.00000000000E+00 -0.86047694667E+03  0.86047694668E+03  0.50400001928E-02 0. -1.
    10030    2    1    2    0    0  0.00000000000E+00  0.00000000000E+00  0.79375431991E+02  0.18003293254E+04  0.17985786668E+04 0.  0.
        5    1    3    3  502    0  0.75833938856E+03  0.15011839604E+03  0.49957485014E+03  0.92044080850E+03  0.46999998093E+01 0.  1.
       -5    1    3    3    0  502 -0.75833938856E+03 -0.15011839604E+03 -0.42019941815E+03  0.87988851685E+03  0.46999998093E+01 0. -1.
</event>
<event>
 5   0  0.4953155E-06  0.1799699E+04  0.7818609E-02  0.8706459E-01
        1   -1    0    0  501    0  0.00000000000E+00  0.00000000000E+00  0.24429228157E+04  0.24429228157E+04  0.50400001928E-02 0. -1.
       -1   -1    0    0    0  501  0.00000000000E+00  0.00000000000E+00 -0.33145921753E+03  0.33145921756E+03  0.50400001928E-02 0.  1.
    10030    2    1    2    0    0  0.00000000000E+00  0.00000000000E+00  0.21114635982E+04  0.27743820333E+04  0.17996991805E+04 0.  0.
        2    1    3    3  502    0 -0.73501659131E+03  0.15200499950E+03  0.18209126849E+04  0.19695374877E+04  0.25500000920E-02 0. -1.
       -2    1    3    3    0  502  0.73501659131E+03 -0.15200499950E+03  0.29055091331E+03  0.80484454562E+03  0.25500000920E-02 0.  1.
</event>
<event>
 5   0  0.4994123E-06  0.1799979E+04  0.7818609E-02  0.8706310E-01
        1   -1    0    0  501    0  0.00000000000E+00  0.00000000000E+00  0.10632842926E+04  0.10632842926E+04  0.50400001928E-02 0. -1.
       -1   -1    0    0    0  501  0.00000000000E+00  0.00000000000E+00 -0.76177323752E+03  0.76177323753E+03  0.50400001928E-02 0.  1.
    10030    2    1    2    0    0  0.00000000000E+00  0.00000000000E+00  0.30151105506E+03  0.18250575301E+04  0.17999794643E+04 0.  0.
        1    1    3    3  502    0 -0.42985986359E+03  0.16433208955E+03 -0.63345219863E+03  0.78297268532E+03  0.50400001928E-02 0.  1.
       -1    1    3    3    0  502  0.42985986359E+03 -0.16433208955E+03  0.93496325369E+03  0.10420848448E+04  0.50400001928E-02 0. -1.
</event>
<event>
 5   0  0.9589963E-06  0.1800922E+04  0.7818609E-02  0.8705810E-01
        2   -1    0    0  501    0  0.00000000000E+00  0.00000000000E+00  0.14694063431E+04  0.14694063431E+04  0.25500000920E-02 0. -1.
       -2   -1    0    0    0  501  0.00000000000E+00  0.00000000000E+00 -0.55180766047E+03  0.55180766047E+03  0.25500000920E-02 0.  1.
    10030    2    1    2    0    0  0.00000000000E+00  0.00000000000E+00  0.91759868264E+03  0.20212140036E+04  0.18009216268E+04 0.  0.
        2    1    3    3  502    0  0.34624531446E+03  0.83018300426E+03  0.41198306505E+03  0.98935316456E+03  0.25500000920E-02 0. -1.
       -2    1    3    3    0  502 -0.34624531446E+03 -0.83018300426E+03  0.50561561759E+03  0.10318608390E+04  0.25500000920E-02 0.  1.
</event>
<event>
 5   0  0.1036381E-05  0.1800317E+04  0.7818609E-02  0.8706131E-01
       -2   -1    0    0    0  501  0.00000000000E+00  0.00000000000E+00  0.86196463472E+03  0.86196463472E+03  0.25500000920E-02 0. -1.
        2   -1    0    0  501    0  0.00000000000E+00  0.00000000000E+00 -0.94004497790E+03  0.94004497791E+03  0.25500000920E-02 0.  1.
    10030    2    1    2    0    0  0.00000000000E+00  0.00000000000E+00 -0.78080343184E+02  0.18020096126E+04  0.18003172232E+04 0.  0.
        4    1    3    3  502    0 -0.76764342574E+03 -0.22545275765E+03 -0.45195498288E+03  0.91889623705E+03  0.12699999809E+01 0. -1.
       -4    1    3    3    0  502  0.76764342574E+03  0.22545275765E+03  0.37387463970E+03  0.88311337558E+03  0.12699999809E+01 0.  1.
</event>
<event>
 5   0  0.4953155E-06  0.1803584E+04  0.7818609E-02  0.8704396E-01
        1   -1    0    0  501    0  0.00000000000E+00  0.00000000000E+00  0.18916253731E+04  0.18916253731E+04  0.50400001928E-02 0.  1.
       -1   -1    0    0    0  501  0.00000000000E+00  0.00000000000E+00 -0.42991011042E+03  0.42991011045E+03  0.50400001928E-02 0. -1.
    10030    2    1    2    0    0  0.00000000000E+00  0.00000000000E+00  0.14617152627E+04  0.23215354836E+04  0.18035840685E+04 0.  0.
        2    1    3    3  502    0  0.18037188817E+03 -0.53987722978E+03 -0.16945705775E+03  0.59389993745E+03  0.25500000920E-02 0. -1.
       -2    1    3    3    0  502 -0.18037188817E+03  0.53987722978E+03  0.16311723204E+04  0.17276355461E+04  0.25500000920E-02 0.  1.
</event>
<event>
 5   0  0.4981384E-06  0.1800049E+04  0.7818609E-02  0.8706274E-01
        1   -1    0    0  501    0  0.00000000000E+00  0.00000000000E+00  0.21656958319E+04  0.21656958320E+04  0.50400001928E-02 0. -1.
       -1   -1    0    0    0  501  0.00000000000E+00  0.00000000000E+00 -0.37403394306E+03  0.37403394309E+03  0.50400001928E-02 0.  1.
    10030    2    1    2    0    0  0.00000000000E+00  0.00000000000E+00  0.17916618889E+04  0.25397297750E+04  0.18000486122E+04 0.  0.
        5    1    3    3  502    0  0.39884725586E+03 -0.79244162827E+03  0.11097093269E+04  0.14207461941E+04  0.46999998093E+01 0. -1.
       -5    1    3    3    0  502 -0.39884725586E+03  0.79244162827E+03  0.68195256198E+03  0.11189835810E+04  0.46999998093E+01 0.  1.
</event>
<event>
 5   0  0.4953155E-06  0.1802097E+04  0.7818609E-02  0.8705185E-01
       -1   -1    0    0    0  501  0.00000000000E+00  0.00000000000E+00  0.65815775726E+03  0.65815775728E+03  0.50400001928E-02 0.  1.
        1   -1    0    0  501    0  0.00000000000E+00  0.00000000000E+00 -0.12335776095E+04  0.12335776095E+04  0.50400001928E-02 0. -1.
    10030    2    1    2    0    0  0.00000000000E+00  0.00000000000E+00 -0.57541985219E+03  0.18917353667E+04  0.18020973036E+04 0.  0.
        2    1    3    3  502    0 -0.74166485581E+03 -0.48589423657E+03 -0.45609016191E+03  0.99708485260E+03  0.25500000920E-02 0. -1.
       -2    1    3    3    0  502  0.74166485581E+03  0.48589423657E+03 -0.11932969028E+03  0.89465051415E+03  0.25500000920E-02 0.  1.
</event>
<event>
 5   0  0.3626125E-06  0.1800567E+04  0.7818609E-02  0.8705998E-01
        3   -1    0    0  501    0  0.00000000000E+00  0.00000000000E+00  0.65197369971E+03  0.65197370754E+03  0.10100000352E+00 0. -1.
       -3   -1    0    0    0  501  0.00000000000E+00  0.00000000000E+00 -0.12431638383E+04  0.12431638424E+04  0.10100000352E+00 0.  1.
    10030    2    1    2    0    0  0.00000000000E+00  0.00000000000E+00 -0.59119013854E+03  0.18951375499E+04  0.18005667311E+04 0.  0.
        5    1    3    3  502    0 -0.39641359535E+02 -0.32662176744E+03  0.58641328541E+03  0.67242534727E+03  0.46999998093E+01 0. -1.
       -5    1    3    3    0  502  0.39641359535E+02  0.32662176744E+03 -0.11776034240E+04  0.12227122026E+04  0.46999998093E+01 0.  1.
</event>
<event>
 5   0  0.9589963E-06  0.1798885E+04  0.7818609E-02  0.8706893E-01
        2   -1    0    0  501    0  0.00000000000E+00  0.00000000000E+00  0.20454194830E+04  0.20454194830E+04  0.25500000920E-02 0.  1.
       -2   -1    0    0    0  501  0.00000000000E+00  0.00000000000E+00 -0.39551631777E+03  0.39551631778E+03  0.25500000920E-02 0. -1.
    10030    2    1    2    0    0  0.00000000000E+00  0.00000000000E+00  0.16499031652E+04  0.24409358008E+04  0.17988849682E+04 0.  0.
        2    1    3    3  502    0 -0.35021722579E+03 -0.39203890726E+03  0.18152680489E+04  0.18898530894E+04  0.25500000920E-02 0.  1.
       -2    1    3    3    0  502  0.35021722579E+03  0.39203890726E+03 -0.16536488367E+03  0.55108271140E+03  0.25500000920E-02 0. -1.
</event>
<event>
 5   0  0.1035018E-05  0.1800327E+04  0.7818609E-02  0.8706126E-01
       -2   -1    0    0    0  501  0.00000000000E+00  0.00000000000E+00  0.67778980091E+03  0.67778980091E+03  0.25500000920E-02 0. -1.
        2   -1    0    0  501    0  0.00000000000E+00  0.00000000000E+00 -0.11954947720E+04  0.11954947720E+04  0.25500000920E-02 0.  1.
    10030    2    1    2    0    0  0.00000000000E+00  0.00000000000E+00 -0.51770497113E+03  0.18732845729E+04  0.18003268187E+04 0.  0.
        3    1    3    3  502    0  0.11344489661E+03  0.73257000406E+03 -0.79019865416E+03  0.10834862614E+04  0.10100000352E+00 0.  1.
       -3    1    3    3    0  502 -0.11344489661E+03 -0.73257000406E+03  0.27249368304E+03  0.78979831154E+03  0.10100000352E+00 0. -1.
</event>
<event>
 5   0  0.9589963E-06  0.1800128E+04  0.7818609E-02  0.8706231E-01
       -2   -1    0    0    0  501  0.00000000000E+00  0.00000000000E+00  0.12977106755E+04  0.12977106755E+04  0.25500000920E-02 0. -1.
        2   -1    0    0  501    0  0.00000000000E+00  0.00000000000E+00 -0.62426509702E+03  0.62426509703E+03  0.25500000920E-02 0.  1.
    10030    2    1    2    0    0  0.00000000000E+00  0.00000000000E+00  0.67344557850E+03  0.19219757726E+04  0.18001283074E+04 0.  0.
        2    1    3    3  502    0 -0.31869407649E+03  0.80652612452E+03  0.79444982952E+02  0.87083971502E+03  0.25500000920E-02 0.  1.
       -2    1    3    3    0  502  0.31869407649E+03 -0.80652612452E+03  0.59400059555E+03  0.10511360575E+04  0.25500000920E-02 0. -1.
</event>
<event>
 5   0  0.4987456E-06  0.1799780E+04  0.7818609E-02  0.8706416E-01
       -1   -1    0    0    0  501  0.00000000000E+00  0.00000000000E+00  0.82143175709E+03  0.82143175711E+03  0.50400001928E-02 0.  1.
        1   -1    0    0  501    0  0.00000000000E+00  0.00000000000E+00 -0.98584214645E+03  0.98584214646E+03  0.50400001928E-02 0. -1.
    10030    2    1    2    0    0  0.00000000000E+00  0.00000000000E+00 -0.16441038935E+03  0.18072739036E+04  0.17997800383E+04 0.  0.
        3    1    3    3  502    0  0.72751862678E+03 -0.50170461664E+03  0.88240066860E+02  0.88813129337E+03  0.10100000352E+00 0. -1.
       -3    1    3    3    0  502 -0.72751862678E+03  0.50170461664E+03 -0.25265045621E+03  0.91914261020E+03  0.10100000352E+00 0.  1.
</event>
<event>
 5   0  0.4981384E-06  0.1800497E+04  0.7818609E-02  0.8706035E-01
        1   -1    0    0  501    0  0.00000000000E+00  0.00000000000E+00  0.12739210673E+04  0.12739210673E+04  0.50400001928E-02 0.  1.
       -1   -1    0    0    0  501  0.00000000000E+00  0.00000000000E+00 -0.63618366828E+03  0.63618366830E+03  0.50400001928E-02 0. -1.
    10030    2    1    2    0    0  0.00000000000E+00  0.00000000000E+00  0.63773739905E+03  0.19101047356E+04  0.18004974621E+04 0.  0.
        5    1    3    3  502    0 -0.19068520797E+03  0.30274328471E+03 -0.55750187335E+03  0.66245360121E+03  0.46999998093E+01 0. -1.
       -5    1    3    3    0  502  0.19068520797E+03 -0.30274328471E+03  0.11952392724E+04  0.12476511344E+04  0.46999998093E+01 0.  1.
</event>
<event>
 5   0  0.1000316E-05  0.1798489E+04  0.7818609E-02  0.8707103E-01
       -2   -1    0    0    0  501  0.00000000000E+00  0.00000000000E+00  0.49707355664E+03  0.49707355665E+03  0.25500000920E-02 0.  1.
        2   -1    0    0  501    0  0.00000000000E+00  0.00000000000E+00 -0.16268027194E+04  0.16268027194E+04  0.25500000920E-02 0. -1.
    10030    2    1    2    0    0  0.00000000000E+00  0.00000000000E+00 -0.11297291627E+04  0.21238762760E+04  0.17984889365E+04 0.  0.
        5    1    3    3  502    0 -0.14527109459E+03 -0.37241138874E+03 -0.15160936071E+04  0.15679144903E+04  0.46999998093E+01 0. -1.
       -5    1    3    3    0  502  0.14527109459E+03  0.37241138874E+03  0.38636444433E+03  0.55596178576E+03  0.46999998093E+01 0.  1.
</event>
<event>
 5   0  0.4981384E-06  0.1786558E+04  0.7818609E-02  0.8713481E-01
        1   -1    0    0  501    0  0.00000000000E+00  0.00000000000E+00  0.10261682880E+04  0.10261682880E+04  0.50400001928E-02 0. -1.
       -1   -1    0    0    0  501  0.00000000000E+00  0.00000000000E+00 -0.77759893654E+03  0.77759893656E+03  0.50400001928E-02 0.  1.
    10030    2    1    2    0    0  0.00000000000E+00  0.00000000000E+00  0.24856935143E+03  0.18037672245E+04  0.17865579973E+04 0.  0.
        5    1    3    3  502    0  0.35803201795E+03  0.81500107431E+03  0.19923997022E+03  0.91221287687E+03  0.46999998093E+01 0. -1.
       -5    1    3    3    0  502 -0.35803201795E+03 -0.81500107431E+03  0.49329381205E+02  0.89155434767E+03  0.46999998093E+01 0.  1.
</event>
<event>
 5   0  0.4953155E-06  0.1800461E+04  0.7818609E-02  0.8706054E-01
        1   -1    0    0  501    0  0.00000000000E+00  0.00000000000E+00  0.21084422220E+04  0.21084422220E+04  0.50400001928E-02 0. -1.
       -1   -1    0    0    0  501  0.00000000000E+00  0.00000000000E+00 -0.38436676210E+03  0.38436676213E+03  0.50400001928E-02 0.  1.
    10030    2    1    2    0    0  0.00000000000E+00  0.00000000000E+00  0.17240754599E+04  0.24928089841E+04  0.18004611742E+04 0.  0.
        2    1    3    3  502    0 -0.49881034736E+03  0.65919447057E+03  0.13555749555E+04  0.15877444923E+04  0.25500000920E-02 0.  1.
       -2    1    3    3    0  502  0.49881034736E+03 -0.65919447057E+03  0.36850050435E+03  0.90506449184E+03  0.25500000920E-02 0. -1.
</event>
<event>
 5   0  0.1000316E-05  0.1800658E+04  0.7818609E-02  0.8705950E-01
        2   -1    0    0  501    0  0.00000000000E+00  0.00000000000E+00  0.12948533931E+04  0.12948533931E+04  0.25500000920E-02 0. -1.
       -2   -1    0    0    0  501  0.00000000000E+00  0.00000000000E+00 -0.62601103797E+03  0.62601103798E+03  0.25500000920E-02 0.  1.
    10030    2    1    2    0    0  0.00000000000E+00  0.00000000000E+00  0.66884235512E+03  0.19208644311E+04  0.18006582315E+04 0.  0.
        5    1    3    3  502    0 -0.66024230978E+03 -0.50308290775E+03 -0.37505549264E+02  0.83092784038E+03  0.46999998093E+01 0.  1.
       -5    1    3    3    0  502  0.66024230978E+03  0.50308290775E+03  0.70634790438E+03  0.10899365907E+04  0.46999998093E+01 0. -1.
</event>
<event>
 5   0  0.4994123E-06  0.1800622E+04  0.7818609E-02  0.8705969E-01
        1   -1    0    0  501    0  0.00000000000E+00  0.00000000000E+00  0.69154518433E+03  0.69154518435E+03  0.50400001928E-02 0. -1.
       -1   -1    0    0    0  501  0.00000000000E+00  0.00000000000E+00 -0.11720996710E+04  0.11720996710E+04  0.50400001928E-02 0.  1.
    10030    2    1    2    0    0  0.00000000000E+00  0.00000000000E+00 -0.48055448665E+03  0.18636448554E+04  0.18006219848E+04 0.  0.
        1    1    3    3  502    0  0.41196641623E+03 -0.31285533187E+03 -0.10029295052E+04  0.11284779037E+04  0.50400001928E-02 0.  1.
       -1    1    3    3    0  502 -0.41196641623E+03  0.31285533187E+03  0.52237501852E+03  0.73516695164E+03  0.50400001928E-02 0. -1.
</event>
<event>
 5   0  0.1035018E-05  0.1799403E+04  0.7818609E-02  0.8706617E-01
        2   -1    0    0  501    0  0.00000000000E+00  0.00000000000E+00  0.97314222944E+03  0.97314222945E+03  0.25500000920E-02 0. -1.
       -2   -1    0    0    0  501  0.00000000000E+00  0.00000000000E+00 -0.83180286841E+03  0.83180286842E+03  0.25500000920E-02 0.  1.
    10030    2    1    2    0    0  0.00000000000E+00  0.00000000000E+00  0.14133936103E+03  0.18049450979E+04  0.17994026763E+04 0.  0.
        3    1    3    3  502    0  0.19633346298E+03  0.50687639731E+03 -0.64847091288E+03  0.84615899564E+03  0.10100000352E+00 0. -1.
       -3    1    3    3    0  502 -0.19633346298E+03 -0.50687639731E+03  0.78981027392E+03  0.95878610223E+03  0.10100000352E+00 0.  1.
</event>
<event>
 5   0  0.9999162E-06  0.1798682E+04  0.7818609E-02  0.8707001E-01
       -2   -1    0    0    0  501  0.00000000000E+00  0.00000000000E+00  0.74496555017E+03  0.74496555017E+03  0.25500000920E-02 0.  1.
        2   -1    0    0  501    0  0.00000000000E+00  0.00000000000E+00 -0.10857067584E+04  0.10857067584E+04  0.25500000920E-02 0. -1.
    10030    2    1    2    0    0  0.00000000000E+00  0.00000000000E+00 -0.34074120822E+03  0.18306723086E+04  0.17986818869E+04 0.  0.
        1    1    3    3  502    0 -0.58593092493E+03  0.66919430322E+03 -0.35046969146E+02  0.89014850127E+03  0.50400001928E-02 0.  1.
       -1    1    3    3    0  502  0.58593092493E+03 -0.66919430322E+03 -0.30569423908E+03  0.94052380729E+03  0.50400001928E-02 0. -1.
</event>
<event>
 5   0  0.1035018E-05  0.1800869E+04  0.7818609E-02  0.8705838E-01
        2   -1    0    0  501    0  0.00000000000E+00  0.00000000000E+00  0.19610205841E+04  0.19610205841E+04  0.25500000920E-02 0. -1.
       -2   -1    0    0    0  501  0.00000000000E+00  0.00000000000E+00 -0.41344899274E+03  0.41344899275E+03  0.25500000920E-02 0.  1.
    10030    2    1    2    0    0  0.00000000000E+00  0.00000000000E+00  0.15475715914E+04  0.23744695769E+04  0.18008686629E+04 0.  0.
        3    1    3    3  502    0 -0.16668364597E+03  0.55193851319E+03  0.16857191351E+04  0.17815915842E+04  0.10100000352E+00 0. -1.
       -3    1    3    3    0  502  0.16668364597E+03 -0.55193851319E+03 -0.13814754372E+03  0.59287799269E+03  0.10100000352E+00 0.  1.
</event>
<event>
 5   0  0.4953155E-06  0.1799923E+04  0.7818609E-02  0.8706340E-01
       -1   -1    0    0    0  501  0.00000000000E+00  0.00000000000E+00  0.65681117053E+03  0.65681117055E+03  0.50400001928E-02 0.  1.
        1   -1    0    0  501    0  0.00000000000E+00  0.00000000000E+00 -0.12331261060E+04  0.12331261060E+04  0.50400001928E-02 0. -1.
    10030    2    1    2    0    0  0.00000000000E+00  0.00000000000E+00 -0.57631493547E+03  0.18899372766E+04  0.17999233329E+04 0.  0.
        2    1    3    3  502    0 -0.75094912512E+03  0.47793927636E+03 -0.14893526204E+03  0.90251440581E+03  0.25500000920E-02 0.  1.
       -2    1    3    3    0  502  0.75094912512E+03 -0.47793927636E+03 -0.42737967343E+03  0.98742287075E+03  0.25500000920E-02 0. -1.
</event>
<event>
 5   0  0.1036381E-05  0.1799773E+04  0.7818609E-02  0.8706420E-01
        2   -1    0    0  501    0  0.00000000000E+00  0.00000000000E+00  0.11464615475E+04  0.11464615475E+04  0.25500000920E-02 0.  1.
       -2   -1    0    0    0  501  0.00000000000E+00  0.00000000000E+00 -0.70634333344E+03  0.70634333345E+03  0.25500000920E-02 0. -1.
    10030    2    1    2    0    0  0.00000000000E+00  0.00000000000E+00  0.44011821409E+03  0.18528048810E+04  0.17997727314E+04 0.  0.
        4    1    3    3  502    0 -0.41277661771E+03  0.66426144850E+03  0.67833461266E+03  0.10352619319E+04  0.12699999809E+01 0.  1.
       -4    1    3    3    0  502  0.41277661771E+03 -0.66426144850E+03 -0.23821639857E+03  0.81754294905E+03  0.12699999809E+01 0. -1.
</event>
<event>
 5   0  0.4981384E-06  0.1803845E+04  0.7818609E-02  0.8704257E-01
        1   -1    0    0  501    0  0.00000000000E+00  0.00000000000E+00  0.11089460716E+04  0.11089460716E+04  0.50400001928E-02 0.  1.
       -1   -1    0    0    0  501  0.00000000000E+00  0.00000000000E+00 -0.73354702172E+03  0.73354702174E+03  0.50400001928E-02 0. -1.
    10030    2    1    2    0    0  0.00000000000E+00  0.00000000000E+00  0.37539904985E+03  0.18424930933E+04  0.18038448803E+04 0.  0.
        5    1    3    3  502    0  0.39861545653E+03 -0.37632940137E+03  0.91923121953E+03  0.10702925887E+04  0.46999998093E+01 0.  1.
       -5    1    3    3    0  502 -0.39861545653E+03  0.37632940137E+03 -0.54383216968E+03  0.77220050460E+03  0.46999998093E+01 0. -1.
</event>
<event>
 5   0  0.4953155E-06  0.1799461E+04  0.7818609E-02  0.8706586E-01
       -1   -1    0    0    0  501  0.00000000000E+00  0.00000000000E+00  0.83169346702E+03  0.83169346704E+03  0.50400001928E-02 0.  1.
        1   -1    0    0  501    0  0.00000000000E+00  0.00000000000E+00 -0.97333289868E+03  0.97333289869E+03  0.50400001928E-02 0. -1.
    10030    2    1    2    0    0  0.00000000000E+00  0.00000000000E+00 -0.14163943166E+03  0.18050263657E+04  0.17994606004E+04 0.  0.
        2    1    3    3  502    0 -0.31599562378E+03 -0.74791670457E+03 -0.45968096300E+03  0.93302691224E+03  0.25500000920E-02 0.  1.
       -2    1    3    3    0  502  0.31599562378E+03  0.74791670457E+03  0.31804153134E+03  0.87199945349E+03  0.25500000920E-02 0. -1.
</event>
<event>
 5   0  0.3626125E-06  0.1800443E+04  0.7818609E-02  0.8706064E-01
        3   -1    0    0  501    0  0.00000000000E+00  0.00000000000E+00  0.67910098756E+03  0.67910099507E+03  0.10100000352E+00 0.  1.
       -3   -1    0    0    0  501  0.00000000000E+00  0.00000000000E+00 -0.11933400765E+04  0.11933400808E+04  0.10100000352E+00 0. -1.
    10030    2    1    2    0    0  0.00000000000E+00  0.00000000000E+00 -0.51423908894E+03  0.18724410758E+04  0.18004426517E+04 0.  0.
        3    1    3    3  502    0 -0.38439596290E+02  0.89865913598E+03 -0.29508385496E+03  0.94664689135E+03  0.10100000352E+00 0.  1.
       -3    1    3    3    0  502  0.38439596290E+02 -0.89865913598E+03 -0.21915523398E+03  0.92579418449E+03  0.10100000352E+00 0. -1.
</event>
<event>
 5   0  0.4953155E-06  0.1800845E+04  0.7818609E-02  0.8705850E-01
        1   -1    0    0  501    0  0.00000000000E+00  0.00000000000E+00  0.14724357779E+04  0.14724357779E+04  0.50400001928E-02 0. -1.
       -1   -1    0    0    0  501  0.00000000000E+00  0.00000000000E+00 -0.55062525768E+03  0.55062525770E+03  0.50400001928E-02 0.  1.
    10030    2    1    2    0    0  0.00000000000E+00  0.00000000000E+00  0.92181052018E+03  0.20230610356E+04  0.18008446125E+04 0.  0.
        2    1    3    3  502    0 -0.78262905676E+03  0.44286789260E+03  0.51263173066E+03  0.10350997546E+04  0.25500000920E-02 0.  1.
       -2    1    3    3    0  502  0.78262905676E+03 -0.44286789260E+03  0.40917878952E+03  0.98796128092E+03  0.25500000920E-02 0. -1.
</event>
<event>
 5   0  0.4987456E-06  0.1799058E+04  0.7818609E-02  0.8706800E-01
        1   -1    0    0  501    0  0.00000000000E+00  0.00000000000E+00  0.11541766519E+04  0.11541766519E+04  0.50400001928E-02 0.  1.
       -1   -1    0    0    0  501  0.00000000000E+00  0.00000000000E+00 -0.70106483831E+03  0.70106483832E+03  0.50400001928E-02 0. -1.
    10030    2    1    2    0    0  0.00000000000E+00  0.00000000000E+00  0.45311181356E+03  0.18552414902E+04  0.17990582735E+04 0.  0.
        3    1    3    3  502    0  0.46945158581E+03 -0.40965343443E+03 -0.44251395848E+03  0.76421158158E+03  0.10100000352E+00 0. -1.
       -3    1    3    3    0  502 -0.46945158581E+03  0.40965343443E+03  0.89562577205E+03  0.10910299086E+04  0.10100000352E+00 0.  1.
</event>
<event>
 5   0  0.4981384E-06  0.1800730E+04  0.7818609E-02  0.8705911E-01
        1   -1    0    0  501    0  0.00000000000E+00  0.00000000000E+00  0.99789142780E+03  0.99789142781E+03  0.50400001928E-02 0.  1.
       -1   -1    0    0    0  501  0.00000000000E+00  0.00000000000E+00 -0.81236990456E+03  0.81236990457E+03  0.50400001928E-02 0. -1.
    10030    2    1    2    0    0  0.00000000000E+00  0.00000000000E+00  0.18552152324E+03  0.18102613324E+04  0.18007298120E+04 0.  0.
        5    1    3    3  502    0 -0.86728379448E+03 -0.17103638285E+03 -0.79024540049E+02  0.88752554462E+03  0.46999998093E+01 0. -1.
       -5    1    3    3    0  502  0.86728379448E+03  0.17103638285E+03  0.26454606329E+03  0.92273578776E+03  0.46999998093E+01 0.  1.
</event>
<event>
 5   0  0.1000316E-05  0.1801212E+04  0.7818609E-02  0.8705655E-01
        2   -1    0    0  501    0  0.00000000000E+00  0.00000000000E+00  0.11521383789E+04  0.11521383789E+04  0.25500000920E-02 0. -1.
       -2   -1    0    0    0  501  0.00000000000E+00  0.00000000000E+00 -0.70398793616E+03  0.70398793616E+03  0.25500000920E-02 0.  1.
    10030    2    1    2    0    0  0.00000000000E+00  0.00000000000E+00  0.44815044276E+03  0.18561263151E+04  0.18012123912E+04 0.  0.
        5    1    3    3  502    0 -0.15195933017E+03  0.72170322553E+03  0.75667089056E+03  0.10566551521E+04  0.46999998093E+01 0. -1.
       -5    1    3    3    0  502  0.15195933017E+03 -0.72170322553E+03 -0.30852044780E+03  0.79947116301E+03  0.46999998093E+01 0.  1.
</event>
<event>
 5   0  0.4994123E-06  0.1799544E+04  0.7818609E-02  0.8706542E-01
       -1   -1    0    0    0  501  0.00000000000E+00  0.00000000000E+00  0.80493575635E+03  0.80493575637E+03  0.50400001928E-02 0. -1.
        1   -1    0    0  501    0  0.00000000000E+00  0.00000000000E+00 -0.10057816699E+04  0.10057816699E+04  0.50400001928E-02 0.  1.
    10030    2    1    2    0    0  0.00000000000E+00  0.00000000000E+00 -0.20084591354E+03  0.18107174263E+04  0.17995439747E+04 0.  0.
        1    1    3    3  502    0  0.51928604178E+03  0.40492738338E+03  0.51654439906E+03  0.83692430675E+03  0.50400001928E-02 0. -1.
       -1    1    3    3    0  502 -0.51928604178E+03 -0.40492738338E+03 -0.71739031259E+03  0.97379311952E+03  0.50400001928E-02 0.  1.
</event>
<event>
 5   0  0.4981384E-06  0.1798792E+04  0.7818609E-02  0.8706942E-01
       -1   -1    0    0    0  501  0.00000000000E+00  0.00000000000E+00  0.38481380535E+03  0.38481380538E+03  0.50400001928E-02 0.  1.
        1   -1    0    0  501    0  0.00000000000E+00  0.00000000000E+00 -0.21020886792E+04  0.21020886792E+04  0.50400001928E-02 0. -1.
    10030    2    1    2    0    0  0.00000000000E+00  0.00000000000E+00 -0.17172748739E+04  0.24869024846E+04  0.17987915320E+04 0.  0.
        5    1    3    3  502    0  0.34917923371E+03  0.71665031988E+03 -0.28296762204E+03  0.84593533048E+03  0.46999998093E+01 0.  1.
       -5    1    3    3    0  502 -0.34917923371E+03 -0.71665031988E+03 -0.14343072518E+04  0.16409671541E+04  0.46999998093E+01 0. -1.
</event>
<event>
 5   0  0.4983159E-06  0.1800114E+04  0.7818609E-02  0.8706239E-01
       -1   -1    0    0    0  501  0.00000000000E+00  0.00000000000E+00  0.11338655867E+04  0.11338655867E+04  0.50400001928E-02 0. -1.
        1   -1    0    0  501    0  0.00000000000E+00  0.00000000000E+00 -0.71446121236E+03  0.71446121238E+03  0.50400001928E-02 0.  1.
    10030    2    1    2    0    0  0.00000000000E+00  0.00000000000E+00  0.41940437436E+03  0.18483267991E+04  0.18001144206E+04 0.  0.
        4    1    3    3  502    0  0.18939259017E+02 -0.40492409662E+03  0.10348289217E+04  0.11113931481E+04  0.12699999809E+01 0. -1.
       -4    1    3    3    0  502 -0.18939259017E+02  0.40492409662E+03 -0.61542454737E+03  0.73693365099E+03  0.12699999809E+01 0.  1.
</event>
<event>
 5   0  0.4953155E-06  0.1799956E+04  0.7818609E-02  0.8706323E-01
        1   -1    0    0  501    0  0.00000000000E+00  0.00000000000E+00  0.89981421124E+03  0.89981421125E+03  0.50400001928E-02 0. -1.
       -1   -1    0    0    0  501  0.00000000000E+00  0.00000000000E+00 -0.90014196891E+03  0.90014196893E+03  0.50400001928E-02 0.  1.
    10030    2    1    2    0    0  0.00000000000E+00  0.00000000000E+00 -0.32775767210E+00  0.17999561802E+04  0.17999561503E+04 0.  0.
        2    1    3    3  502    0  0.13250515232E+03 -0.49022423571E+03 -0.74318685117E+03  0.90011338865E+03  0.25500000920E-02 0.  1.
       -2    1    3    3    0  502 -0.13250515232E+03  0.49022423571E+03  0.74285909350E+03  0.89984279153E+03  0.25500000920E-02 0. -1.
</event>
<event>
 5   0  0.9589963E-06  0.1799352E+04  0.7818609E-02  0.8706644E-01
        2   -1    0    0  501    0  0.00000000000E+00  0.00000000000E+00  0.19680343440E+04  0.19680343440E+04  0.25500000920E-02 0. -1.
       -2   -1    0    0    0  501  0.00000000000E+00  0.00000000000E+00 -0.41128189319E+03  0.41128189320E+03  0.25500000920E-02 0.  1.
    10030    2    1    2    0    0  0.00000000000E+00  0.00000000000E+00  0.15567524508E+04  0.23793162372E+04  0.17993519843E+04 0.  0.
        2    1    3    3  502    0  0.36559517066E+03  0.25222709640E+03  0.18129486720E+04  0.18665640156E+04  0.25500000920E-02 0. -1.
       -2    1    3    3    0  502 -0.36559517066E+03 -0.25222709640E+03 -0.25619622122E+03  0.51275222159E+03  0.25500000920E-02 0.  1.
</event>
<event>
 5   0  0.1035018E-05  0.1800286E+04  0.7818609E-02  0.8706147E-01
       -2   -1    0    0    0  501  0.00000000000E+00  0.00000000000E+00  0.55625148522E+03  0.55625148523E+03  0.25500000920E-02 0.  1.
        2   -1    0    0  501    0  0.00000000000E+00  0.00000000000E+00 -0.14566388535E+04  0.14566388535E+04  0.25500000920E-02 0. -1.
    10030    2    1    2    0    0  0.00000000000E+00  0.00000000000E+00 -0.90038736824E+03  0.20128903387E+04  0.18002861169E+04 0.  0.
        3    1    3    3  502    0 -0.34287182316E+03 -0.20076458707E+03  0.45289881197E+03  0.60248224091E+03  0.10100000352E+00 0.  1.
       -3    1    3    3    0  502  0.34287182316E+03  0.20076458707E+03 -0.13532861802E+04  0.14104080978E+04  0.10100000352E+00 0. -1.
</event>
<event>
 5   0  0.1036381E-05  0.1799502E+04  0.7818609E-02  0.8706565E-01
       -2   -1    0    0    0  501  0.00000000000E+00  0.00000000000E+00  0.15369933921E+04  0.15369933921E+04  0.25500000920E-02 0. -1.
        2   -1    0    0  501    0  0.00000000000E+00  0.00000000000E+00 -0.52671114830E+03  0.52671114831E+03  0.25500000920E-02 0.  1.
    10030    2    1    2    0    0  0.00000000000E+00  0.00000000000E+00  0.10102822438E+04  0.20637045404E+04  0.17995016582E+04 0.  0.
        4    1    3    3  502    0  0.32563958005E+03  0.26112938322E+03 -0.40895447667E+03  0.58435868075E+03  0.12699999809E+01 0.  1.
       -4    1    3    3    0  502 -0.32563958005E+03 -0.26112938322E+03  0.14192367204E+04  0.14793458596E+04  0.12699999809E+01 0. -1.
</event>
<event>
 5   0  0.4981384E-06  0.1800307E+04  0.7818609E-02  0.8706136E-01
        1   -1    0    0  501    0  0.00000000000E+00  0.00000000000E+00  0.50474070984E+03  0.50474070987E+03  0.50400001928E-02 0. -1.
       -1   -1    0    0    0  501  0.00000000000E+00  0.00000000000E+00 -0.16053315224E+04  0.16053315224E+04  0.50400001928E-02 0.  1.
    10030    2    1    2    0    0  0.00000000000E+00  0.00000000000E+00 -0.11005908125E+04  0.21100722323E+04  0.18003068318E+04 0.  0.
        5    1    3    3  502    0 -0.31967171188E+03 -0.74566264046E+03 -0.10073266278E+04  0.12934186491E+04  0.46999998093E+01 0.  1.
       -5    1    3    3    0  502  0.31967171188E+03  0.74566264046E+03 -0.93264184770E+02  0.81665358318E+03  0.46999998093E+01 0. -1.
</event>
<event>
 5   0  0.9999162E-06  0.1799905E+04  0.7818609E-02  0.8706350E-01
       -2   -1    0    0    0  501  0.00000000000E+00  0.00000000000E+00  0.86810227886E+03  0.86810227887E+03  0.25500000920E-02 0. -1.
        2   -1    0    0  501    0  0.00000000000E+00  0.00000000000E+00 -0.93297131564E+03  0.93297131564E+03  0.25500000920E-02 0.  1.
    10030    2    1    2    0    0  0.00000000000E+00  0.00000000000E+00 -0.64869036772E+02  0.18010735945E+04  0.17999050255E+04 0.  0.
        1    1    3    3  502    0 -0.70592371731E+03  0.55721556449E+03 -0.65577695392E+02  0.90173051081E+03  0.50400001928E-02 0. -1.
       -1    1    3    3    0  502  0.70592371731E+03 -0.55721556449E+03  0.70865861940E+00  0.89934308370E+03  0.50400001928E-02 0.  1.
</event>
<event>
 5   0  0.1000316E-05  0.1800772E+04  0.7818609E-02  0.8705889E-01
       -2   -1    0    0    0  501  0.00000000000E+00  0.00000000000E+00  0.52904574848E+03  0.52904574849E+03  0.25500000920E-02 0. -1.
        2   -1    0    0  501    0  0.00000000000E+00  0.00000000000E+00 -0.15323723704E+04  0.15323723704E+04  0.25500000920E-02 0.  1.
    10030    2    1    2    0    0  0.00000000000E+00  0.00000000000E+00 -0.10033266219E+04  0.20614181189E+04  0.18007721540E+04 0.  0.
        5    1    3    3  502    0  0.24190773069E+03  0.59874995738E+03  0.21656683356E+03  0.68113445444E+03  0.46999998093E+01 0. -1.
       -5    1    3    3    0  502 -0.24190773069E+03 -0.59874995738E+03 -0.12198934555E+04  0.13802836644E+04  0.46999998093E+01 0.  1.
</event>
<event>
 5   0  0.4983159E-06  0.1800391E+04  0.7818609E-02  0.8706092E-01
        1   -1    0    0  501    0  0.00000000000E+00  0.00000000000E+00  0.13138774399E+04  0.13138774399E+04  0.50400001928E-02 0.  1.
       -1   -1    0    0    0  501  0.00000000000E+00  0.00000000000E+00 -0.61676352601E+03  0.61676352603E+03  0.50400001928E-02 0. -1.
    10030    2    1    2    0    0  0.00000000000E+00  0.00000000000E+00  0.69711391387E+03  0.19306409659E+04  0.18003907160E+04 0.  0.
        4    1    3    3  502    0  0.28591177628E+02 -0.87969115216E+03  0.55110282328E+03  0.10384555423E+04  0.12699999809E+01 0.  1.
       -4    1    3    3    0  502 -0.28591177628E+02  0.87969115216E+03  0.14601109059E+03  0.89218542361E+03  0.12699999809E+01 0. -1.
</event>
<event>
 5   0  0.4953155E-06  0.1801324E+04  0.7818609E-02  0.8705596E-01
       -1   -1    0    0    0  501  0.00000000000E+00  0.00000000000E+00  0.61664157628E+03  0.61664157631E+03  0.50400001928E-02 0.  1.
        1   -1    0    0  501    0  0.00000000000E+00  0.00000000000E+00 -0.13154998535E+04  0.13154998536E+04  0.50400001928E-02 0. -1.
    10030    2    1    2    0    0  0.00000000000E+00  0.00000000000E+00 -0.69885827726E+03  0.19321414299E+04  0.18013238502E+04 0.  0.
        2    1    3    3  502    0 -0.13468356953E+03  0.20991226368E+03 -0.12777216712E+04  0.13018354318E+04  0.25500000920E-02 0. -1.
       -2    1    3    3    0  502  0.13468356953E+03 -0.20991226368E+03  0.57886339395E+03  0.63030599808E+03  0.25500000920E-02 0.  1.
</event>
<event>
 5   0  0.4953155E-06  0.1799186E+04  0.7818609E-02  0.8706733E-01
       -1   -1    0    0    0  501  0.00000000000E+00  0.00000000000E+00  0.62212942415E+03  0.62212942417E+03  0.50400001928E-02 0. -1.
        1   -1    0    0  501    0  0.00000000000E+00  0.00000000000E+00 -0.13008020484E+04  0.13008020484E+04  0.50400001928E-02 0.  1.
    10030    2    1    2    0    0  0.00000000000E+00  0.00000000000E+00 -0.67867262421E+03  0.19229314725E+04  0.17991856261E+04 0.  0.
        2    1    3    3  502    0 -0.50235407047E+03 -0.70577340475E+03 -0.80189916416E+02  0.87000352510E+03  0.25500000920E-02 0.  1.
       -2    1    3    3    0  502  0.50235407047E+03  0.70577340475E+03 -0.59848270779E+03  0.10529279474E+04  0.25500000920E-02 0. -1.
</event>
<event>
 5   0  0.4981384E-06  0.1800612E+04  0.7818609E-02  0.8705974E-01
       -1   -1    0    0    0  501  0.00000000000E+00  0.00000000000E+00  0.48981899376E+03  0.48981899378E+03  0.50400001928E-02 0.  1.
        1   -1    0    0  501    0  0.00000000000E+00  0.00000000000E+00 -0.16547975430E+04  0.16547975430E+04  0.50400001928E-02 0. -1.
    10030    2    1    2    0    0  0.00000000000E+00  0.00000000000E+00 -0.11649785493E+04  0.21446165368E+04  0.18006124152E+04 0.  0.
        5    1    3    3  502    0  0.37694315385E+02  0.85755006606E+03 -0.25911096941E+03  0.89664572808E+03  0.46999998093E+01 0.  1.
       -5    1    3    3    0  502 -0.37694315385E+02 -0.85755006606E+03 -0.90586757987E+03  0.12479708087E+04  0.46999998093E+01 0. -1.
</event>
<event>
 5   0  0.4953155E-06  0.1799788E+04  0.7818609E-02  0.8706412E-01
       -1   -1    0    0    0  501  0.00000000000E+00  0.00000000000E+00  0.75776400797E+03  0.75776400799E+03  0.50400001928E-02 0. -1.
        1   -1    0    0  501    0  0.00000000000E+00  0.00000000000E+00 -0.10686826785E+04  0.10686826785E+04  0.50400001928E-02 0.  1.
    10030    2    1    2    0    0  0.00000000000E+00  0.00000000000E+00 -0.31091867054E+03  0.18264466865E+04  0.17997880650E+04 0.  0.
        2    1    3    3  502    0  0.62792399987E+03  0.41653768889E+03  0.34377981476E+03  0.82823713810E+03  0.25500000920E-02 0. -1.
       -2    1    3    3    0  502 -0.62792399987E+03 -0.41653768889E+03 -0.65469848530E+03  0.99820954841E+03  0.25500000920E-02 0.  1.
</event>
<event>
 5   0  0.9589963E-06  0.1798657E+04  0.7818609E-02  0.8707014E-01
       -2   -1    0    0    0  501  0.00000000000E+00  0.00000000000E+00  0.10616498291E+04  0.10616498291E+04  0.25500000920E-02 0.  1.
        2   -1    0    0  501    0  0.00000000000E+00  0.00000000000E+00 -0.76182509361E+03  0.76182509361E+03  0.25500000920E-02 0. -1.
    10030    2    1    2    0    0  0.00000000000E+00  0.00000000000E+00  0.29982473551E+03  0.18234749227E+04  0.17986566993E+04 0.  0.
        2    1    3    3  502    0  0.38699961187E+03  0.69751559454E+03 -0.27114327244E+03  0.84250541744E+03  0.25500000920E-02 0.  1.
       -2    1    3    3    0  502 -0.38699961187E+03 -0.69751559454E+03  0.57096800795E+03  0.98096950530E+03  0.25500000920E-02 0. -1.
</event>
<event>
 5   0  0.9589963E-06  0.1799510E+04  0.7818609E-02  0.8706560E-01
        2   -1    0    0  501    0  0.00000000000E+00  0.00000000000E+00  0.71365158333E+03  0.71365158334E+03  0.25500000920E-02 0.  1.
       -2   -1    0    0    0  501  0.00000000000E+00  0.00000000000E+00 -0.11343892964E+04  0.11343892964E+04  0.25500000920E-02 0. -1.
    10030    2    1    2    0    0  0.00000000000E+00  0.00000000000E+00 -0.42073771307E+03  0.18480408797E+04  0.17995096193E+04 0.  0.
        2    1    3    3  502    0  0.26518501139E+03  0.29524576043E+03  0.61891466444E+03  0.73522004269E+03  0.25500000920E-02 0.  1.
       -2    1    3    3    0  502 -0.26518501139E+03 -0.29524576043E+03 -0.10396523775E+04  0.11128208370E+04  0.25500000920E-02 0. -1.
</event>
<event>
 5   0  0.1035018E-05  0.1792648E+04  0.7818609E-02  0.8710219E-01
       -2   -1    0    0    0  501  0.00000000000E+00  0.00000000000E+00  0.39434146392E+03  0.39434146393E+03  0.25500000920E-02 0.  1.
        2   -1    0    0  501    0  0.00000000000E+00  0.00000000000E+00 -0.20373117648E+04  0.20373117648E+04  0.25500000920E-02 0. -1.
    10030    2    1    2    0    0  0.00000000000E+00  0.00000000000E+00 -0.16429703009E+04  0.24316532288E+04  0.17926477666E+04 0.  0.
        3    1    3    3  502    0  0.58041665365E+02  0.40539846103E+03  0.26001320745E+03  0.48510166499E+03  0.10100000352E+00 0.  1.
       -3    1    3    3    0  502 -0.58041665365E+02 -0.40539846103E+03 -0.19029835084E+04  0.19465515638E+04  0.10100000352E+00 0. -1.
</event>
<event>
 5   0  0.4994123E-06  0.1799039E+04  0.7818609E-02  0.8706811E-01
        1   -1    0    0  501    0  0.00000000000E+00  0.00000000000E+00  0.63855342914E+03  0.63855342916E+03  0.50400001928E-02 0.  1.
       -1   -1    0    0    0  501  0.00000000000E+00  0.00000000000E+00 -0.12671375494E+04  0.12671375494E+04  0.50400001928E-02 0. -1.
    10030    2    1    2    0    0  0.00000000000E+00  0.00000000000E+00 -0.62858412028E+03  0.19056909786E+04  0.17990386626E+04 0.  0.
        1    1    3    3  502    0 -0.29445637824E+03 -0.11113633100E+03  0.57832538888E+03  0.65841939385E+03  0.50400001928E-02 0.  1.
       -1    1    3    3    0  502  0.29445637824E+03  0.11113633100E+03 -0.12069095092E+04  0.12472715847E+04  0.50400001928E-02 0. -1.
</event>
<event>
 5   0  0.4953155E-06  0.1796596E+04  0.7818609E-02  0.8708112E-01
        1   -1    0    0  501    0  0.00000000000E+00  0.00000000000E+00  0.16058408526E+04  0.16058408526E+04  0.50400001928E-02 0.  1.
       -1   -1    0    0    0  501  0.00000000000E+00  0.00000000000E+00 -0.50250259757E+03  0.50250259759E+03  0.50400001928E-02 0. -1.
    10030    2    1    2    0    0  0.00000000000E+00  0.00000000000E+00  0.11033382550E+04  0.21083434502E+04  0.17965958919E+04 0.  0.
        2    1    3    3  502    0  0.17041126461E+03  0.63970278207E+03 -0.16088109804E+03  0.68127995435E+03  0.25500000920E-02 0. -1.
       -2    1    3    3    0  502 -0.17041126461E+03 -0.63970278207E+03  0.12642193530E+04  0.14270634958E+04  0.25500000920E-02 0.  1.
</event>
<event>
 5   0  0.4953155E-06  0.1799548E+04  0.7818609E-02  0.8706540E-01
        1   -1    0    0  501    0  0.00000000000E+00  0.00000000000E+00  0.10285419409E+04  0.10285419409E+04  0.50400001928E-02 0. -1.
       -1   -1    0    0    0  501  0.00000000000E+00  0.00000000000E+00 -0.78712669835E+03  0.78712669837E+03  0.50400001928E-02 0.  1.
    10030    2    1    2    0    0  0.00000000000E+00  0.00000000000E+00  0.24141524253E+03  0.18156686393E+04  0.17995475232E+04 0.  0.
        2    1    3    3  502    0 -0.69086584841E+03 -0.24096305987E+03  0.64907248051E+03  0.97808685794E+03  0.25500000920E-02 0. -1.
       -2    1    3    3    0  502  0.69086584841E+03  0.24096305987E+03 -0.40765723798E+03  0.83758178132E+03  0.25500000920E-02 0.  1.
</event>
<event>
 5   0  0.1035018E-05  0.1799914E+04  0.7818609E-02  0.8706345E-01
       -2   -1    0    0    0  501  0.00000000000E+00  0.00000000000E+00  0.66088219587E+03  0.66088219588E+03  0.25500000920E-02 0.  1.
        2   -1    0    0  501    0  0.00000000000E+00  0.00000000000E+00 -0.12255170674E+04  0.12255170674E+04  0.25500000920E-02 0. -1.
    10030    2    1    2    0    0  0.00000000000E+00  0.00000000000E+00 -0.56463487151E+03  0.18863992633E+04  0.17999137875E+04 0.  0.
        3    1    3    3  502    0  0.39296043451E+03  0.33212178556E+03  0.49153772893E+03  0.71157018818E+03  0.10100000352E+00 0.  1.
       -3    1    3    3    0  502 -0.39296043451E+03 -0.33212178556E+03 -0.10561726004E+04  0.11748290751E+04  0.10100000352E+00 0. -1.
</event>
<event>
 5   0  0.9589963E-06  0.1801423E+04  0.7818609E-02  0.8705543E-01
        2   -1    0    0  501    0  0.00000000000E+00  0.00000000000E+00  0.88298424823E+03  0.88298424824E+03  0.25500000920E-02 0.  1.
       -2   -1    0    0    0  501  0.00000000000E+00  0.00000000000E+00 -0.91879502694E+03  0.91879502694E+03  0.25500000920E-02 0. -1.
    10030    2    1    2    0    0  0.00000000000E+00  0.00000000000E+00 -0.35810778706E+02  0.18017792752E+04  0.18014233663E+04 0.  0.
        2    1    3    3  502    0  0.45721952166E+03  0.41470395548E+03 -0.67397131746E+03  0.91392909925E+03  0.25500000920E-02 0. -1.
       -2    1    3    3    0  502 -0.45721952166E+03 -0.41470395548E+03  0.63816053876E+03  0.88785017594E+03  0.25500000920E-02 0.  1.
</event>
<event>
 5   0  0.9589963E-06  0.1801183E+04  0.7818609E-02  0.8705671E-01
        2   -1    0    0  501    0  0.00000000000E+00  0.00000000000E+00  0.88930131583E+03  0.88930131583E+03  0.25500000920E-02 0. -1.
       -2   -1    0    0    0  501  0.00000000000E+00  0.00000000000E+00 -0.91202468836E+03  0.91202468837E+03  0.25500000920E-02 0.  1.
    10030    2    1    2    0    0  0.00000000000E+00  0.00000000000E+00 -0.22723372536E+02  0.18013260042E+04  0.18011826731E+04 0.  0.
        2    1    3    3  502    0  0.28314609060E+03  0.71981275792E+03 -0.47266040005E+03  0.90648219446E+03  0.25500000920E-02 0.  1.
       -2    1    3    3    0  502 -0.28314609060E+03 -0.71981275792E+03  0.44993702752E+03  0.89484380974E+03  0.25500000920E-02 0. -1.
</event>
<event>
 5   0  0.4983159E-06  0.1800210E+04  0.7818609E-02  0.8706188E-01
        1   -1    0    0  501    0  0.00000000000E+00  0.00000000000E+00  0.79253490538E+03  0.79253490539E+03  0.50400001928E-02 0.  1.
       -1   -1    0    0    0  501  0.00000000000E+00  0.00000000000E+00 -0.10222755523E+04  0.10222755524E+04  0.50400001928E-02 0. -1.
    10030    2    1    2    0    0  0.00000000000E+00  0.00000000000E+00 -0.22974064697E+03  0.18148104578E+04  0.18002100524E+04 0.  0.
        4    1    3    3  502    0 -0.16486238802E+03  0.88438453384E+03 -0.14463664290E+03  0.91117340943E+03  0.12699999809E+01 0.  1.
       -4    1    3    3    0  502  0.16486238802E+03 -0.88438453384E+03 -0.85104004070E+02  0.90363704832E+03  0.12699999809E+01 0. -1.
</event>
<event>
 5   0  0.3626125E-06  0.1801075E+04  0.7818609E-02  0.8705728E-01
       -3   -1    0    0    0  501  0.00000000000E+00  0.00000000000E+00  0.74299242534E+03  0.74299243220E+03  0.10100000352E+00 0.  1.
        3   -1    0    0  501    0  0.00000000000E+00  0.00000000000E+00 -0.10914880357E+04  0.10914880404E+04  0.10100000352E+00 0. -1.
    10030    2    1    2    0    0  0.00000000000E+00  0.00000000000E+00 -0.34849561038E+03  0.18344804726E+04  0.18010745165E+04 0.  0.
        4    1    3    3  502    0 -0.36988291286E+03 -0.42618552450E+03  0.54056542893E+03  0.78144741754E+03  0.12699999809E+01 0.  1.
       -4    1    3    3    0  502  0.36988291286E+03  0.42618552450E+03 -0.88906103932E+03  0.10530330551E+04  0.12699999809E+01 0. -1.
</event>
<event>
 5   0  0.9999162E-06  0.1800040E+04  0.7818609E-02  0.8706278E-01
        2   -1    0    0  501    0  0.00000000000E+00  0.00000000000E+00  0.16415309294E+04  0.16415309294E+04  0.25500000920E-02 0.  1.
       -2   -1    0    0    0  501  0.00000000000E+00  0.00000000000E+00 -0.49346352811E+03  0.49346352812E+03  0.25500000920E-02 0. -1.
    10030    2    1    2    0    0  0.00000000000E+00  0.00000000000E+00  0.11480674013E+04  0.21349944575E+04  0.18000396039E+04 0.  0.
        1    1    3    3  502    0  0.91315441278E+02 -0.24302957380E+03 -0.44808665111E+03  0.51786439392E+03  0.50400001928E-02 0. -1.
       -1    1    3    3    0  502 -0.91315441278E+02  0.24302957380E+03  0.15961540524E+04  0.16171300636E+04  0.50400001928E-02 0.  1.
</event>
<event>
 5   0  0.1035018E-05  0.1799672E+04  0.7818609E-02  0.8706474E-01
       -2   -1    0    0    0  501  0.00000000000E+00  0.00000000000E+00  0.12576690662E+04  0.12576690662E+04  0.25500000920E-02 0. -1.
        2   -1    0    0  501    0  0.00000000000E+00  0.00000000000E+00 -0.64381388946E+03  0.64381388946E+03  0.25500000920E-02 0.  1.
    10030    2    1    2    0    0  0.00000000000E+00  0.00000000000E+00  0.61385517678E+03  0.19014829557E+04  0.17996719848E+04 0.  0.
        3    1    3    3  502    0  0.58880522198E+03 -0.57579241179E+03 -0.76181837708E+02  0.82706237582E+03  0.10100000352E+00 0.  1.
       -3    1    3    3    0  502 -0.58880522198E+03  0.57579241179E+03  0.69003701449E+03  0.10744205799E+04  0.10100000352E+00 0. -1.
</event>
<event>
 5   0  0.4953155E-06  0.1800556E+04  0.7818609E-02  0.8706004E-01
        1   -1    0    0  501    0  0.00000000000E+00  0.00000000000E+00  0.88308100653E+03  0.88308100654E+03  0.50400001928E-02 0. -1.
       -1   -1    0    0    0  501  0.00000000000E+00  0.00000000000E+00 -0.91781026125E+03  0.91781026126E+03  0.50400001928E-02 0.  1.
    10030    2    1    2    0    0  0.00000000000E+00  0.00000000000E+00 -0.34729254723E+02  0.18008912678E+04  0.18005563688E+04 0.  0.
        2    1    3    3  502    0  0.58431261638E+03  0.43022490444E+01  0.66764308859E+03  0.88723561513E+03  0.25500000920E-02 0. -1.
       -2    1    3    3    0  502 -0.58431261638E+03 -0.43022490444E+01 -0.70237234331E+03  0.91365565267E+03  0.25500000920E-02 0.  1.
</event>
<event>
 5   0  0.1035018E-05  0.1800399E+04  0.7818609E-02  0.8706088E-01
       -2   -1    0    0    0  501  0.00000000000E+00  0.00000000000E+00  0.42978843078E+03  0.42978843079E+03  0.25500000920E-02 0.  1.
        2   -1    0    0  501    0  0.00000000000E+00  0.00000000000E+00 -0.18854828497E+04  0.18854828497E+04  0.25500000920E-02 0. -1.
    10030    2    1    2    0    0  0.00000000000E+00  0.00000000000E+00 -0.14556944189E+04  0.23152712805E+04  0.18003985284E+04 0.  0.
        3    1    3    3  502    0  0.34744278155E+03  0.19422084293E+03  0.31047118665E+03  0.50480747837E+03  0.10100000352E+00 0.  1.
       -3    1    3    3    0  502 -0.34744278155E+03 -0.19422084293E+03 -0.17661656056E+04  0.18104638021E+04  0.10100000352E+00 0. -1.
</event>
<event>
 5   0  0.9589963E-06  0.1800530E+04  0.7818609E-02  0.8706017E-01
        2   -1    0    0  501    0  0.00000000000E+00  0.00000000000E+00  0.18862176479E+04  0.18862176479E+04  0.25500000920E-02 0. -1.
       -2   -1    0    0    0  501  0.00000000000E+00  0.00000000000E+00 -0.42968393797E+03  0.42968393798E+03  0.25500000920E-02 0.  1.
    10030    2    1    2    0    0  0.00000000000E+00  0.00000000000E+00  0.14565337099E+04  0.23159015859E+04  0.18005303961E+04 0.  0.
        2    1    3    3  502    0  0.73041913418E+03  0.33769213102E+03  0.20908525593E+03  0.83142331648E+03  0.25500000920E-02 0.  1.
       -2    1    3    3    0  502 -0.73041913418E+03 -0.33769213102E+03  0.12474484540E+04  0.14844782694E+04  0.25500000920E-02 0. -1.
</event>
<event>
 5   0  0.1000316E-05  0.1793227E+04  0.7818609E-02  0.8709909E-01
        2   -1    0    0  501    0  0.00000000000E+00  0.00000000000E+00  0.14195860029E+04  0.14195860029E+04  0.25500000920E-02 0. -1.
       -2   -1    0    0    0  501  0.00000000000E+00  0.00000000000E+00 -0.56630306595E+03  0.56630306596E+03  0.25500000920E-02 0.  1.
    10030    2    1    2    0    0  0.00000000000E+00  0.00000000000E+00  0.85328293694E+03  0.19858890688E+04  0.17932271533E+04 0.  0.
        5    1    3    3  502    0  0.53890826467E+03 -0.46208195327E+03 -0.17987910329E+03  0.73233901375E+03  0.46999998093E+01 0.  1.
       -5    1    3    3    0  502 -0.53890826467E+03  0.46208195327E+03  0.10331620402E+04  0.12535500551E+04  0.46999998093E+01 0. -1.
</event>
<event>
 5   0  0.4981384E-06  0.1799726E+04  0.7818609E-02  0.8706445E-01
        1   -1    0    0  501    0  0.00000000000E+00  0.00000000000E+00  0.64548326768E+03  0.64548326770E+03  0.50400001928E-02 0.  1.
       -1   -1    0    0    0  501  0.00000000000E+00  0.00000000000E+00 -0.12544914134E+04  0.12544914134E+04  0.50400001928E-02 0. -1.
    10030    2    1    2    0    0  0.00000000000E+00  0.00000000000E+00 -0.60900814570E+03  0.18999746811E+04  0.17997257756E+04 0.  0.
        5    1    3    3  502    0  0.70282896748E+03 -0.18080990060E+03 -0.86618369421E+03  0.11300252474E+04  0.46999998093E+01 0. -1.
       -5    1    3    3    0  502 -0.70282896748E+03  0.18080990060E+03  0.25717554851E+03  0.76994943368E+03  0.46999998093E+01 0.  1.
</event>
<event>
 5   0  0.4981384E-06  0.1799333E+04  0.7818609E-02  0.8706654E-01
       -1   -1    0    0    0  501  0.00000000000E+00  0.00000000000E+00  0.92662495830E+03  0.92662495832E+03  0.50400001928E-02 0. -1.
        1   -1    0    0  501    0  0.00000000000E+00  0.00000000000E+00 -0.87349192185E+03  0.87349192187E+03  0.50400001928E-02 0.  1.
    10030    2    1    2    0    0  0.00000000000E+00  0.00000000000E+00  0.53133036448E+02  0.18001168802E+04  0.17993325604E+04 0.  0.
        5    1    3    3  502    0 -0.18390757328E+03 -0.75841560880E+03 -0.42124572516E+03  0.88684061823E+03  0.46999998093E+01 0.  1.
       -5    1    3    3    0  502  0.18390757328E+03  0.75841560880E+03  0.47437876160E+03  0.91327626195E+03  0.46999998093E+01 0. -1.
</event>
<event>
 5   0  0.9999162E-06  0.1800159E+04  0.7818609E-02  0.8706215E-01
       -2   -1    0    0    0  501  0.00000000000E+00  0.00000000000E+00  0.10716324567E+04  0.10716324567E+04  0.25500000920E-02 0.  1.
        2   -1    0    0  501    0  0.00000000000E+00  0.00000000000E+00 -0.75598991665E+03  0.75598991666E+03  0.25500000920E-02 0. -1.
    10030    2    1    2    0    0  0.00000000000E+00  0.00000000000E+00  0.31564254004E+03  0.18276223734E+04  0.18001592503E+04 0.  0.
        1    1    3    3  502    0  0.52023189333E+03 -0.31322446136E+02  0.90285659801E+03  0.10424837433E+04  0.50400001928E-02 0.  1.
       -1    1    3    3    0  502 -0.52023189333E+03  0.31322446136E+02 -0.58721405797E+03  0.78513863004E+03  0.50400001928E-02 0. -1.
</event>
<event>
 5   0  0.4983159E-06  0.1800206E+04  0.7818609E-02  0.8706190E-01
        1   -1    0    0  501    0  0.00000000000E+00  0.00000000000E+00  0.14081017142E+04  0.14081017142E+04  0.50400001928E-02 0.  1.
       -1   -1    0    0    0  501  0.00000000000E+00  0.00000000000E+00 -0.57537413237E+03  0.57537413239E+03  0.50400001928E-02 0. -1.
    10030    2    1    2    0    0  0.00000000000E+00  0.00000000000E+00  0.83272758181E+03  0.19834758466E+04  0.18002058795E+04 0.  0.
        4    1    3    3  502    0 -0.30801096977E+03  0.50616675730E+03  0.11629195320E+04  0.13051662708E+04  0.12699999809E+01 0.  1.
       -4    1    3    3    0  502  0.30801096977E+03 -0.50616675730E+03 -0.33019195019E+03  0.67830957576E+03  0.12699999809E+01 0. -1.
</event>
<event>
 5   0  0.9589963E-06  0.1800135E+04  0.7818609E-02  0.8706228E-01
        2   -1    0    0  501    0  0.00000000000E+00  0.00000000000E+00  0.18981831415E+04  0.18981831415E+04  0.25500000920E-02 0.  1.
       -2   -1    0    0    0  501  0.00000000000E+00  0.00000000000E+00 -0.42678779393E+03  0.42678779393E+03  0.25500000920E-02 0. -1.
    10030    2    1    2    0    0  0.00000000000E+00  0.00000000000E+00  0.14713953476E+04  0.23249709355E+04  0.18001348788E+04 0.  0.
        2    1    3    3  502    0 -0.71164881306E+02 -0.66199683608E+03  0.15179327641E+04  0.16575355585E+04  0.25500000920E-02 0.  1.
       -2    1    3    3    0  502  0.71164881306E+02  0.66199683608E+03 -0.46537416487E+02  0.66743537699E+03  0.25500000920E-02 0. -1.
</event>
<event>
 5   0  0.4994123E-06  0.1800178E+04  0.7818609E-02  0.8706205E-01
        1   -1    0    0  501    0  0.00000000000E+00  0.00000000000E+00  0.65954058659E+03  0.65954058661E+03  0.50400001928E-02 0. -1.
       -1   -1    0    0    0  501  0.00000000000E+00  0.00000000000E+00 -0.12283698609E+04  0.12283698609E+04  0.50400001928E-02 0.  1.
    10030    2    1    2    0    0  0.00000000000E+00  0.00000000000E+00 -0.56882927430E+03  0.18879104475E+04  0.18001775231E+04 0.  0.
        1    1    3    3  502    0  0.86444410186E+03 -0.18946618563E+03 -0.11209380380E+03  0.89203478722E+03  0.50400001928E-02 0. -1.
       -1    1    3    3    0  502 -0.86444410186E+03  0.18946618563E+03 -0.45673547050E+03  0.99587566030E+03  0.50400001928E-02 0.  1.
</event>
<event>
 5   0  0.1036381E-05  0.1797182E+04  0.7818609E-02  0.8707799E-01
       -2   -1    0    0    0  501  0.00000000000E+00  0.00000000000E+00  0.47209843971E+03  0.47209843972E+03  0.25500000920E-02 0.  1.
        2   -1    0    0  501    0  0.00000000000E+00  0.00000000000E+00 -0.17103758499E+04  0.17103758499E+04  0.25500000920E-02 0. -1.
    10030    2    1    2    0    0  0.00000000000E+00  0.00000000000E+00 -0.12382774102E+04  0.21824742896E+04  0.17971819831E+04 0.  0.
        4    1    3    3  502    0 -0.55604848061E+03  0.33332130171E+03  0.13649022452E+03  0.66251354496E+03  0.12699999809E+01 0.  1.
       -4    1    3    3    0  502  0.55604848061E+03 -0.33332130171E+03 -0.13747676347E+04  0.15199607447E+04  0.12699999809E+01 0. -1.
</event>
<event>
 5   0  0.4983159E-06  0.1800209E+04  0.7818609E-02  0.8706188E-01
        1   -1    0    0  501    0  0.00000000000E+00  0.00000000000E+00  0.11479884196E+04  0.11479884196E+04  0.50400001928E-02 0. -1.
       -1   -1    0    0    0  501  0.00000000000E+00  0.00000000000E+00 -0.70574573285E+03  0.70574573287E+03  0.50400001928E-02 0.  1.
    10030    2    1    2    0    0  0.00000000000E+00  0.00000000000E+00  0.44224268672E+03  0.18537341525E+04  0.18002087973E+04 0.  0.
        4    1    3    3  502    0  0.40019519657E+03  0.76864032237E+03  0.47171308152E+03  0.98665038626E+03  0.12699999809E+01 0.  1.
       -4    1    3    3    0  502 -0.40019519657E+03 -0.76864032237E+03 -0.29470394798E+02  0.86708376620E+03  0.12699999809E+01 0. -1.
</event>
<event>
 5   0  0.1000316E-05  0.1800304E+04  0.7818609E-02  0.8706138E-01
       -2   -1    0    0    0  501  0.00000000000E+00  0.00000000000E+00  0.43094671711E+03  0.43094671711E+03  0.25500000920E-02 0. -1.
        2   -1    0    0  501    0  0.00000000000E+00  0.00000000000E+00 -0.18802172646E+04  0.18802172646E+04  0.25500000920E-02 0.  1.
    10030    2    1    2    0    0  0.00000000000E+00  0.00000000000E+00 -0.14492705475E+04  0.23111639817E+04  0.18003038162E+04 0.  0.
        5    1    3    3  502    0 -0.38525917104E+03  0.32132043476E+03 -0.16840969162E+04  0.17572353183E+04  0.46999998093E+01 0.  1.
       -5    1    3    3    0  502  0.38525917104E+03 -0.32132043476E+03  0.23482636875E+03  0.55392866339E+03  0.46999998093E+01 0. -1.
</event>
<event>
 5   0  0.4983159E-06  0.1799772E+04  0.7818609E-02  0.8706421E-01
        1   -1    0    0  501    0  0.00000000000E+00  0.00000000000E+00  0.11960152418E+04  0.11960152418E+04  0.50400001928E-02 0. -1.
       -1   -1    0    0    0  501  0.00000000000E+00  0.00000000000E+00 -0.67707717178E+03  0.67707717180E+03  0.50400001928E-02 0.  1.
    10030    2    1    2    0    0  0.00000000000E+00  0.00000000000E+00  0.51893807000E+03  0.18730924136E+04  0.17997717826E+04 0.  0.
        4    1    3    3  502    0  0.34945539606E+03  0.74140645807E+03 -0.12713483273E+03  0.82943805585E+03  0.12699999809E+01 0.  1.
       -4    1    3    3    0  502 -0.34945539606E+03 -0.74140645807E+03  0.64607290274E+03  0.10436543578E+04  0.12699999809E+01 0. -1.
</event>
<event>
 5   0  0.4981384E-06  0.1799689E+04  0.7818609E-02  0.8706465E-01
       -1   -1    0    0    0  501  0.00000000000E+00  0.00000000000E+00  0.34810544285E+03  0.34810544289E+03  0.50400001928E-02 0.  1.
        1   -1    0    0  501    0  0.00000000000E+00  0.00000000000E+00 -0.23260773284E+04  0.23260773284E+04  0.50400001928E-02 0. -1.
    10030    2    1    2    0    0  0.00000000000E+00  0.00000000000E+00 -0.19779718855E+04  0.26741827712E+04  0.17996890604E+04 0.  0.
        5    1    3    3  502    0  0.72612098341E+03 -0.10825886847E+03 -0.17621273485E+04  0.19089490688E+04  0.46999998093E+01 0. -1.
       -5    1    3    3    0  502 -0.72612098341E+03  0.10825886847E+03 -0.21584453701E+03  0.76523370241E+03  0.46999998093E+01 0.  1.
</event>
<event>
 5   0  0.9999162E-06  0.1798597E+04  0.7818609E-02  0.8707046E-01
       -2   -1    0    0    0  501  0.00000000000E+00  0.00000000000E+00  0.12440037644E+04  0.12440037645E+04  0.25500000920E-02 0. -1.
        2   -1    0    0  501    0  0.00000000000E+00  0.00000000000E+00 -0.65010846588E+03  0.65010846588E+03  0.25500000920E-02 0.  1.
    10030    2    1    2    0    0  0.00000000000E+00  0.00000000000E+00  0.59389529857E+03  0.18941122303E+04  0.17985965405E+04 0.  0.
        1    1    3    3  502    0  0.83292772604E+03 -0.11483277674E+03  0.63292337787E+03  0.10524006679E+04  0.50400001928E-02 0. -1.
       -1    1    3    3    0  502 -0.83292772604E+03  0.11483277674E+03 -0.39028079303E+02  0.84171156248E+03  0.50400001928E-02 0.  1.
</event>
<event>
 5   0  0.4987456E-06  0.1799542E+04  0.7818609E-02  0.8706543E-01
        1   -1    0    0  501    0  0.00000000000E+00  0.00000000000E+00  0.10688624527E+04  0.10688624527E+04  0.50400001928E-02 0. -1.
       -1   -1    0    0    0  501  0.00000000000E+00  0.00000000000E+00 -0.75742950847E+03  0.75742950849E+03  0.50400001928E-02 0.  1.
    10030    2    1    2    0    0  0.00000000000E+00  0.00000000000E+00  0.31143294426E+03  0.18262919612E+04  0.17995421220E+04 0.  0.
        3    1    3    3  502    0  0.88231462407E+03  0.39668900020E+02 -0.18696347419E+02  0.88340380409E+03  0.10100000352E+00 0.  1.
       -3    1    3    3    0  502 -0.88231462407E+03 -0.39668900020E+02  0.33012929168E+03  0.94288815715E+03  0.10100000352E+00 0. -1.
</event>
<event>
 5   0  0.9999162E-06  0.1803510E+04  0.7818609E-02  0.8704435E-01
        2   -1    0    0  501    0  0.00000000000E+00  0.00000000000E+00  0.16712530703E+04  0.16712530703E+04  0.25500000920E-02 0. -1.
       -2   -1    0    0    0  501  0.00000000000E+00  0.00000000000E+00 -0.48655844051E+03  0.48655844052E+03  0.25500000920E-02 0.  1.
    10030    2    1    2    0    0  0.00000000000E+00  0.00000000000E+00  0.11846946298E+04  0.21578115108E+04  0.18035102302E+04 0.  0.
        1    1    3    3  502    0 -0.42478469037E+03 -0.71162478266E+03  0.16712652459E+03  0.84544848437E+03  0.50400001928E-02 0.  1.
       -1    1    3    3    0  502  0.42478469037E+03  0.71162478266E+03  0.10175681052E+04  0.13123630264E+04  0.50400001928E-02 0. -1.
</event>
<event>
 5   0  0.4987456E-06  0.1801269E+04  0.7818609E-02  0.8705625E-01
       -1   -1    0    0    0  501  0.00000000000E+00  0.00000000000E+00  0.39548236235E+03  0.39548236238E+03  0.50400001928E-02 0.  1.
        1   -1    0    0  501    0  0.00000000000E+00  0.00000000000E+00 -0.20510203539E+04  0.20510203539E+04  0.50400001928E-02 0. -1.
    10030    2    1    2    0    0  0.00000000000E+00  0.00000000000E+00 -0.16555379915E+04  0.24465027163E+04  0.18012688582E+04 0.  0.
        3    1    3    3  502    0  0.19954520996E+03  0.28167270306E+03 -0.19576048811E+04  0.19878065004E+04  0.10100000352E+00 0. -1.
       -3    1    3    3    0  502 -0.19954520996E+03 -0.28167270306E+03  0.30206688956E+03  0.45869621585E+03  0.10100000352E+00 0.  1.
</event>
<event>
 5   0  0.4981384E-06  0.1800409E+04  0.7818609E-02  0.8706082E-01
       -1   -1    0    0    0  501  0.00000000000E+00  0.00000000000E+00  0.10740857307E+04  0.10740857307E+04  0.50400001928E-02 0.  1.
        1   -1    0    0  501    0  0.00000000000E+00  0.00000000000E+00 -0.75447208821E+03  0.75447208822E+03  0.50400001928E-02 0. -1.
    10030    2    1    2    0    0  0.00000000000E+00  0.00000000000E+00  0.31961364251E+03  0.18285578190E+04  0.18004085139E+04 0.  0.
        5    1    3    3  502    0  0.63585103677E+03 -0.55197632854E+03  0.48315731155E+03  0.97079734545E+03  0.46999998093E+01 0.  1.
       -5    1    3    3    0  502 -0.63585103677E+03  0.55197632854E+03 -0.16354366904E+03  0.85776047351E+03  0.46999998093E+01 0. -1.
</event>
<event>
 5   0  0.1036381E-05  0.1799758E+04  0.7818609E-02  0.8706428E-01
        2   -1    0    0  501    0  0.00000000000E+00  0.00000000000E+00  0.15067336607E+04  0.15067336607E+04  0.25500000920E-02 0.  1.
       -2   -1    0    0    0  501  0.00000000000E+00  0.00000000000E+00 -0.53744240173E+03  0.53744240174E+03  0.25500000920E-02 0. -1.
    10030    2    1    2    0    0  0.00000000000E+00  0.00000000000E+00  0.96929125900E+03  0.20441760625E+04  0.17997583809E+04 0.  0.
        4    1    3    3  502    0 -0.55068882660E+02 -0.55604762050E+03 -0.31652784896E+03  0.64219391944E+03  0.12699999809E+01 0. -1.
       -4    1    3    3    0  502  0.55068882660E+02  0.55604762050E+03  0.12858191080E+04  0.14019821430E+04  0.12699999809E+01 0.  1.
</event>
<event>
 5   0  0.9589963E-06  0.1799850E+04  0.7818609E-02  0.8706379E-01
        2   -1    0    0  501    0  0.00000000000E+00  0.00000000000E+00  0.16056873107E+04  0.16056873107E+04  0.25500000920E-02 0. -1.
       -2   -1    0    0    0  501  0.00000000000E+00  0.00000000000E+00 -0.50437305150E+03  0.50437305150E+03  0.25500000920E-02 0.  1.
    10030    2    1    2    0    0  0.00000000000E+00  0.00000000000E+00  0.11013142592E+04  0.21100603622E+04  0.17998504479E+04 0.  0.
        2    1    3    3  502    0 -0.31375046861E+03  0.62138176719E+03 -0.11800644748E+03  0.70603128740E+03  0.25500000920E-02 0.  1.
       -2    1    3    3    0  502  0.31375046861E+03 -0.62138176719E+03  0.12193207067E+04  0.14040290748E+04  0.25500000920E-02 0. -1.
</event>
<event>
 5   0  0.4983159E-06  0.1798460E+04  0.7818609E-02  0.8707119E-01
        1   -1    0    0  501    0  0.00000000000E+00  0.00000000000E+00  0.58576344042E+03  0.58576344044E+03  0.50400001928E-02 0.  1.
       -1   -1    0    0    0  501  0.00000000000E+00  0.00000000000E+00 -0.13804453438E+04  0.13804453438E+04  0.50400001928E-02 0. -1.
    10030    2    1    2    0    0  0.00000000000E+00  0.00000000000E+00 -0.79468190340E+03  0.19662087843E+04  0.17984598010E+04 0.  0.
        4    1    3    3  502    0 -0.25285037259E+03  0.45190305829E+03 -0.12010741874E+04  0.13079489675E+04  0.12699999809E+01 0. -1.
       -4    1    3    3    0  502  0.25285037259E+03 -0.45190305829E+03  0.40639228399E+03  0.65825981679E+03  0.12699999809E+01 0.  1.
</event>
<event>
 5   0  0.1000316E-05  0.1800450E+04  0.7818609E-02  0.8706060E-01
        2   -1    0    0  501    0  0.00000000000E+00  0.00000000000E+00  0.94622078871E+03  0.94622078871E+03  0.25500000920E-02 0.  1.
       -2   -1    0    0    0  501  0.00000000000E+00  0.00000000000E+00 -0.85646541792E+03  0.85646541793E+03  0.25500000920E-02 0. -1.
    10030    2    1    2    0    0  0.00000000000E+00  0.00000000000E+00  0.89755370787E+02  0.18026862066E+04  0.18004503695E+04 0.  0.
        5    1    3    3  502    0  0.61617737797E+02  0.15650264852E+03  0.93033638854E+03  0.94542990774E+03  0.46999998093E+01 0.  1.
       -5    1    3    3    0  502 -0.61617737797E+02 -0.15650264852E+03 -0.84058101775E+03  0.85725629890E+03  0.46999998093E+01 0. -1.
</event>
<event>
 5   0  0.4994123E-06  0.1802541E+04  0.7818609E-02  0.8704949E-01
       -1   -1    0    0    0  501  0.00000000000E+00  0.00000000000E+00  0.49104913357E+03  0.49104913359E+03  0.50400001928E-02 0.  1.
        1   -1    0    0  501    0  0.00000000000E+00  0.00000000000E+00 -0.16541901624E+04  0.16541901624E+04  0.50400001928E-02 0. -1.
    10030    2    1    2    0    0  0.00000000000E+00  0.00000000000E+00 -0.11631410288E+04  0.21452392960E+04  0.18025411463E+04 0.  0.
        1    1    3    3  502    0 -0.48900173287E+03  0.70074163770E+03 -0.92263289786E+03  0.12575424453E+04  0.50400001928E-02 0. -1.
       -1    1    3    3    0  502  0.48900173287E+03 -0.70074163770E+03 -0.24050813093E+03  0.88769685063E+03  0.50400001928E-02 0.  1.
</event>
<event>
 5   0  0.1036381E-05  0.1799414E+04  0.7818609E-02  0.8706611E-01
        2   -1    0    0  501    0  0.00000000000E+00  0.00000000000E+00  0.18407319829E+04  0.18407319829E+04  0.25500000920E-02 0.  1.
       -2   -1    0    0    0  501  0.00000000000E+00  0.00000000000E+00 -0.43975604796E+03  0.43975604797E+03  0.25500000920E-02 0. -1.
    10030    2    1    2    0    0  0.00000000000E+00  0.00000000000E+00  0.14009759349E+04  0.22804880308E+04  0.17994143738E+04 0.  0.
        4    1    3    3  502    0 -0.82600924388E+02  0.24060610567E+03  0.17942024594E+04  0.18121474248E+04  0.12699999809E+01 0.  1.
       -4    1    3    3    0  502  0.82600924388E+02 -0.24060610567E+03 -0.39322652452E+03  0.46834060606E+03  0.12699999809E+01 0. -1.
</event>
<event>
 5   0  0.4953155E-06  0.1799377E+04  0.7818609E-02  0.8706631E-01
        1   -1    0    0  501    0  0.00000000000E+00  0.00000000000E+00  0.80534465661E+03  0.80534465662E+03  0.50400001928E-02 0.  1.
       -1   -1    0    0    0  501  0.00000000000E+00  0.00000000000E+00 -0.10050841094E+04  0.10050841094E+04  0.50400001928E-02 0. -1.
    10030    2    1    2    0    0  0.00000000000E+00  0.00000000000E+00 -0.19973945282E+03  0.18104287661E+04  0.17993766887E+04 0.  0.
        2    1    3    3  502    0 -0.58633271434E+03 -0.61286236818E+03 -0.40180087600E+03  0.93852558739E+03  0.25500000920E-02 0. -1.
       -2    1    3    3    0  502  0.58633271434E+03  0.61286236818E+03  0.20206142318E+03  0.87190317867E+03  0.25500000920E-02 0.  1.
</event>
<event>
 5   0  0.4953155E-06  0.1800042E+04  0.7818609E-02  0.8706277E-01
        1   -1    0    0  501    0  0.00000000000E+00  0.00000000000E+00  0.48856758607E+03  0.48856758610E+03  0.50400001928E-02 0. -1.
       -1   -1    0    0    0  501  0.00000000000E+00  0.00000000000E+00 -0.16579851616E+04  0.16579851616E+04  0.50400001928E-02 0.  1.
    10030    2    1    2    0    0  0.00000000000E+00  0.00000000000E+00 -0.11694175756E+04  0.21465527477E+04  0.18000420086E+04 0.  0.
        2    1    3    3  502    0 -0.23677213150E+03  0.86469661437E+03 -0.49023338223E+03  0.10218072451E+04  0.25500000920E-02 0. -1.
       -2    1    3    3    0  502  0.23677213150E+03 -0.86469661437E+03 -0.67918419332E+03  0.11247455026E+04  0.25500000920E-02 0.  1.
</event>
<event>
 5   0  0.9589963E-06  0.1799686E+04  0.7818609E-02  0.8706467E-01
       -2   -1    0    0    0  501  0.00000000000E+00  0.00000000000E+00  0.15835107003E+04  0.15835107003E+04  0.25500000920E-02 0.  1.
        2   -1    0    0  501    0  0.00000000000E+00  0.00000000000E+00 -0.51134313593E+03  0.51134313594E+03  0.25500000920E-02 0. -1.
    10030    2    1    2    0    0  0.00000000000E+00  0.00000000000E+00  0.10721675644E+04  0.20948538362E+04  0.17996858918E+04 0.  0.
        2    1    3    3  502    0 -0.37044949586E+03 -0.41596920249E+03 -0.28654673149E+03  0.62639622903E+03  0.25500000920E-02 0. -1.
       -2    1    3    3    0  502  0.37044949586E+03  0.41596920249E+03  0.13587142959E+04  0.14684576072E+04  0.25500000920E-02 0.  1.
</event>
<event>
 5   0  0.4981384E-06  0.1799176E+04  0.7818609E-02  0.8706738E-01
        1   -1    0    0  501    0  0.00000000000E+00  0.00000000000E+00  0.20272848588E+04  0.20272848588E+04  0.50400001928E-02 0. -1.
       -1   -1    0    0    0  501  0.00000000000E+00  0.00000000000E+00 -0.39918323557E+03  0.39918323560E+03  0.50400001928E-02 0.  1.
    10030    2    1    2    0    0  0.00000000000E+00  0.00000000000E+00  0.16281016232E+04  0.24264680944E+04  0.17991755105E+04 0.  0.
        5    1    3    3  502    0 -0.74181526999E+03 -0.50832155794E+03  0.84583271369E+03  0.12345589377E+04  0.46999998093E+01 0. -1.
       -5    1    3    3    0  502  0.74181526999E+03  0.50832155794E+03  0.78226890950E+03  0.11919091567E+04  0.46999998093E+01 0.  1.
</event>
<event>
 5   0  0.4983159E-06  0.1799914E+04  0.7818609E-02  0.8706345E-01
        1   -1    0    0  501    0  0.00000000000E+00  0.00000000000E+00  0.11993892328E+04  0.11993892328E+04  0.50400001928E-02 0.  1.
       -1   -1    0    0    0  501  0.00000000000E+00  0.00000000000E+00 -0.67527904936E+03  0.67527904938E+03  0.50400001928E-02 0. -1.
    10030    2    1    2    0    0  0.00000000000E+00  0.00000000000E+00  0.52411018343E+03  0.18746682822E+04  0.17999137990E+04 0.  0.
        4    1    3    3  502    0 -0.85020684536E+03  0.27229384672E+03  0.38046585473E+03  0.97043881742E+03  0.12699999809E+01 0.  1.
       -4    1    3    3    0  502  0.85020684536E+03 -0.27229384672E+03  0.14364432869E+03  0.90422946475E+03  0.12699999809E+01 0. -1.
</event>
<event>
 5   0  0.4981384E-06  0.1800057E+04  0.7818609E-02  0.8706269E-01
        1   -1    0    0  501    0  0.00000000000E+00  0.00000000000E+00  0.19125989680E+04  0.19125989680E+04  0.50400001928E-02 0.  1.
       -1   -1    0    0    0  501  0.00000000000E+00  0.00000000000E+00 -0.42353451128E+03  0.42353451131E+03  0.50400001928E-02 0. -1.
    10030    2    1    2    0    0  0.00000000000E+00  0.00000000000E+00  0.14890644567E+04  0.23361334793E+04  0.18000574093E+04 0.  0.
        5    1    3    3  502    0  0.68629364324E+03  0.46545051121E+03  0.29050913723E+03  0.87866989930E+03  0.46999998093E+01 0. -1.
       -5    1    3    3    0  502 -0.68629364324E+03 -0.46545051121E+03  0.11985553194E+04  0.14574635800E+04  0.46999998093E+01 0.  1.
</event>
<event>
 5   0  0.9589963E-06  0.1801255E+04  0.7818609E-02  0.8705633E-01
       -2   -1    0    0    0  501  0.00000000000E+00  0.00000000000E+00  0.69707130158E+03  0.69707130158E+03  0.25500000920E-02 0.  1.
        2   -1    0    0  501    0  0.00000000000E+00  0.00000000000E+00 -0.11636249298E+04  0.11636249298E+04  0.25500000920E-02 0. -1.
    10030    2    1    2    0    0  0.00000000000E+00  0.00000000000E+00 -0.46655362821E+03  0.18606962314E+04  0.18012546121E+04 0.  0.
        2    1    3    3  502    0  0.50559400495E+03 -0.49246566729E+02 -0.10015115949E+04  0.11229764009E+04  0.25500000920E-02 0. -1.
       -2    1    3    3    0  502 -0.50559400495E+03  0.49246566729E+02  0.53495796669E+03  0.73771983050E+03  0.25500000920E-02 0.  1.
</event>
<event>
 5   0  0.9589963E-06  0.1799995E+04  0.7818609E-02  0.8706302E-01
       -2   -1    0    0    0  501  0.00000000000E+00  0.00000000000E+00  0.68657865190E+03  0.68657865191E+03  0.25500000920E-02 0. -1.
        2   -1    0    0  501    0  0.00000000000E+00  0.00000000000E+00 -0.11797565355E+04  0.11797565355E+04  0.25500000920E-02 0.  1.
    10030    2    1    2    0    0  0.00000000000E+00  0.00000000000E+00 -0.49317788362E+03  0.18663351874E+04  0.17999951686E+04 0.  0.
        2    1    3    3  502    0 -0.81862535175E+03 -0.33653216239E+03 -0.41567682829E+03  0.97784895993E+03  0.25500000920E-02 0.  1.
       -2    1    3    3    0  502  0.81862535175E+03  0.33653216239E+03 -0.77501055324E+02  0.88848622749E+03  0.25500000920E-02 0. -1.
</event>
<event>
 5   0  0.4994123E-06  0.1801012E+04  0.7818609E-02  0.8705762E-01
       -1   -1    0    0    0  501  0.00000000000E+00  0.00000000000E+00  0.40366955068E+03  0.40366955071E+03  0.50400001928E-02 0. -1.
        1   -1    0    0  501    0  0.00000000000E+00  0.00000000000E+00 -0.20088476946E+04  0.20088476946E+04  0.50400001928E-02 0.  1.
    10030    2    1    2    0    0  0.00000000000E+00  0.00000000000E+00 -0.16051781439E+04  0.24125172453E+04  0.18010115450E+04 0.  0.
        1    1    3    3  502    0 -0.39588330467E+03 -0.61808155335E+03 -0.10376497489E+03  0.74129317247E+03  0.50400001928E-02 0. -1.
       -1    1    3    3    0  502  0.39588330467E+03  0.61808155335E+03 -0.15014131690E+04  0.16712240728E+04  0.50400001928E-02 0.  1.
</event>
<event>
 5   0  0.1035018E-05  0.1799450E+04  0.7818609E-02  0.8706592E-01
        2   -1    0    0  501    0  0.00000000000E+00  0.00000000000E+00  0.10146166678E+04  0.10146166678E+04  0.25500000920E-02 0. -1.
       -2   -1    0    0    0  501  0.00000000000E+00  0.00000000000E+00 -0.79784299022E+03  0.79784299023E+03  0.25500000920E-02 0.  1.
    10030    2    1    2    0    0  0.00000000000E+00  0.00000000000E+00  0.21677367761E+03  0.18124596581E+04  0.17994496894E+04 0.  0.
        3    1    3    3  502    0 -0.13540795721E+03 -0.59544540467E+02  0.10022850912E+04  0.10131417874E+04  0.10100000352E+00 0. -1.
       -3    1    3    3    0  502  0.13540795721E+03  0.59544540467E+02 -0.78551141361E+03  0.79931787062E+03  0.10100000352E+00 0.  1.
</event>
<event>
 5   0  0.1035018E-05  0.1800112E+04  0.7818609E-02  0.8706240E-01
       -2   -1    0    0    0  501  0.00000000000E+00  0.00000000000E+00  0.65628022749E+03  0.65628022750E+03  0.25500000920E-02 0. -1.
        2   -1    0    0  501    0  0.00000000000E+00  0.00000000000E+00 -0.12343818313E+04  0.12343818313E+04  0.25500000920E-02 0.  1.
    10030    2    1    2    0    0  0.00000000000E+00  0.00000000000E+00 -0.57810160383E+03  0.18906620588E+04  0.18001115400E+04 0.  0.
        3    1    3    3  502    0  0.40039214618E+03  0.35516000666E+03 -0.10490868076E+04  0.11777247731E+04  0.10100000352E+00 0.  1.
       -3    1    3    3    0  502 -0.40039214618E+03 -0.35516000666E+03  0.47098520375E+03  0.71293728575E+03  0.10100000352E+00 0. -1.
</event>
<event>
 5   0  0.1036381E-05  0.1799578E+04  0.7818609E-02  0.8706524E-01
        2   -1    0    0  501    0  0.00000000000E+00  0.00000000000E+00  0.68936030778E+03  0.68936030779E+03  0.25500000920E-02 0.  1.
       -2   -1    0    0    0  501  0.00000000000E+00  0.00000000000E+00 -0.11744517595E+04  0.11744517595E+04  0.25500000920E-02 0. -1.
    10030    2    1    2    0    0  0.00000000000E+00  0.00000000000E+00 -0.48509145168E+03  0.18638120673E+04  0.17995782021E+04 0.  0.
        4    1    3    3  502    0  0.17501887191E+03  0.13680810214E+03 -0.11456035020E+04  0.11669434686E+04  0.12699999809E+01 0. -1.
       -4    1    3    3    0  502 -0.17501887191E+03 -0.13680810214E+03  0.66051205027E+03  0.69686859865E+03  0.12699999809E+01 0.  1.
</event>
<event>
 5   0  0.4983159E-06  0.1798852E+04  0.7818609E-02  0.8706910E-01
       -1   -1    0    0    0  501  0.00000000000E+00  0.00000000000E+00  0.90074980076E+03  0.90074980078E+03  0.50400001928E-02 0. -1.
        1   -1    0    0  501    0  0.00000000000E+00  0.00000000000E+00 -0.89810456190E+03  0.89810456192E+03  0.50400001928E-02 0.  1.
    10030    2    1    2    0    0  0.00000000000E+00  0.00000000000E+00  0.26452388611E+01  0.17988543627E+04  0.17988524178E+04 0.  0.
        4    1    3    3  502    0 -0.69510760882E+03  0.32064711992E+03 -0.47088200904E+03  0.89873279827E+03  0.12699999809E+01 0.  1.
       -4    1    3    3    0  502  0.69510760882E+03 -0.32064711992E+03  0.47352724790E+03  0.90012156443E+03  0.12699999809E+01 0. -1.
</event>
<event>
 5   0  0.4983159E-06  0.1801263E+04  0.7818609E-02  0.8705628E-01
        1   -1    0    0  501    0  0.00000000000E+00  0.00000000000E+00  0.94666986429E+03  0.94666986430E+03  0.50400001928E-02 0.  1.
       -1   -1    0    0    0  501  0.00000000000E+00  0.00000000000E+00 -0.85683251267E+03  0.85683251268E+03  0.50400001928E-02 0. -1.
    10030    2    1    2    0    0  0.00000000000E+00  0.00000000000E+00  0.89837351621E+02  0.18035023770E+04  0.18012634660E+04 0.  0.
        4    1    3    3  502    0  0.28595998774E+03 -0.24159189936E+03 -0.77524303624E+03  0.86089670610E+03  0.12699999809E+01 0. -1.
       -4    1    3    3    0  502 -0.28595998774E+03  0.24159189936E+03  0.86508038787E+03  0.94260567089E+03  0.12699999809E+01 0.  1.
</event>
<event>
 5   0  0.1000316E-05  0.1799720E+04  0.7818609E-02  0.8706448E-01
       -2   -1    0    0    0  501  0.00000000000E+00  0.00000000000E+00  0.13697057177E+04  0.13697057177E+04  0.25500000920E-02 0.  1.
        2   -1    0    0  501    0  0.00000000000E+00  0.00000000000E+00 -0.59118418086E+03  0.59118418086E+03  0.25500000920E-02 0. -1.
    10030    2    1    2    0    0  0.00000000000E+00  0.00000000000E+00  0.77852153681E+03  0.19608898985E+04  0.17997203702E+04 0.  0.
        5    1    3    3  502    0  0.20967286088E+02 -0.50751785589E+03 -0.42002982975E+03  0.65913666945E+03  0.46999998093E+01 0. -1.
       -5    1    3    3    0  502 -0.20967286088E+02  0.50751785589E+03  0.11985513666E+04  0.13017532291E+04  0.46999998093E+01 0.  1.
</event>
<event>
 5   0  0.4983159E-06  0.1799217E+04  0.7818609E-02  0.8706716E-01
       -1   -1    0    0    0  501  0.00000000000E+00  0.00000000000E+00  0.82715353929E+03  0.82715353930E+03  0.50400001928E-02 0.  1.
        1   -1    0    0  501    0  0.00000000000E+00  0.00000000000E+00 -0.97841063424E+03  0.97841063425E+03  0.50400001928E-02 0. -1.
    10030    2    1    2    0    0  0.00000000000E+00  0.00000000000E+00 -0.15125709495E+03  0.18055641736E+04  0.17992174066E+04 0.  0.
        4    1    3    3  502    0  0.99016942540E+02  0.77673082587E+03 -0.52011202958E+03  0.94001769504E+03  0.12699999809E+01 0. -1.
       -4    1    3    3    0  502 -0.99016942540E+02 -0.77673082587E+03  0.36885493463E+03  0.86554647852E+03  0.12699999809E+01 0.  1.
</event>
<event>
 5   0  0.1035018E-05  0.1800176E+04  0.7818609E-02  0.8706206E-01
       -2   -1    0    0    0  501  0.00000000000E+00  0.00000000000E+00  0.14225177300E+04  0.14225177300E+04  0.25500000920E-02 0.  1.
        2   -1    0    0  501    0  0.00000000000E+00  0.00000000000E+00 -0.56952447466E+03  0.56952447467E+03  0.25500000920E-02 0. -1.
    10030    2    1    2    0    0  0.00000000000E+00  0.00000000000E+00  0.85299325537E+03  0.19920422047E+04  0.18001762835E+04 0.  0.
        3    1    3    3  502    0 -0.35293466974E+02 -0.33348544716E+03 -0.49781413645E+03  0.60023086969E+03  0.10100000352E+00 0. -1.
       -3    1    3    3    0  502  0.35293466974E+02  0.33348544716E+03  0.13508073918E+04  0.13918113350E+04  0.10100000352E+00 0.  1.
</event>
<event>
 5   0  0.1000316E-05  0.1800000E+04  0.7818609E-02  0.8706299E-01
        2   -1    0    0  501    0  0.00000000000E+00  0.00000000000E+00  0.88847008826E+03  0.88847008826E+03  0.25500000920E-02 0. -1.
       -2   -1    0    0    0  501  0.00000000000E+00  0.00000000000E+00 -0.91167973694E+03  0.91167973695E+03  0.25500000920E-02 0.  1.
    10030    2    1    2    0    0  0.00000000000E+00  0.00000000000E+00 -0.23209648686E+02  0.18001498252E+04  0.18000001959E+04 0.  0.
        5    1    3    3  502    0  0.51154186278E+03 -0.54562134208E+03  0.48903678926E+03  0.89362005212E+03  0.46999998093E+01 0. -1.
       -5    1    3    3    0  502 -0.51154186278E+03  0.54562134208E+03 -0.51224643795E+03  0.90652977309E+03  0.46999998093E+01 0.  1.
</event>
<event>
 5   0  0.4983159E-06  0.1800083E+04  0.7818609E-02  0.8706255E-01
       -1   -1    0    0    0  501  0.00000000000E+00  0.00000000000E+00  0.84960266311E+03  0.84960266313E+03  0.50400001928E-02 0.  1.
        1   -1    0    0  501    0  0.00000000000E+00  0.00000000000E+00 -0.95347450179E+03  0.95347450181E+03  0.50400001928E-02 0. -1.
    10030    2    1    2    0    0  0.00000000000E+00  0.00000000000E+00 -0.10387183868E+03  0.18030771649E+04  0.18000827492E+04 0.  0.
        4    1    3    3  502    0 -0.93506948765E+01  0.71367638040E+02 -0.95058611352E+03  0.95330810726E+03  0.12699999809E+01 0. -1.
       -4    1    3    3    0  502  0.93506948765E+01 -0.71367638040E+02  0.84671427484E+03  0.84976905767E+03  0.12699999809E+01 0.  1.
</event>
<event>
 5   0  0.4987456E-06  0.1800438E+04  0.7818609E-02  0.8706067E-01
       -1   -1    0    0    0  501  0.00000000000E+00  0.00000000000E+00  0.38047568088E+03  0.38047568091E+03  0.50400001928E-02 0.  1.
        1   -1    0    0  501    0  0.00000000000E+00  0.00000000000E+00 -0.21299495827E+04  0.21299495827E+04  0.50400001928E-02 0. -1.
    10030    2    1    2    0    0  0.00000000000E+00  0.00000000000E+00 -0.17494739018E+04  0.25104252636E+04  0.18004377443E+04 0.  0.
        3    1    3    3  502    0 -0.17964439789E+03 -0.86789262375E+03 -0.65478296926E+03  0.11019303350E+04  0.10100000352E+00 0. -1.
       -3    1    3    3    0  502  0.17964439789E+03  0.86789262375E+03 -0.10946909326E+04  0.14084949287E+04  0.10100000352E+00 0.  1.
</event>
<event>
 5   0  0.4983159E-06  0.1800648E+04  0.7818609E-02  0.8705955E-01
       -1   -1    0    0    0  501  0.00000000000E+00  0.00000000000E+00  0.89333659169E+03  0.89333659170E+03  0.50400001928E-02 0. -1.
        1   -1    0    0  501    0  0.00000000000E+00  0.00000000000E+00 -0.90736555940E+03  0.90736555942E+03  0.50400001928E-02 0.  1.
    10030    2    1    2    0    0  0.00000000000E+00  0.00000000000E+00 -0.14028967716E+02  0.18007021511E+04  0.18006475016E+04 0.  0.
        4    1    3    3  502    0  0.19951921546E+03  0.76139929831E+03  0.43008508273E+03  0.89694570633E+03  0.12699999809E+01 0. -1.
       -4    1    3    3    0  502 -0.19951921546E+03 -0.76139929831E+03 -0.44411405045E+03  0.90375644480E+03  0.12699999809E+01 0.  1.
</event>
<event>
 5   0  0.1000316E-05  0.1805423E+04  0.7818609E-02  0.8703421E-01
        2   -1    0    0  501    0  0.00000000000E+00  0.00000000000E+00  0.86577644329E+03  0.86577644330E+03  0.25500000920E-02 0. -1.
       -2   -1    0    0    0  501  0.00000000000E+00  0.00000000000E+00 -0.94122222852E+03  0.94122222852E+03  0.25500000920E-02 0.  1.
    10030    2    1    2    0    0  0.00000000000E+00  0.00000000000E+00 -0.75445785225E+02  0.18069986718E+04  0.18054229791E+04 0.  0.
        5    1    3    3  502    0 -0.85016306001E+03 -0.21618786185E+03  0.17542193907E+03  0.89460011565E+03  0.46999998093E+01 0.  1.
       -5    1    3    3    0  502  0.85016306001E+03  0.21618786185E+03 -0.25086772430E+03  0.91239855617E+03  0.46999998093E+01 0. -1.
</event>
<event>
 5   0  0.4983159E-06  0.1800169E+04  0.7818609E-02  0.8706210E-01
       -1   -1    0    0    0  501  0.00000000000E+00  0.00000000000E+00  0.13994812643E+04  0.13994812643E+04  0.50400001928E-02 0.  1.
        1   -1    0    0  501    0  0.00000000000E+00  0.00000000000E+00 -0.57889445810E+03  0.57889445812E+03  0.50400001928E-02 0. -1.
    10030    2    1    2    0    0  0.00000000000E+00  0.00000000000E+00  0.82058680622E+03  0.19783757224E+04  0.18001688234E+04 0.  0.
        4    1    3    3  502    0 -0.17583545908E+03 -0.79223639970E+03 -0.17600534962E+02  0.81170685190E+03  0.12699999809E+01 0. -1.
       -4    1    3    3    0  502  0.17583545908E+03  0.79223639970E+03  0.83818734118E+03  0.11666688705E+04  0.12699999809E+01 0.  1.
</event>
<event>
 5   0  0.4953155E-06  0.1800206E+04  0.7818609E-02  0.8706190E-01
       -1   -1    0    0    0  501  0.00000000000E+00  0.00000000000E+00  0.47698157778E+03  0.47698157780E+03  0.50400001928E-02 0. -1.
        1   -1    0    0  501    0  0.00000000000E+00  0.00000000000E+00 -0.16985666183E+04  0.16985666183E+04  0.50400001928E-02 0.  1.
    10030    2    1    2    0    0  0.00000000000E+00  0.00000000000E+00 -0.12215850405E+04  0.21755481961E+04  0.18002055278E+04 0.  0.
        2    1    3    3  502    0 -0.87515339176E+03  0.20971153072E+02 -0.86386214402E+03  0.12298744051E+04  0.25500000920E-02 0.  1.
       -2    1    3    3    0  502  0.87515339176E+03 -0.20971153072E+02 -0.35772289652E+03  0.94567379105E+03  0.25500000920E-02 0. -1.
</event>
<event>
 5   0  0.4981384E-06  0.1799054E+04  0.7818609E-02  0.8706803E-01
        1   -1    0    0  501    0  0.00000000000E+00  0.00000000000E+00  0.17139278943E+04  0.17139278943E+04  0.50400001928E-02 0.  1.
       -1   -1    0    0    0  501  0.00000000000E+00  0.00000000000E+00 -0.47210200807E+03  0.47210200810E+03  0.50400001928E-02 0. -1.
    10030    2    1    2    0    0  0.00000000000E+00  0.00000000000E+00  0.12418258862E+04  0.21860299024E+04  0.17990539743E+04 0.  0.
        5    1    3    3  502    0  0.58365411397E+03  0.62285676275E+03  0.96571883677E+03  0.12888900781E+04  0.46999998093E+01 0.  1.
       -5    1    3    3    0  502 -0.58365411397E+03 -0.62285676275E+03  0.27610704946E+03  0.89713982434E+03  0.46999998093E+01 0. -1.
</event>
<event>
 5   0  0.9589963E-06  0.1800104E+04  0.7818609E-02  0.8706244E-01
       -2   -1    0    0    0  501  0.00000000000E+00  0.00000000000E+00  0.42639460444E+03  0.42639460445E+03  0.25500000920E-02 0. -1.
        2   -1    0    0  501    0  0.00000000000E+00  0.00000000000E+00 -0.18998683848E+04  0.18998683848E+04  0.25500000920E-02 0.  1.
    10030    2    1    2    0    0  0.00000000000E+00  0.00000000000E+00 -0.14734737804E+04  0.23262629893E+04  0.18001040286E+04 0.  0.
        2    1    3    3  502    0  0.87535025517E+02 -0.89529973015E+03 -0.77484620982E+03  0.11872702457E+04  0.25500000920E-02 0. -1.
       -2    1    3    3    0  502 -0.87535025517E+02  0.89529973015E+03 -0.69862757055E+03  0.11389927435E+04  0.25500000920E-02 0.  1.
</event>
<event>
 5   0  0.1036381E-05  0.1800436E+04  0.7818609E-02  0.8706068E-01
        2   -1    0    0  501    0  0.00000000000E+00  0.00000000000E+00  0.46792632609E+03  0.46792632609E+03  0.25500000920E-02 0. -1.
       -2   -1    0    0    0  501  0.00000000000E+00  0.00000000000E+00 -0.17318797302E+04  0.17318797302E+04  0.25500000920E-02 0.  1.
    10030    2    1    2    0    0  0.00000000000E+00  0.00000000000E+00 -0.12639534041E+04  0.21998060563E+04  0.18004356355E+04 0.  0.
        4    1    3    3  502    0  0.11177836016E+03 -0.83018975332E+03 -0.22918198834E+03  0.86846728494E+03  0.12699999809E+01 0. -1.
       -4    1    3    3    0  502 -0.11177836016E+03  0.83018975332E+03 -0.10347714158E+04  0.13313387714E+04  0.12699999809E+01 0.  1.
</event>
<event>
 5   0  0.1035018E-05  0.1800739E+04  0.7818609E-02  0.8705907E-01
       -2   -1    0    0    0  501  0.00000000000E+00  0.00000000000E+00  0.37651330787E+03  0.37651330788E+03  0.25500000920E-02 0. -1.
        2   -1    0    0  501    0  0.00000000000E+00  0.00000000000E+00 -0.21530847667E+04  0.21530847667E+04  0.25500000920E-02 0.  1.
    10030    2    1    2    0    0  0.00000000000E+00  0.00000000000E+00 -0.17765714589E+04  0.25295980746E+04  0.18007388124E+04 0.  0.
        3    1    3    3  502    0 -0.25635881297E+03 -0.69552963585E+03 -0.17036934217E+03  0.76059650163E+03  0.10100000352E+00 0. -1.
       -3    1    3    3    0  502  0.25635881297E+03  0.69552963585E+03 -0.16062021167E+04  0.17690015730E+04  0.10100000352E+00 0.  1.
</event>
<event>
 5   0  0.4994123E-06  0.1799344E+04  0.7818609E-02  0.8706648E-01
        1   -1    0    0  501    0  0.00000000000E+00  0.00000000000E+00  0.10657565921E+04  0.10657565922E+04  0.50400001928E-02 0. -1.
       -1   -1    0    0    0  501  0.00000000000E+00  0.00000000000E+00 -0.75946945273E+03  0.75946945274E+03  0.50400001928E-02 0.  1.
    10030    2    1    2    0    0  0.00000000000E+00  0.00000000000E+00  0.30628713941E+03  0.18252260449E+04  0.17993438535E+04 0.  0.
        1    1    3    3  502    0 -0.38122196678E+03 -0.29372933594E+03  0.92421069590E+03  0.10420040889E+04  0.50400001928E-02 0. -1.
       -1    1    3    3    0  502  0.38122196678E+03  0.29372933594E+03 -0.61792355648E+03  0.78322195604E+03  0.50400001928E-02 0.  1.
</event>
<event>
 5   0  0.4987456E-06  0.1805556E+04  0.7818609E-02  0.8703350E-01
        1   -1    0    0  501    0  0.00000000000E+00  0.00000000000E+00  0.19162202828E+04  0.19162202828E+04  0.50400001928E-02 0.  1.
       -1   -1    0    0    0  501  0.00000000000E+00  0.00000000000E+00 -0.42532072384E+03  0.42532072387E+03  0.50400001928E-02 0. -1.
    10030    2    1    2    0    0  0.00000000000E+00  0.00000000000E+00  0.14908995589E+04  0.23415410066E+04  0.18055560891E+04 0.  0.
        3    1    3    3  502    0 -0.19761305308E+03 -0.15295846727E+03  0.18704733740E+04  0.18870924367E+04  0.10100000352E+00 0.  1.
       -3    1    3    3    0  502  0.19761305308E+03  0.15295846727E+03 -0.37957381508E+03  0.45444856997E+03  0.10100000352E+00 0. -1.
</event>
<event>
 5   0  0.4981384E-06  0.1798054E+04  0.7818609E-02  0.8707335E-01
       -1   -1    0    0    0  501  0.00000000000E+00  0.00000000000E+00  0.56818766573E+03  0.56818766575E+03  0.50400001928E-02 0.  1.
        1   -1    0    0  501    0  0.00000000000E+00  0.00000000000E+00 -0.14225048029E+04  0.14225048029E+04  0.50400001928E-02 0. -1.
    10030    2    1    2    0    0  0.00000000000E+00  0.00000000000E+00 -0.85431713712E+03  0.19906924686E+04  0.17980541521E+04 0.  0.
        5    1    3    3  502    0  0.61265530646E+03  0.62878621889E+02 -0.11522508376E+04  0.13065237573E+04  0.46999998093E+01 0. -1.
       -5    1    3    3    0  502 -0.61265530646E+03 -0.62878621889E+02  0.29793370051E+03  0.68416871130E+03  0.46999998093E+01 0.  1.
</event>
<event>
 5   0  0.4981384E-06  0.1800083E+04  0.7818609E-02  0.8706255E-01
       -1   -1    0    0    0  501  0.00000000000E+00  0.00000000000E+00  0.53752344738E+03  0.53752344741E+03  0.50400001928E-02 0.  1.
        1   -1    0    0  501    0  0.00000000000E+00  0.00000000000E+00 -0.15070504038E+04  0.15070504039E+04  0.50400001928E-02 0. -1.
    10030    2    1    2    0    0  0.00000000000E+00  0.00000000000E+00 -0.96952695646E+03  0.20445738513E+04  0.18000832520E+04 0.  0.
        5    1    3    3  502    0 -0.37633244281E+03  0.79417072394E+03 -0.26416947335E+03  0.91768232354E+03  0.46999998093E+01 0. -1.
       -5    1    3    3    0  502  0.37633244281E+03 -0.79417072394E+03 -0.70535748311E+03  0.11268915277E+04  0.46999998093E+01 0.  1.
</event>
<event>
 5   0  0.9589963E-06  0.1800021E+04  0.7818609E-02  0.8706288E-01
        2   -1    0    0  501    0  0.00000000000E+00  0.00000000000E+00  0.60244109191E+03  0.60244109192E+03  0.25500000920E-02 0.  1.
       -2   -1    0    0    0  501  0.00000000000E+00  0.00000000000E+00 -0.13445610310E+04  0.13445610310E+04  0.25500000920E-02 0. -1.
    10030    2    1    2    0    0  0.00000000000E+00  0.00000000000E+00 -0.74211993907E+03  0.19470021229E+04  0.18000209062E+04 0.  0.
        2    1    3    3  502    0  0.11205876656E+03 -0.26143648513E+03  0.55254483063E+03  0.62145956649E+03  0.25500000920E-02 0.  1.
       -2    1    3    3    0  502 -0.11205876656E+03  0.26143648513E+03 -0.12946647697E+04  0.13255425564E+04  0.25500000920E-02 0. -1.
</event>
<event>
 5   0  0.9589963E-06  0.1798564E+04  0.7818609E-02  0.8707063E-01
       -2   -1    0    0    0  501  0.00000000000E+00  0.00000000000E+00  0.17030408196E+04  0.17030408196E+04  0.25500000920E-02 0. -1.
        2   -1    0    0  501    0  0.00000000000E+00  0.00000000000E+00 -0.47486136754E+03  0.47486136755E+03  0.25500000920E-02 0.  1.
    10030    2    1    2    0    0  0.00000000000E+00  0.00000000000E+00  0.12281794521E+04  0.21779021872E+04  0.17985641969E+04 0.  0.
        2    1    3    3  502    0  0.45184234944E+03 -0.37523038171E+03 -0.21053033176E+03  0.62392497041E+03  0.25500000920E-02 0.  1.
       -2    1    3    3    0  502 -0.45184234944E+03  0.37523038171E+03  0.14387097838E+04  0.15539772168E+04  0.25500000920E-02 0. -1.
</event>
<event>
 5   0  0.4987456E-06  0.1800029E+04  0.7818609E-02  0.8706284E-01
        1   -1    0    0  501    0  0.00000000000E+00  0.00000000000E+00  0.93958734483E+03  0.93958734484E+03  0.50400001928E-02 0.  1.
       -1   -1    0    0    0  501  0.00000000000E+00  0.00000000000E+00 -0.86210870454E+03  0.86210870455E+03  0.50400001928E-02 0. -1.
    10030    2    1    2    0    0  0.00000000000E+00  0.00000000000E+00  0.77478640287E+02  0.18016960494E+04  0.18000293650E+04 0.  0.
        3    1    3    3  502    0 -0.10873773493E+03 -0.14948526275E+03 -0.84290352612E+03  0.86293458809E+03  0.10100000352E+00 0. -1.
       -3    1    3    3    0  502  0.10873773493E+03  0.14948526275E+03  0.92038216641E+03  0.93876146130E+03  0.10100000352E+00 0.  1.
</event>
<event>
 5   0  0.4994123E-06  0.1800221E+04  0.7818609E-02  0.8706182E-01
        1   -1    0    0  501    0  0.00000000000E+00  0.00000000000E+00  0.97078972995E+03  0.97078972997E+03  0.50400001928E-02 0. -1.
       -1   -1    0    0    0  501  0.00000000000E+00  0.00000000000E+00 -0.83457697645E+03  0.83457697646E+03  0.50400001928E-02 0.  1.
    10030    2    1    2    0    0  0.00000000000E+00  0.00000000000E+00  0.13621275351E+03  0.18053667064E+04  0.18002208283E+04 0.  0.
        1    1    3    3  502    0  0.76635423464E+03  0.41366460379E+03 -0.16009966025E+03  0.88546548133E+03  0.50400001928E-02 0.  1.
       -1    1    3    3    0  502 -0.76635423464E+03 -0.41366460379E+03  0.29631241375E+03  0.91990122511E+03  0.50400001928E-02 0. -1.
</event>
<event>
 5   0  0.9999162E-06  0.1800342E+04  0.7818609E-02  0.8706118E-01
        2   -1    0    0  501    0  0.00000000000E+00  0.00000000000E+00  0.97398765635E+03  0.97398765636E+03  0.25500000920E-02 0. -1.
       -2   -1    0    0    0  501  0.00000000000E+00  0.00000000000E+00 -0.83194855886E+03  0.83194855887E+03  0.25500000920E-02 0.  1.
    10030    2    1    2    0    0  0.00000000000E+00  0.00000000000E+00  0.14203909749E+03  0.18059362152E+04  0.18003417754E+04 0.  0.
        1    1    3    3  502    0  0.62530736448E+03 -0.64718960625E+03  0.49884179394E+02  0.90130578490E+03  0.50400001928E-02 0.  1.
       -1    1    3    3    0  502 -0.62530736448E+03  0.64718960625E+03  0.92154918095E+02  0.90463043032E+03  0.50400001928E-02 0. -1.
</event>
<event>
 5   0  0.1000316E-05  0.1798471E+04  0.7818609E-02  0.8707113E-01
        2   -1    0    0  501    0  0.00000000000E+00  0.00000000000E+00  0.70776282091E+03  0.70776282091E+03  0.25500000920E-02 0.  1.
       -2   -1    0    0    0  501  0.00000000000E+00  0.00000000000E+00 -0.11425076834E+04  0.11425076834E+04  0.25500000920E-02 0. -1.
    10030    2    1    2    0    0  0.00000000000E+00  0.00000000000E+00 -0.43474486252E+03  0.18502705043E+04  0.17984709738E+04 0.  0.
        5    1    3    3  502    0  0.21180975125E+03 -0.23079488372E+03 -0.10845449309E+04  0.11288885889E+04  0.46999998093E+01 0. -1.
       -5    1    3    3    0  502 -0.21180975125E+03  0.23079488372E+03  0.64980006836E+03  0.72138191543E+03  0.46999998093E+01 0.  1.
</event>
<event>
 5   0  0.4953155E-06  0.1800470E+04  0.7818609E-02  0.8706049E-01
       -1   -1    0    0    0  501  0.00000000000E+00  0.00000000000E+00  0.50921316552E+03  0.50921316554E+03  0.50400001928E-02 0. -1.
        1   -1    0    0  501    0  0.00000000000E+00  0.00000000000E+00 -0.15915206932E+04  0.15915206932E+04  0.50400001928E-02 0.  1.
    10030    2    1    2    0    0  0.00000000000E+00  0.00000000000E+00 -0.10823075276E+04  0.21007338587E+04  0.18004702610E+04 0.  0.
        2    1    3    3  502    0 -0.35611320433E+03  0.24026900994E+03  0.38190583977E+03  0.57480247206E+03  0.25500000920E-02 0. -1.
       -2    1    3    3    0  502  0.35611320433E+03 -0.24026900994E+03 -0.14642133674E+04  0.15259313866E+04  0.25500000920E-02 0.  1.
</event>
<event>
 5   0  0.4953155E-06  0.1800015E+04  0.7818609E-02  0.8706292E-01
        1   -1    0    0  501    0  0.00000000000E+00  0.00000000000E+00  0.18836822090E+04  0.18836822090E+04  0.50400001928E-02 0. -1.
       -1   -1    0    0    0  501  0.00000000000E+00  0.00000000000E+00 -0.43001587636E+03  0.43001587639E+03  0.50400001928E-02 0.  1.
    10030    2    1    2    0    0  0.00000000000E+00  0.00000000000E+00  0.14536663326E+04  0.23136980854E+04  0.18000147288E+04 0.  0.
        2    1    3    3  502    0 -0.43499888969E+03 -0.78228275467E+03  0.84756912711E+03  0.12327058723E+04  0.25500000920E-02 0. -1.
       -2    1    3    3    0  502  0.43499888969E+03  0.78228275467E+03  0.60609720552E+03  0.10809922131E+04  0.25500000920E-02 0.  1.
</event>
<event>
 5   0  0.4987456E-06  0.1799729E+04  0.7818609E-02  0.8706443E-01
       -1   -1    0    0    0  501  0.00000000000E+00  0.00000000000E+00  0.74249351199E+03  0.74249351201E+03  0.50400001928E-02 0.  1.
        1   -1    0    0  501    0  0.00000000000E+00  0.00000000000E+00 -0.10905905039E+04  0.10905905039E+04  0.50400001928E-02 0. -1.
    10030    2    1    2    0    0  0.00000000000E+00  0.00000000000E+00 -0.34809699193E+03  0.18330840159E+04  0.17997292834E+04 0.  0.
        3    1    3    3  502    0 -0.54250079053E+01 -0.72359061346E+03 -0.71888622344E+03  0.10200050093E+04  0.10100000352E+00 0. -1.
       -3    1    3    3    0  502  0.54250079053E+01  0.72359061346E+03  0.37078923151E+03  0.81307900662E+03  0.10100000352E+00 0.  1.
</event>
<event>
 5   0  0.1035018E-05  0.1799946E+04  0.7818609E-02  0.8706328E-01
        2   -1    0    0  501    0  0.00000000000E+00  0.00000000000E+00  0.12395714404E+04  0.12395714404E+04  0.25500000920E-02 0.  1.
       -2   -1    0    0    0  501  0.00000000000E+00  0.00000000000E+00 -0.65341231651E+03  0.65341231652E+03  0.25500000920E-02 0. -1.
    10030    2    1    2    0    0  0.00000000000E+00  0.00000000000E+00  0.58615912392E+03  0.18929837569E+04  0.17999458285E+04 0.  0.
        3    1    3    3  502    0 -0.62354320943E+02  0.81724874045E+03  0.68400206548E+03  0.10675403509E+04  0.10100000352E+00 0.  1.
       -3    1    3    3    0  502  0.62354320943E+02 -0.81724874045E+03 -0.97842941560E+02  0.82544340601E+03  0.10100000352E+00 0. -1.
</event>
<event>
 5   0  0.4981384E-06  0.1801021E+04  0.7818609E-02  0.8705756E-01
       -1   -1    0    0    0  501  0.00000000000E+00  0.00000000000E+00  0.99548362024E+03  0.99548362026E+03  0.50400001928E-02 0.  1.
        1   -1    0    0  501    0  0.00000000000E+00  0.00000000000E+00 -0.81459856472E+03  0.81459856473E+03  0.50400001928E-02 0. -1.
    10030    2    1    2    0    0  0.00000000000E+00  0.00000000000E+00  0.18088505553E+03  0.18100821850E+04  0.18010214083E+04 0.  0.
        5    1    3    3  502    0  0.77416161877E+02 -0.20585773734E+03 -0.78717838977E+03  0.81733871648E+03  0.46999998093E+01 0. -1.
       -5    1    3    3    0  502 -0.77416161877E+02  0.20585773734E+03  0.96806344530E+03  0.99274346851E+03  0.46999998093E+01 0.  1.
</event>
<event>
 5   0  0.4953155E-06  0.1799992E+04  0.7818609E-02  0.8706304E-01
       -1   -1    0    0    0  501  0.00000000000E+00  0.00000000000E+00  0.85768152770E+03  0.85768152772E+03  0.50400001928E-02 0. -1.
        1   -1    0    0  501    0  0.00000000000E+00  0.00000000000E+00 -0.94439835324E+03  0.94439835326E+03  0.50400001928E-02 0.  1.
    10030    2    1    2    0    0  0.00000000000E+00  0.00000000000E+00 -0.86716825541E+02  0.18020798810E+04  0.17999922471E+04 0.  0.
        2    1    3    3  502    0 -0.86094265267E+03 -0.23264473904E+03 -0.16452438150E+03  0.90687049677E+03  0.25500000920E-02 0.  1.
       -2    1    3    3    0  502  0.86094265267E+03  0.23264473904E+03  0.77807555964E+02  0.89520938420E+03  0.25500000920E-02 0. -1.
</event>
<event>
 5   0  0.1035018E-05  0.1800016E+04  0.7818609E-02  0.8706291E-01
       -2   -1    0    0    0  501  0.00000000000E+00  0.00000000000E+00  0.10637102156E+04  0.10637102156E+04  0.25500000920E-02 0. -1.
        2   -1    0    0  501    0  0.00000000000E+00  0.00000000000E+00 -0.76149928093E+03  0.76149928094E+03  0.25500000920E-02 0.  1.
    10030    2    1    2    0    0  0.00000000000E+00  0.00000000000E+00  0.30221093470E+03  0.18252094966E+04  0.18000161825E+04 0.  0.
        3    1    3    3  502    0 -0.48794355406E+03  0.22779303455E+03  0.88233379005E+03  0.10336786279E+04  0.10100000352E+00 0. -1.
       -3    1    3    3    0  502  0.48794355406E+03 -0.22779303455E+03 -0.58012285535E+03  0.79153086866E+03  0.10100000352E+00 0.  1.
</event>
<event>
 5   0  0.1000316E-05  0.1799612E+04  0.7818609E-02  0.8706506E-01
       -2   -1    0    0    0  501  0.00000000000E+00  0.00000000000E+00  0.46710607913E+03  0.46710607914E+03  0.25500000920E-02 0. -1.
        2   -1    0    0  501    0  0.00000000000E+00  0.00000000000E+00 -0.17333345927E+04  0.17333345927E+04  0.25500000920E-02 0.  1.
    10030    2    1    2    0    0  0.00000000000E+00  0.00000000000E+00 -0.12662285135E+04  0.22004406718E+04  0.17996123198E+04 0.  0.
        5    1    3    3  502    0  0.38527440282E+03 -0.22777459230E+03  0.32132953997E+03  0.55099219016E+03  0.46999998093E+01 0. -1.
       -5    1    3    3    0  502 -0.38527440282E+03  0.22777459230E+03 -0.15875580535E+04  0.16494484817E+04  0.46999998093E+01 0.  1.
</event>
<event>
 5   0  0.1000316E-05  0.1798296E+04  0.7818609E-02  0.8707206E-01
       -2   -1    0    0    0  501  0.00000000000E+00  0.00000000000E+00  0.60823574142E+03  0.60823574142E+03  0.25500000920E-02 0.  1.
        2   -1    0    0  501    0  0.00000000000E+00  0.00000000000E+00 -0.13292006922E+04  0.13292006922E+04  0.25500000920E-02 0. -1.
    10030    2    1    2    0    0  0.00000000000E+00  0.00000000000E+00 -0.72096495082E+03  0.19374364337E+04  0.17982962698E+04 0.  0.
        5    1    3    3  502    0 -0.65472915977E+03 -0.40039543643E+02  0.30205555571E+03  0.72217247694E+03  0.46999998093E+01 0.  1.
       -5    1    3    3    0  502  0.65472915977E+03  0.40039543643E+02 -0.10230205065E+04  0.12152639567E+04  0.46999998093E+01 0. -1.
</event>
<event>
 5   0  0.1000316E-05  0.1800713E+04  0.7818609E-02  0.8705920E-01
        2   -1    0    0  501    0  0.00000000000E+00  0.00000000000E+00  0.11687017710E+04  0.11687017710E+04  0.25500000920E-02 0. -1.
       -2   -1    0    0    0  501  0.00000000000E+00  0.00000000000E+00 -0.69362603379E+03  0.69362603380E+03  0.25500000920E-02 0.  1.
    10030    2    1    2    0    0  0.00000000000E+00  0.00000000000E+00  0.47507573718E+03  0.18623278048E+04  0.18007131633E+04 0.  0.
        5    1    3    3  502    0 -0.36536040147E+03  0.61868796448E+03 -0.32357298792E+03  0.78802575393E+03  0.46999998093E+01 0.  1.
       -5    1    3    3    0  502  0.36536040147E+03 -0.61868796448E+03  0.79864872509E+03  0.10743020508E+04  0.46999998093E+01 0. -1.
</event>
<event>
 5   0  0.9589963E-06  0.1799691E+04  0.7818609E-02  0.8706464E-01
       -2   -1    0    0    0  501  0.00000000000E+00  0.00000000000E+00  0.40187241176E+03  0.40187241177E+03  0.25500000920E-02 0. -1.
        2   -1    0    0  501    0  0.00000000000E+00  0.00000000000E+00 -0.20148738157E+04  0.20148738157E+04  0.25500000920E-02 0.  1.
    10030    2    1    2    0    0  0.00000000000E+00  0.00000000000E+00 -0.16130014040E+04  0.24167462275E+04  0.17996913066E+04 0.  0.
        2    1    3    3  502    0 -0.54660783118E+02 -0.33598643915E+03  0.31207414165E+03  0.46180619138E+03  0.25500000920E-02 0. -1.
       -2    1    3    3    0  502  0.54660783118E+02  0.33598643915E+03 -0.19250755456E+04  0.19549400361E+04  0.25500000920E-02 0.  1.
</event>
<event>
 5   0  0.1036381E-05  0.1799510E+04  0.7818609E-02  0.8706560E-01
        2   -1    0    0  501    0  0.00000000000E+00  0.00000000000E+00  0.17454706939E+04  0.17454706939E+04  0.25500000920E-02 0. -1.
       -2   -1    0    0    0  501  0.00000000000E+00  0.00000000000E+00 -0.46380569668E+03  0.46380569669E+03  0.25500000920E-02 0.  1.
    10030    2    1    2    0    0  0.00000000000E+00  0.00000000000E+00  0.12816649972E+04  0.22092763906E+04  0.17995102125E+04 0.  0.
        4    1    3    3  502    0 -0.57183564192E+03 -0.14956876126E+03  0.14736785145E+04  0.15877962063E+04  0.12699999809E+01 0. -1.
       -4    1    3    3    0  502  0.57183564192E+03  0.14956876126E+03 -0.19201351730E+03  0.62148018427E+03  0.12699999809E+01 0.  1.
</event>
<event>
 5   0  0.1000316E-05  0.1801553E+04  0.7818609E-02  0.8705474E-01
       -2   -1    0    0    0  501  0.00000000000E+00  0.00000000000E+00  0.10528143907E+04  0.10528143907E+04  0.25500000920E-02 0. -1.
        2   -1    0    0  501    0  0.00000000000E+00  0.00000000000E+00 -0.77069422936E+03  0.77069422936E+03  0.25500000920E-02 0.  1.
    10030    2    1    2    0    0  0.00000000000E+00  0.00000000000E+00  0.28212016135E+03  0.18235086201E+04  0.18015526365E+04 0.  0.
        5    1    3    3  502    0 -0.62793414721E+02  0.39842984277E+03 -0.67416645217E+03  0.78562831401E+03  0.46999998093E+01 0.  1.
       -5    1    3    3    0  502  0.62793414721E+02 -0.39842984277E+03  0.95628661352E+03  0.10378803061E+04  0.46999998093E+01 0. -1.
</event>
<event>
 5   0  0.1000316E-05  0.1800508E+04  0.7818609E-02  0.8706030E-01
        2   -1    0    0  501    0  0.00000000000E+00  0.00000000000E+00  0.20820171062E+04  0.20820171062E+04  0.25500000920E-02 0.  1.
       -2   -1    0    0    0  501  0.00000000000E+00  0.00000000000E+00 -0.38926531334E+03  0.38926531335E+03  0.25500000920E-02 0. -1.
    10030    2    1    2    0    0  0.00000000000E+00  0.00000000000E+00  0.16927517929E+04  0.24712824196E+04  0.18005077520E+04 0.  0.
        5    1    3    3  502    0 -0.38422794768E+03 -0.75654278058E+03  0.43359069130E+03  0.95289614975E+03  0.46999998093E+01 0. -1.
       -5    1    3    3    0  502  0.38422794768E+03  0.75654278058E+03  0.12591611016E+04  0.15183862698E+04  0.46999998093E+01 0.  1.
</event>
<event>
 5   0  0.9999162E-06  0.1800512E+04  0.7818609E-02  0.8706027E-01
        2   -1    0    0  501    0  0.00000000000E+00  0.00000000000E+00  0.10076256931E+04  0.10076256931E+04  0.25500000920E-02 0.  1.
       -2   -1    0    0    0  501  0.00000000000E+00  0.00000000000E+00 -0.80432741466E+03  0.80432741466E+03  0.25500000920E-02 0. -1.
    10030    2    1    2    0    0  0.00000000000E+00  0.00000000000E+00  0.20329827845E+03  0.18119531078E+04  0.18005121146E+04 0.  0.
        1    1    3    3  502    0 -0.51598697165E+03 -0.40555909428E+03  0.72179552031E+03  0.97555599892E+03  0.50400001928E-02 0.  1.
       -1    1    3    3    0  502  0.51598697165E+03  0.40555909428E+03 -0.51849724185E+03  0.83639710886E+03  0.50400001928E-02 0. -1.
</event>
<event>
 5   0  0.3626125E-06  0.1801086E+04  0.7818609E-02  0.8705722E-01
       -3   -1    0    0    0  501  0.00000000000E+00  0.00000000000E+00  0.12334629396E+04  0.12334629437E+04  0.10100000352E+00 0.  1.
        3   -1    0    0  501    0  0.00000000000E+00  0.00000000000E+00 -0.65748044345E+03  0.65748045120E+03  0.10100000352E+00 0. -1.
    10030    2    1    2    0    0  0.00000000000E+00  0.00000000000E+00  0.57598249614E+03  0.18909433949E+04  0.18010860854E+04 0.  0.
        3    1    3    3  502    0  0.72865289548E+03  0.32804078509E+03 -0.14797507558E+03  0.81267609290E+03  0.10100000352E+00 0. -1.
       -3    1    3    3    0  502 -0.72865289548E+03 -0.32804078509E+03  0.72395757172E+03  0.10782673020E+04  0.10100000352E+00 0.  1.
</event>
<event>
 5   0  0.9999162E-06  0.1799040E+04  0.7818609E-02  0.8706810E-01
       -2   -1    0    0    0  501  0.00000000000E+00  0.00000000000E+00  0.93697850404E+03  0.93697850404E+03  0.25500000920E-02 0.  1.
        2   -1    0    0  501    0  0.00000000000E+00  0.00000000000E+00 -0.86355882199E+03  0.86355882200E+03  0.25500000920E-02 0. -1.
    10030    2    1    2    0    0  0.00000000000E+00  0.00000000000E+00  0.73419682043E+02  0.18005373260E+04  0.17990398030E+04 0.  0.
        1    1    3    3  502    0  0.13638490825E+03  0.50784549045E+03  0.76713112876E+03  0.93005271577E+03  0.50400001928E-02 0.  1.
       -1    1    3    3    0  502 -0.13638490825E+03 -0.50784549045E+03 -0.69371144672E+03  0.87048461027E+03  0.50400001928E-02 0. -1.
</event>
<event>
 5   0  0.4953155E-06  0.1800503E+04  0.7818609E-02  0.8706032E-01
       -1   -1    0    0    0  501  0.00000000000E+00  0.00000000000E+00  0.64856492733E+03  0.64856492735E+03  0.50400001928E-02 0. -1.
        1   -1    0    0  501    0  0.00000000000E+00  0.00000000000E+00 -0.12496098494E+04  0.12496098494E+04  0.50400001928E-02 0.  1.
    10030    2    1    2    0    0  0.00000000000E+00  0.00000000000E+00 -0.60104492209E+03  0.18981747768E+04  0.18005033976E+04 0.  0.
        2    1    3    3  502    0 -0.15864969120E+03  0.70133406436E+03  0.27053868788E+03  0.76826452215E+03  0.25500000920E-02 0. -1.
       -2    1    3    3    0  502  0.15864969120E+03 -0.70133406436E+03 -0.87158360998E+03  0.11299102546E+04  0.25500000920E-02 0.  1.
</event>
<event>
 5   0  0.1035018E-05  0.1799960E+04  0.7818609E-02  0.8706321E-01
       -2   -1    0    0    0  501  0.00000000000E+00  0.00000000000E+00  0.82810624642E+03  0.82810624642E+03  0.25500000920E-02 0. -1.
        2   -1    0    0  501    0  0.00000000000E+00  0.00000000000E+00 -0.97809193363E+03  0.97809193364E+03  0.25500000920E-02 0.  1.
    10030    2    1    2    0    0  0.00000000000E+00  0.00000000000E+00 -0.14998568721E+03  0.18061981801E+04  0.17999600438E+04 0.  0.
        3    1    3    3  502    0 -0.74674623060E+03  0.10959658151E+02 -0.57894245626E+03  0.94494678416E+03  0.10100000352E+00 0.  1.
       -3    1    3    3    0  502  0.74674623060E+03 -0.10959658151E+02  0.42895676905E+03  0.86125139590E+03  0.10100000352E+00 0. -1.
</event>
<event>
 5   0  0.4983159E-06  0.1799749E+04  0.7818609E-02  0.8706433E-01
        1   -1    0    0  501    0  0.00000000000E+00  0.00000000000E+00  0.16075216604E+04  0.16075216604E+04  0.50400001928E-02 0.  1.
       -1   -1    0    0    0  501  0.00000000000E+00  0.00000000000E+00 -0.50374085449E+03  0.50374085452E+03  0.50400001928E-02 0. -1.
    10030    2    1    2    0    0  0.00000000000E+00  0.00000000000E+00  0.11037808059E+04  0.21112625149E+04  0.17997492435E+04 0.  0.
        4    1    3    3  502    0  0.25420759707E+03 -0.67200706044E+03 -0.83699512450E+02  0.72334100738E+03  0.12699999809E+01 0. -1.
       -4    1    3    3    0  502 -0.25420759707E+03  0.67200706044E+03  0.11874803183E+04  0.13879215075E+04  0.12699999809E+01 0.  1.
</event>
<event>
 5   0  0.4994123E-06  0.1800386E+04  0.7818609E-02  0.8706094E-01
        1   -1    0    0  501    0  0.00000000000E+00  0.00000000000E+00  0.65670326004E+03  0.65670326006E+03  0.50400001928E-02 0. -1.
       -1   -1    0    0    0  501  0.00000000000E+00  0.00000000000E+00 -0.12339624812E+04  0.12339624812E+04  0.50400001928E-02 0.  1.
    10030    2    1    2    0    0  0.00000000000E+00  0.00000000000E+00 -0.57725922119E+03  0.18906657413E+04  0.18003857189E+04 0.  0.
        1    1    3    3  502    0 -0.15484947923E+03 -0.15898157047E+03  0.62752390880E+03  0.66561231743E+03  0.50400001928E-02 0. -1.
       -1    1    3    3    0  502  0.15484947923E+03  0.15898157047E+03 -0.12047831300E+04  0.12250534239E+04  0.50400001928E-02 0.  1.
</event>
<event>
 5   0  0.4981384E-06  0.1796648E+04  0.7818609E-02  0.8708084E-01
        1   -1    0    0  501    0  0.00000000000E+00  0.00000000000E+00  0.11713801516E+04  0.11713801516E+04  0.50400001928E-02 0. -1.
       -1   -1    0    0    0  501  0.00000000000E+00  0.00000000000E+00 -0.68891901525E+03  0.68891901527E+03  0.50400001928E-02 0.  1.
    10030    2    1    2    0    0  0.00000000000E+00  0.00000000000E+00  0.48246113633E+03  0.18602991669E+04  0.17966480574E+04 0.  0.
        5    1    3    3  502    0 -0.68621846532E+03  0.57522969260E+03  0.16671581291E+03  0.91082448017E+03  0.46999998093E+01 0. -1.
       -5    1    3    3    0  502  0.68621846532E+03 -0.57522969260E+03  0.31574532342E+03  0.94947468669E+03  0.46999998093E+01 0.  1.
</event>
<event>
 5   0  0.1036381E-05  0.1800795E+04  0.7818609E-02  0.8705877E-01
        2   -1    0    0  501    0  0.00000000000E+00  0.00000000000E+00  0.17903565660E+04  0.17903565660E+04  0.25500000920E-02 0. -1.
       -2   -1    0    0    0  501  0.00000000000E+00  0.00000000000E+00 -0.45282368346E+03  0.45282368346E+03  0.25500000920E-02 0.  1.
    10030    2    1    2    0    0  0.00000000000E+00  0.00000000000E+00  0.13375328825E+04  0.22431802494E+04  0.18007952187E+04 0.  0.
        4    1    3    3  502    0  0.82488010718E+02  0.32913881328E+03 -0.37013091503E+03  0.50213059803E+03  0.12699999809E+01 0.  1.
       -4    1    3    3    0  502 -0.82488010718E+02 -0.32913881328E+03  0.17076637975E+04  0.17410496514E+04  0.12699999809E+01 0. -1.
</event>
<event>
 5   0  0.4953155E-06  0.1800058E+04  0.7818609E-02  0.8706269E-01
        1   -1    0    0  501    0  0.00000000000E+00  0.00000000000E+00  0.86098588674E+03  0.86098588675E+03  0.50400001928E-02 0. -1.
       -1   -1    0    0    0  501  0.00000000000E+00  0.00000000000E+00 -0.94084283639E+03  0.94084283641E+03  0.50400001928E-02 0.  1.
    10030    2    1    2    0    0  0.00000000000E+00  0.00000000000E+00 -0.79856949655E+02  0.18018287232E+04  0.18000582255E+04 0.  0.
        2    1    3    3  502    0 -0.40446413415E+03 -0.60806288746E+03  0.48663141099E+03  0.87757725648E+03  0.25500000920E-02 0. -1.
       -2    1    3    3    0  502  0.40446413415E+03  0.60806288746E+03 -0.56648836064E+03  0.92425146668E+03  0.25500000920E-02 0.  1.
</event>
<event>
 5   0  0.9589963E-06  0.1799420E+04  0.7818609E-02  0.8706608E-01
       -2   -1    0    0    0  501  0.00000000000E+00  0.00000000000E+00  0.66443355370E+03  0.66443355370E+03  0.25500000920E-02 0. -1.
        2   -1    0    0  501    0  0.00000000000E+00  0.00000000000E+00 -0.12182982619E+04  0.12182982619E+04  0.25500000920E-02 0.  1.
    10030    2    1    2    0    0  0.00000000000E+00  0.00000000000E+00 -0.55386470825E+03  0.18827318157E+04  0.17994201773E+04 0.  0.
        2    1    3    3  502    0 -0.45254077961E+03  0.37439424738E+03 -0.99004033243E+03  0.11511490214E+04  0.25500000920E-02 0.  1.
       -2    1    3    3    0  502  0.45254077961E+03 -0.37439424738E+03  0.43617562418E+03  0.73158279423E+03  0.25500000920E-02 0. -1.
</event>
<event>
 5   0  0.9999162E-06  0.1798754E+04  0.7818609E-02  0.8706962E-01
       -2   -1    0    0    0  501  0.00000000000E+00  0.00000000000E+00  0.43825544540E+03  0.43825544541E+03  0.25500000920E-02 0. -1.
        2   -1    0    0  501    0  0.00000000000E+00  0.00000000000E+00 -0.18456796063E+04  0.18456796063E+04  0.25500000920E-02 0.  1.
    10030    2    1    2    0    0  0.00000000000E+00  0.00000000000E+00 -0.14074241609E+04  0.22839350517E+04  0.17987541665E+04 0.  0.
        1    1    3    3  502    0  0.27002544357E+03  0.51987148106E+03 -0.15702041825E+04  0.16759240053E+04  0.50400001928E-02 0.  1.
       -1    1    3    3    0  502 -0.27002544357E+03 -0.51987148106E+03  0.16278002161E+03  0.60801104633E+03  0.50400001928E-02 0. -1.
</event>
<event>
 5   0  0.1000316E-05  0.1799746E+04  0.7818609E-02  0.8706434E-01
       -2   -1    0    0    0  501  0.00000000000E+00  0.00000000000E+00  0.67565447305E+03  0.67565447305E+03  0.25500000920E-02 0.  1.
        2   -1    0    0  501    0  0.00000000000E+00  0.00000000000E+00 -0.11984998914E+04  0.11984998914E+04  0.25500000920E-02 0. -1.
    10030    2    1    2    0    0  0.00000000000E+00  0.00000000000E+00 -0.52284541834E+03  0.18741543644E+04  0.17997464406E+04 0.  0.
        5    1    3    3  502    0  0.88696731568E+03  0.15170131325E+03 -0.26667246982E+03  0.93854174317E+03  0.46999998093E+01 0. -1.
       -5    1    3    3    0  502 -0.88696731568E+03 -0.15170131325E+03 -0.25617294852E+03  0.93561262127E+03  0.46999998093E+01 0.  1.
</event>
<event>
 5   0  0.4953155E-06  0.1798523E+04  0.7818609E-02  0.8707085E-01
        1   -1    0    0  501    0  0.00000000000E+00  0.00000000000E+00  0.61476589828E+03  0.61476589830E+03  0.50400001928E-02 0. -1.
       -1   -1    0    0    0  501  0.00000000000E+00  0.00000000000E+00 -0.13154130022E+04  0.13154130022E+04  0.50400001928E-02 0.  1.
    10030    2    1    2    0    0  0.00000000000E+00  0.00000000000E+00 -0.70064710388E+03  0.19301789005E+04  0.17985227893E+04 0.  0.
        2    1    3    3  502    0 -0.33971886247E+03  0.40973921697E+03  0.42756378594E+03  0.68271950499E+03  0.25500000920E-02 0. -1.
       -2    1    3    3    0  502  0.33971886247E+03 -0.40973921697E+03 -0.11282108898E+04  0.12474593955E+04  0.25500000920E-02 0.  1.
</event>
<event>
 5   0  0.4983159E-06  0.1800687E+04  0.7818609E-02  0.8705934E-01
       -1   -1    0    0    0  501  0.00000000000E+00  0.00000000000E+00  0.77302397753E+03  0.77302397755E+03  0.50400001928E-02 0. -1.
        1   -1    0    0  501    0  0.00000000000E+00  0.00000000000E+00 -0.10486335258E+04  0.10486335258E+04  0.50400001928E-02 0.  1.
    10030    2    1    2    0    0  0.00000000000E+00  0.00000000000E+00 -0.27560954825E+03  0.18216575033E+04  0.18006874899E+04 0.  0.
        4    1    3    3  502    0  0.12706006589E+03 -0.87514402165E+03 -0.30887738014E+03  0.93671135780E+03  0.12699999809E+01 0.  1.
       -4    1    3    3    0  502 -0.12706006589E+03  0.87514402165E+03  0.33267831887E+02  0.88494614554E+03  0.12699999809E+01 0. -1.
</event>
<event>
 5   0  0.1036381E-05  0.1801017E+04  0.7818609E-02  0.8705759E-01
        2   -1    0    0  501    0  0.00000000000E+00  0.00000000000E+00  0.10386925582E+04  0.10386925582E+04  0.25500000920E-02 0. -1.
       -2   -1    0    0    0  501  0.00000000000E+00  0.00000000000E+00 -0.78070818306E+03  0.78070818307E+03  0.25500000920E-02 0.  1.
    10030    2    1    2    0    0  0.00000000000E+00  0.00000000000E+00  0.25798437514E+03  0.18194007413E+04  0.18010172458E+04 0.  0.
        4    1    3    3  502    0  0.40830518837E+02  0.32100284122E+03  0.97792954969E+03  0.10300765857E+04  0.12699999809E+01 0. -1.
       -4    1    3    3    0  502 -0.40830518837E+02 -0.32100284122E+03 -0.71994517455E+03  0.78932415559E+03  0.12699999809E+01 0.  1.
</event>
<event>
 5   0  0.1035018E-05  0.1802016E+04  0.7818609E-02  0.8705228E-01
       -2   -1    0    0    0  501  0.00000000000E+00  0.00000000000E+00  0.47806210884E+03  0.47806210884E+03  0.25500000920E-02 0. -1.
        2   -1    0    0  501    0  0.00000000000E+00  0.00000000000E+00 -0.16981383368E+04  0.16981383368E+04  0.25500000920E-02 0.  1.
    10030    2    1    2    0    0  0.00000000000E+00  0.00000000000E+00 -0.12200762280E+04  0.21762004457E+04  0.18020161979E+04 0.  0.
        3    1    3    3  502    0 -0.69084456839E+03  0.56373110168E+03 -0.45371136182E+03  0.10004563872E+04  0.10100000352E+00 0.  1.
       -3    1    3    3    0  502  0.69084456839E+03 -0.56373110168E+03 -0.76636486615E+03  0.11757440584E+04  0.10100000352E+00 0. -1.
</event>
<event>
 5   0  0.4994123E-06  0.1800868E+04  0.7818609E-02  0.8705838E-01
        1   -1    0    0  501    0  0.00000000000E+00  0.00000000000E+00  0.67242575106E+03  0.67242575108E+03  0.50400001928E-02 0.  1.
       -1   -1    0    0    0  501  0.00000000000E+00  0.00000000000E+00 -0.12057564893E+04  0.12057564893E+04  0.50400001928E-02 0. -1.
    10030    2    1    2    0    0  0.00000000000E+00  0.00000000000E+00 -0.53333073826E+03  0.18781822404E+04  0.18008683605E+04 0.  0.
        1    1    3    3  502    0  0.18656375308E+01 -0.87631409040E+03 -0.50771387462E+02  0.87778562271E+03  0.50400001928E-02 0.  1.
       -1    1    3    3    0  502 -0.18656375308E+01  0.87631409040E+03 -0.48255935080E+03  0.10003966177E+04  0.50400001928E-02 0. -1.
</event>
<event>
 5   0  0.4987456E-06  0.1800207E+04  0.7818609E-02  0.8706189E-01
       -1   -1    0    0    0  501  0.00000000000E+00  0.00000000000E+00  0.62770453522E+03  0.62770453524E+03  0.50400001928E-02 0.  1.
        1   -1    0    0  501    0  0.00000000000E+00  0.00000000000E+00 -0.12907134791E+04  0.12907134791E+04  0.50400001928E-02 0. -1.
    10030    2    1    2    0    0  0.00000000000E+00  0.00000000000E+00 -0.66300894385E+03  0.19184180143E+04  0.18002074375E+04 0.  0.
        3    1    3    3  502    0  0.40339650323E+03 -0.13637657458E+03  0.51357483157E+03  0.66714797964E+03  0.10100000352E+00 0.  1.
       -3    1    3    3    0  502 -0.40339650323E+03  0.13637657458E+03 -0.11765837754E+04  0.12512700347E+04  0.10100000352E+00 0. -1.
</event>
<event>
 5   0  0.4953155E-06  0.1799786E+04  0.7818609E-02  0.8706413E-01
       -1   -1    0    0    0  501  0.00000000000E+00  0.00000000000E+00  0.50422225536E+03  0.50422225538E+03  0.50400001928E-02 0. -1.
        1   -1    0    0  501    0  0.00000000000E+00  0.00000000000E+00 -0.16060517683E+04  0.16060517683E+04  0.50400001928E-02 0.  1.
    10030    2    1    2    0    0  0.00000000000E+00  0.00000000000E+00 -0.11018295130E+04  0.21102740237E+04  0.17997855927E+04 0.  0.
        2    1    3    3  502    0  0.69757174175E+03 -0.56771197866E+03 -0.51566477585E+03  0.10367320708E+04  0.25500000920E-02 0. -1.
       -2    1    3    3    0  502 -0.69757174175E+03  0.56771197866E+03 -0.58616473712E+03  0.10735419529E+04  0.25500000920E-02 0.  1.
</event>
<event>
 5   0  0.4953155E-06  0.1799872E+04  0.7818609E-02  0.8706368E-01
       -1   -1    0    0    0  501  0.00000000000E+00  0.00000000000E+00  0.11254579962E+04  0.11254579962E+04  0.50400001928E-02 0.  1.
        1   -1    0    0  501    0  0.00000000000E+00  0.00000000000E+00 -0.71960462926E+03  0.71960462928E+03  0.50400001928E-02 0. -1.
    10030    2    1    2    0    0  0.00000000000E+00  0.00000000000E+00  0.40585336692E+03  0.18450626255E+04  0.17998719778E+04 0.  0.
        2    1    3    3  502    0 -0.43688954542E+03  0.55559873872E+03 -0.36812579976E+03  0.79691846372E+03  0.25500000920E-02 0. -1.
       -2    1    3    3    0  502  0.43688954542E+03 -0.55559873872E+03  0.77397916668E+03  0.10481441618E+04  0.25500000920E-02 0.  1.
</event>
<event>
 5   0  0.1000316E-05  0.1800069E+04  0.7818609E-02  0.8706263E-01
       -2   -1    0    0    0  501  0.00000000000E+00  0.00000000000E+00  0.96953034146E+03  0.96953034146E+03  0.25500000920E-02 0.  1.
        2   -1    0    0  501    0  0.00000000000E+00  0.00000000000E+00 -0.83552055154E+03  0.83552055155E+03  0.25500000920E-02 0. -1.
    10030    2    1    2    0    0  0.00000000000E+00  0.00000000000E+00  0.13400978991E+03  0.18050508930E+04  0.18000694716E+04 0.  0.
        5    1    3    3  502    0 -0.37428090122E+03  0.22497362134E+03 -0.72215524218E+03  0.84393696869E+03  0.46999998093E+01 0. -1.
       -5    1    3    3    0  502  0.37428090122E+03 -0.22497362134E+03  0.85616503210E+03  0.96111392431E+03  0.46999998093E+01 0.  1.
</event>
<event>
 5   0  0.4981384E-06  0.1799683E+04  0.7818609E-02  0.8706468E-01
        1   -1    0    0  501    0  0.00000000000E+00  0.00000000000E+00  0.68912848358E+03  0.68912848360E+03  0.50400001928E-02 0. -1.
       -1   -1    0    0    0  501  0.00000000000E+00  0.00000000000E+00 -0.11749831111E+04  0.11749831112E+04  0.50400001928E-02 0.  1.
    10030    2    1    2    0    0  0.00000000000E+00  0.00000000000E+00 -0.48585462757E+03  0.18641115948E+04  0.17996825605E+04 0.  0.
        5    1    3    3  502    0 -0.21129236702E+03 -0.55560270544E+02 -0.11470811371E+04  0.11677108517E+04  0.46999998093E+01 0.  1.
       -5    1    3    3    0  502  0.21129236702E+03  0.55560270544E+02  0.66122650955E+03  0.69640074307E+03  0.46999998093E+01 0. -1.
</event>
<event>
 5   0  0.4987456E-06  0.1799575E+04  0.7818609E-02  0.8706526E-01
       -1   -1    0    0    0  501  0.00000000000E+00  0.00000000000E+00  0.13045766082E+04  0.13045766082E+04  0.50400001928E-02 0. -1.
        1   -1    0    0  501    0  0.00000000000E+00  0.00000000000E+00 -0.62059776933E+03  0.62059776935E+03  0.50400001928E-02 0.  1.
    10030    2    1    2    0    0  0.00000000000E+00  0.00000000000E+00  0.68397883884E+03  0.19251743775E+04  0.17995747642E+04 0.  0.
        3    1    3    3  502    0 -0.14651473493E+03  0.50993848853E+03  0.11194239215E+04  0.12387952841E+04  0.10100000352E+00 0. -1.
       -3    1    3    3    0  502  0.14651473493E+03 -0.50993848853E+03 -0.43544508269E+03  0.68637909341E+03  0.10100000352E+00 0.  1.
</event>
<event>
 5   0  0.4981384E-06  0.1800307E+04  0.7818609E-02  0.8706136E-01
        1   -1    0    0  501    0  0.00000000000E+00  0.00000000000E+00  0.71803205353E+03  0.71803205355E+03  0.50400001928E-02 0. -1.
       -1   -1    0    0    0  501  0.00000000000E+00  0.00000000000E+00 -0.11284680689E+04  0.11284680689E+04  0.50400001928E-02 0.  1.
    10030    2    1    2    0    0  0.00000000000E+00  0.00000000000E+00 -0.41043601538E+03  0.18465001225E+04  0.18003069126E+04 0.  0.
        5    1    3    3  502    0 -0.25792977985E+03 -0.86226188566E+03 -0.18963528409E+03  0.91978636746E+03  0.46999998093E+01 0. -1.
       -5    1    3    3    0  502  0.25792977985E+03  0.86226188566E+03 -0.22080073129E+03  0.92671375501E+03  0.46999998093E+01 0.  1.
</event>
<event>
 5   0  0.4994123E-06  0.1800202E+04  0.7818609E-02  0.8706192E-01
        1   -1    0    0  501    0  0.00000000000E+00  0.00000000000E+00  0.97960995182E+03  0.97960995184E+03  0.50400001928E-02 0.  1.
       -1   -1    0    0    0  501  0.00000000000E+00  0.00000000000E+00 -0.82704492816E+03  0.82704492818E+03  0.50400001928E-02 0. -1.
    10030    2    1    2    0    0  0.00000000000E+00  0.00000000000E+00  0.15256502366E+03  0.18066548800E+04  0.18002015912E+04 0.  0.
        1    1    3    3  502    0  0.61388674658E+03 -0.39682908615E+03  0.60338064862E+03  0.94783884094E+03  0.50400001928E-02 0.  1.
       -1    1    3    3    0  502 -0.61388674658E+03  0.39682908615E+03 -0.45081562496E+03  0.85881603908E+03  0.50400001928E-02 0. -1.
</event>
<event>
 5   0  0.9589963E-06  0.1804656E+04  0.7818609E-02  0.8703827E-01
       -2   -1    0    0    0  501  0.00000000000E+00  0.00000000000E+00  0.49560702849E+03  0.49560702849E+03  0.25500000920E-02 0. -1.
        2   -1    0    0  501    0  0.00000000000E+00  0.00000000000E+00 -0.16428251524E+04  0.16428251524E+04  0.25500000920E-02 0.  1.
    10030    2    1    2    0    0  0.00000000000E+00  0.00000000000E+00 -0.11472181239E+04  0.21384321809E+04  0.18046558587E+04 0.  0.
        2    1    3    3  502    0 -0.88945381736E+03  0.12636695612E+03 -0.47377024935E+03  0.10156549365E+04  0.25500000920E-02 0. -1.
       -2    1    3    3    0  502  0.88945381736E+03 -0.12636695612E+03 -0.67344787456E+03  0.11227772444E+04  0.25500000920E-02 0.  1.
</event>
<event>
 5   0  0.9999162E-06  0.1799413E+04  0.7818609E-02  0.8706612E-01
        2   -1    0    0  501    0  0.00000000000E+00  0.00000000000E+00  0.70751240700E+03  0.70751240701E+03  0.25500000920E-02 0.  1.
       -2   -1    0    0    0  501  0.00000000000E+00  0.00000000000E+00 -0.11441099394E+04  0.11441099394E+04  0.25500000920E-02 0. -1.
    10030    2    1    2    0    0  0.00000000000E+00  0.00000000000E+00 -0.43659753244E+03  0.18516223465E+04  0.17994132123E+04 0.  0.
        1    1    3    3  502    0 -0.25645079944E+03  0.18117459270E+03 -0.10858994385E+04  0.11303843754E+04  0.50400001928E-02 0. -1.
       -1    1    3    3    0  502  0.25645079944E+03 -0.18117459270E+03  0.64930190609E+03  0.72123797103E+03  0.50400001928E-02 0.  1.
</event>
<event>
 5   0  0.4981384E-06  0.1799531E+04  0.7818609E-02  0.8706549E-01
        1   -1    0    0  501    0  0.00000000000E+00  0.00000000000E+00  0.12417021915E+04  0.12417021915E+04  0.50400001928E-02 0. -1.
       -1   -1    0    0    0  501  0.00000000000E+00  0.00000000000E+00 -0.65199043703E+03  0.65199043705E+03  0.50400001928E-02 0.  1.
    10030    2    1    2    0    0  0.00000000000E+00  0.00000000000E+00  0.58971175450E+03  0.18936926286E+04  0.17995309995E+04 0.  0.
        5    1    3    3  502    0  0.41509794805E+03  0.35955679737E+02 -0.54434116767E+03  0.68551332168E+03  0.46999998093E+01 0.  1.
       -5    1    3    3    0  502 -0.41509794805E+03 -0.35955679737E+02  0.11340529222E+04  0.12081793069E+04  0.46999998093E+01 0. -1.
</event>
<event>
 5   0  0.4953155E-06  0.1799700E+04  0.7818609E-02  0.8706459E-01
       -1   -1    0    0    0  501  0.00000000000E+00  0.00000000000E+00  0.72043032257E+03  0.72043032258E+03  0.50400001928E-02 0. -1.
        1   -1    0    0  501    0  0.00000000000E+00  0.00000000000E+00 -0.11239535118E+04  0.11239535118E+04  0.50400001928E-02 0.  1.
    10030    2    1    2    0    0  0.00000000000E+00  0.00000000000E+00 -0.40352318924E+03  0.18443838344E+04  0.17997001873E+04 0.  0.
        2    1    3    3  502    0  0.14663933767E+03 -0.39431681064E+02 -0.11107284707E+04  0.11210600736E+04  0.25500000920E-02 0.  1.
       -2    1    3    3    0  502 -0.14663933767E+03  0.39431681064E+02  0.70720528149E+03  0.72332376084E+03  0.25500000920E-02 0. -1.
</event>
<event>
 5   0  0.4987456E-06  0.1800088E+04  0.7818609E-02  0.8706253E-01
        1   -1    0    0  501    0  0.00000000000E+00  0.00000000000E+00  0.91229825496E+03  0.91229825498E+03  0.50400001928E-02 0. -1.
       -1   -1    0    0    0  501  0.00000000000E+00  0.00000000000E+00 -0.88795435756E+03  0.88795435758E+03  0.50400001928E-02 0.  1.
    10030    2    1    2    0    0  0.00000000000E+00  0.00000000000E+00  0.24343897402E+02  0.18002526126E+04  0.18000880100E+04 0.  0.
        3    1    3    3  502    0  0.43976621413E+03  0.15524921022E+03 -0.75769228509E+03  0.88971582511E+03  0.10100000352E+00 0.  1.
       -3    1    3    3    0  502 -0.43976621413E+03 -0.15524921022E+03  0.78203618249E+03  0.91053678745E+03  0.10100000352E+00 0. -1.
</event>
<event>
 5   0  0.9589963E-06  0.1799420E+04  0.7818609E-02  0.8706608E-01
        2   -1    0    0  501    0  0.00000000000E+00  0.00000000000E+00  0.20290894968E+04  0.20290894968E+04  0.25500000920E-02 0. -1.
       -2   -1    0    0    0  501  0.00000000000E+00  0.00000000000E+00 -0.39893679600E+03  0.39893679601E+03  0.25500000920E-02 0.  1.
    10030    2    1    2    0    0  0.00000000000E+00  0.00000000000E+00  0.16301527008E+04  0.24280262928E+04  0.17994204208E+04 0.  0.
        2    1    3    3  502    0  0.52868024230E+03 -0.47973274520E+03  0.76220280865E+02  0.71795253091E+03  0.25500000920E-02 0.  1.
       -2    1    3    3    0  502 -0.52868024230E+03  0.47973274520E+03  0.15539324199E+04  0.17100737619E+04  0.25500000920E-02 0. -1.
</event>
<event>
 5   0  0.9999162E-06  0.1787727E+04  0.7818609E-02  0.8712853E-01
        2   -1    0    0  501    0  0.00000000000E+00  0.00000000000E+00  0.20556066089E+04  0.20556066089E+04  0.25500000920E-02 0. -1.
       -2   -1    0    0    0  501  0.00000000000E+00  0.00000000000E+00 -0.38868927656E+03  0.38868927656E+03  0.25500000920E-02 0.  1.
    10030    2    1    2    0    0  0.00000000000E+00  0.00000000000E+00  0.16669173323E+04  0.24442958854E+04  0.17877273234E+04 0.  0.
        1    1    3    3  502    0 -0.49699602664E+03 -0.69680424938E+03  0.11859134161E+04  0.14625087497E+04  0.50400001928E-02 0. -1.
       -1    1    3    3    0  502  0.49699602664E+03  0.69680424938E+03  0.48100391622E+03  0.98178713574E+03  0.50400001928E-02 0.  1.
</event>
<event>
 5   0  0.4994123E-06  0.1800164E+04  0.7818609E-02  0.8706212E-01
       -1   -1    0    0    0  501  0.00000000000E+00  0.00000000000E+00  0.11036770461E+04  0.11036770461E+04  0.50400001928E-02 0.  1.
        1   -1    0    0  501    0  0.00000000000E+00  0.00000000000E+00 -0.73404415436E+03  0.73404415437E+03  0.50400001928E-02 0. -1.
    10030    2    1    2    0    0  0.00000000000E+00  0.00000000000E+00  0.36963289174E+03  0.18377212005E+04  0.18001640859E+04 0.  0.
        1    1    3    3  502    0 -0.64245316703E+03  0.16357234404E+03  0.80632486447E+03  0.10438686558E+04  0.50400001928E-02 0.  1.
       -1    1    3    3    0  502  0.64245316703E+03 -0.16357234404E+03 -0.43669197273E+03  0.79385254464E+03  0.50400001928E-02 0. -1.
</event>
<event>
 5   0  0.9589963E-06  0.1799548E+04  0.7818609E-02  0.8706540E-01
        2   -1    0    0  501    0  0.00000000000E+00  0.00000000000E+00  0.42070265613E+03  0.42070265614E+03  0.25500000920E-02 0.  1.
       -2   -1    0    0    0  501  0.00000000000E+00  0.00000000000E+00 -0.19243845081E+04  0.19243845081E+04  0.25500000920E-02 0. -1.
    10030    2    1    2    0    0  0.00000000000E+00  0.00000000000E+00 -0.15036818519E+04  0.23450871642E+04  0.17995484700E+04 0.  0.
        2    1    3    3  502    0  0.55770382626E+03 -0.89009146168E+02 -0.16646412908E+04  0.17578358322E+04  0.25500000920E-02 0. -1.
       -2    1    3    3    0  502 -0.55770382626E+03  0.89009146168E+02  0.16095943890E+03  0.58725133197E+03  0.25500000920E-02 0.  1.
</event>
<event>
 5   0  0.4983159E-06  0.1800558E+04  0.7818609E-02  0.8706003E-01
        1   -1    0    0  501    0  0.00000000000E+00  0.00000000000E+00  0.51470183011E+03  0.51470183014E+03  0.50400001928E-02 0.  1.
       -1   -1    0    0    0  501  0.00000000000E+00  0.00000000000E+00 -0.15747023182E+04  0.15747023182E+04  0.50400001928E-02 0. -1.
    10030    2    1    2    0    0  0.00000000000E+00  0.00000000000E+00 -0.10600004881E+04  0.20894041484E+04  0.18005578748E+04 0.  0.
        4    1    3    3  502    0 -0.42508780138E+03  0.71609482214E+03 -0.13305991802E+03  0.84332555271E+03  0.12699999809E+01 0.  1.
       -4    1    3    3    0  502  0.42508780138E+03 -0.71609482214E+03 -0.92694057008E+03  0.12460785956E+04  0.12699999809E+01 0. -1.
</event>
<event>
 5   0  0.4987456E-06  0.1799816E+04  0.7818609E-02  0.8706397E-01
        1   -1    0    0  501    0  0.00000000000E+00  0.00000000000E+00  0.13522479389E+04  0.13522479389E+04  0.50400001928E-02 0.  1.
       -1   -1    0    0    0  501  0.00000000000E+00  0.00000000000E+00 -0.59888012739E+03  0.59888012741E+03  0.50400001928E-02 0. -1.
    10030    2    1    2    0    0  0.00000000000E+00  0.00000000000E+00  0.75336781151E+03  0.19511280663E+04  0.17998160105E+04 0.  0.
        3    1    3    3  502    0 -0.35870498825E+03 -0.79184067750E+03  0.12441085866E+03  0.87815659145E+03  0.10100000352E+00 0. -1.
       -3    1    3    3    0  502  0.35870498825E+03  0.79184067750E+03  0.62895695286E+03  0.10729714749E+04  0.10100000352E+00 0.  1.
</event>
<event>
 5   0  0.1000316E-05  0.1799734E+04  0.7818609E-02  0.8706441E-01
        2   -1    0    0  501    0  0.00000000000E+00  0.00000000000E+00  0.14722330741E+04  0.14722330741E+04  0.25500000920E-02 0. -1.
       -2   -1    0    0    0  501  0.00000000000E+00  0.00000000000E+00 -0.55002230590E+03  0.55002230590E+03  0.25500000920E-02 0.  1.
    10030    2    1    2    0    0  0.00000000000E+00  0.00000000000E+00  0.92221076819E+03  0.20222553800E+04  0.17997344585E+04 0.  0.
        5    1    3    3  502    0  0.57203154711E+03  0.16885368400E+03  0.12182153751E+04  0.13563931759E+04  0.46999998093E+01 0. -1.
       -5    1    3    3    0  502 -0.57203154711E+03 -0.16885368400E+03 -0.29600460694E+03  0.66586220407E+03  0.46999998093E+01 0.  1.
</event>
<event>
 5   0  0.9589963E-06  0.1800436E+04  0.7818609E-02  0.8706068E-01
       -2   -1    0    0    0  501  0.00000000000E+00  0.00000000000E+00  0.74483210607E+03  0.74483210607E+03  0.25500000920E-02 0.  1.
        2   -1    0    0  501    0  0.00000000000E+00  0.00000000000E+00 -0.10880201155E+04  0.10880201155E+04  0.25500000920E-02 0. -1.
    10030    2    1    2    0    0  0.00000000000E+00  0.00000000000E+00 -0.34318800939E+03  0.18328522215E+04  0.18004358517E+04 0.  0.
        2    1    3    3  502    0  0.38543186544E+03 -0.46816141931E+03 -0.84889962744E+03  0.10432465744E+04  0.25500000920E-02 0. -1.
       -2    1    3    3    0  502 -0.38543186544E+03  0.46816141931E+03  0.50571161804E+03  0.78960564718E+03  0.25500000920E-02 0.  1.
</event>
<event>
 5   0  0.3626125E-06  0.1800199E+04  0.7818609E-02  0.8706194E-01
       -3   -1    0    0    0  501  0.00000000000E+00  0.00000000000E+00  0.29107138426E+03  0.29107140178E+03  0.10100000352E+00 0.  1.
        3   -1    0    0  501    0  0.00000000000E+00  0.00000000000E+00 -0.27834380841E+04  0.27834380860E+04  0.10100000352E+00 0. -1.
    10030    2    1    2    0    0  0.00000000000E+00  0.00000000000E+00 -0.24923666999E+04  0.30745094877E+04  0.18001991067E+04 0.  0.
        1    1    3    3  502    0 -0.47579191117E+03 -0.59999609999E+03 -0.43822103799E+03  0.88227600041E+03  0.50400001928E-02 0.  1.
       -1    1    3    3    0  502  0.47579191117E+03  0.59999609999E+03 -0.20541456619E+04  0.21922334873E+04  0.50400001928E-02 0. -1.
</event>
<event>
 5   0  0.4981384E-06  0.1799834E+04  0.7818609E-02  0.8706388E-01
       -1   -1    0    0    0  501  0.00000000000E+00  0.00000000000E+00  0.74810217679E+03  0.74810217681E+03  0.50400001928E-02 0.  1.
        1   -1    0    0  501    0  0.00000000000E+00  0.00000000000E+00 -0.10825403703E+04  0.10825403703E+04  0.50400001928E-02 0. -1.
    10030    2    1    2    0    0  0.00000000000E+00  0.00000000000E+00 -0.33443819350E+03  0.18306425471E+04  0.17998342229E+04 0.  0.
        5    1    3    3  502    0 -0.31859809271E+03 -0.79886691582E+03 -0.43658360863E+03  0.96453119763E+03  0.46999998093E+01 0.  1.
       -5    1    3    3    0  502  0.31859809271E+03  0.79886691582E+03  0.10214541513E+03  0.86611134948E+03  0.46999998093E+01 0. -1.
</event>
<event>
 5   0  0.4953155E-06  0.1801073E+04  0.7818609E-02  0.8705729E-01
        1   -1    0    0  501    0  0.00000000000E+00  0.00000000000E+00  0.12361855435E+04  0.12361855435E+04  0.50400001928E-02 0.  1.
       -1   -1    0    0    0  501  0.00000000000E+00  0.00000000000E+00 -0.65602311035E+03  0.65602311037E+03  0.50400001928E-02 0. -1.
    10030    2    1    2    0    0  0.00000000000E+00  0.00000000000E+00  0.58016243312E+03  0.18922086539E+04  0.18010733303E+04 0.  0.
        2    1    3    3  502    0  0.42797443767E+03  0.31837531112E+03  0.10523578665E+04  0.11798228838E+04  0.25500000920E-02 0.  1.
       -2    1    3    3    0  502 -0.42797443767E+03 -0.31837531112E+03 -0.47219543337E+03  0.71238577003E+03  0.25500000920E-02 0. -1.
</event>
<event>
 5   0  0.4994123E-06  0.1799958E+04  0.7818609E-02  0.8706322E-01
       -1   -1    0    0    0  501  0.00000000000E+00  0.00000000000E+00  0.45461218604E+03  0.45461218607E+03  0.50400001928E-02 0.  1.
        1   -1    0    0  501    0  0.00000000000E+00  0.00000000000E+00 -0.17816557398E+04  0.17816557398E+04  0.50400001928E-02 0. -1.
    10030    2    1    2    0    0  0.00000000000E+00  0.00000000000E+00 -0.13270435538E+04  0.22362679259E+04  0.17999582336E+04 0.  0.
        1    1    3    3  502    0  0.89319552071E+03  0.29878302871E+02 -0.79542380821E+03  0.11964071155E+04  0.50400001928E-02 0. -1.
       -1    1    3    3    0  502 -0.89319552071E+03 -0.29878302871E+02 -0.53161974557E+03  0.10398608105E+04  0.50400001928E-02 0.  1.
</event>
<event>
 5   0  0.9589963E-06  0.1800300E+04  0.7818609E-02  0.8706140E-01
        2   -1    0    0  501    0  0.00000000000E+00  0.00000000000E+00  0.11786461773E+04  0.11786461773E+04  0.25500000920E-02 0. -1.
       -2   -1    0    0    0  501  0.00000000000E+00  0.00000000000E+00 -0.68745815609E+03  0.68745815609E+03  0.25500000920E-02 0.  1.
    10030    2    1    2    0    0  0.00000000000E+00  0.00000000000E+00  0.49118802123E+03  0.18661043334E+04  0.18002998947E+04 0.  0.
        2    1    3    3  502    0 -0.15491510799E+02 -0.89294372540E+03  0.36232211190E+03  0.96377683953E+03  0.25500000920E-02 0. -1.
       -2    1    3    3    0  502  0.15491510799E+02  0.89294372540E+03  0.12886590933E+03  0.90232749389E+03  0.25500000920E-02 0.  1.
</event>
<event>
 5   0  0.4994123E-06  0.1800415E+04  0.7818609E-02  0.8706079E-01
       -1   -1    0    0    0  501  0.00000000000E+00  0.00000000000E+00  0.54585482090E+03  0.54585482092E+03  0.50400001928E-02 0.  1.
        1   -1    0    0  501    0  0.00000000000E+00  0.00000000000E+00 -0.14845949562E+04  0.14845949562E+04  0.50400001928E-02 0. -1.
    10030    2    1    2    0    0  0.00000000000E+00  0.00000000000E+00 -0.93874013530E+03  0.20304497771E+04  0.18004147455E+04 0.  0.
        1    1    3    3  502    0  0.20259649763E+00  0.88189173229E+03 -0.26562063964E+03  0.92102518573E+03  0.50400001928E-02 0.  1.
       -1    1    3    3    0  502 -0.20259649763E+00 -0.88189173229E+03 -0.67311949567E+03  0.11094245914E+04  0.50400001928E-02 0. -1.
</event>
<event>
 5   0  0.1000316E-05  0.1799793E+04  0.7818609E-02  0.8706410E-01
       -2   -1    0    0    0  501  0.00000000000E+00  0.00000000000E+00  0.31918891156E+03  0.31918891157E+03  0.25500000920E-02 0. -1.
        2   -1    0    0  501    0  0.00000000000E+00  0.00000000000E+00 -0.25370971275E+04  0.25370971275E+04  0.25500000920E-02 0.  1.
    10030    2    1    2    0    0  0.00000000000E+00  0.00000000000E+00 -0.22179082160E+04  0.28562860391E+04  0.17997925110E+04 0.  0.
        5    1    3    3  502    0  0.21150703515E+03 -0.82229568152E+03 -0.63580789466E+03  0.10607446359E+04  0.46999998093E+01 0. -1.
       -5    1    3    3    0  502 -0.21150703515E+03  0.82229568152E+03 -0.15821003213E+04  0.17955414032E+04  0.46999998093E+01 0.  1.
</event>
<event>
 5   0  0.4987456E-06  0.1799932E+04  0.7818609E-02  0.8706336E-01
       -1   -1    0    0    0  501  0.00000000000E+00  0.00000000000E+00  0.36238454816E+03  0.36238454820E+03  0.50400001928E-02 0.  1.
        1   -1    0    0  501    0  0.00000000000E+00  0.00000000000E+00 -0.22350250154E+04  0.22350250154E+04  0.50400001928E-02 0. -1.
    10030    2    1    2    0    0  0.00000000000E+00  0.00000000000E+00 -0.18726404672E+04  0.25974095636E+04  0.17999316991E+04 0.  0.
        3    1    3    3  502    0  0.38156167712E+03  0.54658858218E+03 -0.63787678186E+02  0.66963965662E+03  0.10100000352E+00 0.  1.
       -3    1    3    3    0  502 -0.38156167712E+03 -0.54658858218E+03 -0.18088527890E+04  0.19277699069E+04  0.10100000352E+00 0. -1.
</event>
<event>
 5   0  0.3626125E-06  0.1799694E+04  0.7818609E-02  0.8706462E-01
        3   -1    0    0  501    0  0.00000000000E+00  0.00000000000E+00  0.14182700930E+04  0.14182700966E+04  0.10100000352E+00 0.  1.
       -3   -1    0    0    0  501  0.00000000000E+00  0.00000000000E+00 -0.57092398724E+03  0.57092399617E+03  0.10100000352E+00 0. -1.
    10030    2    1    2    0    0  0.00000000000E+00  0.00000000000E+00  0.84734610579E+03  0.19891940928E+04  0.17996937839E+04 0.  0.
        4    1    3    3  502    0  0.53050066486E+03  0.72578107018E+03  0.46695916536E+03  0.10130358297E+04  0.12699999809E+01 0.  1.
       -4    1    3    3    0  502 -0.53050066486E+03 -0.72578107018E+03  0.38038694043E+03  0.97615826309E+03  0.12699999809E+01 0. -1.
</event>
<event>
 5   0  0.4981384E-06  0.1799900E+04  0.7818609E-02  0.8706353E-01
        1   -1    0    0  501    0  0.00000000000E+00  0.00000000000E+00  0.72195281758E+03  0.72195281759E+03  0.50400001928E-02 0. -1.
       -1   -1    0    0    0  501  0.00000000000E+00  0.00000000000E+00 -0.11218326718E+04  0.11218326718E+04  0.50400001928E-02 0.  1.
    10030    2    1    2    0    0  0.00000000000E+00  0.00000000000E+00 -0.39987985423E+03  0.18437854894E+04  0.17999002842E+04 0.  0.
        5    1    3    3  502    0  0.51988938755E+03 -0.21333765803E+03  0.52011409946E+03  0.76572756126E+03  0.46999998093E+01 0. -1.
       -5    1    3    3    0  502 -0.51988938755E+03  0.21333765803E+03 -0.91999395369E+03  0.10780579281E+04  0.46999998093E+01 0.  1.
</event>
<event>
 5   0  0.9589963E-06  0.1799232E+04  0.7818609E-02  0.8706708E-01
       -2   -1    0    0    0  501  0.00000000000E+00  0.00000000000E+00  0.60576879460E+03  0.60576879461E+03  0.25500000920E-02 0.  1.
        2   -1    0    0  501    0  0.00000000000E+00  0.00000000000E+00 -0.13360028362E+04  0.13360028362E+04  0.25500000920E-02 0. -1.
    10030    2    1    2    0    0  0.00000000000E+00  0.00000000000E+00 -0.73023404162E+03  0.19417716308E+04  0.17992318669E+04 0.  0.
        2    1    3    3  502    0  0.41509654688E+03  0.71693341996E+02  0.49275546155E+03  0.64826925225E+03  0.25500000920E-02 0.  1.
       -2    1    3    3    0  502 -0.41509654688E+03 -0.71693341996E+02 -0.12229895032E+04  0.12935023786E+04  0.25500000920E-02 0. -1.
</event>
<event>
 5   0  0.3626125E-06  0.1800591E+04  0.7818609E-02  0.8705985E-01
        3   -1    0    0  501    0  0.00000000000E+00  0.00000000000E+00  0.59580754236E+03  0.59580755092E+03  0.10100000352E+00 0.  1.
       -3   -1    0    0    0  501  0.00000000000E+00  0.00000000000E+00 -0.13603927717E+04  0.13603927755E+04  0.10100000352E+00 0. -1.
    10030    2    1    2    0    0  0.00000000000E+00  0.00000000000E+00 -0.76458522935E+03  0.19562003264E+04  0.18005913317E+04 0.  0.
        1    1    3    3  502    0 -0.27929888713E+03  0.25633380157E+03 -0.12694519642E+04  0.13248483595E+04  0.50400001928E-02 0. -1.
       -1    1    3    3    0  502  0.27929888713E+03 -0.25633380157E+03  0.50486673482E+03  0.63135196692E+03  0.50400001928E-02 0.  1.
</event>
<event>
 5   0  0.4994123E-06  0.1800623E+04  0.7818609E-02  0.8705968E-01
       -1   -1    0    0    0  501  0.00000000000E+00  0.00000000000E+00  0.73321435817E+03  0.73321435819E+03  0.50400001928E-02 0.  1.
        1   -1    0    0  501    0  0.00000000000E+00  0.00000000000E+00 -0.11054898964E+04  0.11054898965E+04  0.50400001928E-02 0. -1.
    10030    2    1    2    0    0  0.00000000000E+00  0.00000000000E+00 -0.37227553827E+03  0.18387042547E+04  0.18006232975E+04 0.  0.
        1    1    3    3  502    0 -0.18235995867E+02 -0.79657757490E+03  0.24188399279E+03  0.83269217023E+03  0.50400001928E-02 0.  1.
       -1    1    3    3    0  502  0.18235995867E+02  0.79657757490E+03 -0.61415953107E+03  0.10060120844E+04  0.50400001928E-02 0. -1.
</event>
<event>
 5   0  0.9589963E-06  0.1799947E+04  0.7818609E-02  0.8706328E-01
       -2   -1    0    0    0  501  0.00000000000E+00  0.00000000000E+00  0.70741072625E+03  0.70741072625E+03  0.25500000920E-02 0. -1.
        2   -1    0    0  501    0  0.00000000000E+00  0.00000000000E+00 -0.11449533523E+04  0.11449533523E+04  0.25500000920E-02 0.  1.
    10030    2    1    2    0    0  0.00000000000E+00  0.00000000000E+00 -0.43754262607E+03  0.18523640786E+04  0.17999469798E+04 0.  0.
        2    1    3    3  502    0 -0.57213935538E+03  0.25491606144E+02  0.49567844528E+03  0.75742351764E+03  0.25500000920E-02 0. -1.
       -2    1    3    3    0  502  0.57213935538E+03 -0.25491606144E+02 -0.93322107134E+03  0.10949405609E+04  0.25500000920E-02 0.  1.
</event>
<event>
 5   0  0.4953155E-06  0.1799948E+04  0.7818609E-02  0.8706327E-01
       -1   -1    0    0    0  501  0.00000000000E+00  0.00000000000E+00  0.75950050378E+03  0.75950050379E+03  0.50400001928E-02 0. -1.
        1   -1    0    0  501    0  0.00000000000E+00  0.00000000000E+00 -0.10664288743E+04  0.10664288743E+04  0.50400001928E-02 0.  1.
    10030    2    1    2    0    0  0.00000000000E+00  0.00000000000E+00 -0.30692837052E+03  0.18259293781E+04  0.17999480740E+04 0.  0.
        2    1    3    3  502    0  0.57242889572E+03 -0.65277784884E+03 -0.39386483764E+03  0.95337467500E+03  0.25500000920E-02 0.  1.
       -2    1    3    3    0  502 -0.57242889572E+03  0.65277784884E+03  0.86936467121E+02  0.87255470311E+03  0.25500000920E-02 0. -1.
</event>
<event>
 5   0  0.4953155E-06  0.1800042E+04  0.7818609E-02  0.8706277E-01
        1   -1    0    0  501    0  0.00000000000E+00  0.00000000000E+00  0.98983793665E+03  0.98983793667E+03  0.50400001928E-02 0. -1.
       -1   -1    0    0    0  501  0.00000000000E+00  0.00000000000E+00 -0.81835383701E+03  0.81835383703E+03  0.50400001928E-02 0.  1.
    10030    2    1    2    0    0  0.00000000000E+00  0.00000000000E+00  0.17148409964E+03  0.18081917737E+04  0.18000418590E+04 0.  0.
        2    1    3    3  502    0 -0.45567384474E+02 -0.19752070433E+03 -0.79512435747E+03  0.82055685910E+03  0.25500000920E-02 0.  1.
       -2    1    3    3    0  502  0.45567384474E+02  0.19752070433E+03  0.96660845711E+03  0.98763491460E+03  0.25500000920E-02 0. -1.
</event>
<event>
 5   0  0.4983159E-06  0.1799607E+04  0.7818609E-02  0.8706508E-01
        1   -1    0    0  501    0  0.00000000000E+00  0.00000000000E+00  0.16915348549E+04  0.16915348549E+04  0.50400001928E-02 0. -1.
       -1   -1    0    0    0  501  0.00000000000E+00  0.00000000000E+00 -0.47864601563E+03  0.47864601566E+03  0.50400001928E-02 0.  1.
    10030    2    1    2    0    0  0.00000000000E+00  0.00000000000E+00  0.12128888393E+04  0.21701808706E+04  0.17996070889E+04 0.  0.
        4    1    3    3  502    0  0.37965864893E+03 -0.81412618403E+03  0.66913682728E+03  0.11201284925E+04  0.12699999809E+01 0. -1.
       -4    1    3    3    0  502 -0.37965864893E+03  0.81412618403E+03  0.54375201202E+03  0.10500523781E+04  0.12699999809E+01 0.  1.
</event>
<event>
 5   0  0.4983159E-06  0.1798840E+04  0.7818609E-02  0.8706916E-01
       -1   -1    0    0    0  501  0.00000000000E+00  0.00000000000E+00  0.50675007912E+03  0.50675007915E+03  0.50400001928E-02 0.  1.
        1   -1    0    0  501    0  0.00000000000E+00  0.00000000000E+00 -0.15963624087E+04  0.15963624087E+04  0.50400001928E-02 0. -1.
    10030    2    1    2    0    0  0.00000000000E+00  0.00000000000E+00 -0.10896123296E+04  0.21031124878E+04  0.17988404898E+04 0.  0.
        4    1    3    3  502    0  0.12349687617E+03 -0.54245966776E+03  0.28144489201E+03  0.62347959847E+03  0.12699999809E+01 0.  1.
       -4    1    3    3    0  502 -0.12349687617E+03  0.54245966776E+03 -0.13710572216E+04  0.14796328894E+04  0.12699999809E+01 0. -1.
</event>
<event>
 5   0  0.4981384E-06  0.1800432E+04  0.7818609E-02  0.8706070E-01
       -1   -1    0    0    0  501  0.00000000000E+00  0.00000000000E+00  0.86472326888E+03  0.86472326890E+03  0.50400001928E-02 0. -1.
        1   -1    0    0  501    0  0.00000000000E+00  0.00000000000E+00 -0.93716518248E+03  0.93716518250E+03  0.50400001928E-02 0.  1.
    10030    2    1    2    0    0  0.00000000000E+00  0.00000000000E+00 -0.72441913602E+02  0.18018884514E+04  0.18004316595E+04 0.  0.
        5    1    3    3  502    0  0.16744528027E+03 -0.11439419495E+03  0.84155341157E+03  0.86565477428E+03  0.46999998093E+01 0. -1.
       -5    1    3    3    0  502 -0.16744528027E+03  0.11439419495E+03 -0.91399532517E+03  0.93623367711E+03  0.46999998093E+01 0.  1.
</event>
<event>
 5   0  0.4987456E-06  0.1799700E+04  0.7818609E-02  0.8706459E-01
       -1   -1    0    0    0  501  0.00000000000E+00  0.00000000000E+00  0.14987166030E+04  0.14987166030E+04  0.50400001928E-02 0.  1.
        1   -1    0    0  501    0  0.00000000000E+00  0.00000000000E+00 -0.54028223934E+03  0.54028223936E+03  0.50400001928E-02 0. -1.
    10030    2    1    2    0    0  0.00000000000E+00  0.00000000000E+00  0.95843436362E+03  0.20389988423E+04  0.17996999332E+04 0.  0.
        3    1    3    3  502    0  0.75149530314E+02 -0.28940852815E+02 -0.53619150494E+03  0.54220509500E+03  0.10100000352E+00 0. -1.
       -3    1    3    3    0  502 -0.75149530314E+02  0.28940852815E+02  0.14946258686E+04  0.14967937473E+04  0.10100000352E+00 0.  1.
</event>
<event>
 5   0  0.1000316E-05  0.1799727E+04  0.7818609E-02  0.8706445E-01
       -2   -1    0    0    0  501  0.00000000000E+00  0.00000000000E+00  0.92577059228E+03  0.92577059228E+03  0.25500000920E-02 0. -1.
        2   -1    0    0  501    0  0.00000000000E+00  0.00000000000E+00 -0.87468095304E+03  0.87468095305E+03  0.25500000920E-02 0.  1.
    10030    2    1    2    0    0  0.00000000000E+00  0.00000000000E+00  0.51089639235E+02  0.18004515453E+04  0.17997265392E+04 0.  0.
        5    1    3    3  502    0 -0.39054443836E+03  0.15332665741E+03 -0.77082723870E+03  0.87762790756E+03  0.46999998093E+01 0.  1.
       -5    1    3    3    0  502  0.39054443836E+03 -0.15332665741E+03  0.82191687793E+03  0.92282363777E+03  0.46999998093E+01 0. -1.
</event>
<event>
 5   0  0.4981384E-06  0.1794131E+04  0.7818609E-02  0.8709427E-01
        1   -1    0    0  501    0  0.00000000000E+00  0.00000000000E+00  0.92145567448E+03  0.92145567449E+03  0.50400001928E-02 0. -1.
       -1   -1    0    0    0  501  0.00000000000E+00  0.00000000000E+00 -0.87332101222E+03  0.87332101223E+03  0.50400001928E-02 0.  1.
    10030    2    1    2    0    0  0.00000000000E+00  0.00000000000E+00  0.48134662258E+02  0.17947766867E+04  0.17941311015E+04 0.  0.
        5    1    3    3  502    0  0.65341245194E+03  0.58675189410E+03  0.20710555848E+03  0.90229730130E+03  0.46999998093E+01 0. -1.
       -5    1    3    3    0  502 -0.65341245194E+03 -0.58675189410E+03 -0.15897089623E+03  0.89247938543E+03  0.46999998093E+01 0.  1.
</event>
<event>
 5   0  0.9999162E-06  0.1801134E+04  0.7818609E-02  0.8705697E-01
       -2   -1    0    0    0  501  0.00000000000E+00  0.00000000000E+00  0.53253798831E+03  0.53253798831E+03  0.25500000920E-02 0.  1.
        2   -1    0    0  501    0  0.00000000000E+00  0.00000000000E+00 -0.15229355060E+04  0.15229355060E+04  0.25500000920E-02 0. -1.
    10030    2    1    2    0    0  0.00000000000E+00  0.00000000000E+00 -0.99039751765E+03  0.20554734943E+04  0.18011340990E+04 0.  0.
        1    1    3    3  502    0  0.52648379912E+02  0.46743430732E+02 -0.15197900304E+04  0.15214199081E+04  0.50400001928E-02 0. -1.
       -1    1    3    3    0  502 -0.52648379912E+02 -0.46743430732E+02  0.52939251280E+03  0.53405358613E+03  0.50400001928E-02 0.  1.
</event>
<event>
 5   0  0.4987456E-06  0.1799413E+04  0.7818609E-02  0.8706612E-01
       -1   -1    0    0    0  501  0.00000000000E+00  0.00000000000E+00  0.89729032674E+03  0.89729032675E+03  0.50400001928E-02 0.  1.
        1   -1    0    0  501    0  0.00000000000E+00  0.00000000000E+00 -0.90212904561E+03  0.90212904562E+03  0.50400001928E-02 0. -1.
    10030    2    1    2    0    0  0.00000000000E+00  0.00000000000E+00 -0.48387188706E+01  0.17994193724E+04  0.17994128666E+04 0.  0.
        3    1    3    3  502    0 -0.96342672872E+02  0.18966704138E+02 -0.89675475123E+03  0.90211459391E+03  0.10100000352E+00 0. -1.
       -3    1    3    3    0  502  0.96342672872E+02 -0.18966704138E+02  0.89191603236E+03  0.89730477847E+03  0.10100000352E+00 0.  1.
</event>
<event>
 5   0  0.4983159E-06  0.1800019E+04  0.7818609E-02  0.8706289E-01
        1   -1    0    0  501    0  0.00000000000E+00  0.00000000000E+00  0.79643942875E+03  0.79643942876E+03  0.50400001928E-02 0.  1.
       -1   -1    0    0    0  501  0.00000000000E+00  0.00000000000E+00 -0.10170478365E+04  0.10170478365E+04  0.50400001928E-02 0. -1.
    10030    2    1    2    0    0  0.00000000000E+00  0.00000000000E+00 -0.22060840773E+03  0.18134872653E+04  0.18000188865E+04 0.  0.
        4    1    3    3  502    0  0.44145462600E+03 -0.16882012803E+03  0.66134636261E+03  0.81287332757E+03  0.12699999809E+01 0. -1.
       -4    1    3    3    0  502 -0.44145462600E+03  0.16882012803E+03 -0.88195477035E+03  0.10006139377E+04  0.12699999809E+01 0.  1.
</event>
<event>
 5   0  0.9999162E-06  0.1800332E+04  0.7818609E-02  0.8706123E-01
       -2   -1    0    0    0  501  0.00000000000E+00  0.00000000000E+00  0.38789074243E+03  0.38789074244E+03  0.25500000920E-02 0. -1.
        2   -1    0    0  501    0  0.00000000000E+00  0.00000000000E+00 -0.20889862293E+04  0.20889862293E+04  0.25500000920E-02 0.  1.
    10030    2    1    2    0    0  0.00000000000E+00  0.00000000000E+00 -0.17010954869E+04  0.24768769718E+04  0.18003315466E+04 0.  0.
        1    1    3    3  502    0 -0.41770438013E+03 -0.31983129047E+03  0.15437142051E+03  0.54826958609E+03  0.50400001928E-02 0. -1.
       -1    1    3    3    0  502  0.41770438013E+03  0.31983129047E+03 -0.18554669074E+04  0.19286073857E+04  0.50400001928E-02 0.  1.
</event>
<event>
 5   0  0.1035018E-05  0.1799707E+04  0.7818609E-02  0.8706455E-01
        2   -1    0    0  501    0  0.00000000000E+00  0.00000000000E+00  0.10782621293E+04  0.10782621293E+04  0.25500000920E-02 0.  1.
       -2   -1    0    0    0  501  0.00000000000E+00  0.00000000000E+00 -0.75096433288E+03  0.75096433289E+03  0.25500000920E-02 0. -1.
    10030    2    1    2    0    0  0.00000000000E+00  0.00000000000E+00  0.32729779646E+03  0.18292264622E+04  0.17997070880E+04 0.  0.
        3    1    3    3  502    0 -0.56813856565E+03 -0.43504704315E+03 -0.39090921630E+03  0.81538787404E+03  0.10100000352E+00 0. -1.
       -3    1    3    3    0  502  0.56813856565E+03  0.43504704315E+03  0.71820701277E+03  0.10138385882E+04  0.10100000352E+00 0.  1.
</event>
<event>
 5   0  0.9999162E-06  0.1801698E+04  0.7818609E-02  0.8705397E-01
       -2   -1    0    0    0  501  0.00000000000E+00  0.00000000000E+00  0.52910184152E+03  0.52910184153E+03  0.25500000920E-02 0. -1.
        2   -1    0    0  501    0  0.00000000000E+00  0.00000000000E+00 -0.15337859548E+04  0.15337859548E+04  0.25500000920E-02 0.  1.
    10030    2    1    2    0    0  0.00000000000E+00  0.00000000000E+00 -0.10046841133E+04  0.20628877964E+04  0.18016980582E+04 0.  0.
        1    1    3    3  502    0  0.73622973778E+03  0.27524560579E+03  0.16192515611E+01  0.78600063123E+03  0.50400001928E-02 0.  1.
       -1    1    3    3    0  502 -0.73622973778E+03 -0.27524560579E+03 -0.10063033649E+04  0.12768871651E+04  0.50400001928E-02 0. -1.
</event>
<event>
 5   0  0.1035018E-05  0.1801450E+04  0.7818609E-02  0.8705529E-01
        2   -1    0    0  501    0  0.00000000000E+00  0.00000000000E+00  0.18246357662E+04  0.18246357662E+04  0.25500000920E-02 0. -1.
       -2   -1    0    0    0  501  0.00000000000E+00  0.00000000000E+00 -0.44463989718E+03  0.44463989719E+03  0.25500000920E-02 0.  1.
    10030    2    1    2    0    0  0.00000000000E+00  0.00000000000E+00  0.13799958690E+04  0.22692756634E+04  0.18014503707E+04 0.  0.
        3    1    3    3  502    0  0.50121631205E+03 -0.72472025976E+03  0.45477361158E+03  0.99159280673E+03  0.10100000352E+00 0.  1.
       -3    1    3    3    0  502 -0.50121631205E+03  0.72472025976E+03  0.92522225746E+03  0.12776828567E+04  0.10100000352E+00 0. -1.
</event>
<event>
 5   0  0.9589963E-06  0.1800605E+04  0.7818609E-02  0.8705978E-01
        2   -1    0    0  501    0  0.00000000000E+00  0.00000000000E+00  0.10319985499E+04  0.10319985499E+04  0.25500000920E-02 0. -1.
       -2   -1    0    0    0  501  0.00000000000E+00  0.00000000000E+00 -0.78541248467E+03  0.78541248468E+03  0.25500000920E-02 0.  1.
    10030    2    1    2    0    0  0.00000000000E+00  0.00000000000E+00  0.24658606523E+03  0.18174110346E+04  0.18006049486E+04 0.  0.
        2    1    3    3  502    0 -0.13627826511E+03  0.47095561909E+03 -0.63885313077E+03  0.80529763653E+03  0.25500000920E-02 0.  1.
       -2    1    3    3    0  502  0.13627826511E+03 -0.47095561909E+03  0.88543919601E+03  0.10121133981E+04  0.25500000920E-02 0. -1.
</event>
<event>
 5   0  0.9999162E-06  0.1799048E+04  0.7818609E-02  0.8706806E-01
        2   -1    0    0  501    0  0.00000000000E+00  0.00000000000E+00  0.12344310652E+04  0.12344310652E+04  0.25500000920E-02 0. -1.
       -2   -1    0    0    0  501  0.00000000000E+00  0.00000000000E+00 -0.65547905635E+03  0.65547905636E+03  0.25500000920E-02 0.  1.
    10030    2    1    2    0    0  0.00000000000E+00  0.00000000000E+00  0.57895200883E+03  0.18899101215E+04  0.17990483148E+04 0.  0.
        1    1    3    3  502    0 -0.35741646366E+02 -0.89272709775E+03  0.17977700569E+03  0.91135004699E+03  0.50400001928E-02 0. -1.
       -1    1    3    3    0  502  0.35741646366E+02  0.89272709775E+03  0.39917500314E+03  0.97856007455E+03  0.50400001928E-02 0.  1.
</event>
<event>
 5   0  0.4981384E-06  0.1799642E+04  0.7818609E-02  0.8706490E-01
       -1   -1    0    0    0  501  0.00000000000E+00  0.00000000000E+00  0.77964972572E+03  0.77964972573E+03  0.50400001928E-02 0. -1.
        1   -1    0    0  501    0  0.00000000000E+00  0.00000000000E+00 -0.10385146853E+04  0.10385146853E+04  0.50400001928E-02 0.  1.
    10030    2    1    2    0    0  0.00000000000E+00  0.00000000000E+00 -0.25886495954E+03  0.18181644110E+04  0.17996418416E+04 0.  0.
        5    1    3    3  502    0  0.54082881086E+03 -0.52935794210E+03 -0.62120723574E+03  0.97909966462E+03  0.46999998093E+01 0. -1.
       -5    1    3    3    0  502 -0.54082881086E+03  0.52935794210E+03  0.36234227620E+03  0.83906474639E+03  0.46999998093E+01 0.  1.
</event>
<event>
 5   0  0.4981384E-06  0.1808970E+04  0.7818609E-02  0.8701544E-01
       -1   -1    0    0    0  501  0.00000000000E+00  0.00000000000E+00  0.59862750528E+03  0.59862750530E+03  0.50400001928E-02 0.  1.
        1   -1    0    0  501    0  0.00000000000E+00  0.00000000000E+00 -0.13666141770E+04  0.13666141770E+04  0.50400001928E-02 0. -1.
    10030    2    1    2    0    0  0.00000000000E+00  0.00000000000E+00 -0.76798667175E+03  0.19652416823E+04  0.18089696907E+04 0.  0.
        5    1    3    3  502    0 -0.71624554915E+03 -0.34361410672E+03  0.85788974701E+02  0.79903703243E+03  0.46999998093E+01 0.  1.
       -5    1    3    3    0  502  0.71624554915E+03  0.34361410672E+03 -0.85377564645E+03  0.11662046499E+04  0.46999998093E+01 0. -1.
</event>
<event>
 5   0  0.9589963E-06  0.1800404E+04  0.7818609E-02  0.8706085E-01
        2   -1    0    0  501    0  0.00000000000E+00  0.00000000000E+00  0.22091002453E+04  0.22091002453E+04  0.25500000920E-02 0. -1.
       -2   -1    0    0    0  501  0.00000000000E+00  0.00000000000E+00 -0.36682981313E+03  0.36682981314E+03  0.25500000920E-02 0.  1.
    10030    2    1    2    0    0  0.00000000000E+00  0.00000000000E+00  0.18422704321E+04  0.25759300584E+04  0.18004042104E+04 0.  0.
        2    1    3    3  502    0 -0.26395026915E+02  0.44241546878E+03 -0.19991608226E+03  0.48620426203E+03  0.25500000920E-02 0.  1.
       -2    1    3    3    0  502  0.26395026915E+02 -0.44241546878E+03  0.20421865144E+04  0.20897257964E+04  0.25500000920E-02 0. -1.
</event>
<event>
 5   0  0.4987456E-06  0.1799427E+04  0.7818609E-02  0.8706604E-01
       -1   -1    0    0    0  501  0.00000000000E+00  0.00000000000E+00  0.90302784329E+03  0.90302784331E+03  0.50400001928E-02 0. -1.
        1   -1    0    0  501    0  0.00000000000E+00  0.00000000000E+00 -0.89641150913E+03  0.89641150914E+03  0.50400001928E-02 0.  1.
    10030    2    1    2    0    0  0.00000000000E+00  0.00000000000E+00  0.66163341623E+01  0.17994393525E+04  0.17994271887E+04 0.  0.
        3    1    3    3  502    0  0.28915156153E+03  0.26209449562E+03 -0.80736518042E+03  0.89673892238E+03  0.10100000352E+00 0.  1.
       -3    1    3    3    0  502 -0.28915156153E+03 -0.26209449562E+03  0.81398151458E+03  0.90270043007E+03  0.10100000352E+00 0. -1.
</event>
<event>
 5   0  0.4981384E-06  0.1799735E+04  0.7818609E-02  0.8706440E-01
        1   -1    0    0  501    0  0.00000000000E+00  0.00000000000E+00  0.19949892044E+04  0.19949892044E+04  0.50400001928E-02 0. -1.
       -1   -1    0    0    0  501  0.00000000000E+00  0.00000000000E+00 -0.40589778289E+03  0.40589778292E+03  0.50400001928E-02 0.  1.
    10030    2    1    2    0    0  0.00000000000E+00  0.00000000000E+00  0.15890914215E+04  0.24008869873E+04  0.17997351972E+04 0.  0.
        5    1    3    3  502    0 -0.61295307507E+03  0.21640784181E+03 -0.35550467842E+02  0.65102208257E+03  0.46999998093E+01 0.  1.
       -5    1    3    3    0  502  0.61295307507E+03 -0.21640784181E+03  0.16246418893E+04  0.17498649047E+04  0.46999998093E+01 0. -1.
</event>
<event>
 5   0  0.3626125E-06  0.1799996E+04  0.7818609E-02  0.8706302E-01
        4   -1    0    0  501    0  0.00000000000E+00  0.00000000000E+00  0.96228605548E+03  0.96228689353E+03  0.12699999809E+01 0.  1.
       -4   -1    0    0    0  501  0.00000000000E+00  0.00000000000E+00 -0.84174012805E+03  0.84174108612E+03  0.12699999809E+01 0. -1.
    10030    2    1    2    0    0  0.00000000000E+00  0.00000000000E+00  0.12054592743E+03  0.18040279797E+04  0.17999960085E+04 0.  0.
        4    1    3    3  502    0  0.18908719652E+03  0.87634022362E+03  0.13962505369E+03  0.90731633069E+03  0.12699999809E+01 0. -1.
       -4    1    3    3    0  502 -0.18908719652E+03 -0.87634022362E+03 -0.19079126253E+02  0.89671164896E+03  0.12699999809E+01 0.  1.
</event>
<event>
 5   0  0.1035018E-05  0.1800134E+04  0.7818609E-02  0.8706228E-01
        2   -1    0    0  501    0  0.00000000000E+00  0.00000000000E+00  0.20274674106E+04  0.20274674106E+04  0.25500000920E-02 0.  1.
       -2   -1    0    0    0  501  0.00000000000E+00  0.00000000000E+00 -0.39957265316E+03  0.39957265317E+03  0.25500000920E-02 0. -1.
    10030    2    1    2    0    0  0.00000000000E+00  0.00000000000E+00  0.16278947574E+04  0.24270400637E+04  0.18001339200E+04 0.  0.
        3    1    3    3  502    0 -0.69060197039E+03  0.21686488260E+03  0.92713891731E+02  0.72976526002E+03  0.10100000352E+00 0. -1.
       -3    1    3    3    0  502  0.69060197039E+03 -0.21686488260E+03  0.15351808657E+04  0.16972748037E+04  0.10100000352E+00 0.  1.
</event>
<event>
 5   0  0.4981384E-06  0.1801410E+04  0.7818609E-02  0.8705550E-01
       -1   -1    0    0    0  501  0.00000000000E+00  0.00000000000E+00  0.75128717957E+03  0.75128717959E+03  0.50400001928E-02 0. -1.
        1   -1    0    0  501    0  0.00000000000E+00  0.00000000000E+00 -0.10798393189E+04  0.10798393189E+04  0.50400001928E-02 0.  1.
    10030    2    1    2    0    0  0.00000000000E+00  0.00000000000E+00 -0.32855213931E+03  0.18311264985E+04  0.18014099326E+04 0.  0.
        5    1    3    3  502    0 -0.38432811284E+03  0.39876429152E+03 -0.88629352015E+03  0.10451121243E+04  0.46999998093E+01 0.  1.
       -5    1    3    3    0  502  0.38432811284E+03 -0.39876429152E+03  0.55774138084E+03  0.78601437417E+03  0.46999998093E+01 0. -1.
</event>
<event>
 5   0  0.9589963E-06  0.1801400E+04  0.7818609E-02  0.8705555E-01
       -2   -1    0    0    0  501  0.00000000000E+00  0.00000000000E+00  0.98880386696E+03  0.98880386696E+03  0.25500000920E-02 0. -1.
        2   -1    0    0  501    0  0.00000000000E+00  0.00000000000E+00 -0.82044601411E+03  0.82044601411E+03  0.25500000920E-02 0.  1.
    10030    2    1    2    0    0  0.00000000000E+00  0.00000000000E+00  0.16835785285E+03  0.18092498811E+04  0.18013996685E+04 0.  0.
        2    1    3    3  502    0 -0.35072573009E+03 -0.76390534004E+03 -0.24080539281E+03  0.87438386507E+03  0.25500000920E-02 0.  1.
       -2    1    3    3    0  502  0.35072573009E+03  0.76390534004E+03  0.40916324566E+03  0.93486601601E+03  0.25500000920E-02 0. -1.
</event>
<event>
 5   0  0.4994123E-06  0.1799449E+04  0.7818609E-02  0.8706593E-01
       -1   -1    0    0    0  501  0.00000000000E+00  0.00000000000E+00  0.77506879003E+03  0.77506879005E+03  0.50400001928E-02 0. -1.
        1   -1    0    0  501    0  0.00000000000E+00  0.00000000000E+00 -0.10444286799E+04  0.10444286799E+04  0.50400001928E-02 0.  1.
    10030    2    1    2    0    0  0.00000000000E+00  0.00000000000E+00 -0.26935988983E+03  0.18194974699E+04  0.17994488859E+04 0.  0.
        1    1    3    3  502    0  0.61318371680E+03  0.10423146260E+03  0.52267528072E+03  0.81243333108E+03  0.50400001928E-02 0. -1.
       -1    1    3    3    0  502 -0.61318371680E+03 -0.10423146260E+03 -0.79203517056E+03  0.10070641389E+04  0.50400001928E-02 0.  1.
</event>
<event>
 5   0  0.3626125E-06  0.1800386E+04  0.7818609E-02  0.8706094E-01
        3   -1    0    0  501    0  0.00000000000E+00  0.00000000000E+00  0.11306585265E+04  0.11306585310E+04  0.10100000352E+00 0.  1.
       -3   -1    0    0    0  501  0.00000000000E+00  0.00000000000E+00 -0.71670391565E+03  0.71670392277E+03  0.10100000352E+00 0. -1.
    10030    2    1    2    0    0  0.00000000000E+00  0.00000000000E+00  0.41395461081E+03  0.18473624537E+04  0.18003859630E+04 0.  0.
        5    1    3    3  502    0  0.31562672142E+03  0.65450639897E+03  0.75218538866E+03  0.10458507554E+04  0.46999998093E+01 0.  1.
       -5    1    3    3    0  502 -0.31562672142E+03 -0.65450639897E+03 -0.33823077785E+03  0.80151169839E+03  0.46999998093E+01 0. -1.
</event>
<event>
 5   0  0.1035018E-05  0.1799298E+04  0.7818609E-02  0.8706673E-01
        2   -1    0    0  501    0  0.00000000000E+00  0.00000000000E+00  0.80204638264E+03  0.80204638265E+03  0.25500000920E-02 0. -1.
       -2   -1    0    0    0  501  0.00000000000E+00  0.00000000000E+00 -0.10091290568E+04  0.10091290568E+04  0.25500000920E-02 0.  1.
    10030    2    1    2    0    0  0.00000000000E+00  0.00000000000E+00 -0.20708267420E+03  0.18111754395E+04  0.17992979850E+04 0.  0.
        3    1    3    3  502    0  0.14461379019E+03  0.55880357043E+03  0.59108182214E+03  0.82616724051E+03  0.10100000352E+00 0. -1.
       -3    1    3    3    0  502 -0.14461379019E+03 -0.55880357043E+03 -0.79816449633E+03  0.98500819897E+03  0.10100000352E+00 0.  1.
</event>
<event>
 5   0  0.4953155E-06  0.1800229E+04  0.7818609E-02  0.8706178E-01
        1   -1    0    0  501    0  0.00000000000E+00  0.00000000000E+00  0.10806564516E+04  0.10806564516E+04  0.50400001928E-02 0.  1.
       -1   -1    0    0    0  501  0.00000000000E+00  0.00000000000E+00 -0.74973489033E+03  0.74973489034E+03  0.50400001928E-02 0. -1.
    10030    2    1    2    0    0  0.00000000000E+00  0.00000000000E+00  0.33092156126E+03  0.18303913419E+04  0.18002287035E+04 0.  0.
        2    1    3    3  502    0  0.43716001826E+03 -0.78379273520E+03  0.95268505157E+02  0.90250541351E+03  0.25500000920E-02 0. -1.
       -2    1    3    3    0  502 -0.43716001826E+03  0.78379273520E+03  0.23565305610E+03  0.92788592843E+03  0.25500000920E-02 0.  1.
</event>
<event>
 5   0  0.4987456E-06  0.1800187E+04  0.7818609E-02  0.8706200E-01
       -1   -1    0    0    0  501  0.00000000000E+00  0.00000000000E+00  0.77249855172E+03  0.77249855173E+03  0.50400001928E-02 0. -1.
        1   -1    0    0  501    0  0.00000000000E+00  0.00000000000E+00 -0.10487638524E+04  0.10487638524E+04  0.50400001928E-02 0.  1.
    10030    2    1    2    0    0  0.00000000000E+00  0.00000000000E+00 -0.27626530065E+03  0.18212624041E+04  0.18001872759E+04 0.  0.
        3    1    3    3  502    0  0.64518159765E+02  0.66932830301E+03  0.46720784927E+03  0.81880776424E+03  0.10100000352E+00 0. -1.
       -3    1    3    3    0  502 -0.64518159765E+02 -0.66932830301E+03 -0.74347314992E+03  0.10024546399E+04  0.10100000352E+00 0.  1.
</event>
<event>
 5   0  0.4981384E-06  0.1800184E+04  0.7818609E-02  0.8706202E-01
       -1   -1    0    0    0  501  0.00000000000E+00  0.00000000000E+00  0.68376411169E+03  0.68376411171E+03  0.50400001928E-02 0.  1.
        1   -1    0    0  501    0  0.00000000000E+00  0.00000000000E+00 -0.11848607742E+04  0.11848607742E+04  0.50400001928E-02 0. -1.
    10030    2    1    2    0    0  0.00000000000E+00  0.00000000000E+00 -0.50109666247E+03  0.18686248859E+04  0.18001836292E+04 0.  0.
        5    1    3    3  502    0 -0.86253953939E+03  0.15618782175E+03 -0.38390615749E+02  0.87741952454E+03  0.46999998093E+01 0. -1.
       -5    1    3    3    0  502  0.86253953939E+03 -0.15618782175E+03 -0.46270604672E+03  0.99120536134E+03  0.46999998093E+01 0.  1.
</event>
<event>
 5   0  0.4953155E-06  0.1800393E+04  0.7818609E-02  0.8706090E-01
       -1   -1    0    0    0  501  0.00000000000E+00  0.00000000000E+00  0.75187369877E+03  0.75187369878E+03  0.50400001928E-02 0. -1.
        1   -1    0    0  501    0  0.00000000000E+00  0.00000000000E+00 -0.10777793427E+04  0.10777793428E+04  0.50400001928E-02 0.  1.
    10030    2    1    2    0    0  0.00000000000E+00  0.00000000000E+00 -0.32590564398E+03  0.18296530415E+04  0.18003932247E+04 0.  0.
        2    1    3    3  502    0  0.79082276083E+02 -0.17452124898E+02 -0.10740697568E+04  0.10771185754E+04  0.25500000920E-02 0.  1.
       -2    1    3    3    0  502 -0.79082276083E+02  0.17452124898E+02  0.74816411279E+03  0.75253446614E+03  0.25500000920E-02 0. -1.
</event>
<event>
 5   0  0.1036381E-05  0.1799401E+04  0.7818609E-02  0.8706618E-01
       -2   -1    0    0    0  501  0.00000000000E+00  0.00000000000E+00  0.48801529212E+03  0.48801529213E+03  0.25500000920E-02 0. -1.
        2   -1    0    0  501    0  0.00000000000E+00  0.00000000000E+00 -0.16586798348E+04  0.16586798348E+04  0.25500000920E-02 0.  1.
    10030    2    1    2    0    0  0.00000000000E+00  0.00000000000E+00 -0.11706645427E+04  0.21466951270E+04  0.17994011494E+04 0.  0.
        4    1    3    3  502    0  0.77538044995E+03 -0.53745736744E+02 -0.11259572948E+04  0.13681684432E+04  0.12699999809E+01 0.  1.
       -4    1    3    3    0  502 -0.77538044995E+03  0.53745736744E+02 -0.44707247902E+02  0.77852668374E+03  0.12699999809E+01 0. -1.
</event>
<event>
 5   0  0.4983159E-06  0.1799310E+04  0.7818609E-02  0.8706666E-01
       -1   -1    0    0    0  501  0.00000000000E+00  0.00000000000E+00  0.47333410645E+03  0.47333410648E+03  0.50400001928E-02 0.  1.
        1   -1    0    0  501    0  0.00000000000E+00  0.00000000000E+00 -0.17099532563E+04  0.17099532563E+04  0.50400001928E-02 0. -1.
    10030    2    1    2    0    0  0.00000000000E+00  0.00000000000E+00 -0.12366191499E+04  0.21832873628E+04  0.17993100863E+04 0.  0.
        4    1    3    3  502    0 -0.31162813927E+03 -0.83802533253E+03 -0.73952252495E+03  0.11602989843E+04  0.12699999809E+01 0.  1.
       -4    1    3    3    0  502  0.31162813927E+03  0.83802533253E+03 -0.49709662492E+03  0.10229883785E+04  0.12699999809E+01 0. -1.
</event>
<event>
 5   0  0.4981384E-06  0.1800237E+04  0.7818609E-02  0.8706174E-01
        1   -1    0    0  501    0  0.00000000000E+00  0.00000000000E+00  0.10748356726E+04  0.10748356726E+04  0.50400001928E-02 0.  1.
       -1   -1    0    0    0  501  0.00000000000E+00  0.00000000000E+00 -0.75380179953E+03  0.75380179954E+03  0.50400001928E-02 0. -1.
    10030    2    1    2    0    0  0.00000000000E+00  0.00000000000E+00  0.32103387310E+03  0.18286374722E+04  0.18002367225E+04 0.  0.
        5    1    3    3  502    0 -0.17016137803E+02 -0.29875564702E+03  0.10228184254E+04  0.10657035737E+04  0.46999998093E+01 0.  1.
       -5    1    3    3    0  502  0.17016137803E+02  0.29875564702E+03 -0.70178455234E+03  0.76293389849E+03  0.46999998093E+01 0. -1.
</event>
<event>
 5   0  0.4953155E-06  0.1799913E+04  0.7818609E-02  0.8706346E-01
        1   -1    0    0  501    0  0.00000000000E+00  0.00000000000E+00  0.90734676536E+03  0.90734676537E+03  0.50400001928E-02 0. -1.
       -1   -1    0    0    0  501  0.00000000000E+00  0.00000000000E+00 -0.89262643287E+03  0.89262643288E+03  0.50400001928E-02 0.  1.
    10030    2    1    2    0    0  0.00000000000E+00  0.00000000000E+00  0.14720332486E+02  0.17999731983E+04  0.17999130052E+04 0.  0.
        2    1    3    3  502    0 -0.22063849057E+03  0.32724354451E+03  0.81618386701E+03  0.90660122751E+03  0.25500000920E-02 0. -1.
       -2    1    3    3    0  502  0.22063849057E+03 -0.32724354451E+03 -0.80146353452E+03  0.89337197075E+03  0.25500000920E-02 0.  1.
</event>
<event>
 5   0  0.9999162E-06  0.1799894E+04  0.7818609E-02  0.8706356E-01
       -2   -1    0    0    0  501  0.00000000000E+00  0.00000000000E+00  0.98724121589E+03  0.98724121589E+03  0.25500000920E-02 0.  1.
        2   -1    0    0  501    0  0.00000000000E+00  0.00000000000E+00 -0.82037185305E+03  0.82037185305E+03  0.25500000920E-02 0. -1.
    10030    2    1    2    0    0  0.00000000000E+00  0.00000000000E+00  0.16686936284E+03  0.18076130689E+04  0.17998943365E+04 0.  0.
        1    1    3    3  502    0  0.70329285412E+02  0.27455795284E+03 -0.77438087635E+03  0.82461749893E+03  0.50400001928E-02 0. -1.
       -1    1    3    3    0  502 -0.70329285412E+02 -0.27455795284E+03  0.94125023919E+03  0.98299557001E+03  0.50400001928E-02 0.  1.
</event>
<event>
 5   0  0.1035018E-05  0.1799411E+04  0.7818609E-02  0.8706613E-01
        2   -1    0    0  501    0  0.00000000000E+00  0.00000000000E+00  0.18573049743E+04  0.18573049743E+04  0.25500000920E-02 0.  1.
       -2   -1    0    0    0  501  0.00000000000E+00  0.00000000000E+00 -0.43583021604E+03  0.43583021604E+03  0.25500000920E-02 0. -1.
    10030    2    1    2    0    0  0.00000000000E+00  0.00000000000E+00  0.14214747582E+04  0.22931351903E+04  0.17994106015E+04 0.  0.
        3    1    3    3  502    0 -0.59136883217E+03 -0.51891079284E+03  0.15454022508E+03  0.80179061977E+03  0.10100000352E+00 0. -1.
       -3    1    3    3    0  502  0.59136883217E+03  0.51891079284E+03  0.12669345331E+04  0.14913445705E+04  0.10100000352E+00 0.  1.
</event>
<event>
 5   0  0.1035018E-05  0.1800866E+04  0.7818609E-02  0.8705839E-01
        2   -1    0    0  501    0  0.00000000000E+00  0.00000000000E+00  0.12114617019E+04  0.12114617019E+04  0.25500000920E-02 0.  1.
       -2   -1    0    0    0  501  0.00000000000E+00  0.00000000000E+00 -0.66925702921E+03  0.66925702922E+03  0.25500000920E-02 0. -1.
    10030    2    1    2    0    0  0.00000000000E+00  0.00000000000E+00  0.54220467266E+03  0.18807187311E+04  0.18008656359E+04 0.  0.
        3    1    3    3  502    0  0.58849530686E+03  0.68150705653E+03  0.27025706121E+03  0.94011567567E+03  0.10100000352E+00 0.  1.
       -3    1    3    3    0  502 -0.58849530686E+03 -0.68150705653E+03  0.27194761145E+03  0.94060305543E+03  0.10100000352E+00 0. -1.
</event>
<event>
 5   0  0.4983159E-06  0.1802174E+04  0.7818609E-02  0.8705144E-01
        1   -1    0    0  501    0  0.00000000000E+00  0.00000000000E+00  0.11994875996E+04  0.11994875996E+04  0.50400001928E-02 0.  1.
       -1   -1    0    0    0  501  0.00000000000E+00  0.00000000000E+00 -0.67692028221E+03  0.67692028223E+03  0.50400001928E-02 0. -1.
    10030    2    1    2    0    0  0.00000000000E+00  0.00000000000E+00  0.52256731741E+03  0.18764078819E+04  0.18021736703E+04 0.  0.
        4    1    3    3  502    0  0.57653461192E+03 -0.41712559332E+03 -0.31427014884E+03  0.77791597149E+03  0.12699999809E+01 0. -1.
       -4    1    3    3    0  502 -0.57653461192E+03  0.41712559332E+03  0.83683746625E+03  0.10984919104E+04  0.12699999809E+01 0.  1.
</event>
<event>
 5   0  0.9999162E-06  0.1799638E+04  0.7818609E-02  0.8706492E-01
       -2   -1    0    0    0  501  0.00000000000E+00  0.00000000000E+00  0.93560986242E+03  0.93560986242E+03  0.25500000920E-02 0.  1.
        2   -1    0    0  501    0  0.00000000000E+00  0.00000000000E+00 -0.86539716046E+03  0.86539716046E+03  0.25500000920E-02 0. -1.
    10030    2    1    2    0    0  0.00000000000E+00  0.00000000000E+00  0.70212701961E+02  0.18010070229E+04  0.17996378727E+04 0.  0.
        1    1    3    3  502    0 -0.25665574208E+03  0.41635569695E+03  0.79096228931E+03  0.92997074119E+03  0.50400001928E-02 0.  1.
       -1    1    3    3    0  502  0.25665574208E+03 -0.41635569695E+03 -0.72074958735E+03  0.87103628169E+03  0.50400001928E-02 0. -1.
</event>
<event>
 5   0  0.4953155E-06  0.1800626E+04  0.7818609E-02  0.8705967E-01
       -1   -1    0    0    0  501  0.00000000000E+00  0.00000000000E+00  0.66600650117E+03  0.66600650119E+03  0.50400001928E-02 0.  1.
        1   -1    0    0  501    0  0.00000000000E+00  0.00000000000E+00 -0.12170504125E+04  0.12170504125E+04  0.50400001928E-02 0. -1.
    10030    2    1    2    0    0  0.00000000000E+00  0.00000000000E+00 -0.55104391133E+03  0.18830569137E+04  0.18006259878E+04 0.  0.
        2    1    3    3  502    0  0.48587824700E+03  0.24481376593E+03  0.47463921895E+03  0.72200681373E+03  0.25500000920E-02 0.  1.
       -2    1    3    3    0  502 -0.48587824700E+03 -0.24481376593E+03 -0.10256831303E+04  0.11610501000E+04  0.25500000920E-02 0. -1.
</event>
<event>
 5   0  0.4994123E-06  0.1802534E+04  0.7818609E-02  0.8704953E-01
        1   -1    0    0  501    0  0.00000000000E+00  0.00000000000E+00  0.12232839383E+04  0.12232839383E+04  0.50400001928E-02 0. -1.
       -1   -1    0    0    0  501  0.00000000000E+00  0.00000000000E+00 -0.66401802367E+03  0.66401802369E+03  0.50400001928E-02 0.  1.
    10030    2    1    2    0    0  0.00000000000E+00  0.00000000000E+00  0.55926591466E+03  0.18873019620E+04  0.18025344193E+04 0.  0.
        1    1    3    3  502    0 -0.68823742703E+03 -0.11198625941E+01 -0.32963464117E+03  0.76310615693E+03  0.50400001928E-02 0.  1.
       -1    1    3    3    0  502  0.68823742703E+03  0.11198625941E+01  0.88890055583E+03  0.11241958051E+04  0.50400001928E-02 0. -1.
</event>
<event>
 5   0  0.4981384E-06  0.1799932E+04  0.7818609E-02  0.8706335E-01
       -1   -1    0    0    0  501  0.00000000000E+00  0.00000000000E+00  0.39040376032E+03  0.39040376035E+03  0.50400001928E-02 0.  1.
        1   -1    0    0  501    0  0.00000000000E+00  0.00000000000E+00 -0.20746190624E+04  0.20746190624E+04  0.50400001928E-02 0. -1.
    10030    2    1    2    0    0  0.00000000000E+00  0.00000000000E+00 -0.16842153021E+04  0.24650228227E+04  0.17999323134E+04 0.  0.
        5    1    3    3  502    0  0.58078578759E+03  0.10672158650E+03 -0.17721798318E+04  0.18679788741E+04  0.46999998093E+01 0. -1.
       -5    1    3    3    0  502 -0.58078578759E+03 -0.10672158650E+03  0.87964529695E+02  0.59704394861E+03  0.46999998093E+01 0.  1.
</event>
<event>
 5   0  0.9589963E-06  0.1801682E+04  0.7818609E-02  0.8705406E-01
        2   -1    0    0  501    0  0.00000000000E+00  0.00000000000E+00  0.64487668371E+03  0.64487668371E+03  0.25500000920E-02 0.  1.
       -2   -1    0    0    0  501  0.00000000000E+00  0.00000000000E+00 -0.12584020837E+04  0.12584020837E+04  0.25500000920E-02 0. -1.
    10030    2    1    2    0    0  0.00000000000E+00  0.00000000000E+00 -0.61352540002E+03  0.19032787674E+04  0.18016816173E+04 0.  0.
        2    1    3    3  502    0  0.32536065915E+03 -0.80581851406E+03 -0.56081674513E+02  0.87083189557E+03  0.25500000920E-02 0.  1.
       -2    1    3    3    0  502 -0.32536065915E+03  0.80581851406E+03 -0.55744372551E+03  0.10324468719E+04  0.25500000920E-02 0. -1.
</event>
<event>
 5   0  0.9999162E-06  0.1797341E+04  0.7818609E-02  0.8707715E-01
       -2   -1    0    0    0  501  0.00000000000E+00  0.00000000000E+00  0.41597160723E+03  0.41597160724E+03  0.25500000920E-02 0.  1.
        2   -1    0    0  501    0  0.00000000000E+00  0.00000000000E+00 -0.19414984786E+04  0.19414984786E+04  0.25500000920E-02 0. -1.
    10030    2    1    2    0    0  0.00000000000E+00  0.00000000000E+00 -0.15255268714E+04  0.23574700859E+04  0.17973405271E+04 0.  0.
        1    1    3    3  502    0 -0.47467866042E+03  0.76307766551E+03 -0.76399966570E+03  0.11795350116E+04  0.50400001928E-02 0. -1.
       -1    1    3    3    0  502  0.47467866042E+03 -0.76307766551E+03 -0.76152720568E+03  0.11779350743E+04  0.50400001928E-02 0.  1.
</event>
<event>
 5   0  0.1000316E-05  0.1799704E+04  0.7818609E-02  0.8706457E-01
       -2   -1    0    0    0  501  0.00000000000E+00  0.00000000000E+00  0.31339861251E+03  0.31339861252E+03  0.25500000920E-02 0. -1.
        2   -1    0    0  501    0  0.00000000000E+00  0.00000000000E+00 -0.25837177248E+04  0.25837177248E+04  0.25500000920E-02 0.  1.
    10030    2    1    2    0    0  0.00000000000E+00  0.00000000000E+00 -0.22703191122E+04  0.28971163373E+04  0.17997039202E+04 0.  0.
        5    1    3    3  502    0  0.94410141811E+02  0.19193612305E+03  0.27185897016E+03  0.34595106570E+03  0.46999998093E+01 0. -1.
       -5    1    3    3    0  502 -0.94410141811E+02 -0.19193612305E+03 -0.25421780824E+04  0.25511652716E+04  0.46999998093E+01 0.  1.
</event>
<event>
 5   0  0.3626125E-06  0.1800181E+04  0.7818609E-02  0.8706203E-01
        3   -1    0    0  501    0  0.00000000000E+00  0.00000000000E+00  0.79253873887E+03  0.79253874530E+03  0.10100000352E+00 0.  1.
       -3   -1    0    0    0  501  0.00000000000E+00  0.00000000000E+00 -0.10222376773E+04  0.10222376823E+04  0.10100000352E+00 0. -1.
    10030    2    1    2    0    0  0.00000000000E+00  0.00000000000E+00 -0.22969893841E+03  0.18147764276E+04  0.18001810686E+04 0.  0.
        3    1    3    3  502    0 -0.25111373586E+03 -0.70226368740E+02  0.75362998056E+03  0.79746348443E+03  0.10100000352E+00 0.  1.
       -3    1    3    3    0  502  0.25111373586E+03  0.70226368740E+02 -0.98332891897E+03  0.10173129431E+04  0.10100000352E+00 0. -1.
</event>
<event>
 5   0  0.3626125E-06  0.1790695E+04  0.7818609E-02  0.8711263E-01
       -4   -1    0    0    0  501  0.00000000000E+00  0.00000000000E+00  0.11557512800E+04  0.11557519778E+04  0.12699999809E+01 0. -1.
        4   -1    0    0  501    0  0.00000000000E+00  0.00000000000E+00 -0.69361432040E+03  0.69361548307E+03  0.12699999809E+01 0.  1.
    10030    2    1    2    0    0  0.00000000000E+00  0.00000000000E+00  0.46213695959E+03  0.18493674608E+04  0.17906952381E+04 0.  0.
        5    1    3    3  502    0  0.52471065366E+03  0.24398471439E+03 -0.47452659428E+03  0.74836314019E+03  0.46999998093E+01 0.  1.
       -5    1    3    3    0  502 -0.52471065366E+03 -0.24398471439E+03  0.93666355387E+03  0.11010043206E+04  0.46999998093E+01 0. -1.
</event>
<event>
 5   0  0.1036381E-05  0.1800402E+04  0.7818609E-02  0.8706086E-01
       -2   -1    0    0    0  501  0.00000000000E+00  0.00000000000E+00  0.44362504065E+03  0.44362504066E+03  0.25500000920E-02 0.  1.
        2   -1    0    0  501    0  0.00000000000E+00  0.00000000000E+00 -0.18266812274E+04  0.18266812274E+04  0.25500000920E-02 0. -1.
    10030    2    1    2    0    0  0.00000000000E+00  0.00000000000E+00 -0.13830561868E+04  0.22703062681E+04  0.18004016594E+04 0.  0.
        4    1    3    3  502    0  0.39790650268E+03  0.58660995593E+03 -0.13912627027E+04  0.15614270223E+04  0.12699999809E+01 0. -1.
       -4    1    3    3    0  502 -0.39790650268E+03 -0.58660995593E+03  0.82065159033E+01  0.70887924577E+03  0.12699999809E+01 0.  1.
</event>
<event>
 5   0  0.9999162E-06  0.1800375E+04  0.7818609E-02  0.8706100E-01
        2   -1    0    0  501    0  0.00000000000E+00  0.00000000000E+00  0.10339196759E+04  0.10339196759E+04  0.25500000920E-02 0. -1.
       -2   -1    0    0    0  501  0.00000000000E+00  0.00000000000E+00 -0.78375327429E+03  0.78375327429E+03  0.25500000920E-02 0.  1.
    10030    2    1    2    0    0  0.00000000000E+00  0.00000000000E+00  0.25016640158E+03  0.18176729502E+04  0.18003754401E+04 0.  0.
        1    1    3    3  502    0 -0.66170057660E+03  0.60662062595E+03  0.57343906423E+02  0.89951351326E+03  0.50400001928E-02 0.  1.
       -1    1    3    3    0  502  0.66170057660E+03 -0.60662062595E+03  0.19282249515E+03  0.91815943690E+03  0.50400001928E-02 0. -1.
</event>
<event>
 5   0  0.4994123E-06  0.1799604E+04  0.7818609E-02  0.8706510E-01
        1   -1    0    0  501    0  0.00000000000E+00  0.00000000000E+00  0.59772901084E+03  0.59772901086E+03  0.50400001928E-02 0.  1.
       -1   -1    0    0    0  501  0.00000000000E+00  0.00000000000E+00 -0.13545329127E+04  0.13545329127E+04  0.50400001928E-02 0. -1.
    10030    2    1    2    0    0  0.00000000000E+00  0.00000000000E+00 -0.75680390187E+03  0.19522619236E+04  0.17996039765E+04 0.  0.
        1    1    3    3  502    0 -0.80588727265E+02  0.44921606005E+03 -0.12196542115E+04  0.13022465232E+04  0.50400001928E-02 0. -1.
       -1    1    3    3    0  502  0.80588727265E+02 -0.44921606005E+03  0.46285030963E+03  0.65001540037E+03  0.50400001928E-02 0.  1.
</event>
<event>
 5   0  0.4981384E-06  0.1799996E+04  0.7818609E-02  0.8706301E-01
       -1   -1    0    0    0  501  0.00000000000E+00  0.00000000000E+00  0.44550115332E+03  0.44550115334E+03  0.50400001928E-02 0.  1.
        1   -1    0    0  501    0  0.00000000000E+00  0.00000000000E+00 -0.18181695138E+04  0.18181695138E+04  0.50400001928E-02 0. -1.
    10030    2    1    2    0    0  0.00000000000E+00  0.00000000000E+00 -0.13726683605E+04  0.22636706672E+04  0.17999962393E+04 0.  0.
        5    1    3    3  502    0  0.66688485943E+03 -0.40006283254E+03 -0.12559978369E+04  0.14772739563E+04  0.46999998093E+01 0. -1.
       -5    1    3    3    0  502 -0.66688485943E+03  0.40006283254E+03 -0.11667052356E+03  0.78639671081E+03  0.46999998093E+01 0.  1.
</event>
<event>
 5   0  0.1000316E-05  0.1799840E+04  0.7818609E-02  0.8706384E-01
        2   -1    0    0  501    0  0.00000000000E+00  0.00000000000E+00  0.71536597700E+03  0.71536597700E+03  0.25500000920E-02 0.  1.
       -2   -1    0    0    0  501  0.00000000000E+00  0.00000000000E+00 -0.11320868013E+04  0.11320868013E+04  0.25500000920E-02 0. -1.
    10030    2    1    2    0    0  0.00000000000E+00  0.00000000000E+00 -0.41672082434E+03  0.18474527783E+04  0.17998404159E+04 0.  0.
        5    1    3    3  502    0 -0.24380741245E+03  0.72659425613E+03 -0.69248651902E+03  0.10329283307E+04  0.46999998093E+01 0. -1.
       -5    1    3    3    0  502  0.24380741245E+03 -0.72659425613E+03  0.27576569468E+03  0.81452444761E+03  0.46999998093E+01 0.  1.
</event>
<event>
 5   0  0.1000316E-05  0.1799493E+04  0.7818609E-02  0.8706569E-01
       -2   -1    0    0    0  501  0.00000000000E+00  0.00000000000E+00  0.84298142070E+03  0.84298142070E+03  0.25500000920E-02 0. -1.
        2   -1    0    0  501    0  0.00000000000E+00  0.00000000000E+00 -0.96033352868E+03  0.96033352868E+03  0.25500000920E-02 0.  1.
    10030    2    1    2    0    0  0.00000000000E+00  0.00000000000E+00 -0.11735210798E+03  0.18033149494E+04  0.17994925089E+04 0.  0.
        5    1    3    3  502    0  0.11877450937E+03  0.89005283528E+03 -0.11553985666E+03  0.90535793041E+03  0.46999998093E+01 0.  1.
       -5    1    3    3    0  502 -0.11877450937E+03 -0.89005283528E+03 -0.18122513207E+01  0.89795701898E+03  0.46999998093E+01 0. -1.
</event>
<event>
 5   0  0.1000316E-05  0.1800443E+04  0.7818609E-02  0.8706064E-01
       -2   -1    0    0    0  501  0.00000000000E+00  0.00000000000E+00  0.69247271592E+03  0.69247271592E+03  0.25500000920E-02 0. -1.
        2   -1    0    0  501    0  0.00000000000E+00  0.00000000000E+00 -0.11702972934E+04  0.11702972934E+04  0.25500000920E-02 0.  1.
    10030    2    1    2    0    0  0.00000000000E+00  0.00000000000E+00 -0.47782457747E+03  0.18627700093E+04  0.18004432179E+04 0.  0.
        5    1    3    3  502    0 -0.69838219965E+03 -0.24893060975E+03 -0.76714779703E+03  0.10668842382E+04  0.46999998093E+01 0.  1.
       -5    1    3    3    0  502  0.69838219965E+03  0.24893060975E+03  0.28932321956E+03  0.79588577110E+03  0.46999998093E+01 0. -1.
</event>
<event>
 5   0  0.1036381E-05  0.1799852E+04  0.7818609E-02  0.8706378E-01
       -2   -1    0    0    0  501  0.00000000000E+00  0.00000000000E+00  0.51108711133E+03  0.51108711133E+03  0.25500000920E-02 0. -1.
        2   -1    0    0  501    0  0.00000000000E+00  0.00000000000E+00 -0.15845971248E+04  0.15845971248E+04  0.25500000920E-02 0.  1.
    10030    2    1    2    0    0  0.00000000000E+00  0.00000000000E+00 -0.10735100134E+04  0.20956842361E+04  0.17998524019E+04 0.  0.
        4    1    3    3  502    0 -0.88845089775E+02 -0.78987607495E+03 -0.45415413968E+02  0.79615440492E+03  0.12699999809E+01 0. -1.
       -4    1    3    3    0  502  0.88845089775E+02  0.78987607495E+03 -0.10280945995E+04  0.12995298312E+04  0.12699999809E+01 0.  1.
</event>
<event>
 5   0  0.1036381E-05  0.1799719E+04  0.7818609E-02  0.8706449E-01
        2   -1    0    0  501    0  0.00000000000E+00  0.00000000000E+00  0.30920966064E+04  0.30920966064E+04  0.25500000920E-02 0.  1.
       -2   -1    0    0    0  501  0.00000000000E+00  0.00000000000E+00 -0.26187630235E+03  0.26187630236E+03  0.25500000920E-02 0. -1.
    10030    2    1    2    0    0  0.00000000000E+00  0.00000000000E+00  0.28302203040E+04  0.33539729087E+04  0.17997186733E+04 0.  0.
        4    1    3    3  502    0  0.85845683461E+03  0.18604178288E+03  0.10509400022E+04  0.13696847020E+04  0.12699999809E+01 0.  1.
       -4    1    3    3    0  502 -0.85845683461E+03 -0.18604178288E+03  0.17792803018E+04  0.19842882067E+04  0.12699999809E+01 0. -1.
</event>
<event>
 5   0  0.4981384E-06  0.1799036E+04  0.7818609E-02  0.8706812E-01
       -1   -1    0    0    0  501  0.00000000000E+00  0.00000000000E+00  0.13375783690E+04  0.13375783690E+04  0.50400001928E-02 0. -1.
        1   -1    0    0  501    0  0.00000000000E+00  0.00000000000E+00 -0.60492346189E+03  0.60492346192E+03  0.50400001928E-02 0.  1.
    10030    2    1    2    0    0  0.00000000000E+00  0.00000000000E+00  0.73265490711E+03  0.19425018309E+04  0.17990358947E+04 0.  0.
        5    1    3    3  502    0  0.60494483358E+03 -0.85107311566E+02 -0.34655757972E+03  0.70237152008E+03  0.46999998093E+01 0.  1.
       -5    1    3    3    0  502 -0.60494483358E+03  0.85107311566E+02  0.10792124868E+04  0.12401303108E+04  0.46999998093E+01 0. -1.
</event>
<event>
 5   0  0.1035018E-05  0.1790461E+04  0.7818609E-02  0.8711389E-01
        2   -1    0    0  501    0  0.00000000000E+00  0.00000000000E+00  0.99223205776E+03  0.99223205776E+03  0.25500000920E-02 0. -1.
       -2   -1    0    0    0  501  0.00000000000E+00  0.00000000000E+00 -0.80771216912E+03  0.80771216913E+03  0.25500000920E-02 0.  1.
    10030    2    1    2    0    0  0.00000000000E+00  0.00000000000E+00  0.18451988864E+03  0.17999442269E+04  0.17904612899E+04 0.  0.
        3    1    3    3  502    0  0.51656304486E+03  0.50875909197E+03 -0.43565438708E+03  0.84585338455E+03  0.10100000352E+00 0. -1.
       -3    1    3    3    0  502 -0.51656304486E+03 -0.50875909197E+03  0.62017427572E+03  0.95409084234E+03  0.10100000352E+00 0.  1.
</event>
<event>
 5   0  0.9589963E-06  0.1800721E+04  0.7818609E-02  0.8705916E-01
        2   -1    0    0  501    0  0.00000000000E+00  0.00000000000E+00  0.75186436187E+03  0.75186436187E+03  0.25500000920E-02 0.  1.
       -2   -1    0    0    0  501  0.00000000000E+00  0.00000000000E+00 -0.10781852948E+04  0.10781852949E+04  0.25500000920E-02 0. -1.
    10030    2    1    2    0    0  0.00000000000E+00  0.00000000000E+00 -0.32632093298E+03  0.18300496567E+04  0.18007210763E+04 0.  0.
        2    1    3    3  502    0  0.24033506154E+03 -0.74934311194E+03 -0.60774753255E+03  0.99430030903E+03  0.25500000920E-02 0. -1.
       -2    1    3    3    0  502 -0.24033506154E+03  0.74934311194E+03  0.28142659957E+03  0.83574934769E+03  0.25500000920E-02 0.  1.
</event>
<event>
 5   0  0.4987456E-06  0.1802634E+04  0.7818609E-02  0.8704900E-01
        1   -1    0    0  501    0  0.00000000000E+00  0.00000000000E+00  0.13793207658E+04  0.13793207658E+04  0.50400001928E-02 0.  1.
       -1   -1    0    0    0  501  0.00000000000E+00  0.00000000000E+00 -0.58896558344E+03  0.58896558346E+03  0.50400001928E-02 0. -1.
    10030    2    1    2    0    0  0.00000000000E+00  0.00000000000E+00  0.79035518237E+03  0.19682863493E+04  0.18026341388E+04 0.  0.
        3    1    3    3  502    0 -0.46329870759E+03  0.80583954783E+02 -0.44439840987E+03  0.64701578275E+03  0.10100000352E+00 0. -1.
       -3    1    3    3    0  502  0.46329870759E+03 -0.80583954783E+02  0.12347535922E+04  0.13212705665E+04  0.10100000352E+00 0.  1.
</event>
<event>
 5   0  0.1000316E-05  0.1799131E+04  0.7818609E-02  0.8706762E-01
        2   -1    0    0  501    0  0.00000000000E+00  0.00000000000E+00  0.92207528421E+03  0.92207528422E+03  0.25500000920E-02 0. -1.
       -2   -1    0    0    0  501  0.00000000000E+00  0.00000000000E+00 -0.87760551176E+03  0.87760551177E+03  0.25500000920E-02 0.  1.
    10030    2    1    2    0    0  0.00000000000E+00  0.00000000000E+00  0.44469772450E+02  0.17996807960E+04  0.17991312923E+04 0.  0.
        5    1    3    3  502    0 -0.44636738154E+03 -0.67081509688E+01  0.80343911349E+03  0.91914380685E+03  0.46999998093E+01 0. -1.
       -5    1    3    3    0  502  0.44636738154E+03  0.67081509688E+01 -0.75896934104E+03  0.88053698913E+03  0.46999998093E+01 0.  1.
</event>
<event>
 5   0  0.9589963E-06  0.1799887E+04  0.7818609E-02  0.8706359E-01
       -2   -1    0    0    0  501  0.00000000000E+00  0.00000000000E+00  0.33249711033E+03  0.33249711034E+03  0.25500000920E-02 0.  1.
        2   -1    0    0  501    0  0.00000000000E+00  0.00000000000E+00 -0.24358066856E+04  0.24358066856E+04  0.25500000920E-02 0. -1.
    10030    2    1    2    0    0  0.00000000000E+00  0.00000000000E+00 -0.21033095753E+04  0.27683037960E+04  0.17998874235E+04 0.  0.
        2    1    3    3  502    0  0.42181629123E+03 -0.15579011721E+03  0.14732736025E+03  0.47318589925E+03  0.25500000920E-02 0.  1.
       -2    1    3    3    0  502 -0.42181629123E+03  0.15579011721E+03 -0.22506369356E+04  0.22951178967E+04  0.25500000920E-02 0. -1.
</event>
<event>
 5   0  0.4994123E-06  0.1802298E+04  0.7818609E-02  0.8705078E-01
        1   -1    0    0  501    0  0.00000000000E+00  0.00000000000E+00  0.10998238986E+04  0.10998238986E+04  0.50400001928E-02 0.  1.
       -1   -1    0    0    0  501  0.00000000000E+00  0.00000000000E+00 -0.73836334799E+03  0.73836334801E+03  0.50400001928E-02 0. -1.
    10030    2    1    2    0    0  0.00000000000E+00  0.00000000000E+00  0.36146055057E+03  0.18381872466E+04  0.18022981507E+04 0.  0.
        1    1    3    3  502    0  0.21720478289E+03 -0.87351332177E+03  0.22479021928E+03  0.92775755655E+03  0.50400001928E-02 0. -1.
       -1    1    3    3    0  502 -0.21720478289E+03  0.87351332177E+03  0.13667033129E+03  0.91042969004E+03  0.50400001928E-02 0.  1.
</event>
<event>
 5   0  0.1000316E-05  0.1800432E+04  0.7818609E-02  0.8706070E-01
       -2   -1    0    0    0  501  0.00000000000E+00  0.00000000000E+00  0.79032642586E+03  0.79032642587E+03  0.25500000920E-02 0. -1.
        2   -1    0    0  501    0  0.00000000000E+00  0.00000000000E+00 -0.10253844512E+04  0.10253844512E+04  0.25500000920E-02 0.  1.
    10030    2    1    2    0    0  0.00000000000E+00  0.00000000000E+00 -0.23505802537E+03  0.18157108771E+04  0.18004315355E+04 0.  0.
        5    1    3    3  502    0  0.39579116242E+03 -0.22250265067E+03 -0.90143397702E+03  0.10093380894E+04  0.46999998093E+01 0.  1.
       -5    1    3    3    0  502 -0.39579116242E+03  0.22250265067E+03  0.66637595165E+03  0.80637278770E+03  0.46999998093E+01 0. -1.
</event>
<event>
 5   0  0.3626125E-06  0.1800316E+04  0.7818609E-02  0.8706131E-01
        4   -1    0    0  501    0  0.00000000000E+00  0.00000000000E+00  0.89292553721E+03  0.89292644037E+03  0.12699999809E+01 0.  1.
       -4   -1    0    0    0  501  0.00000000000E+00  0.00000000000E+00 -0.90744723163E+03  0.90744812033E+03  0.12699999809E+01 0. -1.
    10030    2    1    2    0    0  0.00000000000E+00  0.00000000000E+00 -0.14521694417E+02  0.18003745607E+04  0.18003159943E+04 0.  0.
        2    1    3    3  502    0  0.59882530248E+02  0.57824887294E+03 -0.69454352160E+03  0.90573085400E+03  0.25500000920E-02 0. -1.
       -2    1    3    3    0  502 -0.59882530248E+02 -0.57824887294E+03  0.68002182718E+03  0.89464370670E+03  0.25500000920E-02 0.  1.
</event>
<event>
 5   0  0.1035018E-05  0.1800868E+04  0.7818609E-02  0.8705838E-01
       -2   -1    0    0    0  501  0.00000000000E+00  0.00000000000E+00  0.10341029377E+04  0.10341029377E+04  0.25500000920E-02 0.  1.
        2   -1    0    0  501    0  0.00000000000E+00  0.00000000000E+00 -0.78404354101E+03  0.78404354101E+03  0.25500000920E-02 0. -1.
    10030    2    1    2    0    0  0.00000000000E+00  0.00000000000E+00  0.25005939669E+03  0.18181464787E+04  0.18008683784E+04 0.  0.
        3    1    3    3  502    0  0.29511138232E+03 -0.80116574772E+03 -0.16376446113E+03  0.86935383603E+03  0.10100000352E+00 0. -1.
       -3    1    3    3    0  502 -0.29511138232E+03  0.80116574772E+03  0.41382385783E+03  0.94879264268E+03  0.10100000352E+00 0.  1.
</event>
<event>
 5   0  0.4953155E-06  0.1798443E+04  0.7818609E-02  0.8707128E-01
        1   -1    0    0  501    0  0.00000000000E+00  0.00000000000E+00  0.54962045063E+03  0.54962045065E+03  0.50400001928E-02 0.  1.
       -1   -1    0    0    0  501  0.00000000000E+00  0.00000000000E+00 -0.14711957429E+04  0.14711957429E+04  0.50400001928E-02 0. -1.
    10030    2    1    2    0    0  0.00000000000E+00  0.00000000000E+00 -0.92157529229E+03  0.20208161936E+04  0.17984429568E+04 0.  0.
        2    1    3    3  502    0  0.27700285126E+03 -0.67436268688E+03 -0.10522829112E+04  0.12801542635E+04  0.25500000920E-02 0. -1.
       -2    1    3    3    0  502 -0.27700285126E+03  0.67436268688E+03  0.13070761891E+03  0.74066193011E+03  0.25500000920E-02 0.  1.
</event>
<event>
 5   0  0.4981384E-06  0.1799577E+04  0.7818609E-02  0.8706524E-01
        1   -1    0    0  501    0  0.00000000000E+00  0.00000000000E+00  0.13110181671E+04  0.13110181672E+04  0.50400001928E-02 0. -1.
       -1   -1    0    0    0  501  0.00000000000E+00  0.00000000000E+00 -0.61755010145E+03  0.61755010147E+03  0.50400001928E-02 0.  1.
    10030    2    1    2    0    0  0.00000000000E+00  0.00000000000E+00  0.69346806570E+03  0.19285682686E+04  0.17995770638E+04 0.  0.
        5    1    3    3  502    0 -0.82744829541E+03  0.24587596849E+01  0.72550926443E+03  0.11004828530E+04  0.46999998093E+01 0. -1.
       -5    1    3    3    0  502  0.82744829541E+03 -0.24587596849E+01 -0.32041198736E+02  0.82808541557E+03  0.46999998093E+01 0.  1.
</event>
<event>
 5   0  0.9589963E-06  0.1800291E+04  0.7818609E-02  0.8706145E-01
       -2   -1    0    0    0  501  0.00000000000E+00  0.00000000000E+00  0.39436317546E+03  0.39436317547E+03  0.25500000920E-02 0.  1.
        2   -1    0    0  501    0  0.00000000000E+00  0.00000000000E+00 -0.20546086603E+04  0.20546086603E+04  0.25500000920E-02 0. -1.
    10030    2    1    2    0    0  0.00000000000E+00  0.00000000000E+00 -0.16602454848E+04  0.24489718357E+04  0.18002910827E+04 0.  0.
        2    1    3    3  502    0 -0.36268650224E+03 -0.14840759421E+03  0.27223648260E+03  0.47715722293E+03  0.25500000920E-02 0.  1.
       -2    1    3    3    0  502  0.36268650224E+03  0.14840759421E+03 -0.19324819674E+04  0.19718146128E+04  0.25500000920E-02 0. -1.
</event>
<event>
 5   0  0.9999162E-06  0.1795947E+04  0.7818609E-02  0.8708458E-01
        2   -1    0    0  501    0  0.00000000000E+00  0.00000000000E+00  0.19868589401E+04  0.19868589401E+04  0.25500000920E-02 0.  1.
       -2   -1    0    0    0  501  0.00000000000E+00  0.00000000000E+00 -0.40584464742E+03  0.40584464743E+03  0.25500000920E-02 0. -1.
    10030    2    1    2    0    0  0.00000000000E+00  0.00000000000E+00  0.15810142927E+04  0.23927035875E+04  0.17959466206E+04 0.  0.
        1    1    3    3  502    0 -0.18284584802E+03  0.11169410902E+03 -0.37128973245E+03  0.42867731870E+03  0.50400001928E-02 0. -1.
       -1    1    3    3    0  502  0.18284584802E+03 -0.11169410902E+03  0.19523040251E+04  0.19640262688E+04  0.50400001928E-02 0.  1.
</event>
<event>
 5   0  0.4953155E-06  0.1802109E+04  0.7818609E-02  0.8705179E-01
        1   -1    0    0  501    0  0.00000000000E+00  0.00000000000E+00  0.75209864641E+03  0.75209864643E+03  0.50400001928E-02 0.  1.
       -1   -1    0    0    0  501  0.00000000000E+00  0.00000000000E+00 -0.10795114732E+04  0.10795114732E+04  0.50400001928E-02 0. -1.
    10030    2    1    2    0    0  0.00000000000E+00  0.00000000000E+00 -0.32741282681E+03  0.18316101197E+04  0.18021088955E+04 0.  0.
        2    1    3    3  502    0 -0.69813472300E+03 -0.36358573623E+03  0.28200698721E+03  0.83613074330E+03  0.25500000920E-02 0.  1.
       -2    1    3    3    0  502  0.69813472300E+03  0.36358573623E+03 -0.60941981402E+03  0.99547937637E+03  0.25500000920E-02 0. -1.
</event>
<event>
 5   0  0.4987456E-06  0.1800045E+04  0.7818609E-02  0.8706276E-01
        1   -1    0    0  501    0  0.00000000000E+00  0.00000000000E+00  0.82805684379E+03  0.82805684380E+03  0.50400001928E-02 0.  1.
       -1   -1    0    0    0  501  0.00000000000E+00  0.00000000000E+00 -0.97824211185E+03  0.97824211186E+03  0.50400001928E-02 0. -1.
    10030    2    1    2    0    0  0.00000000000E+00  0.00000000000E+00 -0.15018526806E+03  0.18062989557E+04  0.18000445279E+04 0.  0.
        3    1    3    3  502    0  0.12186597042E+03  0.28650624594E+03 -0.92248098666E+03  0.97360583640E+03  0.10100000352E+00 0. -1.
       -3    1    3    3    0  502 -0.12186597042E+03 -0.28650624594E+03  0.77229571860E+03  0.83269311927E+03  0.10100000352E+00 0.  1.
</event>
<event>
 5   0  0.9589963E-06  0.1799893E+04  0.7818609E-02  0.8706356E-01
        2   -1    0    0  501    0  0.00000000000E+00  0.00000000000E+00  0.10716316330E+04  0.10716316330E+04  0.25500000920E-02 0.  1.
       -2   -1    0    0    0  501  0.00000000000E+00  0.00000000000E+00 -0.75576714817E+03  0.75576714818E+03  0.25500000920E-02 0. -1.
    10030    2    1    2    0    0  0.00000000000E+00  0.00000000000E+00  0.31586448487E+03  0.18273987812E+04  0.17998933115E+04 0.  0.
        2    1    3    3  502    0  0.73833692514E+03  0.49555048423E+03  0.29858553997E+03  0.93801120576E+03  0.25500000920E-02 0. -1.
       -2    1    3    3    0  502 -0.73833692514E+03 -0.49555048423E+03  0.17278944903E+02  0.88938757546E+03  0.25500000920E-02 0.  1.
</event>
<event>
 5   0  0.4994123E-06  0.1800147E+04  0.7818609E-02  0.8706221E-01
       -1   -1    0    0    0  501  0.00000000000E+00  0.00000000000E+00  0.46466747183E+03  0.46466747186E+03  0.50400001928E-02 0.  1.
        1   -1    0    0  501    0  0.00000000000E+00  0.00000000000E+00 -0.17434675096E+04  0.17434675096E+04  0.50400001928E-02 0. -1.
    10030    2    1    2    0    0  0.00000000000E+00  0.00000000000E+00 -0.12788000377E+04  0.22081349814E+04  0.18001473717E+04 0.  0.
        1    1    3    3  502    0  0.68008209535E+03 -0.57303415161E+03 -0.46919788145E+03  0.10054981091E+04  0.50400001928E-02 0. -1.
       -1    1    3    3    0  502 -0.68008209535E+03  0.57303415161E+03 -0.80960215629E+03  0.12026368724E+04  0.50400001928E-02 0.  1.
</event>
<event>
 5   0  0.4994123E-06  0.1803490E+04  0.7818609E-02  0.8704446E-01
        1   -1    0    0  501    0  0.00000000000E+00  0.00000000000E+00  0.85579489190E+03  0.85579489191E+03  0.50400001928E-02 0.  1.
       -1   -1    0    0    0  501  0.00000000000E+00  0.00000000000E+00 -0.95016233328E+03  0.95016233329E+03  0.50400001928E-02 0. -1.
    10030    2    1    2    0    0  0.00000000000E+00  0.00000000000E+00 -0.94367441380E+02  0.18059572252E+04  0.18034900292E+04 0.  0.
        1    1    3    3  502    0  0.85996900082E+03 -0.18917846639E+03 -0.24189482356E+03  0.91315293364E+03  0.50400001928E-02 0. -1.
       -1    1    3    3    0  502 -0.85996900082E+03  0.18917846639E+03  0.14752738218E+03  0.89280429157E+03  0.50400001928E-02 0.  1.
</event>
<event>
 5   0  0.4953155E-06  0.1800000E+04  0.7818609E-02  0.8706299E-01
       -1   -1    0    0    0  501  0.00000000000E+00  0.00000000000E+00  0.54380602420E+03  0.54380602422E+03  0.50400001928E-02 0. -1.
        1   -1    0    0  501    0  0.00000000000E+00  0.00000000000E+00 -0.14895018363E+04  0.14895018364E+04  0.50400001928E-02 0.  1.
    10030    2    1    2    0    0  0.00000000000E+00  0.00000000000E+00 -0.94569581215E+03  0.20333078606E+04  0.18000000797E+04 0.  0.
        2    1    3    3  502    0  0.19181799766E+03  0.75211968809E+03 -0.98743937865E+03  0.12559915191E+04  0.25500000920E-02 0.  1.
       -2    1    3    3    0  502 -0.19181799766E+03 -0.75211968809E+03  0.41743566499E+02  0.77731634152E+03  0.25500000920E-02 0. -1.
</event>
<event>
 5   0  0.1036381E-05  0.1799817E+04  0.7818609E-02  0.8706397E-01
        2   -1    0    0  501    0  0.00000000000E+00  0.00000000000E+00  0.11288632079E+04  0.11288632079E+04  0.25500000920E-02 0.  1.
       -2   -1    0    0    0  501  0.00000000000E+00  0.00000000000E+00 -0.71739047271E+03  0.71739047272E+03  0.25500000920E-02 0. -1.
    10030    2    1    2    0    0  0.00000000000E+00  0.00000000000E+00  0.41147273517E+03  0.18462536806E+04  0.17998174467E+04 0.  0.
        4    1    3    3  502    0 -0.32056836502E+03  0.41091999046E+03  0.95829566844E+03  0.10908489888E+04  0.12699999809E+01 0.  1.
       -4    1    3    3    0  502  0.32056836502E+03 -0.41091999046E+03 -0.54682293327E+03  0.75540469185E+03  0.12699999809E+01 0. -1.
</event>
<event>
 5   0  0.3626125E-06  0.1800202E+04  0.7818609E-02  0.8706192E-01
        4   -1    0    0  501    0  0.00000000000E+00  0.00000000000E+00  0.11133198216E+04  0.11133205460E+04  0.12699999809E+01 0.  1.
       -4   -1    0    0    0  501  0.00000000000E+00  0.00000000000E+00 -0.72771585386E+03  0.72771696205E+03  0.12699999809E+01 0. -1.
    10030    2    1    2    0    0  0.00000000000E+00  0.00000000000E+00  0.38560396778E+03  0.18410375081E+04  0.18002024014E+04 0.  0.
        4    1    3    3  502    0  0.70902117219E+03  0.50526522106E+03  0.42640538207E+03  0.96944681596E+03  0.12699999809E+01 0.  1.
       -4    1    3    3    0  502 -0.70902117219E+03 -0.50526522106E+03 -0.40801414287E+02  0.87159069209E+03  0.12699999809E+01 0. -1.
</event>
<event>
 5   0  0.1036381E-05  0.1795830E+04  0.7818609E-02  0.8708520E-01
       -2   -1    0    0    0  501  0.00000000000E+00  0.00000000000E+00  0.12470028029E+04  0.12470028029E+04  0.25500000920E-02 0. -1.
        2   -1    0    0  501    0  0.00000000000E+00  0.00000000000E+00 -0.64655164839E+03  0.64655164840E+03  0.25500000920E-02 0.  1.
    10030    2    1    2    0    0  0.00000000000E+00  0.00000000000E+00  0.60045115454E+03  0.18935544513E+04  0.17958304127E+04 0.  0.
        4    1    3    3  502    0 -0.22944365648E+03 -0.12761686634E+03 -0.60517419290E+03  0.65967254962E+03  0.12699999809E+01 0.  1.
       -4    1    3    3    0  502  0.22944365648E+03  0.12761686634E+03  0.12056253474E+04  0.12338819017E+04  0.12699999809E+01 0. -1.
</event>
<event>
 5   0  0.9999162E-06  0.1801474E+04  0.7818609E-02  0.8705516E-01
       -2   -1    0    0    0  501  0.00000000000E+00  0.00000000000E+00  0.81020669371E+03  0.81020669372E+03  0.25500000920E-02 0.  1.
        2   -1    0    0  501    0  0.00000000000E+00  0.00000000000E+00 -0.10013825876E+04  0.10013825876E+04  0.25500000920E-02 0. -1.
    10030    2    1    2    0    0  0.00000000000E+00  0.00000000000E+00 -0.19117589391E+03  0.18115892813E+04  0.18014737028E+04 0.  0.
        1    1    3    3  502    0  0.87956962420E+03  0.19408522500E+03 -0.99492670653E+02  0.90620670375E+03  0.50400001928E-02 0. -1.
       -1    1    3    3    0  502 -0.87956962420E+03 -0.19408522500E+03 -0.91683223260E+02  0.90538257760E+03  0.50400001928E-02 0.  1.
</event>
<event>
 5   0  0.1000316E-05  0.1799414E+04  0.7818609E-02  0.8706611E-01
       -2   -1    0    0    0  501  0.00000000000E+00  0.00000000000E+00  0.10045801822E+04  0.10045801822E+04  0.25500000920E-02 0.  1.
        2   -1    0    0  501    0  0.00000000000E+00  0.00000000000E+00 -0.80578215937E+03  0.80578215937E+03  0.25500000920E-02 0. -1.
    10030    2    1    2    0    0  0.00000000000E+00  0.00000000000E+00  0.19879802283E+03  0.18103623416E+04  0.17994141141E+04 0.  0.
        5    1    3    3  502    0 -0.31475691845E+03  0.24756010415E+03 -0.71116584868E+03  0.81617208798E+03  0.46999998093E+01 0. -1.
       -5    1    3    3    0  502  0.31475691845E+03 -0.24756010415E+03  0.90996387150E+03  0.99419025358E+03  0.46999998093E+01 0.  1.
</event>
<event>
 5   0  0.1035018E-05  0.1800178E+04  0.7818609E-02  0.8706205E-01
       -2   -1    0    0    0  501  0.00000000000E+00  0.00000000000E+00  0.11173117654E+04  0.11173117654E+04  0.25500000920E-02 0.  1.
        2   -1    0    0  501    0  0.00000000000E+00  0.00000000000E+00 -0.72509754304E+03  0.72509754304E+03  0.25500000920E-02 0. -1.
    10030    2    1    2    0    0  0.00000000000E+00  0.00000000000E+00  0.39221422240E+03  0.18424093085E+04  0.18001777867E+04 0.  0.
        3    1    3    3  502    0  0.23027964868E+02 -0.65595120094E+03 -0.43426239431E+03  0.78701086555E+03  0.10100000352E+00 0. -1.
       -3    1    3    3    0  502 -0.23027964868E+02  0.65595120094E+03  0.82647661671E+03  0.10553984429E+04  0.10100000352E+00 0.  1.
</event>
<event>
 5   0  0.1036381E-05  0.1800857E+04  0.7818609E-02  0.8705844E-01
        2   -1    0    0  501    0  0.00000000000E+00  0.00000000000E+00  0.12097419809E+04  0.12097419809E+04  0.25500000920E-02 0.  1.
       -2   -1    0    0    0  501  0.00000000000E+00  0.00000000000E+00 -0.67020235180E+03  0.67020235180E+03  0.25500000920E-02 0. -1.
    10030    2    1    2    0    0  0.00000000000E+00  0.00000000000E+00  0.53953962907E+03  0.18799443327E+04  0.18008574854E+04 0.  0.
        4    1    3    3  502    0 -0.20752161446E+02 -0.50094174997E+03  0.10505444889E+04  0.11640526728E+04  0.12699999809E+01 0.  1.
       -4    1    3    3    0  502  0.20752161446E+02  0.50094174997E+03 -0.51100485978E+03  0.71589165989E+03  0.12699999809E+01 0. -1.
</event>
<event>
 5   0  0.4987456E-06  0.1800115E+04  0.7818609E-02  0.8706238E-01
        1   -1    0    0  501    0  0.00000000000E+00  0.00000000000E+00  0.10425671160E+04  0.10425671160E+04  0.50400001928E-02 0.  1.
       -1   -1    0    0    0  501  0.00000000000E+00  0.00000000000E+00 -0.77702784896E+03  0.77702784897E+03  0.50400001928E-02 0. -1.
    10030    2    1    2    0    0  0.00000000000E+00  0.00000000000E+00  0.26553926706E+03  0.18195949650E+04  0.18001152003E+04 0.  0.
        3    1    3    3  502    0  0.67379576455E+03 -0.53461484829E+03 -0.13522179615E+03  0.87068864280E+03  0.10100000352E+00 0. -1.
       -3    1    3    3    0  502 -0.67379576455E+03  0.53461484829E+03  0.40076106322E+03  0.94890632221E+03  0.10100000352E+00 0.  1.
</event>
<event>
 5   0  0.4953155E-06  0.1800824E+04  0.7818609E-02  0.8705861E-01
        1   -1    0    0  501    0  0.00000000000E+00  0.00000000000E+00  0.15952684063E+04  0.15952684063E+04  0.50400001928E-02 0. -1.
       -1   -1    0    0    0  501  0.00000000000E+00  0.00000000000E+00 -0.50821652752E+03  0.50821652755E+03  0.50400001928E-02 0.  1.
    10030    2    1    2    0    0  0.00000000000E+00  0.00000000000E+00  0.10870518787E+04  0.21034849338E+04  0.18008240002E+04 0.  0.
        2    1    3    3  502    0  0.26115466332E+02 -0.82727997389E+03  0.12945019497E+03  0.83775385750E+03  0.25500000920E-02 0.  1.
       -2    1    3    3    0  502 -0.26115466332E+02  0.82727997389E+03  0.95760168376E+03  0.12657310763E+04  0.25500000920E-02 0. -1.
</event>
<event>
 5   0  0.4981384E-06  0.1799717E+04  0.7818609E-02  0.8706450E-01
       -1   -1    0    0    0  501  0.00000000000E+00  0.00000000000E+00  0.80851318273E+03  0.80851318275E+03  0.50400001928E-02 0.  1.
        1   -1    0    0  501    0  0.00000000000E+00  0.00000000000E+00 -0.10015242188E+04  0.10015242188E+04  0.50400001928E-02 0. -1.
    10030    2    1    2    0    0  0.00000000000E+00  0.00000000000E+00 -0.19301103604E+03  0.18100374015E+04  0.17997172375E+04 0.  0.
        5    1    3    3  502    0 -0.68225570499E+03  0.53175526347E+03 -0.34589302882E+03  0.93161182077E+03  0.46999998093E+01 0. -1.
       -5    1    3    3    0  502  0.68225570499E+03 -0.53175526347E+03  0.15288199278E+03  0.87842558076E+03  0.46999998093E+01 0.  1.
</event>
<event>
 5   0  0.1036381E-05  0.1800039E+04  0.7818609E-02  0.8706279E-01
       -2   -1    0    0    0  501  0.00000000000E+00  0.00000000000E+00  0.48978457049E+03  0.48978457050E+03  0.25500000920E-02 0.  1.
        2   -1    0    0  501    0  0.00000000000E+00  0.00000000000E+00 -0.16538598300E+04  0.16538598300E+04  0.25500000920E-02 0. -1.
    10030    2    1    2    0    0  0.00000000000E+00  0.00000000000E+00 -0.11640752595E+04  0.21436444005E+04  0.18000389179E+04 0.  0.
        4    1    3    3  502    0  0.11038820270E+03  0.86838433353E+03 -0.83114821084E+03  0.12070981183E+04  0.12699999809E+01 0. -1.
       -4    1    3    3    0  502 -0.11038820270E+03 -0.86838433353E+03 -0.33292704869E+03  0.93654628218E+03  0.12699999809E+01 0.  1.
</event>
<event>
 5   0  0.4994123E-06  0.1799324E+04  0.7818609E-02  0.8706659E-01
       -1   -1    0    0    0  501  0.00000000000E+00  0.00000000000E+00  0.59148281057E+03  0.59148281059E+03  0.50400001928E-02 0. -1.
        1   -1    0    0  501    0  0.00000000000E+00  0.00000000000E+00 -0.13684115283E+04  0.13684115283E+04  0.50400001928E-02 0.  1.
    10030    2    1    2    0    0  0.00000000000E+00  0.00000000000E+00 -0.77692871772E+03  0.19598943389E+04  0.17993242029E+04 0.  0.
        1    1    3    3  502    0  0.74126871803E+03  0.26228259586E+03  0.87721821334E+02  0.79118050430E+03  0.50400001928E-02 0. -1.
       -1    1    3    3    0  502 -0.74126871803E+03 -0.26228259586E+03 -0.86465053905E+03  0.11687138346E+04  0.50400001928E-02 0.  1.
</event>
<event>
 5   0  0.4981384E-06  0.1800066E+04  0.7818609E-02  0.8706264E-01
        1   -1    0    0  501    0  0.00000000000E+00  0.00000000000E+00  0.82646850626E+03  0.82646850628E+03  0.50400001928E-02 0.  1.
       -1   -1    0    0    0  501  0.00000000000E+00  0.00000000000E+00 -0.98014575811E+03  0.98014575812E+03  0.50400001928E-02 0. -1.
    10030    2    1    2    0    0  0.00000000000E+00  0.00000000000E+00 -0.15367725185E+03  0.18066142644E+04  0.18000662217E+04 0.  0.
        5    1    3    3  502    0 -0.32442835365E+03 -0.34550545169E+03 -0.84474261438E+03  0.96862786887E+03  0.46999998093E+01 0. -1.
       -5    1    3    3    0  502  0.32442835365E+03  0.34550545169E+03  0.69106536253E+03  0.83798639553E+03  0.46999998093E+01 0.  1.
</event>
<event>
 5   0  0.4994123E-06  0.1799838E+04  0.7818609E-02  0.8706386E-01
       -1   -1    0    0    0  501  0.00000000000E+00  0.00000000000E+00  0.12537048314E+04  0.12537048314E+04  0.50400001928E-02 0.  1.
        1   -1    0    0  501    0  0.00000000000E+00  0.00000000000E+00 -0.64596855762E+03  0.64596855764E+03  0.50400001928E-02 0. -1.
    10030    2    1    2    0    0  0.00000000000E+00  0.00000000000E+00  0.60773627378E+03  0.18996733891E+04  0.17998376612E+04 0.  0.
        1    1    3    3  502    0  0.35076976089E+03  0.35173273557E+03 -0.48815489698E+03  0.69645570276E+03  0.50400001928E-02 0. -1.
       -1    1    3    3    0  502 -0.35076976089E+03 -0.35173273557E+03  0.10958911708E+04  0.12032176863E+04  0.50400001928E-02 0.  1.
</event>
<event>
 5   0  0.4953155E-06  0.1800870E+04  0.7818609E-02  0.8705837E-01
       -1   -1    0    0    0  501  0.00000000000E+00  0.00000000000E+00  0.41288271900E+03  0.41288271903E+03  0.50400001928E-02 0. -1.
        1   -1    0    0  501    0  0.00000000000E+00  0.00000000000E+00 -0.19637124974E+04  0.19637124974E+04  0.50400001928E-02 0.  1.
    10030    2    1    2    0    0  0.00000000000E+00  0.00000000000E+00 -0.15508297784E+04  0.23765952164E+04  0.18008697402E+04 0.  0.
        2    1    3    3  502    0  0.85134900691E+03  0.60629133714E+02 -0.39679422303E+03  0.94123146933E+03  0.25500000920E-02 0.  1.
       -2    1    3    3    0  502 -0.85134900691E+03 -0.60629133714E+02 -0.11540355554E+04  0.14353637471E+04  0.25500000920E-02 0. -1.
</event>
<event>
 5   0  0.1000316E-05  0.1800344E+04  0.7818609E-02  0.8706117E-01
        2   -1    0    0  501    0  0.00000000000E+00  0.00000000000E+00  0.10818148188E+04  0.10818148188E+04  0.25500000920E-02 0.  1.
       -2   -1    0    0    0  501  0.00000000000E+00  0.00000000000E+00 -0.74902770015E+03  0.74902770016E+03  0.25500000920E-02 0. -1.
    10030    2    1    2    0    0  0.00000000000E+00  0.00000000000E+00  0.33278711863E+03  0.18308425189E+04  0.18003435958E+04 0.  0.
        5    1    3    3  502    0 -0.17352637395E+03 -0.81852797573E+02 -0.72798006450E+03  0.75285346996E+03  0.46999998093E+01 0. -1.
       -5    1    3    3    0  502  0.17352637395E+03  0.81852797573E+02  0.10607671831E+04  0.10779890490E+04  0.46999998093E+01 0.  1.
</event>
<event>
 5   0  0.1036381E-05  0.1799964E+04  0.7818609E-02  0.8706319E-01
        2   -1    0    0  501    0  0.00000000000E+00  0.00000000000E+00  0.13993245995E+04  0.13993245995E+04  0.25500000920E-02 0. -1.
       -2   -1    0    0    0  501  0.00000000000E+00  0.00000000000E+00 -0.57882762124E+03  0.57882762125E+03  0.25500000920E-02 0.  1.
    10030    2    1    2    0    0  0.00000000000E+00  0.00000000000E+00  0.82049697823E+03  0.19781522207E+04  0.17999641433E+04 0.  0.
        4    1    3    3  502    0  0.84891524008E+03 -0.18419203285E+03  0.66888000916E+03  0.10963511615E+04  0.12699999809E+01 0. -1.
       -4    1    3    3    0  502 -0.84891524008E+03  0.18419203285E+03  0.15161696907E+03  0.88180105921E+03  0.12699999809E+01 0.  1.
</event>
<event>
 5   0  0.4987456E-06  0.1799799E+04  0.7818609E-02  0.8706406E-01
       -1   -1    0    0    0  501  0.00000000000E+00  0.00000000000E+00  0.81380870200E+03  0.81380870202E+03  0.50400001928E-02 0.  1.
        1   -1    0    0  501    0  0.00000000000E+00  0.00000000000E+00 -0.99509768651E+03  0.99509768652E+03  0.50400001928E-02 0. -1.
    10030    2    1    2    0    0  0.00000000000E+00  0.00000000000E+00 -0.18128898450E+03  0.18089063885E+04  0.17997990517E+04 0.  0.
        3    1    3    3  502    0 -0.45173991345E+03 -0.60293240793E+03  0.40400720314E+03  0.85487909573E+03  0.10100000352E+00 0.  1.
       -3    1    3    3    0  502  0.45173991345E+03  0.60293240793E+03 -0.58529618765E+03  0.95402729280E+03  0.10100000352E+00 0. -1.
</event>
<event>
 5   0  0.4953155E-06  0.1799684E+04  0.7818609E-02  0.8706468E-01
        1   -1    0    0  501    0  0.00000000000E+00  0.00000000000E+00  0.13594560202E+04  0.13594560202E+04  0.50400001928E-02 0.  1.
       -1   -1    0    0    0  501  0.00000000000E+00  0.00000000000E+00 -0.59561726300E+03  0.59561726302E+03  0.50400001928E-02 0. -1.
    10030    2    1    2    0    0  0.00000000000E+00  0.00000000000E+00  0.76383875722E+03  0.19550732833E+04  0.17996838322E+04 0.  0.
        2    1    3    3  502    0  0.51590809154E+03  0.40189215971E+03  0.10533784459E+04  0.12398728230E+04  0.25500000920E-02 0.  1.
       -2    1    3    3    0  502 -0.51590809154E+03 -0.40189215971E+03 -0.28953968870E+03  0.71520046022E+03  0.25500000920E-02 0. -1.
</event>
<event>
 5   0  0.9589963E-06  0.1797393E+04  0.7818609E-02  0.8707687E-01
       -2   -1    0    0    0  501  0.00000000000E+00  0.00000000000E+00  0.50463512121E+03  0.50463512122E+03  0.25500000920E-02 0.  1.
        2   -1    0    0  501    0  0.00000000000E+00  0.00000000000E+00 -0.16004746064E+04  0.16004746064E+04  0.25500000920E-02 0. -1.
    10030    2    1    2    0    0  0.00000000000E+00  0.00000000000E+00 -0.10958394852E+04  0.21051097276E+04  0.17973933315E+04 0.  0.
        2    1    3    3  502    0 -0.19152653743E+03 -0.76839870943E+03 -0.10455586970E+04  0.13116066407E+04  0.25500000920E-02 0. -1.
       -2    1    3    3    0  502  0.19152653743E+03  0.76839870943E+03 -0.50280788199E+02  0.79350308687E+03  0.25500000920E-02 0.  1.
</event>
<event>
 5   0  0.4994123E-06  0.1800732E+04  0.7818609E-02  0.8705910E-01
       -1   -1    0    0    0  501  0.00000000000E+00  0.00000000000E+00  0.45456189648E+03  0.45456189650E+03  0.50400001928E-02 0.  1.
        1   -1    0    0  501    0  0.00000000000E+00  0.00000000000E+00 -0.17833845833E+04  0.17833845833E+04  0.50400001928E-02 0. -1.
    10030    2    1    2    0    0  0.00000000000E+00  0.00000000000E+00 -0.13288226869E+04  0.22379464799E+04  0.18007317162E+04 0.  0.
        1    1    3    3  502    0 -0.70837604094E+03 -0.45112816722E+03 -0.10677859479E+04  0.13584844751E+04  0.50400001928E-02 0. -1.
       -1    1    3    3    0  502  0.70837604094E+03  0.45112816722E+03 -0.26103673899E+03  0.87946200473E+03  0.50400001928E-02 0.  1.
</event>
<event>
 5   0  0.9999162E-06  0.1800642E+04  0.7818609E-02  0.8705958E-01
       -2   -1    0    0    0  501  0.00000000000E+00  0.00000000000E+00  0.75055353239E+03  0.75055353239E+03  0.25500000920E-02 0.  1.
        2   -1    0    0  501    0  0.00000000000E+00  0.00000000000E+00 -0.10799734188E+04  0.10799734188E+04  0.25500000920E-02 0. -1.
    10030    2    1    2    0    0  0.00000000000E+00  0.00000000000E+00 -0.32941988638E+03  0.18305269512E+04  0.18006419570E+04 0.  0.
        1    1    3    3  502    0 -0.77506140172E+03 -0.45469434618E+03 -0.22140961961E+03  0.92546709534E+03  0.50400001928E-02 0.  1.
       -1    1    3    3    0  502  0.77506140172E+03  0.45469434618E+03 -0.10801026678E+03  0.90505985583E+03  0.50400001928E-02 0. -1.
</event>
<event>
 5   0  0.4994123E-06  0.1801619E+04  0.7818609E-02  0.8705439E-01
       -1   -1    0    0    0  501  0.00000000000E+00  0.00000000000E+00  0.35641258456E+03  0.35641258460E+03  0.50400001928E-02 0. -1.
        1   -1    0    0  501    0  0.00000000000E+00  0.00000000000E+00 -0.22767382471E+04  0.22767382471E+04  0.50400001928E-02 0.  1.
    10030    2    1    2    0    0  0.00000000000E+00  0.00000000000E+00 -0.19203256626E+04  0.26331508317E+04  0.18016194527E+04 0.  0.
        1    1    3    3  502    0  0.55589845646E+03 -0.52421809253E+03 -0.26284966854E+03  0.80803319901E+03  0.50400001928E-02 0.  1.
       -1    1    3    3    0  502 -0.55589845646E+03  0.52421809253E+03 -0.16574759940E+04  0.18251176327E+04  0.50400001928E-02 0. -1.
</event>
<event>
 5   0  0.4994123E-06  0.1800919E+04  0.7818609E-02  0.8705811E-01
       -1   -1    0    0    0  501  0.00000000000E+00  0.00000000000E+00  0.17647094198E+04  0.17647094198E+04  0.50400001928E-02 0.  1.
        1   -1    0    0  501    0  0.00000000000E+00  0.00000000000E+00 -0.45946780303E+03  0.45946780306E+03  0.50400001928E-02 0. -1.
    10030    2    1    2    0    0  0.00000000000E+00  0.00000000000E+00  0.13052416168E+04  0.22241772229E+04  0.18009188323E+04 0.  0.
        1    1    3    3  502    0 -0.67912112526E+03  0.50788044173E+03  0.27867346366E+03  0.89264043447E+03  0.50400001928E-02 0. -1.
       -1    1    3    3    0  502  0.67912112526E+03 -0.50788044173E+03  0.10265681531E+04  0.13315367884E+04  0.50400001928E-02 0.  1.
</event>
<event>
 5   0  0.1035018E-05  0.1809716E+04  0.7818609E-02  0.8701150E-01
       -2   -1    0    0    0  501  0.00000000000E+00  0.00000000000E+00  0.68051160564E+03  0.68051160565E+03  0.25500000920E-02 0. -1.
        2   -1    0    0  501    0  0.00000000000E+00  0.00000000000E+00 -0.12031648158E+04  0.12031648158E+04  0.25500000920E-02 0.  1.
    10030    2    1    2    0    0  0.00000000000E+00  0.00000000000E+00 -0.52265321019E+03  0.18836764215E+04  0.18097155806E+04 0.  0.
        3    1    3    3  502    0  0.48697895676E+03  0.60150114501E+03  0.22667933864E+03  0.80643391828E+03  0.10100000352E+00 0. -1.
       -3    1    3    3    0  502 -0.48697895676E+03 -0.60150114501E+03 -0.74933254883E+03  0.10772425032E+04  0.10100000352E+00 0.  1.
</event>
<event>
 5   0  0.4981384E-06  0.1800311E+04  0.7818609E-02  0.8706134E-01
       -1   -1    0    0    0  501  0.00000000000E+00  0.00000000000E+00  0.13592656086E+04  0.13592656086E+04  0.50400001928E-02 0.  1.
        1   -1    0    0  501    0  0.00000000000E+00  0.00000000000E+00 -0.59611590051E+03  0.59611590053E+03  0.50400001928E-02 0. -1.
    10030    2    1    2    0    0  0.00000000000E+00  0.00000000000E+00  0.76314970804E+03  0.19553815091E+04  0.18003109090E+04 0.  0.
        5    1    3    3  502    0  0.76330878630E+03 -0.16515002656E+03  0.86772563543E+03  0.11674265300E+04  0.46999998093E+01 0. -1.
       -5    1    3    3    0  502 -0.76330878630E+03  0.16515002656E+03 -0.10457592739E+03  0.78795497911E+03  0.46999998093E+01 0.  1.
</event>
<event>
 5   0  0.1035018E-05  0.1800305E+04  0.7818609E-02  0.8706137E-01
       -2   -1    0    0    0  501  0.00000000000E+00  0.00000000000E+00  0.69392959834E+03  0.69392959835E+03  0.25500000920E-02 0. -1.
        2   -1    0    0  501    0  0.00000000000E+00  0.00000000000E+00 -0.11676607979E+04  0.11676607979E+04  0.25500000920E-02 0.  1.
    10030    2    1    2    0    0  0.00000000000E+00  0.00000000000E+00 -0.47373119958E+03  0.18615903963E+04  0.18003048503E+04 0.  0.
        3    1    3    3  502    0  0.42020950118E+03 -0.89218422713E+02 -0.10548301669E+04  0.11389480423E+04  0.10100000352E+00 0.  1.
       -3    1    3    3    0  502 -0.42020950118E+03  0.89218422713E+02  0.58109896729E+03  0.72264235402E+03  0.10100000352E+00 0. -1.
</event>
<event>
 5   0  0.1036381E-05  0.1799487E+04  0.7818609E-02  0.8706572E-01
        2   -1    0    0  501    0  0.00000000000E+00  0.00000000000E+00  0.15911708492E+04  0.15911708492E+04  0.25500000920E-02 0. -1.
       -2   -1    0    0    0  501  0.00000000000E+00  0.00000000000E+00 -0.50876921998E+03  0.50876921999E+03  0.25500000920E-02 0.  1.
    10030    2    1    2    0    0  0.00000000000E+00  0.00000000000E+00  0.10824016292E+04  0.20999400692E+04  0.17994874290E+04 0.  0.
        4    1    3    3  502    0 -0.62740051878E+03  0.63805338751E+03  0.43176952886E+03  0.99356432868E+03  0.12699999809E+01 0.  1.
       -4    1    3    3    0  502  0.62740051878E+03 -0.63805338751E+03  0.65063210036E+03  0.11063757405E+04  0.12699999809E+01 0. -1.
</event>
<event>
 5   0  0.1035018E-05  0.1799964E+04  0.7818609E-02  0.8706319E-01
       -2   -1    0    0    0  501  0.00000000000E+00  0.00000000000E+00  0.57757928513E+03  0.57757928513E+03  0.25500000920E-02 0.  1.
        2   -1    0    0  501    0  0.00000000000E+00  0.00000000000E+00 -0.14023488189E+04  0.14023488189E+04  0.25500000920E-02 0. -1.
    10030    2    1    2    0    0  0.00000000000E+00  0.00000000000E+00 -0.82476953381E+03  0.19799281041E+04  0.17999640311E+04 0.  0.
        3    1    3    3  502    0  0.17312204471E+03  0.87010481345E+03 -0.57889309016E+03  0.10593256576E+04  0.10100000352E+00 0.  1.
       -3    1    3    3    0  502 -0.17312204471E+03 -0.87010481345E+03 -0.24587644365E+03  0.92060244650E+03  0.10100000352E+00 0. -1.
</event>
<event>
 5   0  0.9999162E-06  0.1799994E+04  0.7818609E-02  0.8706302E-01
       -2   -1    0    0    0  501  0.00000000000E+00  0.00000000000E+00  0.11598801135E+04  0.11598801135E+04  0.25500000920E-02 0. -1.
        2   -1    0    0  501    0  0.00000000000E+00  0.00000000000E+00 -0.69834374032E+03  0.69834374033E+03  0.25500000920E-02 0.  1.
    10030    2    1    2    0    0  0.00000000000E+00  0.00000000000E+00  0.46153637314E+03  0.18582238538E+04  0.17999944631E+04 0.  0.
        1    1    3    3  502    0 -0.26190781194E+03 -0.34883672735E+03 -0.58191617541E+03  0.72726143823E+03  0.50400001928E-02 0.  1.
       -1    1    3    3    0  502  0.26190781194E+03  0.34883672735E+03  0.10434525486E+04  0.11309624156E+04  0.50400001928E-02 0. -1.
</event>
<event>
 5   0  0.4953155E-06  0.1800991E+04  0.7818609E-02  0.8705773E-01
        1   -1    0    0  501    0  0.00000000000E+00  0.00000000000E+00  0.10743493390E+04  0.10743493390E+04  0.50400001928E-02 0.  1.
       -1   -1    0    0    0  501  0.00000000000E+00  0.00000000000E+00 -0.75477484870E+03  0.75477484871E+03  0.50400001928E-02 0. -1.
    10030    2    1    2    0    0  0.00000000000E+00  0.00000000000E+00  0.31957449033E+03  0.18291241878E+04  0.18009906827E+04 0.  0.
        2    1    3    3  502    0  0.18396120214E+02 -0.82561887356E+03  0.52443188976E+03  0.97827079514E+03  0.25500000920E-02 0.  1.
       -2    1    3    3    0  502 -0.18396120214E+02  0.82561887356E+03 -0.20485739943E+03  0.85085339261E+03  0.25500000920E-02 0. -1.
</event>
<event>
 5   0  0.4983159E-06  0.1798760E+04  0.7818609E-02  0.8706959E-01
        1   -1    0    0  501    0  0.00000000000E+00  0.00000000000E+00  0.59025708236E+03  0.59025708238E+03  0.50400001928E-02 0.  1.
       -1   -1    0    0    0  501  0.00000000000E+00  0.00000000000E+00 -0.13703938967E+04  0.13703938967E+04  0.50400001928E-02 0. -1.
    10030    2    1    2    0    0  0.00000000000E+00  0.00000000000E+00 -0.78013681434E+03  0.19606509791E+04  0.17987603544E+04 0.  0.
        4    1    3    3  502    0 -0.29581934666E+03 -0.81623153414E+03 -0.64602169198E+03  0.10821684909E+04  0.12699999809E+01 0. -1.
       -4    1    3    3    0  502  0.29581934666E+03  0.81623153414E+03 -0.13411512236E+03  0.87848248823E+03  0.12699999809E+01 0.  1.
</event>
<event>
 5   0  0.1000316E-05  0.1799703E+04  0.7818609E-02  0.8706457E-01
        2   -1    0    0  501    0  0.00000000000E+00  0.00000000000E+00  0.16466229847E+04  0.16466229847E+04  0.25500000920E-02 0. -1.
       -2   -1    0    0    0  501  0.00000000000E+00  0.00000000000E+00 -0.49175352658E+03  0.49175352659E+03  0.25500000920E-02 0.  1.
    10030    2    1    2    0    0  0.00000000000E+00  0.00000000000E+00  0.11548694582E+04  0.21383765113E+04  0.17997029307E+04 0.  0.
        5    1    3    3  502    0  0.47891476086E+03 -0.72913420459E+03  0.83968299447E+03  0.12108202417E+04  0.46999998093E+01 0. -1.
       -5    1    3    3    0  502 -0.47891476086E+03  0.72913420459E+03  0.31518646369E+03  0.92755626965E+03  0.46999998093E+01 0.  1.
</event>
<event>
 5   0  0.4994123E-06  0.1800473E+04  0.7818609E-02  0.8706048E-01
        1   -1    0    0  501    0  0.00000000000E+00  0.00000000000E+00  0.13374040792E+04  0.13374040792E+04  0.50400001928E-02 0.  1.
       -1   -1    0    0    0  501  0.00000000000E+00  0.00000000000E+00 -0.60596919555E+03  0.60596919557E+03  0.50400001928E-02 0. -1.
    10030    2    1    2    0    0  0.00000000000E+00  0.00000000000E+00  0.73143488367E+03  0.19433732748E+04  0.18004729090E+04 0.  0.
        1    1    3    3  502    0  0.73997537200E+03 -0.19344564465E+03  0.87820814905E+03  0.11645747386E+04  0.50400001928E-02 0.  1.
       -1    1    3    3    0  502 -0.73997537200E+03  0.19344564465E+03 -0.14677326538E+03  0.77879853624E+03  0.50400001928E-02 0. -1.
</event>
<event>
 5   0  0.4983159E-06  0.1801900E+04  0.7818609E-02  0.8705290E-01
        1   -1    0    0  501    0  0.00000000000E+00  0.00000000000E+00  0.52843017802E+03  0.52843017805E+03  0.50400001928E-02 0.  1.
       -1   -1    0    0    0  501  0.00000000000E+00  0.00000000000E+00 -0.15360799601E+04  0.15360799601E+04  0.50400001928E-02 0. -1.
    10030    2    1    2    0    0  0.00000000000E+00  0.00000000000E+00 -0.10076497820E+04  0.20645101381E+04  0.18019001157E+04 0.  0.
        4    1    3    3  502    0 -0.49630317549E+03 -0.33838528498E+03 -0.12731689803E+04  0.14077579012E+04  0.12699999809E+01 0. -1.
       -4    1    3    3    0  502  0.49630317549E+03  0.33838528498E+03  0.26551919829E+03  0.65675223688E+03  0.12699999809E+01 0.  1.
</event>
<event>
 5   0  0.4981384E-06  0.1800157E+04  0.7818609E-02  0.8706216E-01
        1   -1    0    0  501    0  0.00000000000E+00  0.00000000000E+00  0.84163194489E+03  0.84163194491E+03  0.50400001928E-02 0. -1.
       -1   -1    0    0    0  501  0.00000000000E+00  0.00000000000E+00 -0.96258370619E+03  0.96258370620E+03  0.50400001928E-02 0.  1.
    10030    2    1    2    0    0  0.00000000000E+00  0.00000000000E+00 -0.12095176130E+03  0.18042156511E+04  0.18001568785E+04 0.  0.
        5    1    3    3  502    0  0.56897172620E+03  0.62495936028E+03 -0.37071552238E+03  0.92290580005E+03  0.46999998093E+01 0.  1.
       -5    1    3    3    0  502 -0.56897172620E+03 -0.62495936028E+03  0.24976376108E+03  0.88130985106E+03  0.46999998093E+01 0. -1.
</event>
<event>
 5   0  0.1036381E-05  0.1799704E+04  0.7818609E-02  0.8706457E-01
       -2   -1    0    0    0  501  0.00000000000E+00  0.00000000000E+00  0.71074320353E+03  0.71074320354E+03  0.25500000920E-02 0. -1.
        2   -1    0    0  501    0  0.00000000000E+00  0.00000000000E+00 -0.11392774204E+04  0.11392774204E+04  0.25500000920E-02 0.  1.
    10030    2    1    2    0    0  0.00000000000E+00  0.00000000000E+00 -0.42853421689E+03  0.18500206240E+04  0.17997040685E+04 0.  0.
        4    1    3    3  502    0 -0.55486359848E+03  0.66614423562E+03 -0.46206755602E+03  0.98241019681E+03  0.12699999809E+01 0. -1.
       -4    1    3    3    0  502  0.55486359848E+03 -0.66614423562E+03  0.33533339126E+02  0.86761042715E+03  0.12699999809E+01 0.  1.
</event>
<event>
 5   0  0.4994123E-06  0.1799243E+04  0.7818609E-02  0.8706702E-01
       -1   -1    0    0    0  501  0.00000000000E+00  0.00000000000E+00  0.69104119753E+03  0.69104119755E+03  0.50400001928E-02 0. -1.
        1   -1    0    0  501    0  0.00000000000E+00  0.00000000000E+00 -0.11711582291E+04  0.11711582291E+04  0.50400001928E-02 0.  1.
    10030    2    1    2    0    0  0.00000000000E+00  0.00000000000E+00 -0.48011703158E+03  0.18621994267E+04  0.17992427131E+04 0.  0.
        1    1    3    3  502    0  0.18676197829E+03 -0.78368658196E+03  0.17429194375E+03  0.82427081530E+03  0.50400001928E-02 0. -1.
       -1    1    3    3    0  502 -0.18676197829E+03  0.78368658196E+03 -0.65440897533E+03  0.10379286114E+04  0.50400001928E-02 0.  1.
</event>
<event>
 5   0  0.9589963E-06  0.1800171E+04  0.7818609E-02  0.8706209E-01
        2   -1    0    0  501    0  0.00000000000E+00  0.00000000000E+00  0.16032667816E+04  0.16032667816E+04  0.25500000920E-02 0.  1.
       -2   -1    0    0    0  501  0.00000000000E+00  0.00000000000E+00 -0.50531446651E+03  0.50531446651E+03  0.25500000920E-02 0. -1.
    10030    2    1    2    0    0  0.00000000000E+00  0.00000000000E+00  0.10979523151E+04  0.21085812481E+04  0.18001709901E+04 0.  0.
        2    1    3    3  502    0 -0.32298044477E+03  0.18352524237E+03  0.15092865445E+04  0.15543306455E+04  0.25500000920E-02 0.  1.
       -2    1    3    3    0  502  0.32298044477E+03 -0.18352524237E+03 -0.41133422934E+03  0.55425060263E+03  0.25500000920E-02 0. -1.
</event>
<event>
 5   0  0.1000316E-05  0.1799321E+04  0.7818609E-02  0.8706661E-01
       -2   -1    0    0    0  501  0.00000000000E+00  0.00000000000E+00  0.36834415212E+04  0.36834415212E+04  0.25500000920E-02 0.  1.
        2   -1    0    0  501    0  0.00000000000E+00  0.00000000000E+00 -0.21973721375E+03  0.21973721376E+03  0.25500000920E-02 0. -1.
    10030    2    1    2    0    0  0.00000000000E+00  0.00000000000E+00  0.34637043075E+04  0.39031787350E+04  0.17993211797E+04 0.  0.
        5    1    3    3  502    0  0.80523498537E+03 -0.33246713775E+03  0.12447150055E+04  0.15193009294E+04  0.46999998093E+01 0. -1.
       -5    1    3    3    0  502 -0.80523498537E+03  0.33246713775E+03  0.22189893020E+04  0.23838778055E+04  0.46999998093E+01 0.  1.
</event>
<event>
 5   0  0.4987456E-06  0.1799511E+04  0.7818609E-02  0.8706559E-01
        1   -1    0    0  501    0  0.00000000000E+00  0.00000000000E+00  0.91912338003E+03  0.91912338005E+03  0.50400001928E-02 0.  1.
       -1   -1    0    0    0  501  0.00000000000E+00  0.00000000000E+00 -0.88079622440E+03  0.88079622442E+03  0.50400001928E-02 0. -1.
    10030    2    1    2    0    0  0.00000000000E+00  0.00000000000E+00  0.38327155633E+02  0.17999196045E+04  0.17995114925E+04 0.  0.
        3    1    3    3  502    0 -0.37379502269E+03 -0.50744824719E+02  0.83621028906E+03  0.91735784400E+03  0.10100000352E+00 0.  1.
       -3    1    3    3    0  502  0.37379502269E+03  0.50744824719E+02 -0.79788313343E+03  0.88256176046E+03  0.10100000352E+00 0. -1.
</event>
<event>
 5   0  0.4981384E-06  0.1799952E+04  0.7818609E-02  0.8706325E-01
        1   -1    0    0  501    0  0.00000000000E+00  0.00000000000E+00  0.11146515619E+04  0.11146515619E+04  0.50400001928E-02 0. -1.
       -1   -1    0    0    0  501  0.00000000000E+00  0.00000000000E+00 -0.72664534011E+03  0.72664534013E+03  0.50400001928E-02 0.  1.
    10030    2    1    2    0    0  0.00000000000E+00  0.00000000000E+00  0.38800622176E+03  0.18412969020E+04  0.17999515141E+04 0.  0.
        5    1    3    3  502    0  0.17310593598E+03  0.43926267267E+03  0.97777254552E+03  0.10858078105E+04  0.46999998093E+01 0. -1.
       -5    1    3    3    0  502 -0.17310593598E+03 -0.43926267267E+03 -0.58976632376E+03  0.75548909146E+03  0.46999998093E+01 0.  1.
</event>
<event>
 5   0  0.9589963E-06  0.1800313E+04  0.7818609E-02  0.8706133E-01
        2   -1    0    0  501    0  0.00000000000E+00  0.00000000000E+00  0.12047566756E+04  0.12047566756E+04  0.25500000920E-02 0.  1.
       -2   -1    0    0    0  501  0.00000000000E+00  0.00000000000E+00 -0.67256848545E+03  0.67256848546E+03  0.25500000920E-02 0. -1.
    10030    2    1    2    0    0  0.00000000000E+00  0.00000000000E+00  0.53218819010E+03  0.18773251610E+04  0.18003126091E+04 0.  0.
        2    1    3    3  502    0 -0.80199689872E+03  0.38892887513E+03  0.13494986049E+03  0.90148552973E+03  0.25500000920E-02 0.  1.
       -2    1    3    3    0  502  0.80199689872E+03 -0.38892887513E+03  0.39723832962E+03  0.97583963128E+03  0.25500000920E-02 0. -1.
</event>
<event>
 5   0  0.4983159E-06  0.1799371E+04  0.7818609E-02  0.8706634E-01
       -1   -1    0    0    0  501  0.00000000000E+00  0.00000000000E+00  0.11954975513E+04  0.11954975513E+04  0.50400001928E-02 0. -1.
        1   -1    0    0  501    0  0.00000000000E+00  0.00000000000E+00 -0.67706861587E+03  0.67706861589E+03  0.50400001928E-02 0.  1.
    10030    2    1    2    0    0  0.00000000000E+00  0.00000000000E+00  0.51842893538E+03  0.18725661672E+04  0.17993708593E+04 0.  0.
        4    1    3    3  502    0  0.35019315448E+03  0.52649294270E+03  0.92525035036E+03  0.11206783160E+04  0.12699999809E+01 0. -1.
       -4    1    3    3    0  502 -0.35019315448E+03 -0.52649294270E+03 -0.40682141499E+03  0.75188785118E+03  0.12699999809E+01 0.  1.
</event>
<event>
 5   0  0.1035018E-05  0.1799620E+04  0.7818609E-02  0.8706502E-01
       -2   -1    0    0    0  501  0.00000000000E+00  0.00000000000E+00  0.12505608015E+04  0.12505608015E+04  0.25500000920E-02 0. -1.
        2   -1    0    0  501    0  0.00000000000E+00  0.00000000000E+00 -0.64743561695E+03  0.64743561696E+03  0.25500000920E-02 0.  1.
    10030    2    1    2    0    0  0.00000000000E+00  0.00000000000E+00  0.60312518450E+03  0.18979964184E+04  0.17996195198E+04 0.  0.
        3    1    3    3  502    0 -0.20236699993E+03  0.74005245667E+03  0.79739841575E+03  0.11065596617E+04  0.10100000352E+00 0. -1.
       -3    1    3    3    0  502  0.20236699993E+03 -0.74005245667E+03 -0.19427323125E+03  0.79143675670E+03  0.10100000352E+00 0.  1.
</event>
<event>
 5   0  0.1000316E-05  0.1800465E+04  0.7818609E-02  0.8706052E-01
        2   -1    0    0  501    0  0.00000000000E+00  0.00000000000E+00  0.19962428270E+04  0.19962428270E+04  0.25500000920E-02 0.  1.
       -2   -1    0    0    0  501  0.00000000000E+00  0.00000000000E+00 -0.40597184236E+03  0.40597184236E+03  0.25500000920E-02 0. -1.
    10030    2    1    2    0    0  0.00000000000E+00  0.00000000000E+00  0.15902709847E+04  0.24022146694E+04  0.18004648048E+04 0.  0.
        5    1    3    3  502    0  0.43490401629E+03  0.25007536808E+03  0.17924293824E+04  0.18613179132E+04  0.46999998093E+01 0.  1.
       -5    1    3    3    0  502 -0.43490401629E+03 -0.25007536808E+03 -0.20215839772E+03  0.54089675620E+03  0.46999998093E+01 0. -1.
</event>
<event>
 5   0  0.9999162E-06  0.1798442E+04  0.7818609E-02  0.8707128E-01
        2   -1    0    0  501    0  0.00000000000E+00  0.00000000000E+00  0.12428739658E+04  0.12428739658E+04  0.25500000920E-02 0.  1.
       -2   -1    0    0    0  501  0.00000000000E+00  0.00000000000E+00 -0.65058767995E+03  0.65058767995E+03  0.25500000920E-02 0. -1.
    10030    2    1    2    0    0  0.00000000000E+00  0.00000000000E+00  0.59228628581E+03  0.18934616457E+04  0.17984420923E+04 0.  0.
        1    1    3    3  502    0  0.62487494688E+03  0.41629586081E+03  0.81708612801E+03  0.11096849479E+04  0.50400001928E-02 0.  1.
       -1    1    3    3    0  502 -0.62487494688E+03 -0.41629586081E+03 -0.22479984220E+03  0.78377669782E+03  0.50400001928E-02 0. -1.
</event>
<event>
 5   0  0.4983159E-06  0.1792878E+04  0.7818609E-02  0.8710096E-01
       -1   -1    0    0    0  501  0.00000000000E+00  0.00000000000E+00  0.88719966296E+03  0.88719966297E+03  0.50400001928E-02 0. -1.
        1   -1    0    0  501    0  0.00000000000E+00  0.00000000000E+00 -0.90577503497E+03  0.90577503498E+03  0.50400001928E-02 0.  1.
    10030    2    1    2    0    0  0.00000000000E+00  0.00000000000E+00 -0.18575372011E+02  0.17929746980E+04  0.17928784741E+04 0.  0.
        4    1    3    3  502    0 -0.19980882292E+03  0.86849659702E+03 -0.10620412552E+03  0.89749141162E+03  0.12699999809E+01 0.  1.
       -4    1    3    3    0  502  0.19980882292E+03 -0.86849659702E+03  0.87628753505E+02  0.89548328633E+03  0.12699999809E+01 0. -1.
</event>
<event>
 5   0  0.9999162E-06  0.1799816E+04  0.7818609E-02  0.8706398E-01
        2   -1    0    0  501    0  0.00000000000E+00  0.00000000000E+00  0.75257564730E+03  0.75257564731E+03  0.25500000920E-02 0.  1.
       -2   -1    0    0    0  501  0.00000000000E+00  0.00000000000E+00 -0.10760831415E+04  0.10760831415E+04  0.25500000920E-02 0. -1.
    10030    2    1    2    0    0  0.00000000000E+00  0.00000000000E+00 -0.32350749420E+03  0.18286587888E+04  0.17998155092E+04 0.  0.
        1    1    3    3  502    0  0.65358427016E+03 -0.60203153853E+03 -0.17279341706E+02  0.88877046939E+03  0.50400001928E-02 0. -1.
       -1    1    3    3    0  502 -0.65358427016E+03  0.60203153853E+03 -0.30622815250E+03  0.93988831943E+03  0.50400001928E-02 0.  1.
</event>
<event>
 5   0  0.4994123E-06  0.1801362E+04  0.7818609E-02  0.8705576E-01
       -1   -1    0    0    0  501  0.00000000000E+00  0.00000000000E+00  0.43013330788E+03  0.43013330791E+03  0.50400001928E-02 0. -1.
        1   -1    0    0  501    0  0.00000000000E+00  0.00000000000E+00 -0.18859872690E+04  0.18859872690E+04  0.50400001928E-02 0.  1.
    10030    2    1    2    0    0  0.00000000000E+00  0.00000000000E+00 -0.14558539611E+04  0.23161205769E+04  0.18013616435E+04 0.  0.
        1    1    3    3  502    0 -0.41643779909E+03  0.19804004151E+03 -0.17226986364E+04  0.17833482246E+04  0.50400001928E-02 0.  1.
       -1    1    3    3    0  502  0.41643779909E+03 -0.19804004151E+03  0.26684467530E+03  0.53277235224E+03  0.50400001928E-02 0. -1.
</event>
<event>
 5   0  0.1036381E-05  0.1800080E+04  0.7818609E-02  0.8706257E-01
       -2   -1    0    0    0  501  0.00000000000E+00  0.00000000000E+00  0.11418928312E+04  0.11418928312E+04  0.25500000920E-02 0.  1.
        2   -1    0    0  501    0  0.00000000000E+00  0.00000000000E+00 -0.70941127332E+03  0.70941127333E+03  0.25500000920E-02 0. -1.
    10030    2    1    2    0    0  0.00000000000E+00  0.00000000000E+00  0.43248155784E+03  0.18513041045E+04  0.18000796064E+04 0.  0.
        4    1    3    3  502    0  0.69695930003E+03 -0.56941237236E+03  0.22585114334E+03  0.92789712120E+03  0.12699999809E+01 0. -1.
       -4    1    3    3    0  502 -0.69695930003E+03  0.56941237236E+03  0.20663041450E+03  0.92340698329E+03  0.12699999809E+01 0.  1.
</event>
<event>
 5   0  0.4994123E-06  0.1799948E+04  0.7818609E-02  0.8706327E-01
        1   -1    0    0  501    0  0.00000000000E+00  0.00000000000E+00  0.10952492005E+04  0.10952492006E+04  0.50400001928E-02 0.  1.
       -1   -1    0    0    0  501  0.00000000000E+00  0.00000000000E+00 -0.73951471189E+03  0.73951471191E+03  0.50400001928E-02 0. -1.
    10030    2    1    2    0    0  0.00000000000E+00  0.00000000000E+00  0.35573448865E+03  0.18347639125E+04  0.17999476626E+04 0.  0.
        1    1    3    3  502    0  0.16607800809E+03  0.31653900194E+03 -0.66404710284E+03  0.75414680225E+03  0.50400001928E-02 0. -1.
       -1    1    3    3    0  502 -0.16607800809E+03 -0.31653900194E+03  0.10197815915E+04  0.10806171102E+04  0.50400001928E-02 0.  1.
</event>
<event>
 5   0  0.1000316E-05  0.1802035E+04  0.7818609E-02  0.8705218E-01
        2   -1    0    0  501    0  0.00000000000E+00  0.00000000000E+00  0.12951101798E+04  0.12951101798E+04  0.25500000920E-02 0.  1.
       -2   -1    0    0    0  501  0.00000000000E+00  0.00000000000E+00 -0.62684467724E+03  0.62684467724E+03  0.25500000920E-02 0. -1.
    10030    2    1    2    0    0  0.00000000000E+00  0.00000000000E+00  0.66826550261E+03  0.19219548571E+04  0.18020354299E+04 0.  0.
        5    1    3    3  502    0 -0.68019146947E+03 -0.53521490710E+03  0.67079605183E+02  0.86812279970E+03  0.46999998093E+01 0. -1.
       -5    1    3    3    0  502  0.68019146947E+03  0.53521490710E+03  0.60118589742E+03  0.10538320574E+04  0.46999998093E+01 0.  1.
</event>
<event>
 5   0  0.1000316E-05  0.1799670E+04  0.7818609E-02  0.8706475E-01
        2   -1    0    0  501    0  0.00000000000E+00  0.00000000000E+00  0.10337604545E+04  0.10337604545E+04  0.25500000920E-02 0.  1.
       -2   -1    0    0    0  501  0.00000000000E+00  0.00000000000E+00 -0.78325943351E+03  0.78325943351E+03  0.25500000920E-02 0. -1.
    10030    2    1    2    0    0  0.00000000000E+00  0.00000000000E+00  0.25050102099E+03  0.18170198880E+04  0.17996695563E+04 0.  0.
        5    1    3    3  502    0 -0.84456942759E+03 -0.25394427535E+03  0.30556491690E+03  0.93336874891E+03  0.46999998093E+01 0.  1.
       -5    1    3    3    0  502  0.84456942759E+03  0.25394427535E+03 -0.55063895905E+02  0.88365113910E+03  0.46999998093E+01 0. -1.
</event>
<event>
 5   0  0.9589963E-06  0.1799531E+04  0.7818609E-02  0.8706549E-01
        2   -1    0    0  501    0  0.00000000000E+00  0.00000000000E+00  0.92719093141E+03  0.92719093141E+03  0.25500000920E-02 0. -1.
       -2   -1    0    0    0  501  0.00000000000E+00  0.00000000000E+00 -0.87315123744E+03  0.87315123744E+03  0.25500000920E-02 0.  1.
    10030    2    1    2    0    0  0.00000000000E+00  0.00000000000E+00  0.54039693964E+02  0.18003421689E+04  0.17995309490E+04 0.  0.
        2    1    3    3  502    0 -0.66173627070E+03  0.28444690707E+03  0.56649662256E+03  0.91636420613E+03  0.25500000920E-02 0. -1.
       -2    1    3    3    0  502  0.66173627070E+03 -0.28444690707E+03 -0.51245692860E+03  0.88397796272E+03  0.25500000920E-02 0.  1.
</event>
<event>
 5   0  0.9589963E-06  0.1800308E+04  0.7818609E-02  0.8706136E-01
       -2   -1    0    0    0  501  0.00000000000E+00  0.00000000000E+00  0.14994623265E+04  0.14994623265E+04  0.25500000920E-02 0. -1.
        2   -1    0    0  501    0  0.00000000000E+00  0.00000000000E+00 -0.54037861575E+03  0.54037861575E+03  0.25500000920E-02 0.  1.
    10030    2    1    2    0    0  0.00000000000E+00  0.00000000000E+00  0.95908371071E+03  0.20398409422E+04  0.18003081696E+04 0.  0.
        2    1    3    3  502    0  0.48090761936E+03  0.43865205005E+03  0.11840313883E+04  0.13511543538E+04  0.25500000920E-02 0. -1.
       -2    1    3    3    0  502 -0.48090761936E+03 -0.43865205005E+03 -0.22494767758E+03  0.68868658839E+03  0.25500000920E-02 0.  1.
</event>
<event>
 5   0  0.9999162E-06  0.1800089E+04  0.7818609E-02  0.8706252E-01
       -2   -1    0    0    0  501  0.00000000000E+00  0.00000000000E+00  0.54887731839E+03  0.54887731839E+03  0.25500000920E-02 0.  1.
        2   -1    0    0  501    0  0.00000000000E+00  0.00000000000E+00 -0.14758852329E+04  0.14758852329E+04  0.25500000920E-02 0. -1.
    10030    2    1    2    0    0  0.00000000000E+00  0.00000000000E+00 -0.92700791455E+03  0.20247625513E+04  0.18000888077E+04 0.  0.
        1    1    3    3  502    0 -0.44616220710E+03  0.11821793530E+03  0.40562304000E+03  0.61446419413E+03  0.50400001928E-02 0.  1.
       -1    1    3    3    0  502  0.44616220710E+03 -0.11821793530E+03 -0.13326309545E+04  0.14102983572E+04  0.50400001928E-02 0. -1.
</event>
<event>
 5   0  0.4981384E-06  0.1799919E+04  0.7818609E-02  0.8706342E-01
        1   -1    0    0  501    0  0.00000000000E+00  0.00000000000E+00  0.26031341872E+04  0.26031341872E+04  0.50400001928E-02 0.  1.
       -1   -1    0    0    0  501  0.00000000000E+00  0.00000000000E+00 -0.31113542530E+03  0.31113542534E+03  0.50400001928E-02 0. -1.
    10030    2    1    2    0    0  0.00000000000E+00  0.00000000000E+00  0.22919987619E+04  0.29142696126E+04  0.17999191787E+04 0.  0.
        5    1    3    3  502    0 -0.88644039555E+03 -0.80157496249E+02  0.13614286652E+04  0.16265644468E+04  0.46999998093E+01 0. -1.
       -5    1    3    3    0  502  0.88644039555E+03  0.80157496249E+02  0.93057009668E+03  0.12877051658E+04  0.46999998093E+01 0.  1.
</event>
<event>
 5   0  0.4987456E-06  0.1799953E+04  0.7818609E-02  0.8706325E-01
       -1   -1    0    0    0  501  0.00000000000E+00  0.00000000000E+00  0.77117263337E+03  0.77117263338E+03  0.50400001928E-02 0. -1.
        1   -1    0    0  501    0  0.00000000000E+00  0.00000000000E+00 -0.10502932975E+04  0.10502932975E+04  0.50400001928E-02 0.  1.
    10030    2    1    2    0    0  0.00000000000E+00  0.00000000000E+00 -0.27912066409E+03  0.18214659309E+04  0.17999527194E+04 0.  0.
        3    1    3    3  502    0  0.71309235102E+01 -0.83802311357E+03 -0.47154208581E+03  0.96160570809E+03  0.10100000352E+00 0.  1.
       -3    1    3    3    0  502 -0.71309235102E+01  0.83802311357E+03  0.19242142172E+03  0.85986022276E+03  0.10100000352E+00 0. -1.
</event>
<event>
 5   0  0.1035018E-05  0.1799175E+04  0.7818609E-02  0.8706738E-01
       -2   -1    0    0    0  501  0.00000000000E+00  0.00000000000E+00  0.11319772145E+04  0.11319772145E+04  0.25500000920E-02 0. -1.
        2   -1    0    0  501    0  0.00000000000E+00  0.00000000000E+00 -0.71490606164E+03  0.71490606164E+03  0.25500000920E-02 0.  1.
    10030    2    1    2    0    0  0.00000000000E+00  0.00000000000E+00  0.41707115282E+03  0.18468832761E+04  0.17991746688E+04 0.  0.
        3    1    3    3  502    0 -0.82378629975E+03  0.54423471695E+02  0.57532198769E+03  0.10062709285E+04  0.10100000352E+00 0. -1.
       -3    1    3    3    0  502  0.82378629975E+03 -0.54423471695E+02 -0.15825083487E+03  0.84061234755E+03  0.10100000352E+00 0.  1.
</event>
<event>
 5   0  0.4994123E-06  0.1801249E+04  0.7818609E-02  0.8705636E-01
       -1   -1    0    0    0  501  0.00000000000E+00  0.00000000000E+00  0.75470782437E+03  0.75470782438E+03  0.50400001928E-02 0. -1.
        1   -1    0    0  501    0  0.00000000000E+00  0.00000000000E+00 -0.10747526122E+04  0.10747526122E+04  0.50400001928E-02 0.  1.
    10030    2    1    2    0    0  0.00000000000E+00  0.00000000000E+00 -0.32004478786E+03  0.18294604366E+04  0.18012486844E+04 0.  0.
        1    1    3    3  502    0 -0.69413802241E+03 -0.31147823427E+03  0.32947829866E+03  0.82909724031E+03  0.50400001928E-02 0.  1.
       -1    1    3    3    0  502  0.69413802241E+03  0.31147823427E+03 -0.64952308651E+03  0.10003631963E+04  0.50400001928E-02 0. -1.
</event>
<event>
 5   0  0.9589963E-06  0.1801062E+04  0.7818609E-02  0.8705735E-01
       -2   -1    0    0    0  501  0.00000000000E+00  0.00000000000E+00  0.41529913519E+03  0.41529913520E+03  0.25500000920E-02 0. -1.
        2   -1    0    0  501    0  0.00000000000E+00  0.00000000000E+00 -0.19527032891E+04  0.19527032891E+04  0.25500000920E-02 0.  1.
    10030    2    1    2    0    0  0.00000000000E+00  0.00000000000E+00 -0.15374041539E+04  0.23680024243E+04  0.18010618948E+04 0.  0.
        2    1    3    3  502    0  0.78515191162E+03  0.65476830301E+02 -0.13421114029E+04  0.15562820302E+04  0.25500000920E-02 0.  1.
       -2    1    3    3    0  502 -0.78515191162E+03 -0.65476830301E+02 -0.19529275100E+03  0.81172039412E+03  0.25500000920E-02 0. -1.
</event>
<event>
 5   0  0.4983159E-06  0.1799848E+04  0.7818609E-02  0.8706380E-01
       -1   -1    0    0    0  501  0.00000000000E+00  0.00000000000E+00  0.13104027458E+04  0.13104027458E+04  0.50400001928E-02 0. -1.
        1   -1    0    0  501    0  0.00000000000E+00  0.00000000000E+00 -0.61802630411E+03  0.61802630413E+03  0.50400001928E-02 0.  1.
    10030    2    1    2    0    0  0.00000000000E+00  0.00000000000E+00  0.69237644167E+03  0.19284290499E+04  0.17998481779E+04 0.  0.
        4    1    3    3  502    0  0.42309641088E+03  0.37499046661E+03  0.10963746608E+04  0.12335588484E+04  0.12699999809E+01 0. -1.
       -4    1    3    3    0  502 -0.42309641088E+03 -0.37499046661E+03 -0.40399821908E+03  0.69487020146E+03  0.12699999809E+01 0.  1.
</event>
<event>
 5   0  0.4994123E-06  0.1799724E+04  0.7818609E-02  0.8706446E-01
        1   -1    0    0  501    0  0.00000000000E+00  0.00000000000E+00  0.93242408117E+03  0.93242408119E+03  0.50400001928E-02 0. -1.
       -1   -1    0    0    0  501  0.00000000000E+00  0.00000000000E+00 -0.86843724788E+03  0.86843724789E+03  0.50400001928E-02 0.  1.
    10030    2    1    2    0    0  0.00000000000E+00  0.00000000000E+00  0.63986833296E+02  0.18008613291E+04  0.17997242044E+04 0.  0.
        1    1    3    3  502    0  0.32188645912E+03  0.68646857096E+03 -0.45297951303E+03  0.88319897573E+03  0.50400001928E-02 0.  1.
       -1    1    3    3    0  502 -0.32188645912E+03 -0.68646857096E+03  0.51696634633E+03  0.91766235334E+03  0.50400001928E-02 0. -1.
</event>
<event>
 5   0  0.4953155E-06  0.1799777E+04  0.7818609E-02  0.8706418E-01
       -1   -1    0    0    0  501  0.00000000000E+00  0.00000000000E+00  0.39646606529E+03  0.39646606533E+03  0.50400001928E-02 0. -1.
        1   -1    0    0  501    0  0.00000000000E+00  0.00000000000E+00 -0.20425435206E+04  0.20425435206E+04  0.50400001928E-02 0.  1.
    10030    2    1    2    0    0  0.00000000000E+00  0.00000000000E+00 -0.16460774553E+04  0.24390095859E+04  0.17997768671E+04 0.  0.
        2    1    3    3  502    0 -0.60411838877E+03  0.52251178139E+03 -0.13847766267E+04  0.15986193716E+04  0.25500000920E-02 0.  1.
       -2    1    3    3    0  502  0.60411838877E+03 -0.52251178139E+03 -0.26130082862E+03  0.84039021436E+03  0.25500000920E-02 0. -1.
</event>
<event>
 5   0  0.4987456E-06  0.1800534E+04  0.7818609E-02  0.8706015E-01
       -1   -1    0    0    0  501  0.00000000000E+00  0.00000000000E+00  0.74959578011E+03  0.74959578013E+03  0.50400001928E-02 0.  1.
        1   -1    0    0  501    0  0.00000000000E+00  0.00000000000E+00 -0.10812241658E+04  0.10812241659E+04  0.50400001928E-02 0. -1.
    10030    2    1    2    0    0  0.00000000000E+00  0.00000000000E+00 -0.33162838573E+03  0.18308199460E+04  0.18005344452E+04 0.  0.
        3    1    3    3  502    0 -0.68598984471E+03  0.55845445263E+03  0.44162798886E+01  0.88457501459E+03  0.10100000352E+00 0. -1.
       -3    1    3    3    0  502  0.68598984471E+03 -0.55845445263E+03 -0.33604466561E+03  0.94624493139E+03  0.10100000352E+00 0.  1.
</event>
<event>
 5   0  0.1036381E-05  0.1800801E+04  0.7818609E-02  0.8705874E-01
        2   -1    0    0  501    0  0.00000000000E+00  0.00000000000E+00  0.15594718950E+04  0.15594718950E+04  0.25500000920E-02 0.  1.
       -2   -1    0    0    0  501  0.00000000000E+00  0.00000000000E+00 -0.51986870932E+03  0.51986870932E+03  0.25500000920E-02 0. -1.
    10030    2    1    2    0    0  0.00000000000E+00  0.00000000000E+00  0.10396031856E+04  0.20793406043E+04  0.18008005345E+04 0.  0.
        4    1    3    3  502    0 -0.62109196859E+03 -0.55848480249E+03  0.90805177842E+03  0.12337828631E+04  0.12699999809E+01 0. -1.
       -4    1    3    3    0  502  0.62109196859E+03  0.55848480249E+03  0.13155140722E+03  0.84555774120E+03  0.12699999809E+01 0.  1.
</event>
<event>
 5   0  0.1036381E-05  0.1799877E+04  0.7818609E-02  0.8706365E-01
       -2   -1    0    0    0  501  0.00000000000E+00  0.00000000000E+00  0.11045218935E+04  0.11045218935E+04  0.25500000920E-02 0.  1.
        2   -1    0    0  501    0  0.00000000000E+00  0.00000000000E+00 -0.73324913688E+03  0.73324913688E+03  0.25500000920E-02 0. -1.
    10030    2    1    2    0    0  0.00000000000E+00  0.00000000000E+00  0.37127275659E+03  0.18377710304E+04  0.17998774681E+04 0.  0.
        4    1    3    3  502    0 -0.61455217197E+03 -0.26834961357E+03 -0.42716771363E+03  0.79508474745E+03  0.12699999809E+01 0. -1.
       -4    1    3    3    0  502  0.61455217197E+03  0.26834961357E+03  0.79844047022E+03  0.10426862829E+04  0.12699999809E+01 0.  1.
</event>
<event>
 5   0  0.4953155E-06  0.1799696E+04  0.7818609E-02  0.8706461E-01
       -1   -1    0    0    0  501  0.00000000000E+00  0.00000000000E+00  0.49623730559E+03  0.49623730562E+03  0.50400001928E-02 0.  1.
        1   -1    0    0  501    0  0.00000000000E+00  0.00000000000E+00 -0.16317318368E+04  0.16317318368E+04  0.50400001928E-02 0. -1.
    10030    2    1    2    0    0  0.00000000000E+00  0.00000000000E+00 -0.11354945312E+04  0.21279691424E+04  0.17996957634E+04 0.  0.
        2    1    3    3  502    0  0.26272737370E+03  0.73299302046E+03 -0.34455417264E+02  0.77941748551E+03  0.25500000920E-02 0.  1.
       -2    1    3    3    0  502 -0.26272737370E+03 -0.73299302046E+03 -0.11010391139E+04  0.13485516569E+04  0.25500000920E-02 0. -1.
</event>
<event>
 5   0  0.1036381E-05  0.1801520E+04  0.7818609E-02  0.8705492E-01
        2   -1    0    0  501    0  0.00000000000E+00  0.00000000000E+00  0.71379999714E+03  0.71379999714E+03  0.25500000920E-02 0.  1.
       -2   -1    0    0    0  501  0.00000000000E+00  0.00000000000E+00 -0.11366888215E+04  0.11366888215E+04  0.25500000920E-02 0. -1.
    10030    2    1    2    0    0  0.00000000000E+00  0.00000000000E+00 -0.42288882432E+03  0.18504888186E+04  0.18015198889E+04 0.  0.
        4    1    3    3  502    0 -0.84089486261E+03 -0.26624686460E+03 -0.39909935341E+03  0.96812884972E+03  0.12699999809E+01 0. -1.
       -4    1    3    3    0  502  0.84089486261E+03  0.26624686460E+03 -0.23789470913E+02  0.88235996889E+03  0.12699999809E+01 0.  1.
</event>
<event>
 5   0  0.9999162E-06  0.1800189E+04  0.7818609E-02  0.8706199E-01
        2   -1    0    0  501    0  0.00000000000E+00  0.00000000000E+00  0.12574956569E+04  0.12574956569E+04  0.25500000920E-02 0.  1.
       -2   -1    0    0    0  501  0.00000000000E+00  0.00000000000E+00 -0.64427297132E+03  0.64427297133E+03  0.25500000920E-02 0. -1.
    10030    2    1    2    0    0  0.00000000000E+00  0.00000000000E+00  0.61322268556E+03  0.19017686282E+04  0.18001893937E+04 0.  0.
        1    1    3    3  502    0  0.14467174890E+03 -0.25506340610E+03 -0.59239696544E+03  0.66100031827E+03  0.50400001928E-02 0. -1.
       -1    1    3    3    0  502 -0.14467174890E+03  0.25506340610E+03  0.12056196510E+04  0.12407683099E+04  0.50400001928E-02 0.  1.
</event>
<event>
 5   0  0.1036381E-05  0.1793924E+04  0.7818609E-02  0.8709537E-01
        2   -1    0    0  501    0  0.00000000000E+00  0.00000000000E+00  0.18046707927E+04  0.18046707927E+04  0.25500000920E-02 0.  1.
       -2   -1    0    0    0  501  0.00000000000E+00  0.00000000000E+00 -0.44581045808E+03  0.44581045809E+03  0.25500000920E-02 0. -1.
    10030    2    1    2    0    0  0.00000000000E+00  0.00000000000E+00  0.13588603346E+04  0.22504812508E+04  0.17939243159E+04 0.  0.
        4    1    3    3  502    0  0.69085826580E+03 -0.17517557413E+03 -0.37469869806E+01  0.71273226250E+03  0.12699999809E+01 0. -1.
       -4    1    3    3    0  502 -0.69085826580E+03  0.17517557413E+03  0.13626073216E+04  0.15377489883E+04  0.12699999809E+01 0.  1.
</event>
<event>
 5   0  0.4981384E-06  0.1800384E+04  0.7818609E-02  0.8706095E-01
        1   -1    0    0  501    0  0.00000000000E+00  0.00000000000E+00  0.17892232162E+04  0.17892232162E+04  0.50400001928E-02 0.  1.
       -1   -1    0    0    0  501  0.00000000000E+00  0.00000000000E+00 -0.45290347391E+03  0.45290347394E+03  0.50400001928E-02 0. -1.
    10030    2    1    2    0    0  0.00000000000E+00  0.00000000000E+00  0.13363197423E+04  0.22421266901E+04  0.18003837483E+04 0.  0.
        5    1    3    3  502    0 -0.11473215174E+03 -0.67389299309E+03 -0.61230298009E+02  0.68634282408E+03  0.46999998093E+01 0. -1.
       -5    1    3    3    0  502  0.11473215174E+03  0.67389299309E+03  0.13975500403E+04  0.15557838661E+04  0.46999998093E+01 0.  1.
</event>
<event>
 5   0  0.1000316E-05  0.1799536E+04  0.7818609E-02  0.8706546E-01
       -2   -1    0    0    0  501  0.00000000000E+00  0.00000000000E+00  0.10388271166E+04  0.10388271166E+04  0.25500000920E-02 0. -1.
        2   -1    0    0  501    0  0.00000000000E+00  0.00000000000E+00 -0.77932386748E+03  0.77932386748E+03  0.25500000920E-02 0.  1.
    10030    2    1    2    0    0  0.00000000000E+00  0.00000000000E+00  0.25950324914E+03  0.18181509841E+04  0.17995363471E+04 0.  0.
        5    1    3    3  502    0  0.20277263550E+03 -0.42529387574E+03 -0.64470799667E+03  0.79853748404E+03  0.46999998093E+01 0.  1.
       -5    1    3    3    0  502 -0.20277263550E+03  0.42529387574E+03  0.90421124581E+03  0.10196135001E+04  0.46999998093E+01 0. -1.
</event>
<event>
 5   0  0.4981384E-06  0.1799589E+04  0.7818609E-02  0.8706518E-01
        1   -1    0    0  501    0  0.00000000000E+00  0.00000000000E+00  0.14210948505E+04  0.14210948505E+04  0.50400001928E-02 0.  1.
       -1   -1    0    0    0  501  0.00000000000E+00  0.00000000000E+00 -0.56972276033E+03  0.56972276035E+03  0.50400001928E-02 0. -1.
    10030    2    1    2    0    0  0.00000000000E+00  0.00000000000E+00  0.85137209017E+03  0.19908176109E+04  0.17995889319E+04 0.  0.
        5    1    3    3  502    0  0.61002018409E+03  0.66078555684E+03  0.39351274970E+03  0.98164991281E+03  0.46999998093E+01 0.  1.
       -5    1    3    3    0  502 -0.61002018409E+03 -0.66078555684E+03  0.45785934047E+03  0.10091676980E+04  0.46999998093E+01 0. -1.
</event>
<event>
 5   0  0.4987456E-06  0.1803593E+04  0.7818609E-02  0.8704391E-01
        1   -1    0    0  501    0  0.00000000000E+00  0.00000000000E+00  0.13793381819E+04  0.13793381819E+04  0.50400001928E-02 0.  1.
       -1   -1    0    0    0  501  0.00000000000E+00  0.00000000000E+00 -0.58958460214E+03  0.58958460217E+03  0.50400001928E-02 0. -1.
    10030    2    1    2    0    0  0.00000000000E+00  0.00000000000E+00  0.78975357979E+03  0.19689227841E+04  0.18035925851E+04 0.  0.
        3    1    3    3  502    0  0.72876628840E+03 -0.39425560596E+03  0.63003896079E+01  0.82859971702E+03  0.10100000352E+00 0. -1.
       -3    1    3    3    0  502 -0.72876628840E+03  0.39425560596E+03  0.78345319018E+03  0.11403230671E+04  0.10100000352E+00 0.  1.
</event>
<event>
 5   0  0.1035018E-05  0.1798822E+04  0.7818609E-02  0.8706926E-01
       -2   -1    0    0    0  501  0.00000000000E+00  0.00000000000E+00  0.38683527934E+03  0.38683527934E+03  0.25500000920E-02 0. -1.
        2   -1    0    0  501    0  0.00000000000E+00  0.00000000000E+00 -0.20911748818E+04  0.20911748818E+04  0.25500000920E-02 0.  1.
    10030    2    1    2    0    0  0.00000000000E+00  0.00000000000E+00 -0.17043396025E+04  0.24780101611E+04  0.17988220808E+04 0.  0.
        3    1    3    3  502    0 -0.57210738658E+03  0.50958614069E+03 -0.20316539494E+03  0.79262922257E+03  0.10100000352E+00 0. -1.
       -3    1    3    3    0  502  0.57210738658E+03 -0.50958614069E+03 -0.15011742075E+04  0.16853809386E+04  0.10100000352E+00 0.  1.
</event>
<event>
 5   0  0.4994123E-06  0.1799728E+04  0.7818609E-02  0.8706444E-01
        1   -1    0    0  501    0  0.00000000000E+00  0.00000000000E+00  0.17014612885E+04  0.17014612885E+04  0.50400001928E-02 0.  1.
       -1   -1    0    0    0  501  0.00000000000E+00  0.00000000000E+00 -0.47591758007E+03  0.47591758010E+03  0.50400001928E-02 0. -1.
    10030    2    1    2    0    0  0.00000000000E+00  0.00000000000E+00  0.12255437084E+04  0.21773788686E+04  0.17997281339E+04 0.  0.
        1    1    3    3  502    0  0.57403595253E+02  0.70598188624E+03  0.12842587212E+04  0.14666376715E+04  0.50400001928E-02 0.  1.
       -1    1    3    3    0  502 -0.57403595253E+02 -0.70598188624E+03 -0.58715012811E+02  0.71074119707E+03  0.50400001928E-02 0. -1.
</event>
<event>
 5   0  0.4983159E-06  0.1801719E+04  0.7818609E-02  0.8705386E-01
       -1   -1    0    0    0  501  0.00000000000E+00  0.00000000000E+00  0.52249199724E+03  0.52249199727E+03  0.50400001928E-02 0. -1.
        1   -1    0    0  501    0  0.00000000000E+00  0.00000000000E+00 -0.15532247044E+04  0.15532247044E+04  0.50400001928E-02 0.  1.
    10030    2    1    2    0    0  0.00000000000E+00  0.00000000000E+00 -0.10307327072E+04  0.20757167017E+04  0.18017185996E+04 0.  0.
        4    1    3    3  502    0  0.10971967006E+02  0.26439319601E+03 -0.15074380417E+04  0.15304885522E+04  0.12699999809E+01 0.  1.
       -4    1    3    3    0  502 -0.10971967006E+02 -0.26439319601E+03  0.47670533448E+03  0.54522814947E+03  0.12699999809E+01 0. -1.
</event>
<event>
 5   0  0.4981384E-06  0.1813999E+04  0.7818609E-02  0.8698890E-01
        1   -1    0    0  501    0  0.00000000000E+00  0.00000000000E+00  0.40454693219E+03  0.40454693223E+03  0.50400001928E-02 0.  1.
       -1   -1    0    0    0  501  0.00000000000E+00  0.00000000000E+00 -0.20335055264E+04  0.20335055264E+04  0.50400001928E-02 0. -1.
    10030    2    1    2    0    0  0.00000000000E+00  0.00000000000E+00 -0.16289585942E+04  0.24380524586E+04  0.18139993631E+04 0.  0.
        5    1    3    3  502    0 -0.38312276443E+03 -0.81728742033E+03 -0.69513698852E+03  0.11392889462E+04  0.46999998093E+01 0. -1.
       -5    1    3    3    0  502  0.38312276443E+03  0.81728742033E+03 -0.93382160567E+03  0.12987635124E+04  0.46999998093E+01 0.  1.
</event>
<event>
 5   0  0.4983159E-06  0.1800504E+04  0.7818609E-02  0.8706032E-01
       -1   -1    0    0    0  501  0.00000000000E+00  0.00000000000E+00  0.56596433394E+03  0.56596433396E+03  0.50400001928E-02 0. -1.
        1   -1    0    0  501    0  0.00000000000E+00  0.00000000000E+00 -0.14319867221E+04  0.14319867221E+04  0.50400001928E-02 0.  1.
    10030    2    1    2    0    0  0.00000000000E+00  0.00000000000E+00 -0.86602238820E+03  0.19979510561E+04  0.18005037200E+04 0.  0.
        4    1    3    3  502    0  0.41405786592E+03  0.57663975699E+03  0.18131940230E+03  0.73269070160E+03  0.12699999809E+01 0. -1.
       -4    1    3    3    0  502 -0.41405786592E+03 -0.57663975699E+03 -0.10473417905E+04  0.12652603545E+04  0.12699999809E+01 0.  1.
</event>
<event>
 5   0  0.4994123E-06  0.1799252E+04  0.7818609E-02  0.8706697E-01
       -1   -1    0    0    0  501  0.00000000000E+00  0.00000000000E+00  0.40578892706E+03  0.40578892709E+03  0.50400001928E-02 0. -1.
        1   -1    0    0  501    0  0.00000000000E+00  0.00000000000E+00 -0.19944524312E+04  0.19944524312E+04  0.50400001928E-02 0.  1.
    10030    2    1    2    0    0  0.00000000000E+00  0.00000000000E+00 -0.15886635041E+04  0.24002413583E+04  0.17992517469E+04 0.  0.
        1    1    3    3  502    0  0.81267822453E+03  0.86953985788E+02 -0.12958243410E+04  0.15320468710E+04  0.50400001928E-02 0. -1.
       -1    1    3    3    0  502 -0.81267822453E+03 -0.86953985788E+02 -0.29283916318E+03  0.86819448730E+03  0.50400001928E-02 0.  1.
</event>
<event>
 5   0  0.1036381E-05  0.1802073E+04  0.7818609E-02  0.8705198E-01
        2   -1    0    0  501    0  0.00000000000E+00  0.00000000000E+00  0.20808854093E+04  0.20808854093E+04  0.25500000920E-02 0. -1.
       -2   -1    0    0    0  501  0.00000000000E+00  0.00000000000E+00 -0.39015428915E+03  0.39015428915E+03  0.25500000920E-02 0.  1.
    10030    2    1    2    0    0  0.00000000000E+00  0.00000000000E+00  0.16907311201E+04  0.24710396984E+04  0.18020725487E+04 0.  0.
        4    1    3    3  502    0  0.58115113630E+02 -0.55538866382E+03  0.18149951014E+04  0.18989583369E+04  0.12699999809E+01 0. -1.
       -4    1    3    3    0  502 -0.58115113630E+02  0.55538866382E+03 -0.12426398121E+03  0.57208136157E+03  0.12699999809E+01 0.  1.
</event>
<event>
 5   0  0.4983159E-06  0.1799595E+04  0.7818609E-02  0.8706515E-01
        1   -1    0    0  501    0  0.00000000000E+00  0.00000000000E+00  0.20582801461E+04  0.20582801461E+04  0.50400001928E-02 0.  1.
       -1   -1    0    0    0  501  0.00000000000E+00  0.00000000000E+00 -0.39335557745E+03  0.39335557748E+03  0.50400001928E-02 0. -1.
    10030    2    1    2    0    0  0.00000000000E+00  0.00000000000E+00  0.16649245687E+04  0.24516357236E+04  0.17995954829E+04 0.  0.
        4    1    3    3  502    0  0.21604872017E+03  0.67076947046E+03  0.70258683505E+02  0.70819956756E+03  0.12699999809E+01 0.  1.
       -4    1    3    3    0  502 -0.21604872017E+03 -0.67076947046E+03  0.15946658852E+04  0.17434361560E+04  0.12699999809E+01 0. -1.
</event>
<event>
 5   0  0.4994123E-06  0.1800068E+04  0.7818609E-02  0.8706263E-01
        1   -1    0    0  501    0  0.00000000000E+00  0.00000000000E+00  0.95840136830E+03  0.95840136831E+03  0.50400001928E-02 0. -1.
       -1   -1    0    0    0  501  0.00000000000E+00  0.00000000000E+00 -0.84522157166E+03  0.84522157167E+03  0.50400001928E-02 0.  1.
    10030    2    1    2    0    0  0.00000000000E+00  0.00000000000E+00  0.11317979664E+03  0.18036229400E+04  0.18000683441E+04 0.  0.
        1    1    3    3  502    0 -0.10724784164E+03 -0.34571598632E+03 -0.76907608543E+03  0.84999980467E+03  0.50400001928E-02 0.  1.
       -1    1    3    3    0  502  0.10724784164E+03  0.34571598632E+03  0.88225588207E+03  0.95362313532E+03  0.50400001928E-02 0. -1.
</event>
<event>
 5   0  0.4987456E-06  0.1801501E+04  0.7818609E-02  0.8705502E-01
       -1   -1    0    0    0  501  0.00000000000E+00  0.00000000000E+00  0.74016713503E+03  0.74016713504E+03  0.50400001928E-02 0. -1.
        1   -1    0    0  501    0  0.00000000000E+00  0.00000000000E+00 -0.10961735774E+04  0.10961735774E+04  0.50400001928E-02 0.  1.
    10030    2    1    2    0    0  0.00000000000E+00  0.00000000000E+00 -0.35600644240E+03  0.18363407125E+04  0.18015012143E+04 0.  0.
        3    1    3    3  502    0 -0.51447137197E+03  0.70710494055E+03 -0.39822166353E+03  0.96086351425E+03  0.10100000352E+00 0.  1.
       -3    1    3    3    0  502  0.51447137197E+03 -0.70710494055E+03  0.42215221126E+02  0.87547719823E+03  0.10100000352E+00 0. -1.
</event>
<event>
 5   0  0.4987456E-06  0.1799678E+04  0.7818609E-02  0.8706471E-01
       -1   -1    0    0    0  501  0.00000000000E+00  0.00000000000E+00  0.14975635384E+04  0.14975635384E+04  0.50400001928E-02 0.  1.
        1   -1    0    0  501    0  0.00000000000E+00  0.00000000000E+00 -0.54068528969E+03  0.54068528972E+03  0.50400001928E-02 0. -1.
    10030    2    1    2    0    0  0.00000000000E+00  0.00000000000E+00  0.95687824868E+03  0.20382488281E+04  0.17996783886E+04 0.  0.
        3    1    3    3  502    0 -0.87773941518E+03 -0.77142963052E+02  0.27166327581E+03  0.92205122599E+03  0.10100000352E+00 0. -1.
       -3    1    3    3    0  502  0.87773941518E+03  0.77142963052E+02  0.68521497287E+03  0.11161976021E+04  0.10100000352E+00 0.  1.
</event>
<event>
 5   0  0.1036381E-05  0.1798917E+04  0.7818609E-02  0.8706876E-01
        2   -1    0    0  501    0  0.00000000000E+00  0.00000000000E+00  0.24099840287E+04  0.24099840287E+04  0.25500000920E-02 0. -1.
       -2   -1    0    0    0  501  0.00000000000E+00  0.00000000000E+00 -0.33569733026E+03  0.33569733026E+03  0.25500000920E-02 0.  1.
    10030    2    1    2    0    0  0.00000000000E+00  0.00000000000E+00  0.20742866985E+04  0.27456813590E+04  0.17989165677E+04 0.  0.
        4    1    3    3  502    0  0.70842629114E+03  0.22566750253E+02  0.19194598080E+03  0.73431732966E+03  0.12699999809E+01 0.  1.
       -4    1    3    3    0  502 -0.70842629114E+03 -0.22566750253E+02  0.18823407177E+04  0.20113640293E+04  0.12699999809E+01 0. -1.
</event>
<event>
 5   0  0.4953155E-06  0.1799487E+04  0.7818609E-02  0.8706573E-01
        1   -1    0    0  501    0  0.00000000000E+00  0.00000000000E+00  0.15597770673E+04  0.15597770673E+04  0.50400001928E-02 0. -1.
       -1   -1    0    0    0  501  0.00000000000E+00  0.00000000000E+00 -0.51900876142E+03  0.51900876145E+03  0.50400001928E-02 0.  1.
    10030    2    1    2    0    0  0.00000000000E+00  0.00000000000E+00  0.10407683059E+04  0.20787858288E+04  0.17994865533E+04 0.  0.
        2    1    3    3  502    0 -0.54642336024E+03 -0.54271635929E+03  0.10577972688E+04  0.13084550421E+04  0.25500000920E-02 0. -1.
       -2    1    3    3    0  502  0.54642336024E+03  0.54271635929E+03 -0.17028962965E+02  0.77033078664E+03  0.25500000920E-02 0.  1.
</event>
<event>
 5   0  0.4983159E-06  0.1800116E+04  0.7818609E-02  0.8706238E-01
        1   -1    0    0  501    0  0.00000000000E+00  0.00000000000E+00  0.15812795645E+04  0.15812795645E+04  0.50400001928E-02 0. -1.
       -1   -1    0    0    0  501  0.00000000000E+00  0.00000000000E+00 -0.51230934747E+03  0.51230934749E+03  0.50400001928E-02 0.  1.
    10030    2    1    2    0    0  0.00000000000E+00  0.00000000000E+00  0.10689702171E+04  0.20935889120E+04  0.18001158873E+04 0.  0.
        4    1    3    3  502    0 -0.72719409025E+03  0.12312021815E+03 -0.65499613909E+02  0.74044692270E+03  0.12699999809E+01 0.  1.
       -4    1    3    3    0  502  0.72719409025E+03 -0.12312021815E+03  0.11344698310E+04  0.13531419893E+04  0.12699999809E+01 0. -1.
</event>
<event>
 5   0  0.1036381E-05  0.1801044E+04  0.7818609E-02  0.8705744E-01
        2   -1    0    0  501    0  0.00000000000E+00  0.00000000000E+00  0.20554472384E+04  0.20554472384E+04  0.25500000920E-02 0.  1.
       -2   -1    0    0    0  501  0.00000000000E+00  0.00000000000E+00 -0.39453215287E+03  0.39453215288E+03  0.25500000920E-02 0. -1.
    10030    2    1    2    0    0  0.00000000000E+00  0.00000000000E+00  0.16609150855E+04  0.24499793913E+04  0.18010441683E+04 0.  0.
        4    1    3    3  502    0  0.78402354422E+03 -0.42278656467E+03  0.10103943614E+04  0.13469743040E+04  0.12699999809E+01 0.  1.
       -4    1    3    3    0  502 -0.78402354422E+03  0.42278656467E+03  0.65052072412E+03  0.11030050873E+04  0.12699999809E+01 0. -1.
</event>
<event>
 5   0  0.1000316E-05  0.1799728E+04  0.7818609E-02  0.8706444E-01
        2   -1    0    0  501    0  0.00000000000E+00  0.00000000000E+00  0.11566420911E+04  0.11566420911E+04  0.25500000920E-02 0.  1.
       -2   -1    0    0    0  501  0.00000000000E+00  0.00000000000E+00 -0.70009144624E+03  0.70009144625E+03  0.25500000920E-02 0. -1.
    10030    2    1    2    0    0  0.00000000000E+00  0.00000000000E+00  0.45655064489E+03  0.18567335374E+04  0.17997280176E+04 0.  0.
        5    1    3    3  502    0 -0.56835658496E+03  0.18566576108E+01 -0.49146129055E+03  0.75139133942E+03  0.46999998093E+01 0. -1.
       -5    1    3    3    0  502  0.56835658496E+03 -0.18566576108E+01  0.94801193544E+03  0.11053421980E+04  0.46999998093E+01 0.  1.
</event>
<event>
 5   0  0.4983159E-06  0.1799255E+04  0.7818609E-02  0.8706696E-01
       -1   -1    0    0    0  501  0.00000000000E+00  0.00000000000E+00  0.65889683629E+03  0.65889683631E+03  0.50400001928E-02 0.  1.
        1   -1    0    0  501    0  0.00000000000E+00  0.00000000000E+00 -0.12283100546E+04  0.12283100546E+04  0.50400001928E-02 0. -1.
    10030    2    1    2    0    0  0.00000000000E+00  0.00000000000E+00 -0.56941321833E+03  0.18872068909E+04  0.17992549669E+04 0.  0.
        4    1    3    3  502    0 -0.66862124057E+03  0.49108345803E+03  0.80314522129E+02  0.83346827262E+03  0.12699999809E+01 0.  1.
       -4    1    3    3    0  502  0.66862124057E+03 -0.49108345803E+03 -0.64972774046E+03  0.10537386183E+04  0.12699999809E+01 0. -1.
</event>
<event>
 5   0  0.1036381E-05  0.1800513E+04  0.7818609E-02  0.8706027E-01
       -2   -1    0    0    0  501  0.00000000000E+00  0.00000000000E+00  0.62180762224E+03  0.62180762225E+03  0.25500000920E-02 0.  1.
        2   -1    0    0  501    0  0.00000000000E+00  0.00000000000E+00 -0.13033966540E+04  0.13033966540E+04  0.25500000920E-02 0. -1.
    10030    2    1    2    0    0  0.00000000000E+00  0.00000000000E+00 -0.68158903174E+03  0.19252042762E+04  0.18005132316E+04 0.  0.
        4    1    3    3  502    0  0.63360975249E+02  0.59428965369E+03 -0.10606691308E+04  0.12174626991E+04  0.12699999809E+01 0. -1.
       -4    1    3    3    0  502 -0.63360975249E+02 -0.59428965369E+03  0.37908009905E+03  0.70774157718E+03  0.12699999809E+01 0.  1.
</event>
<event>
 5   0  0.1035018E-05  0.1799937E+04  0.7818609E-02  0.8706333E-01
        2   -1    0    0  501    0  0.00000000000E+00  0.00000000000E+00  0.10474132996E+04  0.10474132996E+04  0.25500000920E-02 0.  1.
       -2   -1    0    0    0  501  0.00000000000E+00  0.00000000000E+00 -0.77327991439E+03  0.77327991440E+03  0.25500000920E-02 0. -1.
    10030    2    1    2    0    0  0.00000000000E+00  0.00000000000E+00  0.27413338518E+03  0.18206932140E+04  0.17999374063E+04 0.  0.
        3    1    3    3  502    0 -0.95739096586E+02 -0.46186845375E+03 -0.63822789490E+03  0.79361407448E+03  0.10100000352E+00 0. -1.
       -3    1    3    3    0  502  0.95739096586E+02  0.46186845375E+03  0.91236128008E+03  0.10270791395E+04  0.10100000352E+00 0.  1.
</event>
<event>
 5   0  0.4981384E-06  0.1799987E+04  0.7818609E-02  0.8706307E-01
        1   -1    0    0  501    0  0.00000000000E+00  0.00000000000E+00  0.16343449862E+04  0.16343449862E+04  0.50400001928E-02 0. -1.
       -1   -1    0    0    0  501  0.00000000000E+00  0.00000000000E+00 -0.49560397038E+03  0.49560397041E+03  0.50400001928E-02 0.  1.
    10030    2    1    2    0    0  0.00000000000E+00  0.00000000000E+00  0.11387410158E+04  0.21299489566E+04  0.17999865157E+04 0.  0.
        5    1    3    3  502    0 -0.50061791757E+03 -0.73708304875E+03  0.71931114606E+03  0.11451376926E+04  0.46999998093E+01 0. -1.
       -5    1    3    3    0  502  0.50061791757E+03  0.73708304875E+03  0.41942986978E+03  0.98481126405E+03  0.46999998093E+01 0.  1.
</event>
<event>
 5   0  0.9589963E-06  0.1799726E+04  0.7818609E-02  0.8706445E-01
       -2   -1    0    0    0  501  0.00000000000E+00  0.00000000000E+00  0.35238482369E+03  0.35238482370E+03  0.25500000920E-02 0. -1.
        2   -1    0    0  501    0  0.00000000000E+00  0.00000000000E+00 -0.22979236798E+04  0.22979236798E+04  0.25500000920E-02 0.  1.
    10030    2    1    2    0    0  0.00000000000E+00  0.00000000000E+00 -0.19455388561E+04  0.26503085035E+04  0.17997260133E+04 0.  0.
        2    1    3    3  502    0  0.54570175176E+03  0.68323635247E+03 -0.65985594373E+03  0.10954506752E+04  0.25500000920E-02 0. -1.
       -2    1    3    3    0  502 -0.54570175176E+03 -0.68323635247E+03 -0.12856829124E+04  0.15548578284E+04  0.25500000920E-02 0.  1.
</event>
<event>
 5   0  0.3626125E-06  0.1797290E+04  0.7818609E-02  0.8707742E-01
        3   -1    0    0  501    0  0.00000000000E+00  0.00000000000E+00  0.10876439265E+04  0.10876439312E+04  0.10100000352E+00 0.  1.
       -3   -1    0    0    0  501  0.00000000000E+00  0.00000000000E+00 -0.74248852657E+03  0.74248853344E+03  0.10100000352E+00 0. -1.
    10030    2    1    2    0    0  0.00000000000E+00  0.00000000000E+00  0.34515539994E+03  0.18301324646E+04  0.17972903461E+04 0.  0.
        2    1    3    3  502    0  0.89283216118E+03 -0.10149922684E+03  0.18334378603E+03  0.91709667155E+03  0.25500000920E-02 0.  1.
       -2    1    3    3    0  502 -0.89283216118E+03  0.10149922684E+03  0.16181161392E+03  0.91303579310E+03  0.25500000920E-02 0. -1.
</event>
<event>
 5   0  0.9589963E-06  0.1799517E+04  0.7818609E-02  0.8706556E-01
        2   -1    0    0  501    0  0.00000000000E+00  0.00000000000E+00  0.92396739329E+03  0.92396739329E+03  0.25500000920E-02 0.  1.
       -2   -1    0    0    0  501  0.00000000000E+00  0.00000000000E+00 -0.87618393825E+03  0.87618393825E+03  0.25500000920E-02 0. -1.
    10030    2    1    2    0    0  0.00000000000E+00  0.00000000000E+00  0.47783455038E+02  0.18001513315E+04  0.17995170346E+04 0.  0.
        2    1    3    3  502    0 -0.67879867844E+03 -0.58832300252E+03  0.75618640988E+02  0.90144871181E+03  0.25500000920E-02 0.  1.
       -2    1    3    3    0  502  0.67879867844E+03  0.58832300252E+03 -0.27835185950E+02  0.89870261974E+03  0.25500000920E-02 0. -1.
</event>
<event>
 5   0  0.4987456E-06  0.1798641E+04  0.7818609E-02  0.8707022E-01
       -1   -1    0    0    0  501  0.00000000000E+00  0.00000000000E+00  0.59551951876E+03  0.59551951878E+03  0.50400001928E-02 0. -1.
        1   -1    0    0  501    0  0.00000000000E+00  0.00000000000E+00 -0.13581041198E+04  0.13581041198E+04  0.50400001928E-02 0.  1.
    10030    2    1    2    0    0  0.00000000000E+00  0.00000000000E+00 -0.76258460103E+03  0.19536236386E+04  0.17986411670E+04 0.  0.
        3    1    3    3  502    0  0.17348328964E+03 -0.15898484830E+02 -0.13396015440E+04  0.13508817566E+04  0.10100000352E+00 0.  1.
       -3    1    3    3    0  502 -0.17348328964E+03  0.15898484830E+02  0.57701694294E+03  0.60274188194E+03  0.10100000352E+00 0. -1.
</event>
<event>
 5   0  0.1035018E-05  0.1799376E+04  0.7818609E-02  0.8706631E-01
        2   -1    0    0  501    0  0.00000000000E+00  0.00000000000E+00  0.11354619744E+04  0.11354619744E+04  0.25500000920E-02 0.  1.
       -2   -1    0    0    0  501  0.00000000000E+00  0.00000000000E+00 -0.71287183351E+03  0.71287183352E+03  0.25500000920E-02 0. -1.
    10030    2    1    2    0    0  0.00000000000E+00  0.00000000000E+00  0.42259014088E+03  0.18483338079E+04  0.17993764026E+04 0.  0.
        3    1    3    3  502    0  0.87211481895E+02 -0.53640542314E+03 -0.52522253052E+03  0.75577466041E+03  0.10100000352E+00 0. -1.
       -3    1    3    3    0  502 -0.87211481895E+02  0.53640542314E+03  0.94781267139E+03  0.10925591475E+04  0.10100000352E+00 0.  1.
</event>
<event>
 5   0  0.4983159E-06  0.1799970E+04  0.7818609E-02  0.8706316E-01
       -1   -1    0    0    0  501  0.00000000000E+00  0.00000000000E+00  0.59472736432E+03  0.59472736434E+03  0.50400001928E-02 0. -1.
        1   -1    0    0  501    0  0.00000000000E+00  0.00000000000E+00 -0.13619229714E+04  0.13619229714E+04  0.50400001928E-02 0.  1.
    10030    2    1    2    0    0  0.00000000000E+00  0.00000000000E+00 -0.76719560710E+03  0.19566503358E+04  0.17999698433E+04 0.  0.
        4    1    3    3  502    0 -0.41694158370E+02  0.89638401873E+03 -0.45834781640E+03  0.10076343809E+04  0.12699999809E+01 0.  1.
       -4    1    3    3    0  502  0.41694158370E+02 -0.89638401873E+03 -0.30884779069E+03  0.94901595487E+03  0.12699999809E+01 0. -1.
</event>
<event>
 5   0  0.4994123E-06  0.1799745E+04  0.7818609E-02  0.8706435E-01
       -1   -1    0    0    0  501  0.00000000000E+00  0.00000000000E+00  0.39332205157E+03  0.39332205161E+03  0.50400001928E-02 0. -1.
        1   -1    0    0  501    0  0.00000000000E+00  0.00000000000E+00 -0.20587966648E+04  0.20587966648E+04  0.50400001928E-02 0.  1.
    10030    2    1    2    0    0  0.00000000000E+00  0.00000000000E+00 -0.16654746132E+04  0.24521187164E+04  0.17997445685E+04 0.  0.
        1    1    3    3  502    0  0.76224590131E+03  0.18443051530E+03 -0.23148809135E+03  0.81769197471E+03  0.50400001928E-02 0. -1.
       -1    1    3    3    0  502 -0.76224590131E+03 -0.18443051530E+03 -0.14339865218E+04  0.16344267417E+04  0.50400001928E-02 0.  1.
</event>
<event>
 5   0  0.9589963E-06  0.1799141E+04  0.7818609E-02  0.8706757E-01
        2   -1    0    0  501    0  0.00000000000E+00  0.00000000000E+00  0.68365793217E+03  0.68365793218E+03  0.25500000920E-02 0.  1.
       -2   -1    0    0    0  501  0.00000000000E+00  0.00000000000E+00 -0.11836718744E+04  0.11836718745E+04  0.25500000920E-02 0. -1.
    10030    2    1    2    0    0  0.00000000000E+00  0.00000000000E+00 -0.50001394228E+03  0.18673298066E+04  0.17991405349E+04 0.  0.
        2    1    3    3  502    0  0.39860686653E+02  0.80930889646E+03 -0.65552873126E+03  0.10422512565E+04  0.25500000920E-02 0.  1.
       -2    1    3    3    0  502 -0.39860686653E+02 -0.80930889646E+03  0.15551478899E+03  0.82507855009E+03  0.25500000920E-02 0. -1.
</event>
<event>
 5   0  0.4987456E-06  0.1800083E+04  0.7818609E-02  0.8706255E-01
        1   -1    0    0  501    0  0.00000000000E+00  0.00000000000E+00  0.10271244433E+04  0.10271244433E+04  0.50400001928E-02 0. -1.
       -1   -1    0    0    0  501  0.00000000000E+00  0.00000000000E+00 -0.78868240931E+03  0.78868240933E+03  0.50400001928E-02 0.  1.
    10030    2    1    2    0    0  0.00000000000E+00  0.00000000000E+00  0.23844203401E+03  0.18158068527E+04  0.18000833099E+04 0.  0.
        3    1    3    3  502    0  0.66838014334E+03  0.17599956227E+03 -0.46232765051E+03  0.83153756894E+03  0.10100000352E+00 0.  1.
       -3    1    3    3    0  502 -0.66838014334E+03 -0.17599956227E+03  0.70076968451E+03  0.98426928372E+03  0.10100000352E+00 0. -1.
</event>
<event>
 5   0  0.1036381E-05  0.1800415E+04  0.7818609E-02  0.8706079E-01
       -2   -1    0    0    0  501  0.00000000000E+00  0.00000000000E+00  0.90726056264E+03  0.90726056264E+03  0.25500000920E-02 0.  1.
        2   -1    0    0  501    0  0.00000000000E+00  0.00000000000E+00 -0.89320961293E+03  0.89320961293E+03  0.25500000920E-02 0. -1.
    10030    2    1    2    0    0  0.00000000000E+00  0.00000000000E+00  0.14050949712E+02  0.18004701756E+04  0.18004153476E+04 0.  0.
        4    1    3    3  502    0  0.33172461634E+03  0.23534208175E+03 -0.79608373821E+03  0.89396758760E+03  0.12699999809E+01 0. -1.
       -4    1    3    3    0  502 -0.33172461634E+03 -0.23534208175E+03  0.81013468792E+03  0.90650258797E+03  0.12699999809E+01 0.  1.
</event>
<event>
 5   0  0.1035018E-05  0.1800376E+04  0.7818609E-02  0.8706099E-01
        2   -1    0    0  501    0  0.00000000000E+00  0.00000000000E+00  0.17667972287E+04  0.17667972287E+04  0.25500000920E-02 0.  1.
       -2   -1    0    0    0  501  0.00000000000E+00  0.00000000000E+00 -0.45864841006E+03  0.45864841007E+03  0.25500000920E-02 0. -1.
    10030    2    1    2    0    0  0.00000000000E+00  0.00000000000E+00  0.13081488187E+04  0.22254456388E+04  0.18003763383E+04 0.  0.
        3    1    3    3  502    0  0.18005037265E+03  0.37050155427E+03 -0.33530720311E+03  0.53115013797E+03  0.10100000352E+00 0. -1.
       -3    1    3    3    0  502 -0.18005037265E+03 -0.37050155427E+03  0.16434560218E+04  0.16942955008E+04  0.10100000352E+00 0.  1.
</event>
<event>
 5   0  0.1000316E-05  0.1801294E+04  0.7818609E-02  0.8705612E-01
        2   -1    0    0  501    0  0.00000000000E+00  0.00000000000E+00  0.12190329960E+04  0.12190329960E+04  0.25500000920E-02 0.  1.
       -2   -1    0    0    0  501  0.00000000000E+00  0.00000000000E+00 -0.66541662641E+03  0.66541662641E+03  0.25500000920E-02 0. -1.
    10030    2    1    2    0    0  0.00000000000E+00  0.00000000000E+00  0.55361636958E+03  0.18844496224E+04  0.18012937836E+04 0.  0.
        5    1    3    3  502    0  0.48617527030E+03  0.41631558619E+03 -0.38604883972E+03  0.74748970388E+03  0.46999998093E+01 0. -1.
       -5    1    3    3    0  502 -0.48617527030E+03 -0.41631558619E+03  0.93966520931E+03  0.11369599185E+04  0.46999998093E+01 0.  1.
</event>
<event>
 5   0  0.4983159E-06  0.1799613E+04  0.7818609E-02  0.8706505E-01
       -1   -1    0    0    0  501  0.00000000000E+00  0.00000000000E+00  0.10412543298E+04  0.10412543298E+04  0.50400001928E-02 0. -1.
        1   -1    0    0  501    0  0.00000000000E+00  0.00000000000E+00 -0.77757346129E+03  0.77757346130E+03  0.50400001928E-02 0.  1.
    10030    2    1    2    0    0  0.00000000000E+00  0.00000000000E+00  0.26368086848E+03  0.18188277911E+04  0.17996129954E+04 0.  0.
        4    1    3    3  502    0  0.23266285925E+03 -0.68608186386E+03 -0.40753345404E+03  0.83121926052E+03  0.12699999809E+01 0.  1.
       -4    1    3    3    0  502 -0.23266285925E+03  0.68608186386E+03  0.67121432252E+03  0.98760853056E+03  0.12699999809E+01 0. -1.
</event>
<event>
 5   0  0.4987456E-06  0.1798709E+04  0.7818609E-02  0.8706986E-01
       -1   -1    0    0    0  501  0.00000000000E+00  0.00000000000E+00  0.10376462678E+04  0.10376462678E+04  0.50400001928E-02 0.  1.
        1   -1    0    0  501    0  0.00000000000E+00  0.00000000000E+00 -0.77949351739E+03  0.77949351741E+03  0.50400001928E-02 0. -1.
    10030    2    1    2    0    0  0.00000000000E+00  0.00000000000E+00  0.25815275036E+03  0.18171397852E+04  0.17987090249E+04 0.  0.
        3    1    3    3  502    0 -0.35443353068E+03  0.78870707050E+03  0.37890887942E+03  0.94406245547E+03  0.10100000352E+00 0. -1.
       -3    1    3    3    0  502  0.35443353068E+03 -0.78870707050E+03 -0.12075612906E+03  0.87307732970E+03  0.10100000352E+00 0.  1.
</event>
<event>
 5   0  0.4981384E-06  0.1800823E+04  0.7818609E-02  0.8705862E-01
        1   -1    0    0  501    0  0.00000000000E+00  0.00000000000E+00  0.12162362702E+04  0.12162362702E+04  0.50400001928E-02 0. -1.
       -1   -1    0    0    0  501  0.00000000000E+00  0.00000000000E+00 -0.66659833638E+03  0.66659833639E+03  0.50400001928E-02 0.  1.
    10030    2    1    2    0    0  0.00000000000E+00  0.00000000000E+00  0.54963793379E+03  0.18828346066E+04  0.18008232277E+04 0.  0.
        5    1    3    3  502    0  0.59058743563E+03 -0.35030042676E+03 -0.33412686385E+03  0.76365355971E+03  0.46999998093E+01 0.  1.
       -5    1    3    3    0  502 -0.59058743563E+03  0.35030042676E+03  0.88376479764E+03  0.11191810469E+04  0.46999998093E+01 0. -1.
</event>
<event>
 5   0  0.9589963E-06  0.1799901E+04  0.7818609E-02  0.8706352E-01
       -2   -1    0    0    0  501  0.00000000000E+00  0.00000000000E+00  0.56240751360E+03  0.56240751361E+03  0.25500000920E-02 0.  1.
        2   -1    0    0  501    0  0.00000000000E+00  0.00000000000E+00 -0.14400780620E+04  0.14400780620E+04  0.25500000920E-02 0. -1.
    10030    2    1    2    0    0  0.00000000000E+00  0.00000000000E+00 -0.87767054835E+03  0.20024855756E+04  0.17999007997E+04 0.  0.
        2    1    3    3  502    0  0.59290112582E+03 -0.18770677543E+03 -0.11625468295E+04  0.13184387393E+04  0.25500000920E-02 0. -1.
       -2    1    3    3    0  502 -0.59290112582E+03  0.18770677543E+03  0.28487628119E+03  0.68404683621E+03  0.25500000920E-02 0.  1.
</event>
<event>
 5   0  0.9999162E-06  0.1800233E+04  0.7818609E-02  0.8706176E-01
        2   -1    0    0  501    0  0.00000000000E+00  0.00000000000E+00  0.21741645409E+04  0.21741645409E+04  0.25500000920E-02 0. -1.
       -2   -1    0    0    0  501  0.00000000000E+00  0.00000000000E+00 -0.37265324691E+03  0.37265324692E+03  0.25500000920E-02 0.  1.
    10030    2    1    2    0    0  0.00000000000E+00  0.00000000000E+00  0.18015112940E+04  0.25468177879E+04  0.18002327355E+04 0.  0.
        1    1    3    3  502    0  0.36445082216E+01  0.86960151866E+03  0.12294736102E+04  0.15059300920E+04  0.50400001928E-02 0. -1.
       -1    1    3    3    0  502 -0.36445082216E+01 -0.86960151866E+03  0.57203768383E+03  0.10408876959E+04  0.50400001928E-02 0.  1.
</event>
<event>
 5   0  0.1000316E-05  0.1799297E+04  0.7818609E-02  0.8706673E-01
        2   -1    0    0  501    0  0.00000000000E+00  0.00000000000E+00  0.56312816477E+03  0.56312816478E+03  0.25500000920E-02 0.  1.
       -2   -1    0    0    0  501  0.00000000000E+00  0.00000000000E+00 -0.14372707816E+04  0.14372707816E+04  0.25500000920E-02 0. -1.
    10030    2    1    2    0    0  0.00000000000E+00  0.00000000000E+00 -0.87414261680E+03  0.20003989463E+04  0.17992972601E+04 0.  0.
        5    1    3    3  502    0 -0.51347651774E+03  0.69107637454E+03 -0.14694303500E+03  0.87341801861E+03  0.46999998093E+01 0.  1.
       -5    1    3    3    0  502  0.51347651774E+03 -0.69107637454E+03 -0.72719958180E+03  0.11269809277E+04  0.46999998093E+01 0. -1.
</event>
<event>
 5   0  0.1036381E-05  0.1798987E+04  0.7818609E-02  0.8706838E-01
       -2   -1    0    0    0  501  0.00000000000E+00  0.00000000000E+00  0.59419014128E+03  0.59419014128E+03  0.25500000920E-02 0. -1.
        2   -1    0    0  501    0  0.00000000000E+00  0.00000000000E+00 -0.13616664641E+04  0.13616664641E+04  0.25500000920E-02 0.  1.
    10030    2    1    2    0    0  0.00000000000E+00  0.00000000000E+00 -0.76747632279E+03  0.19558566054E+04  0.17989872581E+04 0.  0.
        4    1    3    3  502    0  0.46710028435E+03  0.39294702040E+03  0.33455151512E+03  0.69607209802E+03  0.12699999809E+01 0. -1.
       -4    1    3    3    0  502 -0.46710028435E+03 -0.39294702040E+03 -0.11020278379E+04  0.12597845073E+04  0.12699999809E+01 0.  1.
</event>
<event>
 5   0  0.9589963E-06  0.1799305E+04  0.7818609E-02  0.8706669E-01
        2   -1    0    0  501    0  0.00000000000E+00  0.00000000000E+00  0.22919473937E+04  0.22919473937E+04  0.25500000920E-02 0. -1.
       -2   -1    0    0    0  501  0.00000000000E+00  0.00000000000E+00 -0.35313833245E+03  0.35313833246E+03  0.25500000920E-02 0.  1.
    10030    2    1    2    0    0  0.00000000000E+00  0.00000000000E+00  0.19388090613E+04  0.26450857262E+04  0.17993048443E+04 0.  0.
        2    1    3    3  502    0  0.71601169612E+03 -0.41640409824E+03  0.14856223860E+04  0.17009229835E+04  0.25500000920E-02 0. -1.
       -2    1    3    3    0  502 -0.71601169612E+03  0.41640409824E+03  0.45318667524E+03  0.94416274266E+03  0.25500000920E-02 0.  1.
</event>
<event>
 5   0  0.1000316E-05  0.1787582E+04  0.7818609E-02  0.8712931E-01
       -2   -1    0    0    0  501  0.00000000000E+00  0.00000000000E+00  0.45907325579E+03  0.45907325579E+03  0.25500000920E-02 0.  1.
        2   -1    0    0  501    0  0.00000000000E+00  0.00000000000E+00 -0.17401638670E+04  0.17401638670E+04  0.25500000920E-02 0. -1.
    10030    2    1    2    0    0  0.00000000000E+00  0.00000000000E+00 -0.12810906112E+04  0.21992371228E+04  0.17875823808E+04 0.  0.
        5    1    3    3  502    0 -0.17372785843E+03 -0.75306125601E+03 -0.88205950284E+02  0.77787209988E+03  0.46999998093E+01 0. -1.
       -5    1    3    3    0  502  0.17372785843E+03  0.75306125601E+03 -0.11928846609E+04  0.14213650229E+04  0.46999998093E+01 0.  1.
</event>
<event>
 5   0  0.1000316E-05  0.1800044E+04  0.7818609E-02  0.8706276E-01
       -2   -1    0    0    0  501  0.00000000000E+00  0.00000000000E+00  0.84681251281E+03  0.84681251282E+03  0.25500000920E-02 0. -1.
        2   -1    0    0  501    0  0.00000000000E+00  0.00000000000E+00 -0.95657483822E+03  0.95657483823E+03  0.25500000920E-02 0.  1.
    10030    2    1    2    0    0  0.00000000000E+00  0.00000000000E+00 -0.10976232541E+03  0.18033873510E+04  0.18000439355E+04 0.  0.
        5    1    3    3  502    0  0.23520599348E+02 -0.82398250373E+03 -0.41682365056E+03  0.92372313531E+03  0.46999998093E+01 0.  1.
       -5    1    3    3    0  502 -0.23520599348E+02  0.82398250373E+03  0.30706132515E+03  0.87966421573E+03  0.46999998093E+01 0. -1.
</event>
<event>
 5   0  0.4953155E-06  0.1801386E+04  0.7818609E-02  0.8705563E-01
       -1   -1    0    0    0  501  0.00000000000E+00  0.00000000000E+00  0.12220549036E+04  0.12220549036E+04  0.50400001928E-02 0.  1.
        1   -1    0    0  501    0  0.00000000000E+00  0.00000000000E+00 -0.66383889195E+03  0.66383889197E+03  0.50400001928E-02 0. -1.
    10030    2    1    2    0    0  0.00000000000E+00  0.00000000000E+00  0.55821601162E+03  0.18858937955E+04  0.18013856590E+04 0.  0.
        2    1    3    3  502    0  0.81526668256E+03  0.38108095756E+03  0.31778875368E+03  0.95439622374E+03  0.25500000920E-02 0.  1.
       -2    1    3    3    0  502 -0.81526668256E+03 -0.38108095756E+03  0.24042725794E+03  0.93149757181E+03  0.25500000920E-02 0. -1.
</event>
<event>
 5   0  0.4953155E-06  0.1799537E+04  0.7818609E-02  0.8706546E-01
       -1   -1    0    0    0  501  0.00000000000E+00  0.00000000000E+00  0.58826367961E+03  0.58826367963E+03  0.50400001928E-02 0. -1.
        1   -1    0    0  501    0  0.00000000000E+00  0.00000000000E+00 -0.13762248848E+04  0.13762248848E+04  0.50400001928E-02 0.  1.
    10030    2    1    2    0    0  0.00000000000E+00  0.00000000000E+00 -0.78796120522E+03  0.19644885645E+04  0.17995367346E+04 0.  0.
        2    1    3    3  502    0 -0.77351426242E+03  0.19975784213E+03 -0.84587602915E+03  0.11635006516E+04  0.25500000920E-02 0.  1.
       -2    1    3    3    0  502  0.77351426242E+03 -0.19975784213E+03  0.57914823934E+02  0.80098791283E+03  0.25500000920E-02 0. -1.
</event>
<event>
 5   0  0.4953155E-06  0.1800356E+04  0.7818609E-02  0.8706110E-01
       -1   -1    0    0    0  501  0.00000000000E+00  0.00000000000E+00  0.50084474708E+03  0.50084474711E+03  0.50400001928E-02 0. -1.
        1   -1    0    0  501    0  0.00000000000E+00  0.00000000000E+00 -0.16179082866E+04  0.16179082866E+04  0.50400001928E-02 0.  1.
    10030    2    1    2    0    0  0.00000000000E+00  0.00000000000E+00 -0.11170635395E+04  0.21187530337E+04  0.18003564832E+04 0.  0.
        2    1    3    3  502    0  0.79567912812E+03 -0.30701781681E+03 -0.21957460320E+03  0.88066918939E+03  0.25500000920E-02 0. -1.
       -2    1    3    3    0  502 -0.79567912812E+03  0.30701781681E+03 -0.89748893630E+03  0.12380838443E+04  0.25500000920E-02 0.  1.
</event>
<event>
 5   0  0.4981384E-06  0.1799829E+04  0.7818609E-02  0.8706390E-01
       -1   -1    0    0    0  501  0.00000000000E+00  0.00000000000E+00  0.42481242152E+03  0.42481242155E+03  0.50400001928E-02 0.  1.
        1   -1    0    0  501    0  0.00000000000E+00  0.00000000000E+00 -0.19063618141E+04  0.19063618141E+04  0.50400001928E-02 0. -1.
    10030    2    1    2    0    0  0.00000000000E+00  0.00000000000E+00 -0.14815493926E+04  0.23311742356E+04  0.17998290792E+04 0.  0.
        5    1    3    3  502    0 -0.32380181959E+03 -0.36491632209E+03  0.23864833215E+03  0.54312674113E+03  0.46999998093E+01 0.  1.
       -5    1    3    3    0  502  0.32380181959E+03  0.36491632209E+03 -0.17201977247E+04  0.17880474945E+04  0.46999998093E+01 0. -1.
</event>
<event>
 5   0  0.1035018E-05  0.1802696E+04  0.7818609E-02  0.8704867E-01
       -2   -1    0    0    0  501  0.00000000000E+00  0.00000000000E+00  0.75778982158E+03  0.75778982159E+03  0.25500000920E-02 0.  1.
        2   -1    0    0  501    0  0.00000000000E+00  0.00000000000E+00 -0.10721025561E+04  0.10721025561E+04  0.25500000920E-02 0. -1.
    10030    2    1    2    0    0  0.00000000000E+00  0.00000000000E+00 -0.31431273449E+03  0.18298923777E+04  0.18026962081E+04 0.  0.
        3    1    3    3  502    0 -0.40401371195E+03  0.21383690253E+03 -0.94571261765E+03  0.10503931006E+04  0.10100000352E+00 0. -1.
       -3    1    3    3    0  502  0.40401371195E+03 -0.21383690253E+03  0.63139988316E+03  0.77949927709E+03  0.10100000352E+00 0.  1.
</event>
<event>
 5   0  0.4994123E-06  0.1800770E+04  0.7818609E-02  0.8705890E-01
        1   -1    0    0  501    0  0.00000000000E+00  0.00000000000E+00  0.70416232058E+03  0.70416232060E+03  0.50400001928E-02 0.  1.
       -1   -1    0    0    0  501  0.00000000000E+00  0.00000000000E+00 -0.11512871265E+04  0.11512871265E+04  0.50400001928E-02 0. -1.
    10030    2    1    2    0    0  0.00000000000E+00  0.00000000000E+00 -0.44712480595E+03  0.18554494472E+04  0.18007698517E+04 0.  0.
        1    1    3    3  502    0  0.12571213325E+03 -0.64909799157E+02 -0.11397623158E+04  0.11485098864E+04  0.50400001928E-02 0. -1.
       -1    1    3    3    0  502 -0.12571213325E+03  0.64909799157E+02  0.69263750988E+03  0.70693956078E+03  0.50400001928E-02 0.  1.
</event>
<event>
 5   0  0.4953155E-06  0.1796869E+04  0.7818609E-02  0.8707966E-01
        1   -1    0    0  501    0  0.00000000000E+00  0.00000000000E+00  0.11134147756E+04  0.11134147756E+04  0.50400001928E-02 0. -1.
       -1   -1    0    0    0  501  0.00000000000E+00  0.00000000000E+00 -0.72496284791E+03  0.72496284793E+03  0.50400001928E-02 0.  1.
    10030    2    1    2    0    0  0.00000000000E+00  0.00000000000E+00  0.38845192764E+03  0.18383776235E+04  0.17968687727E+04 0.  0.
        2    1    3    3  502    0  0.39751264955E+03 -0.16330599896E+02 -0.62992676945E+03  0.74504411274E+03  0.25500000920E-02 0.  1.
       -2    1    3    3    0  502 -0.39751264955E+03  0.16330599896E+02  0.10183786971E+04  0.10933335108E+04  0.25500000920E-02 0. -1.
</event>
<event>
 5   0  0.4981384E-06  0.1799112E+04  0.7818609E-02  0.8706772E-01
       -1   -1    0    0    0  501  0.00000000000E+00  0.00000000000E+00  0.61947482507E+03  0.61947482509E+03  0.50400001928E-02 0. -1.
        1   -1    0    0  501    0  0.00000000000E+00  0.00000000000E+00 -0.13062694028E+04  0.13062694028E+04  0.50400001928E-02 0.  1.
    10030    2    1    2    0    0  0.00000000000E+00  0.00000000000E+00 -0.68679457771E+03  0.19257442279E+04  0.17991120141E+04 0.  0.
        5    1    3    3  502    0  0.24882800973E+03  0.61738878431E+03 -0.99104238372E+03  0.11938473042E+04  0.46999998093E+01 0.  1.
       -5    1    3    3    0  502 -0.24882800973E+03 -0.61738878431E+03  0.30424780601E+03  0.73189692367E+03  0.46999998093E+01 0. -1.
</event>
<event>
 5   0  0.9589963E-06  0.1799397E+04  0.7818609E-02  0.8706620E-01
        2   -1    0    0  501    0  0.00000000000E+00  0.00000000000E+00  0.49572144587E+03  0.49572144588E+03  0.25500000920E-02 0.  1.
       -2   -1    0    0    0  501  0.00000000000E+00  0.00000000000E+00 -0.16328869717E+04  0.16328869717E+04  0.25500000920E-02 0. -1.
    10030    2    1    2    0    0  0.00000000000E+00  0.00000000000E+00 -0.11371655258E+04  0.21286084176E+04  0.17993966662E+04 0.  0.
        2    1    3    3  502    0 -0.30130220183E+03  0.79521009018E+03 -0.22103702540E+03  0.87863500440E+03  0.25500000920E-02 0.  1.
       -2    1    3    3    0  502  0.30130220183E+03 -0.79521009018E+03 -0.91612850043E+03  0.12499734132E+04  0.25500000920E-02 0. -1.
</event>
<event>
 5   0  0.1036381E-05  0.1799411E+04  0.7818609E-02  0.8706613E-01
        2   -1    0    0  501    0  0.00000000000E+00  0.00000000000E+00  0.18939148997E+04  0.18939148997E+04  0.25500000920E-02 0. -1.
       -2   -1    0    0    0  501  0.00000000000E+00  0.00000000000E+00 -0.42740573869E+03  0.42740573870E+03  0.25500000920E-02 0.  1.
    10030    2    1    2    0    0  0.00000000000E+00  0.00000000000E+00  0.14665091610E+04  0.23213206384E+04  0.17994111223E+04 0.  0.
        4    1    3    3  502    0  0.58761899958E+03  0.59163250550E+03  0.29741157144E+03  0.88531371047E+03  0.12699999809E+01 0.  1.
       -4    1    3    3    0  502 -0.58761899958E+03 -0.59163250550E+03  0.11690975896E+04  0.14360069280E+04  0.12699999809E+01 0. -1.
</event>
<event>
 5   0  0.4987456E-06  0.1799479E+04  0.7818609E-02  0.8706577E-01
       -1   -1    0    0    0  501  0.00000000000E+00  0.00000000000E+00  0.51496887969E+03  0.51496887972E+03  0.50400001928E-02 0. -1.
        1   -1    0    0  501    0  0.00000000000E+00  0.00000000000E+00 -0.15719993906E+04  0.15719993906E+04  0.50400001928E-02 0.  1.
    10030    2    1    2    0    0  0.00000000000E+00  0.00000000000E+00 -0.10570305109E+04  0.20869682703E+04  0.17994785523E+04 0.  0.
        3    1    3    3  502    0 -0.11248328040E+03 -0.67275070378E+03  0.15198464974E+03  0.69881710179E+03  0.10100000352E+00 0. -1.
       -3    1    3    3    0  502  0.11248328040E+03  0.67275070378E+03 -0.12090151606E+04  0.13881511685E+04  0.10100000352E+00 0.  1.
</event>
<event>
 5   0  0.9589963E-06  0.1798963E+04  0.7818609E-02  0.8706851E-01
       -2   -1    0    0    0  501  0.00000000000E+00  0.00000000000E+00  0.69548224934E+03  0.69548224934E+03  0.25500000920E-02 0.  1.
        2   -1    0    0  501    0  0.00000000000E+00  0.00000000000E+00 -0.11633177148E+04  0.11633177148E+04  0.25500000920E-02 0. -1.
    10030    2    1    2    0    0  0.00000000000E+00  0.00000000000E+00 -0.46783546543E+03  0.18587999641E+04  0.17989628356E+04 0.  0.
        2    1    3    3  502    0 -0.65796657055E+03 -0.29963028508E+03  0.31901600593E+03  0.79023384371E+03  0.25500000920E-02 0.  1.
       -2    1    3    3    0  502  0.65796657055E+03  0.29963028508E+03 -0.78685147136E+03  0.10685661204E+04  0.25500000920E-02 0. -1.
</event>
<event>
 5   0  0.4981384E-06  0.1800350E+04  0.7818609E-02  0.8706114E-01
        1   -1    0    0  501    0  0.00000000000E+00  0.00000000000E+00  0.18951329379E+04  0.18951329380E+04  0.50400001928E-02 0. -1.
       -1   -1    0    0    0  501  0.00000000000E+00  0.00000000000E+00 -0.42757675688E+03  0.42757675691E+03  0.50400001928E-02 0.  1.
    10030    2    1    2    0    0  0.00000000000E+00  0.00000000000E+00  0.14675561811E+04  0.23227096949E+04  0.18003497388E+04 0.  0.
        5    1    3    3  502    0 -0.83275074774E+03 -0.17230570218E+03  0.11145992044E+04  0.14019688083E+04  0.46999998093E+01 0.  1.
       -5    1    3    3    0  502  0.83275074774E+03  0.17230570218E+03  0.35295697664E+03  0.92074088658E+03  0.46999998093E+01 0. -1.
</event>
<event>
 5   0  0.4983159E-06  0.1800192E+04  0.7818609E-02  0.8706197E-01
        1   -1    0    0  501    0  0.00000000000E+00  0.00000000000E+00  0.54376292552E+03  0.54376292554E+03  0.50400001928E-02 0.  1.
       -1   -1    0    0    0  501  0.00000000000E+00  0.00000000000E+00 -0.14899383391E+04  0.14899383391E+04  0.50400001928E-02 0. -1.
    10030    2    1    2    0    0  0.00000000000E+00  0.00000000000E+00 -0.94617541354E+03  0.20337012646E+04  0.18001924676E+04 0.  0.
        4    1    3    3  502    0 -0.78724326103E+03 -0.90938502293E+02  0.90628051586E+01  0.79253107861E+03  0.12699999809E+01 0.  1.
       -4    1    3    3    0  502  0.78724326103E+03  0.90938502293E+02 -0.95523821870E+03  0.12411701860E+04  0.12699999809E+01 0. -1.
</event>
<event>
 5   0  0.4953155E-06  0.1800243E+04  0.7818609E-02  0.8706170E-01
        1   -1    0    0  501    0  0.00000000000E+00  0.00000000000E+00  0.92697974364E+03  0.92697974366E+03  0.50400001928E-02 0.  1.
       -1   -1    0    0    0  501  0.00000000000E+00  0.00000000000E+00 -0.87404135427E+03  0.87404135428E+03  0.50400001928E-02 0. -1.
    10030    2    1    2    0    0  0.00000000000E+00  0.00000000000E+00  0.52938389377E+02  0.18010210979E+04  0.18002429064E+04 0.  0.
        2    1    3    3  502    0  0.47108694708E+03  0.59019570273E+03 -0.46360452977E+03  0.88610554634E+03  0.25500000920E-02 0. -1.
       -2    1    3    3    0  502 -0.47108694708E+03 -0.59019570273E+03  0.51654291915E+03  0.91491555160E+03  0.25500000920E-02 0.  1.
</event>
<event>
 5   0  0.4981384E-06  0.1800520E+04  0.7818609E-02  0.8706023E-01
       -1   -1    0    0    0  501  0.00000000000E+00  0.00000000000E+00  0.15664466549E+04  0.15664466549E+04  0.50400001928E-02 0. -1.
        1   -1    0    0  501    0  0.00000000000E+00  0.00000000000E+00 -0.51739252193E+03  0.51739252196E+03  0.50400001928E-02 0.  1.
    10030    2    1    2    0    0  0.00000000000E+00  0.00000000000E+00  0.10490541330E+04  0.20838391769E+04  0.18005196864E+04 0.  0.
        5    1    3    3  502    0  0.16225677012E+03  0.86108276687E+03  0.76355618566E+03  0.11622525240E+04  0.46999998093E+01 0. -1.
       -5    1    3    3    0  502 -0.16225677012E+03 -0.86108276687E+03  0.28549794732E+03  0.92158665289E+03  0.46999998093E+01 0.  1.
</event>
<event>
 5   0  0.4994123E-06  0.1798211E+04  0.7818609E-02  0.8707251E-01
        1   -1    0    0  501    0  0.00000000000E+00  0.00000000000E+00  0.85200465297E+03  0.85200465299E+03  0.50400001928E-02 0.  1.
       -1   -1    0    0    0  501  0.00000000000E+00  0.00000000000E+00 -0.94881041773E+03  0.94881041774E+03  0.50400001928E-02 0. -1.
    10030    2    1    2    0    0  0.00000000000E+00  0.00000000000E+00 -0.96805764758E+02  0.18008150707E+04  0.17982112120E+04 0.  0.
        1    1    3    3  502    0  0.39876513331E+03 -0.45438309690E+03 -0.71488385735E+03  0.93623531220E+03  0.50400001928E-02 0. -1.
       -1    1    3    3    0  502 -0.39876513331E+03  0.45438309690E+03  0.61807809259E+03  0.86457975853E+03  0.50400001928E-02 0.  1.
</event>
<event>
 5   0  0.1035018E-05  0.1800207E+04  0.7818609E-02  0.8706189E-01
       -2   -1    0    0    0  501  0.00000000000E+00  0.00000000000E+00  0.65404054515E+03  0.65404054516E+03  0.25500000920E-02 0.  1.
        2   -1    0    0  501    0  0.00000000000E+00  0.00000000000E+00 -0.12387407433E+04  0.12387407433E+04  0.25500000920E-02 0. -1.
    10030    2    1    2    0    0  0.00000000000E+00  0.00000000000E+00 -0.58470019813E+03  0.18927812884E+04  0.18002074003E+04 0.  0.
        3    1    3    3  502    0  0.61983485792E+03 -0.16306905159E+02  0.39367928946E+03  0.73446889614E+03  0.10100000352E+00 0.  1.
       -3    1    3    3    0  502 -0.61983485792E+03  0.16306905159E+02 -0.97837948758E+03  0.11583123923E+04  0.10100000352E+00 0. -1.
</event>
<event>
 5   0  0.1035018E-05  0.1797319E+04  0.7818609E-02  0.8707726E-01
        2   -1    0    0  501    0  0.00000000000E+00  0.00000000000E+00  0.19065475271E+04  0.19065475271E+04  0.25500000920E-02 0. -1.
       -2   -1    0    0    0  501  0.00000000000E+00  0.00000000000E+00 -0.42358727191E+03  0.42358727192E+03  0.25500000920E-02 0.  1.
    10030    2    1    2    0    0  0.00000000000E+00  0.00000000000E+00  0.14829602552E+04  0.23301347990E+04  0.17973194104E+04 0.  0.
        3    1    3    3  502    0  0.63066406616E+02  0.53623633949E+03  0.16728172640E+04  0.17577953216E+04  0.10100000352E+00 0. -1.
       -3    1    3    3    0  502 -0.63066406616E+02 -0.53623633949E+03 -0.18985700886E+03  0.57233947745E+03  0.10100000352E+00 0.  1.
</event>
<event>
 5   0  0.4981384E-06  0.1800282E+04  0.7818609E-02  0.8706149E-01
       -1   -1    0    0    0  501  0.00000000000E+00  0.00000000000E+00  0.10115339394E+04  0.10115339394E+04  0.50400001928E-02 0. -1.
        1   -1    0    0  501    0  0.00000000000E+00  0.00000000000E+00 -0.80101521164E+03  0.80101521165E+03  0.50400001928E-02 0.  1.
    10030    2    1    2    0    0  0.00000000000E+00  0.00000000000E+00  0.21051872774E+03  0.18125491510E+04  0.18002822807E+04 0.  0.
        5    1    3    3  502    0  0.26271402527E+03 -0.17903079359E+03  0.95311458418E+03  0.10047488167E+04  0.46999998093E+01 0. -1.
       -5    1    3    3    0  502 -0.26271402527E+03  0.17903079359E+03 -0.74259585644E+03  0.80780033432E+03  0.46999998093E+01 0.  1.
</event>
<event>
 5   0  0.4987456E-06  0.1803663E+04  0.7818609E-02  0.8704354E-01
        1   -1    0    0  501    0  0.00000000000E+00  0.00000000000E+00  0.19563777534E+04  0.19563777534E+04  0.50400001928E-02 0.  1.
       -1   -1    0    0    0  501  0.00000000000E+00  0.00000000000E+00 -0.41571733301E+03  0.41571733304E+03  0.50400001928E-02 0. -1.
    10030    2    1    2    0    0  0.00000000000E+00  0.00000000000E+00  0.15406604204E+04  0.23720950864E+04  0.18036630972E+04 0.  0.
        3    1    3    3  502    0  0.88789215174E+03  0.15739546749E+03  0.78769450499E+03  0.11973255404E+04  0.10100000352E+00 0.  1.
       -3    1    3    3    0  502 -0.88789215174E+03 -0.15739546749E+03  0.75296591537E+03  0.11747695460E+04  0.10100000352E+00 0. -1.
</event>
<event>
 5   0  0.4987456E-06  0.1799751E+04  0.7818609E-02  0.8706432E-01
        1   -1    0    0  501    0  0.00000000000E+00  0.00000000000E+00  0.98017689641E+03  0.98017689642E+03  0.50400001928E-02 0.  1.
       -1   -1    0    0    0  501  0.00000000000E+00  0.00000000000E+00 -0.82615288971E+03  0.82615288973E+03  0.50400001928E-02 0. -1.
    10030    2    1    2    0    0  0.00000000000E+00  0.00000000000E+00  0.15402400670E+03  0.18063297861E+04  0.17997510666E+04 0.  0.
        3    1    3    3  502    0 -0.72615324177E+03  0.46906958752E+03  0.32782777803E+03  0.92455171339E+03  0.10100000352E+00 0.  1.
       -3    1    3    3    0  502  0.72615324177E+03 -0.46906958752E+03 -0.17380377132E+03  0.88177807276E+03  0.10100000352E+00 0. -1.
</event>
<event>
 5   0  0.9589963E-06  0.1801076E+04  0.7818609E-02  0.8705727E-01
        2   -1    0    0  501    0  0.00000000000E+00  0.00000000000E+00  0.13821964509E+04  0.13821964509E+04  0.25500000920E-02 0. -1.
       -2   -1    0    0    0  501  0.00000000000E+00  0.00000000000E+00 -0.58672491590E+03  0.58672491591E+03  0.25500000920E-02 0.  1.
    10030    2    1    2    0    0  0.00000000000E+00  0.00000000000E+00  0.79547153498E+03  0.19689213668E+04  0.18010764519E+04 0.  0.
        2    1    3    3  502    0  0.81740709006E+01 -0.71438623231E+03  0.99705457645E+03  0.12265937929E+04  0.25500000920E-02 0. -1.
       -2    1    3    3    0  502 -0.81740709006E+01  0.71438623231E+03 -0.20158304147E+03  0.74232757389E+03  0.25500000920E-02 0.  1.
</event>
<event>
 5   0  0.9589963E-06  0.1799821E+04  0.7818609E-02  0.8706395E-01
        2   -1    0    0  501    0  0.00000000000E+00  0.00000000000E+00  0.43397704076E+03  0.43397704076E+03  0.25500000920E-02 0.  1.
       -2   -1    0    0    0  501  0.00000000000E+00  0.00000000000E+00 -0.18660864886E+04  0.18660864886E+04  0.25500000920E-02 0. -1.
    10030    2    1    2    0    0  0.00000000000E+00  0.00000000000E+00 -0.14321094479E+04  0.23000635294E+04  0.17998207601E+04 0.  0.
        2    1    3    3  502    0  0.60097071736E+03 -0.25148804614E+03 -0.15094350848E+04  0.16440213855E+04  0.25500000920E-02 0. -1.
       -2    1    3    3    0  502 -0.60097071736E+03  0.25148804614E+03  0.77325636970E+02  0.65604214394E+03  0.25500000920E-02 0.  1.
</event>
<event>
 5   0  0.4983159E-06  0.1800034E+04  0.7818609E-02  0.8706282E-01
        1   -1    0    0  501    0  0.00000000000E+00  0.00000000000E+00  0.17261790301E+04  0.17261790301E+04  0.50400001928E-02 0. -1.
       -1   -1    0    0    0  501  0.00000000000E+00  0.00000000000E+00 -0.46926198163E+03  0.46926198166E+03  0.50400001928E-02 0.  1.
    10030    2    1    2    0    0  0.00000000000E+00  0.00000000000E+00  0.12569170484E+04  0.21954410117E+04  0.18000335467E+04 0.  0.
        4    1    3    3  502    0  0.37562357481E+03  0.23413246332E+03 -0.32734122023E+03  0.55051336741E+03  0.12699999809E+01 0.  1.
       -4    1    3    3    0  502 -0.37562357481E+03 -0.23413246332E+03  0.15842582687E+04  0.16449276443E+04  0.12699999809E+01 0. -1.
</event>
<event>
 5   0  0.9999162E-06  0.1800172E+04  0.7818609E-02  0.8706208E-01
        2   -1    0    0  501    0  0.00000000000E+00  0.00000000000E+00  0.92376568789E+03  0.92376568790E+03  0.25500000920E-02 0. -1.
       -2   -1    0    0    0  501  0.00000000000E+00  0.00000000000E+00 -0.87701297141E+03  0.87701297141E+03  0.25500000920E-02 0.  1.
    10030    2    1    2    0    0  0.00000000000E+00  0.00000000000E+00  0.46752716486E+02  0.18007786593E+04  0.18001716483E+04 0.  0.
        1    1    3    3  502    0 -0.24946883861E+03 -0.72693238894E+03 -0.44527824591E+03  0.88822188435E+03  0.50400001928E-02 0. -1.
       -1    1    3    3    0  502  0.24946883861E+03  0.72693238894E+03  0.49203096240E+03  0.91255677496E+03  0.50400001928E-02 0.  1.
</event>
<event>
 5   0  0.3626125E-06  0.1803242E+04  0.7818609E-02  0.8704578E-01
       -3   -1    0    0    0  501  0.00000000000E+00  0.00000000000E+00  0.14525247006E+04  0.14525247041E+04  0.10100000352E+00 0.  1.
        3   -1    0    0  501    0  0.00000000000E+00  0.00000000000E+00 -0.55965999401E+03  0.55966000313E+03  0.10100000352E+00 0. -1.
    10030    2    1    2    0    0  0.00000000000E+00  0.00000000000E+00  0.89286470661E+03  0.20121847073E+04  0.18032415012E+04 0.  0.
        5    1    3    3  502    0 -0.46231699514E+03  0.36887519113E+03  0.12057921122E+04  0.13430422996E+04  0.46999998093E+01 0.  1.
       -5    1    3    3    0  502  0.46231699514E+03 -0.36887519113E+03 -0.31292740556E+03  0.66914240770E+03  0.46999998093E+01 0. -1.
</event>
<event>
 5   0  0.1000316E-05  0.1799625E+04  0.7818609E-02  0.8706499E-01
       -2   -1    0    0    0  501  0.00000000000E+00  0.00000000000E+00  0.59306301816E+03  0.59306301817E+03  0.25500000920E-02 0.  1.
        2   -1    0    0  501    0  0.00000000000E+00  0.00000000000E+00 -0.13652213039E+04  0.13652213039E+04  0.25500000920E-02 0. -1.
    10030    2    1    2    0    0  0.00000000000E+00  0.00000000000E+00 -0.77215828571E+03  0.19582843220E+04  0.17996247019E+04 0.  0.
        5    1    3    3  502    0 -0.69945210925E+03 -0.56438434101E+03 -0.43322609644E+03  0.99773236799E+03  0.46999998093E+01 0. -1.
       -5    1    3    3    0  502  0.69945210925E+03  0.56438434101E+03 -0.33893218927E+03  0.96055195405E+03  0.46999998093E+01 0.  1.
</event>
<event>
 5   0  0.1000316E-05  0.1800048E+04  0.7818609E-02  0.8706274E-01
        2   -1    0    0  501    0  0.00000000000E+00  0.00000000000E+00  0.16340454786E+04  0.16340454786E+04  0.25500000920E-02 0. -1.
       -2   -1    0    0    0  501  0.00000000000E+00  0.00000000000E+00 -0.49572856321E+03  0.49572856322E+03  0.25500000920E-02 0.  1.
    10030    2    1    2    0    0  0.00000000000E+00  0.00000000000E+00  0.11383169154E+04  0.21297740418E+04  0.18000477964E+04 0.  0.
        5    1    3    3  502    0 -0.40317305901E+02  0.49014847770E+03  0.14609861720E+04  0.15415491235E+04  0.46999998093E+01 0. -1.
       -5    1    3    3    0  502  0.40317305901E+02 -0.49014847770E+03 -0.32266925663E+03  0.58822491831E+03  0.46999998093E+01 0.  1.
</event>
<event>
 5   0  0.9589963E-06  0.1800354E+04  0.7818609E-02  0.8706111E-01
       -2   -1    0    0    0  501  0.00000000000E+00  0.00000000000E+00  0.80670898053E+03  0.80670898053E+03  0.25500000920E-02 0.  1.
        2   -1    0    0  501    0  0.00000000000E+00  0.00000000000E+00 -0.10044747037E+04  0.10044747037E+04  0.25500000920E-02 0. -1.
    10030    2    1    2    0    0  0.00000000000E+00  0.00000000000E+00 -0.19776572317E+03  0.18111836842E+04  0.18003541476E+04 0.  0.
        2    1    3    3  502    0  0.32937816626E+03 -0.38695178222E+03 -0.84638474117E+03  0.98721263579E+03  0.25500000920E-02 0. -1.
       -2    1    3    3    0  502 -0.32937816626E+03  0.38695178222E+03  0.64861901799E+03  0.82397104845E+03  0.25500000920E-02 0.  1.
</event>
<event>
 5   0  0.4981384E-06  0.1800057E+04  0.7818609E-02  0.8706269E-01
        1   -1    0    0  501    0  0.00000000000E+00  0.00000000000E+00  0.18046417093E+04  0.18046417093E+04  0.50400001928E-02 0. -1.
       -1   -1    0    0    0  501  0.00000000000E+00  0.00000000000E+00 -0.44887119150E+03  0.44887119153E+03  0.50400001928E-02 0.  1.
    10030    2    1    2    0    0  0.00000000000E+00  0.00000000000E+00  0.13557705178E+04  0.22535129009E+04  0.18000574150E+04 0.  0.
        5    1    3    3  502    0 -0.23435262883E+03  0.31688848810E+03 -0.33507307785E+03  0.51733502300E+03  0.46999998093E+01 0.  1.
       -5    1    3    3    0  502  0.23435262883E+03 -0.31688848810E+03  0.16908435957E+04  0.17361778778E+04  0.46999998093E+01 0. -1.
</event>
<event>
 5   0  0.1035018E-05  0.1804057E+04  0.7818609E-02  0.8704145E-01
       -2   -1    0    0    0  501  0.00000000000E+00  0.00000000000E+00  0.45475359626E+03  0.45475359627E+03  0.25500000920E-02 0. -1.
        2   -1    0    0  501    0  0.00000000000E+00  0.00000000000E+00 -0.17892221803E+04  0.17892221803E+04  0.25500000920E-02 0.  1.
    10030    2    1    2    0    0  0.00000000000E+00  0.00000000000E+00 -0.13344685840E+04  0.22439757765E+04  0.18040567851E+04 0.  0.
        3    1    3    3  502    0 -0.12770009754E+03 -0.48754618731E+03  0.26328396853E+03  0.56861855224E+03  0.10100000352E+00 0. -1.
       -3    1    3    3    0  502  0.12770009754E+03  0.48754618731E+03 -0.15977525525E+04  0.16753572243E+04  0.10100000352E+00 0.  1.
</event>
<event>
 5   0  0.4987456E-06  0.1798239E+04  0.7818609E-02  0.8707237E-01
        1   -1    0    0  501    0  0.00000000000E+00  0.00000000000E+00  0.18212306083E+04  0.18212306083E+04  0.50400001928E-02 0.  1.
       -1   -1    0    0    0  501  0.00000000000E+00  0.00000000000E+00 -0.44388424097E+03  0.44388424100E+03  0.50400001928E-02 0. -1.
    10030    2    1    2    0    0  0.00000000000E+00  0.00000000000E+00  0.13773463673E+04  0.22651148493E+04  0.17982386563E+04 0.  0.
        3    1    3    3  502    0  0.77364505827E+03  0.28984700010E+02  0.11274715983E+03  0.78235460072E+03  0.10100000352E+00 0. -1.
       -3    1    3    3    0  502 -0.77364505827E+03 -0.28984700010E+02  0.12645992075E+04  0.14827602486E+04  0.10100000352E+00 0.  1.
</event>
<event>
 5   0  0.1036381E-05  0.1799744E+04  0.7818609E-02  0.8706436E-01
        2   -1    0    0  501    0  0.00000000000E+00  0.00000000000E+00  0.16563019075E+04  0.16563019075E+04  0.25500000920E-02 0. -1.
       -2   -1    0    0    0  501  0.00000000000E+00  0.00000000000E+00 -0.48890209966E+03  0.48890209967E+03  0.25500000920E-02 0.  1.
    10030    2    1    2    0    0  0.00000000000E+00  0.00000000000E+00  0.11673998079E+04  0.21452040072E+04  0.17997438487E+04 0.  0.
        4    1    3    3  502    0  0.23678855661E+03 -0.20304059592E+03 -0.42240271333E+03  0.52509043913E+03  0.12699999809E+01 0.  1.
       -4    1    3    3    0  502 -0.23678855661E+03  0.20304059592E+03  0.15898025212E+04  0.16201135681E+04  0.12699999809E+01 0. -1.
</event>
<event>
 5   0  0.4953155E-06  0.1800296E+04  0.7818609E-02  0.8706142E-01
       -1   -1    0    0    0  501  0.00000000000E+00  0.00000000000E+00  0.16157617698E+04  0.16157617698E+04  0.50400001928E-02 0. -1.
        1   -1    0    0  501    0  0.00000000000E+00  0.00000000000E+00 -0.50147625853E+03  0.50147625856E+03  0.50400001928E-02 0.  1.
    10030    2    1    2    0    0  0.00000000000E+00  0.00000000000E+00  0.11142855112E+04  0.21172380283E+04  0.18002957168E+04 0.  0.
        2    1    3    3  502    0  0.32148123143E+03 -0.39850535109E+03  0.14278246038E+04  0.15168519362E+04  0.25500000920E-02 0. -1.
       -2    1    3    3    0  502 -0.32148123143E+03  0.39850535109E+03 -0.31353909261E+03  0.60038609213E+03  0.25500000920E-02 0.  1.
</event>
<event>
 5   0  0.4994123E-06  0.1799463E+04  0.7818609E-02  0.8706585E-01
        1   -1    0    0  501    0  0.00000000000E+00  0.00000000000E+00  0.12412014780E+04  0.12412014780E+04  0.50400001928E-02 0. -1.
       -1   -1    0    0    0  501  0.00000000000E+00  0.00000000000E+00 -0.65220431362E+03  0.65220431364E+03  0.50400001928E-02 0.  1.
    10030    2    1    2    0    0  0.00000000000E+00  0.00000000000E+00  0.58899716435E+03  0.18934057916E+04  0.17994632067E+04 0.  0.
        1    1    3    3  502    0 -0.68414678266E+03  0.55181143285E+03  0.49679670732E+03  0.10096334216E+04  0.50400001928E-02 0. -1.
       -1    1    3    3    0  502  0.68414678266E+03 -0.55181143285E+03  0.92200457032E+02  0.88377236999E+03  0.50400001928E-02 0.  1.
</event>
<event>
 5   0  0.1000316E-05  0.1800079E+04  0.7818609E-02  0.8706258E-01
        2   -1    0    0  501    0  0.00000000000E+00  0.00000000000E+00  0.55119838922E+03  0.55119838923E+03  0.25500000920E-02 0.  1.
       -2   -1    0    0    0  501  0.00000000000E+00  0.00000000000E+00 -0.14696536076E+04  0.14696536076E+04  0.25500000920E-02 0. -1.
    10030    2    1    2    0    0  0.00000000000E+00  0.00000000000E+00 -0.91845521837E+03  0.20208519968E+04  0.18000785552E+04 0.  0.
        5    1    3    3  502    0 -0.53775152307E+03  0.17586845390E+03  0.32657862989E+03  0.65328562294E+03  0.46999998093E+01 0.  1.
       -5    1    3    3    0  502  0.53775152307E+03 -0.17586845390E+03 -0.12450338483E+04  0.13675663739E+04  0.46999998093E+01 0. -1.
</event>
<event>
 5   0  0.4981384E-06  0.1800439E+04  0.7818609E-02  0.8706066E-01
        1   -1    0    0  501    0  0.00000000000E+00  0.00000000000E+00  0.12841836241E+04  0.12841836242E+04  0.50400001928E-02 0. -1.
       -1   -1    0    0    0  501  0.00000000000E+00  0.00000000000E+00 -0.63105883054E+03  0.63105883056E+03  0.50400001928E-02 0.  1.
    10030    2    1    2    0    0  0.00000000000E+00  0.00000000000E+00  0.65312479361E+03  0.19152424547E+04  0.18004392976E+04 0.  0.
        5    1    3    3  502    0  0.28313286917E+03 -0.22320372304E+03 -0.55089084524E+03  0.65839724859E+03  0.46999998093E+01 0.  1.
       -5    1    3    3    0  502 -0.28313286917E+03  0.22320372304E+03  0.12040156388E+04  0.12568452061E+04  0.46999998093E+01 0. -1.
</event>
<event>
 5   0  0.1035018E-05  0.1800871E+04  0.7818609E-02  0.8705836E-01
        2   -1    0    0  501    0  0.00000000000E+00  0.00000000000E+00  0.81373130081E+03  0.81373130081E+03  0.25500000920E-02 0. -1.
       -2   -1    0    0    0  501  0.00000000000E+00  0.00000000000E+00 -0.99637850627E+03  0.99637850627E+03  0.25500000920E-02 0.  1.
    10030    2    1    2    0    0  0.00000000000E+00  0.00000000000E+00 -0.18264720546E+03  0.18101098071E+04  0.18008713202E+04 0.  0.
        3    1    3    3  502    0 -0.40767347005E+02 -0.85314823774E+03  0.19520100041E+03  0.87614344311E+03  0.10100000352E+00 0. -1.
       -3    1    3    3    0  502  0.40767347005E+02  0.85314823774E+03 -0.37784820587E+03  0.93396636397E+03  0.10100000352E+00 0.  1.
</event>
<event>
 5   0  0.9999162E-06  0.1799682E+04  0.7818609E-02  0.8706469E-01
       -2   -1    0    0    0  501  0.00000000000E+00  0.00000000000E+00  0.51512789951E+03  0.51512789952E+03  0.25500000920E-02 0.  1.
        2   -1    0    0  501    0  0.00000000000E+00  0.00000000000E+00 -0.15718690948E+04  0.15718690948E+04  0.25500000920E-02 0. -1.
    10030    2    1    2    0    0  0.00000000000E+00  0.00000000000E+00 -0.10567411953E+04  0.20869969943E+04  0.17996817776E+04 0.  0.
        1    1    3    3  502    0 -0.11851722133E+03  0.60416400372E+03  0.23263862217E+03  0.65816502770E+03  0.50400001928E-02 0.  1.
       -1    1    3    3    0  502  0.11851722133E+03 -0.60416400372E+03 -0.12893798174E+04  0.14288319666E+04  0.50400001928E-02 0. -1.
</event>
<event>
 5   0  0.4953155E-06  0.1800066E+04  0.7818609E-02  0.8706265E-01
       -1   -1    0    0    0  501  0.00000000000E+00  0.00000000000E+00  0.70078148743E+03  0.70078148745E+03  0.50400001928E-02 0. -1.
        1   -1    0    0  501    0  0.00000000000E+00  0.00000000000E+00 -0.11559365753E+04  0.11559365753E+04  0.50400001928E-02 0.  1.
    10030    2    1    2    0    0  0.00000000000E+00  0.00000000000E+00 -0.45515508785E+03  0.18567180627E+04  0.18000655017E+04 0.  0.
        2    1    3    3  502    0 -0.30028463661E+03 -0.46139740422E+03 -0.96202690641E+03  0.11084016403E+04  0.25500000920E-02 0.  1.
       -2    1    3    3    0  502  0.30028463661E+03  0.46139740422E+03  0.50687181856E+03  0.74831642242E+03  0.25500000920E-02 0. -1.
</event>
<event>
 5   0  0.4953155E-06  0.1799712E+04  0.7818609E-02  0.8706452E-01
       -1   -1    0    0    0  501  0.00000000000E+00  0.00000000000E+00  0.61657702005E+03  0.61657702007E+03  0.50400001928E-02 0.  1.
        1   -1    0    0  501    0  0.00000000000E+00  0.00000000000E+00 -0.13132848364E+04  0.13132848364E+04  0.50400001928E-02 0. -1.
    10030    2    1    2    0    0  0.00000000000E+00  0.00000000000E+00 -0.69670781631E+03  0.19298618564E+04  0.17997124780E+04 0.  0.
        2    1    3    3  502    0 -0.26197844652E+03 -0.24973064848E+03 -0.12317913950E+04  0.12838645349E+04  0.25500000920E-02 0. -1.
       -2    1    3    3    0  502  0.26197844652E+03  0.24973064848E+03  0.53508357868E+03  0.64599732152E+03  0.25500000920E-02 0.  1.
</event>
<event>
 5   0  0.1035018E-05  0.1799573E+04  0.7818609E-02  0.8706526E-01
       -2   -1    0    0    0  501  0.00000000000E+00  0.00000000000E+00  0.13284952910E+04  0.13284952910E+04  0.25500000920E-02 0. -1.
        2   -1    0    0  501    0  0.00000000000E+00  0.00000000000E+00 -0.60942334524E+03  0.60942334525E+03  0.25500000920E-02 0.  1.
    10030    2    1    2    0    0  0.00000000000E+00  0.00000000000E+00  0.71907194579E+03  0.19379186363E+04  0.17995733321E+04 0.  0.
        3    1    3    3  502    0 -0.38728759373E+03 -0.81216955493E+03  0.36193622480E+03  0.96984994057E+03  0.10100000352E+00 0.  1.
       -3    1    3    3    0  502  0.38728759373E+03  0.81216955493E+03  0.35713572100E+03  0.96806869571E+03  0.10100000352E+00 0. -1.
</event>
<event>
 5   0  0.1000316E-05  0.1800098E+04  0.7818609E-02  0.8706247E-01
       -2   -1    0    0    0  501  0.00000000000E+00  0.00000000000E+00  0.12968606244E+04  0.12968606244E+04  0.25500000920E-02 0. -1.
        2   -1    0    0  501    0  0.00000000000E+00  0.00000000000E+00 -0.62465325305E+03  0.62465325306E+03  0.25500000920E-02 0.  1.
    10030    2    1    2    0    0  0.00000000000E+00  0.00000000000E+00  0.67220737138E+03  0.19215138775E+04  0.18000980060E+04 0.  0.
        5    1    3    3  502    0 -0.17606135966E+03  0.47958984473E+03 -0.45486284407E+03  0.68405140044E+03  0.46999998093E+01 0.  1.
       -5    1    3    3    0  502  0.17606135966E+03 -0.47958984473E+03  0.11270702155E+04  0.12374624770E+04  0.46999998093E+01 0. -1.
</event>
<event>
 5   0  0.4983159E-06  0.1799874E+04  0.7818609E-02  0.8706366E-01
        1   -1    0    0  501    0  0.00000000000E+00  0.00000000000E+00  0.10903763155E+04  0.10903763156E+04  0.50400001928E-02 0. -1.
       -1   -1    0    0    0  501  0.00000000000E+00  0.00000000000E+00 -0.74275916552E+03  0.74275916554E+03  0.50400001928E-02 0.  1.
    10030    2    1    2    0    0  0.00000000000E+00  0.00000000000E+00  0.34761715003E+03  0.18331354811E+04  0.17998744426E+04 0.  0.
        4    1    3    3  502    0  0.79657969086E+03  0.34720075541E+03 -0.64606656553E+02  0.87135710327E+03  0.12699999809E+01 0.  1.
       -4    1    3    3    0  502 -0.79657969086E+03 -0.34720075541E+03  0.41222380658E+03  0.96177837783E+03  0.12699999809E+01 0. -1.
</event>
<event>
 5   0  0.4983159E-06  0.1799560E+04  0.7818609E-02  0.8706533E-01
       -1   -1    0    0    0  501  0.00000000000E+00  0.00000000000E+00  0.10449566589E+04  0.10449566589E+04  0.50400001928E-02 0.  1.
        1   -1    0    0  501    0  0.00000000000E+00  0.00000000000E+00 -0.77477325027E+03  0.77477325028E+03  0.50400001928E-02 0. -1.
    10030    2    1    2    0    0  0.00000000000E+00  0.00000000000E+00  0.27018340858E+03  0.18197299091E+04  0.17995604652E+04 0.  0.
        4    1    3    3  502    0 -0.33843166748E+03 -0.14642481918E+03 -0.69485482737E+03  0.78663909466E+03  0.12699999809E+01 0. -1.
       -4    1    3    3    0  502  0.33843166748E+03  0.14642481918E+03  0.96503823595E+03  0.10330908145E+04  0.12699999809E+01 0.  1.
</event>
<event>
 5   0  0.4994123E-06  0.1799176E+04  0.7818609E-02  0.8706738E-01
        1   -1    0    0  501    0  0.00000000000E+00  0.00000000000E+00  0.22199593046E+04  0.22199593046E+04  0.50400001928E-02 0.  1.
       -1   -1    0    0    0  501  0.00000000000E+00  0.00000000000E+00 -0.36453756365E+03  0.36453756369E+03  0.50400001928E-02 0. -1.
    10030    2    1    2    0    0  0.00000000000E+00  0.00000000000E+00  0.18554217410E+04  0.25844968683E+04  0.17991759851E+04 0.  0.
        1    1    3    3  502    0 -0.34450082848E+03 -0.23406024831E+03  0.20731194152E+04  0.21145422981E+04  0.50400001928E-02 0.  1.
       -1    1    3    3    0  502  0.34450082848E+03  0.23406024831E+03 -0.21769767426E+03  0.46995457022E+03  0.50400001928E-02 0. -1.
</event>
<event>
 5   0  0.4994123E-06  0.1800468E+04  0.7818609E-02  0.8706051E-01
        1   -1    0    0  501    0  0.00000000000E+00  0.00000000000E+00  0.93220824612E+03  0.93220824614E+03  0.50400001928E-02 0. -1.
       -1   -1    0    0    0  501  0.00000000000E+00  0.00000000000E+00 -0.86935664781E+03  0.86935664783E+03  0.50400001928E-02 0.  1.
    10030    2    1    2    0    0  0.00000000000E+00  0.00000000000E+00  0.62851598312E+02  0.18015648940E+04  0.18004682013E+04 0.  0.
        1    1    3    3  502    0  0.37919337864E+03 -0.53841600447E+02  0.84662131434E+03  0.92922235566E+03  0.50400001928E-02 0. -1.
       -1    1    3    3    0  502 -0.37919337864E+03  0.53841600447E+02 -0.78376971603E+03  0.87234253830E+03  0.50400001928E-02 0.  1.
</event>
<event>
 5   0  0.4953155E-06  0.1801072E+04  0.7818609E-02  0.8705729E-01
        1   -1    0    0  501    0  0.00000000000E+00  0.00000000000E+00  0.10515215921E+04  0.10515215921E+04  0.50400001928E-02 0. -1.
       -1   -1    0    0    0  501  0.00000000000E+00  0.00000000000E+00 -0.77123025903E+03  0.77123025905E+03  0.50400001928E-02 0.  1.
    10030    2    1    2    0    0  0.00000000000E+00  0.00000000000E+00  0.28029133309E+03  0.18227518512E+04  0.18010722028E+04 0.  0.
        2    1    3    3  502    0  0.72094207671E+03 -0.96229445742E+02  0.67752466742E+03  0.99401069369E+03  0.25500000920E-02 0. -1.
       -2    1    3    3    0  502 -0.72094207671E+03  0.96229445742E+02 -0.39723333434E+03  0.82874115748E+03  0.25500000920E-02 0.  1.
</event>
<event>
 5   0  0.4981384E-06  0.1795403E+04  0.7818609E-02  0.8708748E-01
        1   -1    0    0  501    0  0.00000000000E+00  0.00000000000E+00  0.61014493895E+03  0.61014493897E+03  0.50400001928E-02 0.  1.
       -1   -1    0    0    0  501  0.00000000000E+00  0.00000000000E+00 -0.13207807758E+04  0.13207807758E+04  0.50400001928E-02 0. -1.
    10030    2    1    2    0    0  0.00000000000E+00  0.00000000000E+00 -0.71063583685E+03  0.19309257148E+04  0.17954026912E+04 0.  0.
        5    1    3    3  502    0  0.11429084129E+03 -0.48967609702E+03  0.44445459070E+03  0.67112372152E+03  0.46999998093E+01 0.  1.
       -5    1    3    3    0  502 -0.11429084129E+03  0.48967609702E+03 -0.11550904276E+04  0.12598019933E+04  0.46999998093E+01 0. -1.
</event>
<event>
 5   0  0.4953155E-06  0.1799958E+04  0.7818609E-02  0.8706322E-01
       -1   -1    0    0    0  501  0.00000000000E+00  0.00000000000E+00  0.83764194829E+03  0.83764194831E+03  0.50400001928E-02 0. -1.
        1   -1    0    0  501    0  0.00000000000E+00  0.00000000000E+00 -0.96695521776E+03  0.96695521778E+03  0.50400001928E-02 0.  1.
    10030    2    1    2    0    0  0.00000000000E+00  0.00000000000E+00 -0.12931326947E+03  0.18045971661E+04  0.17999580579E+04 0.  0.
        2    1    3    3  502    0 -0.21311518550E+03  0.45218631952E+03 -0.81496484884E+03  0.95606393860E+03  0.25500000920E-02 0.  1.
       -2    1    3    3    0  502  0.21311518550E+03 -0.45218631952E+03  0.68565157937E+03  0.84853322748E+03  0.25500000920E-02 0. -1.
</event>
<event>
 5   0  0.9999162E-06  0.1799900E+04  0.7818609E-02  0.8706353E-01
       -2   -1    0    0    0  501  0.00000000000E+00  0.00000000000E+00  0.76323428947E+03  0.76323428948E+03  0.25500000920E-02 0. -1.
        2   -1    0    0  501    0  0.00000000000E+00  0.00000000000E+00 -0.10611553980E+04  0.10611553980E+04  0.25500000920E-02 0.  1.
    10030    2    1    2    0    0  0.00000000000E+00  0.00000000000E+00 -0.29792110854E+03  0.18243896875E+04  0.17999002042E+04 0.  0.
        1    1    3    3  502    0  0.22031720200E+03  0.59155446717E+03  0.50119785064E+03  0.80602459183E+03  0.50400001928E-02 0. -1.
       -1    1    3    3    0  502 -0.22031720200E+03 -0.59155446717E+03 -0.79911895918E+03  0.10183650957E+04  0.50400001928E-02 0.  1.
</event>
<event>
 5   0  0.9999162E-06  0.1799277E+04  0.7818609E-02  0.8706684E-01
       -2   -1    0    0    0  501  0.00000000000E+00  0.00000000000E+00  0.53140616688E+03  0.53140616689E+03  0.25500000920E-02 0. -1.
        2   -1    0    0  501    0  0.00000000000E+00  0.00000000000E+00 -0.15230332326E+04  0.15230332326E+04  0.25500000920E-02 0.  1.
    10030    2    1    2    0    0  0.00000000000E+00  0.00000000000E+00 -0.99162706571E+03  0.20544393995E+04  0.17992768016E+04 0.  0.
        1    1    3    3  502    0 -0.27690022073E+03  0.47922401378E+03  0.31400539382E+03  0.63634014096E+03  0.50400001928E-02 0. -1.
       -1    1    3    3    0  502  0.27690022073E+03 -0.47922401378E+03 -0.13056324595E+04  0.14180992585E+04  0.50400001928E-02 0.  1.
</event>
<event>
 5   0  0.9589963E-06  0.1800769E+04  0.7818609E-02  0.8705891E-01
        2   -1    0    0  501    0  0.00000000000E+00  0.00000000000E+00  0.10708205702E+04  0.10708205702E+04  0.25500000920E-02 0.  1.
       -2   -1    0    0    0  501  0.00000000000E+00  0.00000000000E+00 -0.75707536989E+03  0.75707536989E+03  0.25500000920E-02 0. -1.
    10030    2    1    2    0    0  0.00000000000E+00  0.00000000000E+00  0.31374520036E+03  0.18278959401E+04  0.18007685907E+04 0.  0.
        2    1    3    3  502    0  0.64897641997E+03  0.27844027787E+03  0.72384985442E+03  0.10112655407E+04  0.25500000920E-02 0. -1.
       -2    1    3    3    0  502 -0.64897641997E+03 -0.27844027787E+03 -0.41010465406E+03  0.81663039945E+03  0.25500000920E-02 0.  1.
</event>
<event>
 5   0  0.4983159E-06  0.1799839E+04  0.7818609E-02  0.8706385E-01
        1   -1    0    0  501    0  0.00000000000E+00  0.00000000000E+00  0.15869918713E+04  0.15869918713E+04  0.50400001928E-02 0.  1.
       -1   -1    0    0    0  501  0.00000000000E+00  0.00000000000E+00 -0.51030843922E+03  0.51030843924E+03  0.50400001928E-02 0. -1.
    10030    2    1    2    0    0  0.00000000000E+00  0.00000000000E+00  0.10766834321E+04  0.20973003106E+04  0.17998392650E+04 0.  0.
        4    1    3    3  502    0 -0.82956776692E+03 -0.91905106146E+02  0.93044195928E+03  0.12499412310E+04  0.12699999809E+01 0.  1.
       -4    1    3    3    0  502  0.82956776692E+03  0.91905106146E+02  0.14624147282E+03  0.84735907957E+03  0.12699999809E+01 0. -1.
</event>
<event>
 5   0  0.4983159E-06  0.1799108E+04  0.7818609E-02  0.8706774E-01
       -1   -1    0    0    0  501  0.00000000000E+00  0.00000000000E+00  0.43246869729E+03  0.43246869732E+03  0.50400001928E-02 0. -1.
        1   -1    0    0  501    0  0.00000000000E+00  0.00000000000E+00 -0.18711123089E+04  0.18711123089E+04  0.50400001928E-02 0.  1.
    10030    2    1    2    0    0  0.00000000000E+00  0.00000000000E+00 -0.14386436116E+04  0.23035810062E+04  0.17991081154E+04 0.  0.
        4    1    3    3  502    0 -0.31624236433E+03 -0.49383709053E+03  0.15408819225E+03  0.60632424401E+03  0.12699999809E+01 0. -1.
       -4    1    3    3    0  502  0.31624236433E+03  0.49383709053E+03 -0.15927318038E+04  0.16972567622E+04  0.12699999809E+01 0.  1.
</event>
<event>
 5   0  0.4994123E-06  0.1799928E+04  0.7818609E-02  0.8706338E-01
       -1   -1    0    0    0  501  0.00000000000E+00  0.00000000000E+00  0.10235851097E+04  0.10235851097E+04  0.50400001928E-02 0.  1.
        1   -1    0    0  501    0  0.00000000000E+00  0.00000000000E+00 -0.79127256672E+03  0.79127256674E+03  0.50400001928E-02 0. -1.
    10030    2    1    2    0    0  0.00000000000E+00  0.00000000000E+00  0.23231254300E+03  0.18148576765E+04  0.17999275731E+04 0.  0.
        1    1    3    3  502    0 -0.69899951040E+03  0.54227957491E+03  0.28265431007E+03  0.92874157436E+03  0.50400001928E-02 0. -1.
       -1    1    3    3    0  502  0.69899951040E+03 -0.54227957491E+03 -0.50341767072E+02  0.88611610212E+03  0.50400001928E-02 0.  1.
</event>
<event>
 5   0  0.4953155E-06  0.1798774E+04  0.7818609E-02  0.8706951E-01
       -1   -1    0    0    0  501  0.00000000000E+00  0.00000000000E+00  0.84683508433E+03  0.84683508435E+03  0.50400001928E-02 0.  1.
        1   -1    0    0  501    0  0.00000000000E+00  0.00000000000E+00 -0.95520059120E+03  0.95520059121E+03  0.50400001928E-02 0. -1.
    10030    2    1    2    0    0  0.00000000000E+00  0.00000000000E+00 -0.10836550686E+03  0.18020356756E+04  0.17987744419E+04 0.  0.
        2    1    3    3  502    0 -0.20701674617E+03 -0.62458621403E+03  0.56006304028E+03  0.86408013578E+03  0.25500000920E-02 0.  1.
       -2    1    3    3    0  502  0.20701674617E+03  0.62458621403E+03 -0.66842854714E+03  0.93795553978E+03  0.25500000920E-02 0. -1.
</event>
<event>
 5   0  0.4953155E-06  0.1799955E+04  0.7818609E-02  0.8706323E-01
        1   -1    0    0  501    0  0.00000000000E+00  0.00000000000E+00  0.14989106102E+04  0.14989106102E+04  0.50400001928E-02 0.  1.
       -1   -1    0    0    0  501  0.00000000000E+00  0.00000000000E+00 -0.54036556541E+03  0.54036556543E+03  0.50400001928E-02 0. -1.
    10030    2    1    2    0    0  0.00000000000E+00  0.00000000000E+00  0.95854504480E+03  0.20392761757E+04  0.17999551988E+04 0.  0.
        2    1    3    3  502    0 -0.76248415386E+03  0.23757651762E+03  0.92172451732E+01  0.79869245910E+03  0.25500000920E-02 0.  1.
       -2    1    3    3    0  502  0.76248415386E+03 -0.23757651762E+03  0.94932779963E+03  0.12405837166E+04  0.25500000920E-02 0. -1.
</event>
<event>
 5   0  0.1035018E-05  0.1799814E+04  0.7818609E-02  0.8706399E-01
        2   -1    0    0  501    0  0.00000000000E+00  0.00000000000E+00  0.73448875358E+03  0.73448875359E+03  0.25500000920E-02 0.  1.
       -2   -1    0    0    0  501  0.00000000000E+00  0.00000000000E+00 -0.11025795475E+04  0.11025795475E+04  0.25500000920E-02 0. -1.
    10030    2    1    2    0    0  0.00000000000E+00  0.00000000000E+00 -0.36809079390E+03  0.18370683011E+04  0.17998136321E+04 0.  0.
        3    1    3    3  502    0 -0.50895925859E+03 -0.24392259464E+03  0.53138719581E+03  0.77518392730E+03  0.10100000352E+00 0.  1.
       -3    1    3    3    0  502  0.50895925859E+03  0.24392259464E+03 -0.89947798971E+03  0.10618843738E+04  0.10100000352E+00 0. -1.
</event>
<event>
 5   0  0.9999162E-06  0.1800217E+04  0.7818609E-02  0.8706184E-01
       -2   -1    0    0    0  501  0.00000000000E+00  0.00000000000E+00  0.92661084029E+03  0.92661084030E+03  0.25500000920E-02 0. -1.
        2   -1    0    0  501    0  0.00000000000E+00  0.00000000000E+00 -0.87436419062E+03  0.87436419063E+03  0.25500000920E-02 0.  1.
    10030    2    1    2    0    0  0.00000000000E+00  0.00000000000E+00  0.52246649671E+02  0.18009750309E+04  0.18002170285E+04 0.  0.
        1    1    3    3  502    0  0.30355766817E+03 -0.84723954485E+03  0.41401726654E+02  0.90093074499E+03  0.50400001928E-02 0. -1.
       -1    1    3    3    0  502 -0.30355766817E+03  0.84723954485E+03  0.10844923017E+02  0.90004428594E+03  0.50400001928E-02 0.  1.
</event>
<event>
 5   0  0.1035018E-05  0.1804024E+04  0.7818609E-02  0.8704162E-01
        2   -1    0    0  501    0  0.00000000000E+00  0.00000000000E+00  0.19121201650E+04  0.19121201650E+04  0.25500000920E-02 0.  1.
       -2   -1    0    0    0  501  0.00000000000E+00  0.00000000000E+00 -0.42550974634E+03  0.42550974635E+03  0.25500000920E-02 0. -1.
    10030    2    1    2    0    0  0.00000000000E+00  0.00000000000E+00  0.14866104186E+04  0.23376299113E+04  0.18040241311E+04 0.  0.
        3    1    3    3  502    0 -0.54671545663E+03  0.33167717522E+03  0.15676516931E+04  0.16930562247E+04  0.10100000352E+00 0.  1.
       -3    1    3    3    0  502  0.54671545663E+03 -0.33167717522E+03 -0.81041274441E+02  0.64457368659E+03  0.10100000352E+00 0. -1.
</event>
<event>
 5   0  0.4994123E-06  0.1799963E+04  0.7818609E-02  0.8706319E-01
        1   -1    0    0  501    0  0.00000000000E+00  0.00000000000E+00  0.81079096909E+03  0.81079096911E+03  0.50400001928E-02 0. -1.
       -1   -1    0    0    0  501  0.00000000000E+00  0.00000000000E+00 -0.99898343981E+03  0.99898343983E+03  0.50400001928E-02 0.  1.
    10030    2    1    2    0    0  0.00000000000E+00  0.00000000000E+00 -0.18819247072E+03  0.18097744089E+04  0.17999630566E+04 0.  0.
        1    1    3    3  502    0 -0.79618417596E+03  0.56108281936E+02  0.32399408745E+03  0.86141137099E+03  0.50400001928E-02 0. -1.
       -1    1    3    3    0  502  0.79618417596E+03 -0.56108281936E+02 -0.51218655817E+03  0.94836303794E+03  0.50400001928E-02 0.  1.
</event>
<event>
 5   0  0.9589963E-06  0.1800387E+04  0.7818609E-02  0.8706094E-01
        2   -1    0    0  501    0  0.00000000000E+00  0.00000000000E+00  0.13223639650E+04  0.13223639650E+04  0.25500000920E-02 0.  1.
       -2   -1    0    0    0  501  0.00000000000E+00  0.00000000000E+00 -0.61280280471E+03  0.61280280472E+03  0.25500000920E-02 0. -1.
    10030    2    1    2    0    0  0.00000000000E+00  0.00000000000E+00  0.70956116030E+03  0.19351667697E+04  0.18003870102E+04 0.  0.
        2    1    3    3  502    0 -0.29379064612E+03 -0.83685783500E+03  0.18929250413E+03  0.90690442268E+03  0.25500000920E-02 0.  1.
       -2    1    3    3    0  502  0.29379064612E+03  0.83685783500E+03  0.52026865617E+03  0.10282623470E+04  0.25500000920E-02 0. -1.
</event>
<event>
 5   0  0.9589963E-06  0.1801183E+04  0.7818609E-02  0.8705671E-01
       -2   -1    0    0    0  501  0.00000000000E+00  0.00000000000E+00  0.52585031208E+03  0.52585031209E+03  0.25500000920E-02 0. -1.
        2   -1    0    0  501    0  0.00000000000E+00  0.00000000000E+00 -0.15423872798E+04  0.15423872798E+04  0.25500000920E-02 0.  1.
    10030    2    1    2    0    0  0.00000000000E+00  0.00000000000E+00 -0.10165369677E+04  0.20682375919E+04  0.18011827586E+04 0.  0.
        2    1    3    3  502    0 -0.26251868928E+03  0.85825981286E+03 -0.59372653623E+03  0.10761213539E+04  0.25500000920E-02 0.  1.
       -2    1    3    3    0  502  0.26251868928E+03 -0.85825981286E+03 -0.42281043146E+03  0.99211623792E+03  0.25500000920E-02 0. -1.
</event>
<event>
 5   0  0.4994123E-06  0.1800860E+04  0.7818609E-02  0.8705842E-01
       -1   -1    0    0    0  501  0.00000000000E+00  0.00000000000E+00  0.70238656365E+03  0.70238656367E+03  0.50400001928E-02 0.  1.
        1   -1    0    0  501    0  0.00000000000E+00  0.00000000000E+00 -0.11543130231E+04  0.11543130231E+04  0.50400001928E-02 0. -1.
    10030    2    1    2    0    0  0.00000000000E+00  0.00000000000E+00 -0.45192645947E+03  0.18566995868E+04  0.18008597477E+04 0.  0.
        1    1    3    3  502    0  0.31490528282E+03  0.27345501400E+03 -0.10487244992E+04  0.11286124477E+04  0.50400001928E-02 0. -1.
       -1    1    3    3    0  502 -0.31490528282E+03 -0.27345501400E+03  0.59679803975E+03  0.72808713909E+03  0.50400001928E-02 0.  1.
</event>
<event>
 5   0  0.4983159E-06  0.1800734E+04  0.7818609E-02  0.8705909E-01
       -1   -1    0    0    0  501  0.00000000000E+00  0.00000000000E+00  0.86303842301E+03  0.86303842303E+03  0.50400001928E-02 0.  1.
        1   -1    0    0  501    0  0.00000000000E+00  0.00000000000E+00 -0.93931029332E+03  0.93931029333E+03  0.50400001928E-02 0. -1.
    10030    2    1    2    0    0  0.00000000000E+00  0.00000000000E+00 -0.76271870304E+02  0.18023487164E+04  0.18007341551E+04 0.  0.
        4    1    3    3  502    0 -0.63731960567E+02 -0.57036079959E+03  0.65623392183E+03  0.87178998478E+03  0.12699999809E+01 0.  1.
       -4    1    3    3    0  502  0.63731960567E+02  0.57036079959E+03 -0.73250579214E+03  0.93055873158E+03  0.12699999809E+01 0. -1.
</event>
<event>
 5   0  0.4981384E-06  0.1799915E+04  0.7818609E-02  0.8706345E-01
       -1   -1    0    0    0  501  0.00000000000E+00  0.00000000000E+00  0.10357187621E+04  0.10357187621E+04  0.50400001928E-02 0.  1.
        1   -1    0    0  501    0  0.00000000000E+00  0.00000000000E+00 -0.78199138726E+03  0.78199138727E+03  0.50400001928E-02 0. -1.
    10030    2    1    2    0    0  0.00000000000E+00  0.00000000000E+00  0.25372737488E+03  0.18177101494E+04  0.17999146109E+04 0.  0.
        5    1    3    3  502    0 -0.25666688563E+03 -0.86163733988E+03  0.16731297868E+03  0.91450124029E+03  0.46999998093E+01 0.  1.
       -5    1    3    3    0  502  0.25666688563E+03  0.86163733988E+03  0.86414396198E+02  0.90320890913E+03  0.46999998093E+01 0. -1.
</event>
<event>
 5   0  0.1036381E-05  0.1797440E+04  0.7818609E-02  0.8707662E-01
        2   -1    0    0  501    0  0.00000000000E+00  0.00000000000E+00  0.17803368211E+04  0.17803368211E+04  0.25500000920E-02 0.  1.
       -2   -1    0    0    0  501  0.00000000000E+00  0.00000000000E+00 -0.45367666065E+03  0.45367666066E+03  0.25500000920E-02 0. -1.
    10030    2    1    2    0    0  0.00000000000E+00  0.00000000000E+00  0.13266601604E+04  0.22340134817E+04  0.17974395832E+04 0.  0.
        4    1    3    3  502    0 -0.39176594972E+03 -0.54491176502E+03  0.14062459671E+04  0.15581844320E+04  0.12699999809E+01 0.  1.
       -4    1    3    3    0  502  0.39176594972E+03  0.54491176502E+03 -0.79585806687E+02  0.67582904980E+03  0.12699999809E+01 0. -1.
</event>
<event>
 5   0  0.4981384E-06  0.1797252E+04  0.7818609E-02  0.8707762E-01
       -1   -1    0    0    0  501  0.00000000000E+00  0.00000000000E+00  0.72245405195E+03  0.72245405196E+03  0.50400001928E-02 0. -1.
        1   -1    0    0  501    0  0.00000000000E+00  0.00000000000E+00 -0.11177574661E+04  0.11177574661E+04  0.50400001928E-02 0.  1.
    10030    2    1    2    0    0  0.00000000000E+00  0.00000000000E+00 -0.39530341416E+03  0.18402115181E+04  0.17972516913E+04 0.  0.
        5    1    3    3  502    0  0.85694623108E+03 -0.69254602334E+02 -0.46534563227E+03  0.97761019347E+03  0.46999998093E+01 0.  1.
       -5    1    3    3    0  502 -0.85694623108E+03  0.69254602334E+02  0.70042218109E+02  0.86260132461E+03  0.46999998093E+01 0. -1.
</event>
<event>
 5   0  0.9999162E-06  0.1798658E+04  0.7818609E-02  0.8707013E-01
        2   -1    0    0  501    0  0.00000000000E+00  0.00000000000E+00  0.12598408793E+04  0.12598408793E+04  0.25500000920E-02 0.  1.
       -2   -1    0    0    0  501  0.00000000000E+00  0.00000000000E+00 -0.64198018890E+03  0.64198018891E+03  0.25500000920E-02 0. -1.
    10030    2    1    2    0    0  0.00000000000E+00  0.00000000000E+00  0.61786069037E+03  0.19018210682E+04  0.17986582618E+04 0.  0.
        1    1    3    3  502    0 -0.71343141480E+03 -0.36607103172E+03  0.73947075269E+03  0.10907838365E+04  0.50400001928E-02 0.  1.
       -1    1    3    3    0  502  0.71343141480E+03  0.36607103172E+03 -0.12161006232E+03  0.81103723168E+03  0.50400001928E-02 0. -1.
</event>
<event>
 5   0  0.4981384E-06  0.1799599E+04  0.7818609E-02  0.8706513E-01
       -1   -1    0    0    0  501  0.00000000000E+00  0.00000000000E+00  0.64090880276E+03  0.64090880278E+03  0.50400001928E-02 0.  1.
        1   -1    0    0  501    0  0.00000000000E+00  0.00000000000E+00 -0.12632667506E+04  0.12632667506E+04  0.50400001928E-02 0. -1.
    10030    2    1    2    0    0  0.00000000000E+00  0.00000000000E+00 -0.62235794782E+03  0.19041755534E+04  0.17995986005E+04 0.  0.
        5    1    3    3  502    0 -0.53548687229E+03  0.58426003291E+03  0.13961953548E+03  0.80474945240E+03  0.46999998093E+01 0.  1.
       -5    1    3    3    0  502  0.53548687229E+03 -0.58426003291E+03 -0.76197748330E+03  0.10994261010E+04  0.46999998093E+01 0. -1.
</event>
<event>
 5   0  0.4987456E-06  0.1799836E+04  0.7818609E-02  0.8706387E-01
       -1   -1    0    0    0  501  0.00000000000E+00  0.00000000000E+00  0.58337867791E+03  0.58337867793E+03  0.50400001928E-02 0.  1.
        1   -1    0    0  501    0  0.00000000000E+00  0.00000000000E+00 -0.13882107154E+04  0.13882107154E+04  0.50400001928E-02 0. -1.
    10030    2    1    2    0    0  0.00000000000E+00  0.00000000000E+00 -0.80483203750E+03  0.19715893934E+04  0.17998361390E+04 0.  0.
        3    1    3    3  502    0  0.21785197191E+03  0.80254824355E+03 -0.77920053887E+03  0.11396037271E+04  0.10100000352E+00 0. -1.
       -3    1    3    3    0  502 -0.21785197191E+03 -0.80254824355E+03 -0.25631498631E+02  0.83198566623E+03  0.10100000352E+00 0.  1.
</event>
<event>
 5   0  0.4987456E-06  0.1799484E+04  0.7818609E-02  0.8706574E-01
        1   -1    0    0  501    0  0.00000000000E+00  0.00000000000E+00  0.51274960399E+03  0.51274960401E+03  0.50400001928E-02 0.  1.
       -1   -1    0    0    0  501  0.00000000000E+00  0.00000000000E+00 -0.15788126926E+04  0.15788126926E+04  0.50400001928E-02 0. -1.
    10030    2    1    2    0    0  0.00000000000E+00  0.00000000000E+00 -0.10660630886E+04  0.20915622966E+04  0.17994839070E+04 0.  0.
        3    1    3    3  502    0  0.41854787867E+03 -0.30301026105E+03  0.32309493474E+03  0.60941602547E+03  0.10100000352E+00 0.  1.
       -3    1    3    3    0  502 -0.41854787867E+03  0.30301026105E+03 -0.13891580233E+04  0.14821462711E+04  0.10100000352E+00 0. -1.
</event>
<event>
 5   0  0.4981384E-06  0.1799785E+04  0.7818609E-02  0.8706414E-01
       -1   -1    0    0    0  501  0.00000000000E+00  0.00000000000E+00  0.44696451332E+03  0.44696451335E+03  0.50400001928E-02 0.  1.
        1   -1    0    0  501    0  0.00000000000E+00  0.00000000000E+00 -0.18117905351E+04  0.18117905351E+04  0.50400001928E-02 0. -1.
    10030    2    1    2    0    0  0.00000000000E+00  0.00000000000E+00 -0.13648260218E+04  0.22587550485E+04  0.17997845147E+04 0.  0.
        5    1    3    3  502    0 -0.68004499960E+03  0.57958749958E+03 -0.54840762211E+03  0.10484063531E+04  0.46999998093E+01 0.  1.
       -5    1    3    3    0  502  0.68004499960E+03 -0.57958749958E+03 -0.81641839969E+03  0.12103486954E+04  0.46999998093E+01 0. -1.
</event>
<event>
 5   0  0.1036381E-05  0.1799993E+04  0.7818609E-02  0.8706303E-01
       -2   -1    0    0    0  501  0.00000000000E+00  0.00000000000E+00  0.11578871988E+04  0.11578871988E+04  0.25500000920E-02 0. -1.
        2   -1    0    0  501    0  0.00000000000E+00  0.00000000000E+00 -0.69954495559E+03  0.69954495560E+03  0.25500000920E-02 0.  1.
    10030    2    1    2    0    0  0.00000000000E+00  0.00000000000E+00  0.45834224320E+03  0.18574321544E+04  0.17999934990E+04 0.  0.
        4    1    3    3  502    0 -0.84727305213E+02  0.61378004009E+02  0.11515897523E+04  0.11563332332E+04  0.12699999809E+01 0. -1.
       -4    1    3    3    0  502  0.84727305213E+02 -0.61378004009E+02 -0.69324750908E+03  0.70109892124E+03  0.12699999809E+01 0.  1.
</event>
<event>
 5   0  0.1035018E-05  0.1799279E+04  0.7818609E-02  0.8706683E-01
       -2   -1    0    0    0  501  0.00000000000E+00  0.00000000000E+00  0.53467430524E+03  0.53467430524E+03  0.25500000920E-02 0.  1.
        2   -1    0    0  501    0  0.00000000000E+00  0.00000000000E+00 -0.15137269559E+04  0.15137269559E+04  0.25500000920E-02 0. -1.
    10030    2    1    2    0    0  0.00000000000E+00  0.00000000000E+00 -0.97905265064E+03  0.20484012611E+04  0.17992786426E+04 0.  0.
        3    1    3    3  502    0  0.77009879124E+03  0.96531078193E+02 -0.10074685603E+04  0.12717559937E+04  0.10100000352E+00 0. -1.
       -3    1    3    3    0  502 -0.77009879124E+03 -0.96531078193E+02  0.28415909623E+02  0.77664526745E+03  0.10100000352E+00 0.  1.
</event>
<event>
 5   0  0.9589963E-06  0.1802997E+04  0.7818609E-02  0.8704707E-01
        2   -1    0    0  501    0  0.00000000000E+00  0.00000000000E+00  0.15244528379E+04  0.15244528379E+04  0.25500000920E-02 0. -1.
       -2   -1    0    0    0  501  0.00000000000E+00  0.00000000000E+00 -0.53310889901E+03  0.53310889902E+03  0.25500000920E-02 0.  1.
    10030    2    1    2    0    0  0.00000000000E+00  0.00000000000E+00  0.99134393894E+03  0.20575617370E+04  0.18029968098E+04 0.  0.
        2    1    3    3  502    0  0.22984139000E+03 -0.32760875448E+03  0.14175279719E+04  0.14729358818E+04  0.25500000920E-02 0. -1.
       -2    1    3    3    0  502 -0.22984139000E+03  0.32760875448E+03 -0.42618403300E+03  0.58462585520E+03  0.25500000920E-02 0.  1.
</event>
<event>
 5   0  0.9999162E-06  0.1799343E+04  0.7818609E-02  0.8706649E-01
        2   -1    0    0  501    0  0.00000000000E+00  0.00000000000E+00  0.15786244145E+04  0.15786244146E+04  0.25500000920E-02 0. -1.
       -2   -1    0    0    0  501  0.00000000000E+00  0.00000000000E+00 -0.51273044696E+03  0.51273044697E+03  0.25500000920E-02 0.  1.
    10030    2    1    2    0    0  0.00000000000E+00  0.00000000000E+00  0.10658939676E+04  0.20913548615E+04  0.17993429931E+04 0.  0.
        1    1    3    3  502    0  0.30802425505E+03 -0.75430625857E+01 -0.44949445495E+03  0.54495972745E+03  0.50400001928E-02 0.  1.
       -1    1    3    3    0  502 -0.30802425505E+03  0.75430625857E+01  0.15153884225E+04  0.15463951341E+04  0.50400001928E-02 0. -1.
</event>
<event>
 5   0  0.1000316E-05  0.1798321E+04  0.7818609E-02  0.8707193E-01
       -2   -1    0    0    0  501  0.00000000000E+00  0.00000000000E+00  0.40782536099E+03  0.40782536100E+03  0.25500000920E-02 0.  1.
        2   -1    0    0  501    0  0.00000000000E+00  0.00000000000E+00 -0.19824405769E+04  0.19824405769E+04  0.25500000920E-02 0. -1.
    10030    2    1    2    0    0  0.00000000000E+00  0.00000000000E+00 -0.15746152159E+04  0.23902659379E+04  0.17983209323E+04 0.  0.
        5    1    3    3  502    0  0.61780607897E+03  0.65102833424E+03 -0.71517407393E+03  0.11476141726E+04  0.46999998093E+01 0. -1.
       -5    1    3    3    0  502 -0.61780607897E+03 -0.65102833424E+03 -0.85944114194E+03  0.12426517652E+04  0.46999998093E+01 0.  1.
</event>
<event>
 5   0  0.1035018E-05  0.1799725E+04  0.7818609E-02  0.8706446E-01
       -2   -1    0    0    0  501  0.00000000000E+00  0.00000000000E+00  0.46841542114E+03  0.46841542115E+03  0.25500000920E-02 0.  1.
        2   -1    0    0  501    0  0.00000000000E+00  0.00000000000E+00 -0.17287065077E+04  0.17287065077E+04  0.25500000920E-02 0. -1.
    10030    2    1    2    0    0  0.00000000000E+00  0.00000000000E+00 -0.12602910866E+04  0.21971219289E+04  0.17997252978E+04 0.  0.
        3    1    3    3  502    0 -0.35087955486E+03  0.79816889873E+03 -0.90193056578E+03  0.12544595683E+04  0.10100000352E+00 0. -1.
       -3    1    3    3    0  502  0.35087955486E+03 -0.79816889873E+03 -0.35836052083E+03  0.94266236056E+03  0.10100000352E+00 0.  1.
</event>
<event>
 5   0  0.4994123E-06  0.1800659E+04  0.7818609E-02  0.8705949E-01
        1   -1    0    0  501    0  0.00000000000E+00  0.00000000000E+00  0.16428580135E+04  0.16428580135E+04  0.50400001928E-02 0. -1.
       -1   -1    0    0    0  501  0.00000000000E+00  0.00000000000E+00 -0.49340420339E+03  0.49340420342E+03  0.50400001928E-02 0.  1.
    10030    2    1    2    0    0  0.00000000000E+00  0.00000000000E+00  0.11494538101E+04  0.21362622169E+04  0.18006588233E+04 0.  0.
        1    1    3    3  502    0  0.35252755642E+03  0.79595494497E+03  0.30218742896E+03  0.92148640506E+03  0.50400001928E-02 0.  1.
       -1    1    3    3    0  502 -0.35252755642E+03 -0.79595494497E+03  0.84726638115E+03  0.12147758119E+04  0.50400001928E-02 0. -1.
</event>
<event>
 5   0  0.4987456E-06  0.1800912E+04  0.7818609E-02  0.8705815E-01
       -1   -1    0    0    0  501  0.00000000000E+00  0.00000000000E+00  0.83088945876E+03  0.83088945877E+03  0.50400001928E-02 0.  1.
        1   -1    0    0  501    0  0.00000000000E+00  0.00000000000E+00 -0.97584659496E+03  0.97584659497E+03  0.50400001928E-02 0. -1.
    10030    2    1    2    0    0  0.00000000000E+00  0.00000000000E+00 -0.14495713620E+03  0.18067360537E+04  0.18009116015E+04 0.  0.
        3    1    3    3  502    0 -0.29724953795E+03 -0.48354995753E+03 -0.77376924065E+03  0.95963362656E+03  0.10100000352E+00 0. -1.
       -3    1    3    3    0  502  0.29724953795E+03  0.48354995753E+03  0.62881210445E+03  0.84710242719E+03  0.10100000352E+00 0.  1.
</event>
<event>
 5   0  0.4981384E-06  0.1800549E+04  0.7818609E-02  0.8706008E-01
       -1   -1    0    0    0  501  0.00000000000E+00  0.00000000000E+00  0.29525630501E+03  0.29525630505E+03  0.50400001928E-02 0.  1.
        1   -1    0    0  501    0  0.00000000000E+00  0.00000000000E+00 -0.27450520742E+04  0.27450520742E+04  0.50400001928E-02 0. -1.
    10030    2    1    2    0    0  0.00000000000E+00  0.00000000000E+00 -0.24497957692E+04  0.30403083792E+04  0.18005487303E+04 0.  0.
        5    1    3    3  502    0  0.83655915951E+03 -0.20066188185E+03 -0.77695435253E+03  0.11592137741E+04  0.46999998093E+01 0.  1.
       -5    1    3    3    0  502 -0.83655915951E+03  0.20066188185E+03 -0.16728414166E+04  0.18810946051E+04  0.46999998093E+01 0. -1.
</event>
<event>
 5   0  0.4987456E-06  0.1802220E+04  0.7818609E-02  0.8705120E-01
       -1   -1    0    0    0  501  0.00000000000E+00  0.00000000000E+00  0.13036676046E+04  0.13036676046E+04  0.50400001928E-02 0.  1.
        1   -1    0    0  501    0  0.00000000000E+00  0.00000000000E+00 -0.62285775402E+03  0.62285775405E+03  0.50400001928E-02 0. -1.
    10030    2    1    2    0    0  0.00000000000E+00  0.00000000000E+00  0.68080985055E+03  0.19265253586E+04  0.18022202709E+04 0.  0.
        3    1    3    3  502    0  0.17732113414E+03 -0.87240974703E+03  0.19129209722E+03  0.91056807982E+03  0.10100000352E+00 0. -1.
       -3    1    3    3    0  502 -0.17732113414E+03  0.87240974703E+03  0.48951775333E+03  0.10159572788E+04  0.10100000352E+00 0.  1.
</event>
<event>
 5   0  0.9589963E-06  0.1800786E+04  0.7818609E-02  0.8705882E-01
        2   -1    0    0  501    0  0.00000000000E+00  0.00000000000E+00  0.14283070179E+04  0.14283070179E+04  0.25500000920E-02 0. -1.
       -2   -1    0    0    0  501  0.00000000000E+00  0.00000000000E+00 -0.56760022505E+03  0.56760022506E+03  0.25500000920E-02 0.  1.
    10030    2    1    2    0    0  0.00000000000E+00  0.00000000000E+00  0.86070679284E+03  0.19959072430E+04  0.18007858116E+04 0.  0.
        2    1    3    3  502    0 -0.58799262638E+03  0.67304412080E+03  0.55168478580E+03  0.10502760685E+04  0.25500000920E-02 0. -1.
       -2    1    3    3    0  502  0.58799262638E+03 -0.67304412080E+03  0.30902200703E+03  0.94563117443E+03  0.25500000920E-02 0.  1.
</event>
<event>
 5   0  0.1035018E-05  0.1799128E+04  0.7818609E-02  0.8706764E-01
        2   -1    0    0  501    0  0.00000000000E+00  0.00000000000E+00  0.16731532640E+04  0.16731532640E+04  0.25500000920E-02 0.  1.
       -2   -1    0    0    0  501  0.00000000000E+00  0.00000000000E+00 -0.48364669072E+03  0.48364669073E+03  0.25500000920E-02 0. -1.
    10030    2    1    2    0    0  0.00000000000E+00  0.00000000000E+00  0.11895065733E+04  0.21567999547E+04  0.17991276099E+04 0.  0.
        3    1    3    3  502    0 -0.46106074482E+03  0.70554968467E+03  0.97163852453E+03  0.12862576727E+04  0.10100000352E+00 0.  1.
       -3    1    3    3    0  502  0.46106074482E+03 -0.70554968467E+03  0.21786804872E+03  0.87054228204E+03  0.10100000352E+00 0. -1.
</event>
<event>
 5   0  0.4987456E-06  0.1799517E+04  0.7818609E-02  0.8706556E-01
        1   -1    0    0  501    0  0.00000000000E+00  0.00000000000E+00  0.13180872270E+04  0.13180872270E+04  0.50400001928E-02 0.  1.
       -1   -1    0    0    0  501  0.00000000000E+00  0.00000000000E+00 -0.61419738840E+03  0.61419738842E+03  0.50400001928E-02 0. -1.
    10030    2    1    2    0    0  0.00000000000E+00  0.00000000000E+00  0.70388983860E+03  0.19322846154E+04  0.17995174159E+04 0.  0.
        3    1    3    3  502    0 -0.22812431419E+02  0.10618213688E+02  0.13177093418E+04  0.13179495715E+04  0.10100000352E+00 0.  1.
       -3    1    3    3    0  502  0.22812431419E+02 -0.10618213688E+02 -0.61381950317E+03  0.61433504390E+03  0.10100000352E+00 0. -1.
</event>
<event>
 5   0  0.4953155E-06  0.1794547E+04  0.7818609E-02  0.8709205E-01
        1   -1    0    0  501    0  0.00000000000E+00  0.00000000000E+00  0.22661927908E+04  0.22661927908E+04  0.50400001928E-02 0.  1.
       -1   -1    0    0    0  501  0.00000000000E+00  0.00000000000E+00 -0.35526541290E+03  0.35526541294E+03  0.50400001928E-02 0. -1.
    10030    2    1    2    0    0  0.00000000000E+00  0.00000000000E+00  0.19109273779E+04  0.26214582037E+04  0.17945472048E+04 0.  0.
        2    1    3    3  502    0 -0.24848155567E+03 -0.82606600275E+03  0.13161689982E+04  0.15736673589E+04  0.25500000920E-02 0.  1.
       -2    1    3    3    0  502  0.24848155567E+03  0.82606600275E+03  0.59475837964E+03  0.10477908449E+04  0.25500000920E-02 0. -1.
</event>
<event>
 5   0  0.9589963E-06  0.1800722E+04  0.7818609E-02  0.8705915E-01
       -2   -1    0    0    0  501  0.00000000000E+00  0.00000000000E+00  0.98786921472E+03  0.98786921472E+03  0.25500000920E-02 0.  1.
        2   -1    0    0  501    0  0.00000000000E+00  0.00000000000E+00 -0.82060485792E+03  0.82060485793E+03  0.25500000920E-02 0. -1.
    10030    2    1    2    0    0  0.00000000000E+00  0.00000000000E+00  0.16726435680E+03  0.18084740726E+04  0.18007223846E+04 0.  0.
        2    1    3    3  502    0  0.25235334316E+02 -0.56477548655E+02 -0.81846818557E+03  0.82080247709E+03  0.25500000920E-02 0. -1.
       -2    1    3    3    0  502 -0.25235334316E+02  0.56477548655E+02  0.98573254236E+03  0.98767159556E+03  0.25500000920E-02 0.  1.
</event>
<event>
 5   0  0.4983159E-06  0.1800660E+04  0.7818609E-02  0.8705949E-01
        1   -1    0    0  501    0  0.00000000000E+00  0.00000000000E+00  0.10860095054E+04  0.10860095054E+04  0.50400001928E-02 0.  1.
       -1   -1    0    0    0  501  0.00000000000E+00  0.00000000000E+00 -0.74639664646E+03  0.74639664648E+03  0.50400001928E-02 0. -1.
    10030    2    1    2    0    0  0.00000000000E+00  0.00000000000E+00  0.33961285895E+03  0.18324061519E+04  0.18006597157E+04 0.  0.
        4    1    3    3  502    0 -0.70046279541E+03  0.33300323995E+03 -0.29547770856E+03  0.82996865888E+03  0.12699999809E+01 0. -1.
       -4    1    3    3    0  502  0.70046279541E+03 -0.33300323995E+03  0.63509056750E+03  0.10024374930E+04  0.12699999809E+01 0.  1.
</event>
<event>
 5   0  0.9999162E-06  0.1800610E+04  0.7818609E-02  0.8705975E-01
        2   -1    0    0  501    0  0.00000000000E+00  0.00000000000E+00  0.15354708352E+04  0.15354708352E+04  0.25500000920E-02 0.  1.
       -2   -1    0    0    0  501  0.00000000000E+00  0.00000000000E+00 -0.52788336598E+03  0.52788336598E+03  0.25500000920E-02 0. -1.
    10030    2    1    2    0    0  0.00000000000E+00  0.00000000000E+00  0.10075874692E+04  0.20633542011E+04  0.18006104663E+04 0.  0.
        1    1    3    3  502    0  0.67113563023E+03  0.29884760331E+03  0.11001305860E+04  0.13228833019E+04  0.50400001928E-02 0.  1.
       -1    1    3    3    0  502 -0.67113563023E+03 -0.29884760331E+03 -0.92543116795E+02  0.74047089926E+03  0.50400001928E-02 0. -1.
</event>
<event>
 5   0  0.4983159E-06  0.1800450E+04  0.7818609E-02  0.8706060E-01
       -1   -1    0    0    0  501  0.00000000000E+00  0.00000000000E+00  0.96963505791E+03  0.96963505793E+03  0.50400001928E-02 0.  1.
        1   -1    0    0  501    0  0.00000000000E+00  0.00000000000E+00 -0.83578387245E+03  0.83578387246E+03  0.50400001928E-02 0. -1.
    10030    2    1    2    0    0  0.00000000000E+00  0.00000000000E+00  0.13385118547E+03  0.18054189304E+04  0.18004503254E+04 0.  0.
        4    1    3    3  502    0 -0.31273785781E+03 -0.29586156451E+03  0.85971772947E+03  0.96148594391E+03  0.12699999809E+01 0.  1.
       -4    1    3    3    0  502  0.31273785781E+03  0.29586156451E+03 -0.72586654401E+03  0.84393298648E+03  0.12699999809E+01 0. -1.
</event>
<event>
 5   0  0.4987456E-06  0.1802359E+04  0.7818609E-02  0.8705046E-01
        1   -1    0    0  501    0  0.00000000000E+00  0.00000000000E+00  0.73187080868E+03  0.73187080870E+03  0.50400001928E-02 0. -1.
       -1   -1    0    0    0  501  0.00000000000E+00  0.00000000000E+00 -0.11096549582E+04  0.11096549582E+04  0.50400001928E-02 0.  1.
    10030    2    1    2    0    0  0.00000000000E+00  0.00000000000E+00 -0.37778414947E+03  0.18415257669E+04  0.18023585344E+04 0.  0.
        3    1    3    3  502    0 -0.59966851844E+03 -0.12513060719E+03 -0.86421232335E+03  0.10593030496E+04  0.10100000352E+00 0.  1.
       -3    1    3    3    0  502  0.59966851844E+03  0.12513060719E+03  0.48642817387E+03  0.78222271726E+03  0.10100000352E+00 0. -1.
</event>
<event>
 5   0  0.4953155E-06  0.1800239E+04  0.7818609E-02  0.8706173E-01
       -1   -1    0    0    0  501  0.00000000000E+00  0.00000000000E+00  0.63163289628E+03  0.63163289630E+03  0.50400001928E-02 0.  1.
        1   -1    0    0  501    0  0.00000000000E+00  0.00000000000E+00 -0.12827303930E+04  0.12827303930E+04  0.50400001928E-02 0. -1.
    10030    2    1    2    0    0  0.00000000000E+00  0.00000000000E+00 -0.65109749670E+03  0.19143632893E+04  0.18002385545E+04 0.  0.
        2    1    3    3  502    0 -0.48502062214E+03 -0.19816215123E+03 -0.11038643184E+04  0.12218959349E+04  0.25500000920E-02 0. -1.
       -2    1    3    3    0  502  0.48502062214E+03  0.19816215123E+03  0.45276682174E+03  0.69246735443E+03  0.25500000920E-02 0.  1.
</event>
<event>
 5   0  0.9999162E-06  0.1797408E+04  0.7818609E-02  0.8707679E-01
       -2   -1    0    0    0  501  0.00000000000E+00  0.00000000000E+00  0.38142503609E+03  0.38142503610E+03  0.25500000920E-02 0.  1.
        2   -1    0    0  501    0  0.00000000000E+00  0.00000000000E+00 -0.21175042586E+04  0.21175042586E+04  0.25500000920E-02 0. -1.
    10030    2    1    2    0    0  0.00000000000E+00  0.00000000000E+00 -0.17360792225E+04  0.24989292947E+04  0.17974082878E+04 0.  0.
        1    1    3    3  502    0 -0.51908044018E+03 -0.14715830508E+03 -0.18672833302E+04  0.19436684659E+04  0.50400001928E-02 0. -1.
       -1    1    3    3    0  502  0.51908044018E+03  0.14715830508E+03  0.13120410765E+03  0.55526082882E+03  0.50400001928E-02 0.  1.
</event>
<event>
 5   0  0.1000316E-05  0.1799395E+04  0.7818609E-02  0.8706621E-01
        2   -1    0    0  501    0  0.00000000000E+00  0.00000000000E+00  0.61368386711E+03  0.61368386711E+03  0.25500000920E-02 0.  1.
       -2   -1    0    0    0  501  0.00000000000E+00  0.00000000000E+00 -0.13190100937E+04  0.13190100937E+04  0.25500000920E-02 0. -1.
    10030    2    1    2    0    0  0.00000000000E+00  0.00000000000E+00 -0.70532622662E+03  0.19326939608E+04  0.17993945816E+04 0.  0.
        5    1    3    3  502    0 -0.12176821316E+02 -0.81454501242E+03 -0.76278914786E+03  0.11160202625E+04  0.46999998093E+01 0.  1.
       -5    1    3    3    0  502  0.12176821316E+02  0.81454501242E+03  0.57462921240E+02  0.81667369833E+03  0.46999998093E+01 0. -1.
</event>
<event>
 5   0  0.4981384E-06  0.1800138E+04  0.7818609E-02  0.8706226E-01
       -1   -1    0    0    0  501  0.00000000000E+00  0.00000000000E+00  0.48862171521E+03  0.48862171523E+03  0.50400001928E-02 0.  1.
        1   -1    0    0  501    0  0.00000000000E+00  0.00000000000E+00 -0.16579781478E+04  0.16579781478E+04  0.50400001928E-02 0. -1.
    10030    2    1    2    0    0  0.00000000000E+00  0.00000000000E+00 -0.11693564325E+04  0.21465998630E+04  0.18001379129E+04 0.  0.
        5    1    3    3  502    0  0.42154062075E+03 -0.15946494472E+03  0.34435501181E+03  0.56721074364E+03  0.46999998093E+01 0.  1.
       -5    1    3    3    0  502 -0.42154062075E+03  0.15946494472E+03 -0.15137114444E+04  0.15793891194E+04  0.46999998093E+01 0. -1.
</event>
<event>
 5   0  0.1036381E-05  0.1796980E+04  0.7818609E-02  0.8707907E-01
        2   -1    0    0  501    0  0.00000000000E+00  0.00000000000E+00  0.14799198442E+04  0.14799198442E+04  0.25500000920E-02 0. -1.
       -2   -1    0    0    0  501  0.00000000000E+00  0.00000000000E+00 -0.54549187021E+03  0.54549187022E+03  0.25500000920E-02 0.  1.
    10030    2    1    2    0    0  0.00000000000E+00  0.00000000000E+00  0.93442797394E+03  0.20254117144E+04  0.17969799593E+04 0.  0.
        4    1    3    3  502    0  0.88329323237E+02  0.84862565668E+03  0.78464393776E+03  0.11591528357E+04  0.12699999809E+01 0. -1.
       -4    1    3    3    0  502 -0.88329323237E+02 -0.84862565668E+03  0.14978403618E+03  0.86625887869E+03  0.12699999809E+01 0.  1.
</event>
<event>
 5   0  0.4994123E-06  0.1799332E+04  0.7818609E-02  0.8706655E-01
        1   -1    0    0  501    0  0.00000000000E+00  0.00000000000E+00  0.10699153130E+04  0.10699153131E+04  0.50400001928E-02 0. -1.
       -1   -1    0    0    0  501  0.00000000000E+00  0.00000000000E+00 -0.75650722229E+03  0.75650722231E+03  0.50400001928E-02 0.  1.
    10030    2    1    2    0    0  0.00000000000E+00  0.00000000000E+00  0.31340809076E+03  0.18264225354E+04  0.17993317222E+04 0.  0.
        1    1    3    3  502    0  0.17629058457E+02 -0.84686571943E+03 -0.15102092261E+03  0.86040667683E+03  0.50400001928E-02 0.  1.
       -1    1    3    3    0  502 -0.17629058457E+02  0.84686571943E+03  0.46442901337E+03  0.96601585853E+03  0.50400001928E-02 0. -1.
</event>
<event>
 5   0  0.4981384E-06  0.1799956E+04  0.7818609E-02  0.8706323E-01
       -1   -1    0    0    0  501  0.00000000000E+00  0.00000000000E+00  0.11615158670E+04  0.11615158670E+04  0.50400001928E-02 0.  1.
        1   -1    0    0  501    0  0.00000000000E+00  0.00000000000E+00 -0.69733080991E+03  0.69733080993E+03  0.50400001928E-02 0. -1.
    10030    2    1    2    0    0  0.00000000000E+00  0.00000000000E+00  0.46418505704E+03  0.18588466769E+04  0.17999564442E+04 0.  0.
        5    1    3    3  502    0  0.52038116157E+03 -0.51928649420E+03  0.76819501210E+03  0.10632970812E+04  0.46999998093E+01 0.  1.
       -5    1    3    3    0  502 -0.52038116157E+03  0.51928649420E+03 -0.30400995505E+03  0.79554959566E+03  0.46999998093E+01 0. -1.
</event>
<event>
 5   0  0.4953155E-06  0.1800321E+04  0.7818609E-02  0.8706129E-01
       -1   -1    0    0    0  501  0.00000000000E+00  0.00000000000E+00  0.32602965712E+03  0.32602965715E+03  0.50400001928E-02 0.  1.
        1   -1    0    0  501    0  0.00000000000E+00  0.00000000000E+00 -0.24853240925E+04  0.24853240925E+04  0.50400001928E-02 0. -1.
    10030    2    1    2    0    0  0.00000000000E+00  0.00000000000E+00 -0.21592944354E+04  0.28113537497E+04  0.18003214844E+04 0.  0.
        2    1    3    3  502    0  0.86844623512E+03  0.23681638961E+03 -0.10750955072E+04  0.14021808783E+04  0.25500000920E-02 0.  1.
       -2    1    3    3    0  502 -0.86844623512E+03 -0.23681638961E+03 -0.10841989281E+04  0.14091728714E+04  0.25500000920E-02 0. -1.
</event>
<event>
 5   0  0.4953155E-06  0.1799973E+04  0.7818609E-02  0.8706314E-01
        1   -1    0    0  501    0  0.00000000000E+00  0.00000000000E+00  0.12527252718E+04  0.12527252718E+04  0.50400001928E-02 0. -1.
       -1   -1    0    0    0  501  0.00000000000E+00  0.00000000000E+00 -0.64657058824E+03  0.64657058826E+03  0.50400001928E-02 0.  1.
    10030    2    1    2    0    0  0.00000000000E+00  0.00000000000E+00  0.60615468356E+03  0.18992958601E+04  0.17999725730E+04 0.  0.
        2    1    3    3  502    0 -0.55459144125E+03 -0.66159008277E+03  0.34675002430E+02  0.86398811342E+03  0.25500000920E-02 0.  1.
       -2    1    3    3    0  502  0.55459144125E+03  0.66159008277E+03  0.57147968113E+03  0.10353077467E+04  0.25500000920E-02 0. -1.
</event>
<event>
 5   0  0.4981384E-06  0.1800305E+04  0.7818609E-02  0.8706137E-01
       -1   -1    0    0    0  501  0.00000000000E+00  0.00000000000E+00  0.36088120268E+03  0.36088120271E+03  0.50400001928E-02 0.  1.
        1   -1    0    0  501    0  0.00000000000E+00  0.00000000000E+00 -0.22452660739E+04  0.22452660739E+04  0.50400001928E-02 0. -1.
    10030    2    1    2    0    0  0.00000000000E+00  0.00000000000E+00 -0.18843848712E+04  0.26061472766E+04  0.18003047754E+04 0.  0.
        5    1    3    3  502    0 -0.75438596472E+03 -0.22926406931E+03 -0.15708506479E+04  0.17576273909E+04  0.46999998093E+01 0. -1.
       -5    1    3    3    0  502  0.75438596472E+03  0.22926406931E+03 -0.31353422331E+03  0.84851988570E+03  0.46999998093E+01 0.  1.
</event>
<event>
 5   0  0.4981384E-06  0.1799166E+04  0.7818609E-02  0.8706743E-01
       -1   -1    0    0    0  501  0.00000000000E+00  0.00000000000E+00  0.44868307879E+03  0.44868307881E+03  0.50400001928E-02 0.  1.
        1   -1    0    0  501    0  0.00000000000E+00  0.00000000000E+00 -0.18036113567E+04  0.18036113567E+04  0.50400001928E-02 0. -1.
    10030    2    1    2    0    0  0.00000000000E+00  0.00000000000E+00 -0.13549282779E+04  0.22522944355E+04  0.17991663586E+04 0.  0.
        5    1    3    3  502    0 -0.59772954359E+03 -0.66262276041E+03 -0.53540057153E+03  0.10406850589E+04  0.46999998093E+01 0.  1.
       -5    1    3    3    0  502  0.59772954359E+03  0.66262276041E+03 -0.81952770639E+03  0.12116093766E+04  0.46999998093E+01 0. -1.
</event>
<event>
 5   0  0.4953155E-06  0.1799260E+04  0.7818609E-02  0.8706693E-01
       -1   -1    0    0    0  501  0.00000000000E+00  0.00000000000E+00  0.68906427112E+03  0.68906427114E+03  0.50400001928E-02 0. -1.
        1   -1    0    0  501    0  0.00000000000E+00  0.00000000000E+00 -0.11745412787E+04  0.11745412787E+04  0.50400001928E-02 0.  1.
    10030    2    1    2    0    0  0.00000000000E+00  0.00000000000E+00 -0.48547700755E+03  0.18636055498E+04  0.17992603259E+04 0.  0.
        2    1    3    3  502    0  0.70086372874E+03 -0.12059199137E+02 -0.82680088933E+03  0.10839534589E+04  0.25500000920E-02 0.  1.
       -2    1    3    3    0  502 -0.70086372874E+03  0.12059199137E+02  0.34132388177E+03  0.77965209089E+03  0.25500000920E-02 0. -1.
</event>
<event>
 5   0  0.4953155E-06  0.1800180E+04  0.7818609E-02  0.8706204E-01
       -1   -1    0    0    0  501  0.00000000000E+00  0.00000000000E+00  0.44684235676E+03  0.44684235679E+03  0.50400001928E-02 0. -1.
        1   -1    0    0  501    0  0.00000000000E+00  0.00000000000E+00 -0.18130815561E+04  0.18130815561E+04  0.50400001928E-02 0.  1.
    10030    2    1    2    0    0  0.00000000000E+00  0.00000000000E+00 -0.13662391993E+04  0.22599239129E+04  0.18001795861E+04 0.  0.
        2    1    3    3  502    0  0.95051430344E+02  0.36554705450E+03  0.34254257545E+03  0.50989689102E+03  0.25500000920E-02 0. -1.
       -2    1    3    3    0  502 -0.95051430344E+02 -0.36554705450E+03 -0.17087817748E+04  0.17500270219E+04  0.25500000920E-02 0.  1.
</event>
<event>
 5   0  0.4953155E-06  0.1798784E+04  0.7818609E-02  0.8706947E-01
       -1   -1    0    0    0  501  0.00000000000E+00  0.00000000000E+00  0.89479135028E+03  0.89479135030E+03  0.50400001928E-02 0. -1.
        1   -1    0    0  501    0  0.00000000000E+00  0.00000000000E+00 -0.90401609656E+03  0.90401609658E+03  0.50400001928E-02 0.  1.
    10030    2    1    2    0    0  0.00000000000E+00  0.00000000000E+00 -0.92247462808E+01  0.17988074469E+04  0.17987837933E+04 0.  0.
        2    1    3    3  502    0 -0.84719691865E+03 -0.11881381547E+03 -0.28218843177E+03  0.90082720471E+03  0.25500000920E-02 0.  1.
       -2    1    3    3    0  502  0.84719691865E+03  0.11881381547E+03  0.27296368549E+03  0.89798024217E+03  0.25500000920E-02 0. -1.
</event>
<event>
 5   0  0.9999162E-06  0.1798561E+04  0.7818609E-02  0.8707065E-01
        2   -1    0    0  501    0  0.00000000000E+00  0.00000000000E+00  0.16849338098E+04  0.16849338098E+04  0.25500000920E-02 0.  1.
       -2   -1    0    0    0  501  0.00000000000E+00  0.00000000000E+00 -0.47996297969E+03  0.47996297970E+03  0.25500000920E-02 0. -1.
    10030    2    1    2    0    0  0.00000000000E+00  0.00000000000E+00  0.12049708301E+04  0.21648967895E+04  0.17985614829E+04 0.  0.
        1    1    3    3  502    0  0.18615265352E+03  0.82900554754E+03  0.24785262877E+03  0.88506154243E+03  0.50400001928E-02 0. -1.
       -1    1    3    3    0  502 -0.18615265352E+03 -0.82900554754E+03  0.95711820132E+03  0.12798352471E+04  0.50400001928E-02 0.  1.
</event>
<event>
 5   0  0.4981384E-06  0.1798954E+04  0.7818609E-02  0.8706856E-01
        1   -1    0    0  501    0  0.00000000000E+00  0.00000000000E+00  0.20517879936E+04  0.20517879936E+04  0.50400001928E-02 0. -1.
       -1   -1    0    0    0  501  0.00000000000E+00  0.00000000000E+00 -0.39431887303E+03  0.39431887306E+03  0.50400001928E-02 0.  1.
    10030    2    1    2    0    0  0.00000000000E+00  0.00000000000E+00  0.16574691206E+04  0.24461068667E+04  0.17989538398E+04 0.  0.
        5    1    3    3  502    0 -0.32662318267E+03  0.19845068469E+03 -0.27840599263E+03  0.47286082989E+03  0.46999998093E+01 0.  1.
       -5    1    3    3    0  502  0.32662318267E+03 -0.19845068469E+03  0.19358751132E+04  0.19732460368E+04  0.46999998093E+01 0. -1.
</event>
<event>
 5   0  0.4953155E-06  0.1803572E+04  0.7818609E-02  0.8704402E-01
       -1   -1    0    0    0  501  0.00000000000E+00  0.00000000000E+00  0.11218577610E+04  0.11218577610E+04  0.50400001928E-02 0.  1.
        1   -1    0    0  501    0  0.00000000000E+00  0.00000000000E+00 -0.72488483290E+03  0.72488483291E+03  0.50400001928E-02 0. -1.
    10030    2    1    2    0    0  0.00000000000E+00  0.00000000000E+00  0.39697292809E+03  0.18467425939E+04  0.18035716516E+04 0.  0.
        2    1    3    3  502    0 -0.76859665164E+03  0.41312711190E+03  0.43153683649E+03  0.97346744411E+03  0.25500000920E-02 0. -1.
       -2    1    3    3    0  502  0.76859665164E+03 -0.41312711190E+03 -0.34563908392E+02  0.87327514980E+03  0.25500000920E-02 0.  1.
</event>
<event>
 5   0  0.4994123E-06  0.1799313E+04  0.7818609E-02  0.8706665E-01
        1   -1    0    0  501    0  0.00000000000E+00  0.00000000000E+00  0.89342832777E+03  0.89342832778E+03  0.50400001928E-02 0.  1.
       -1   -1    0    0    0  501  0.00000000000E+00  0.00000000000E+00 -0.90592827437E+03  0.90592827439E+03  0.50400001928E-02 0. -1.
    10030    2    1    2    0    0  0.00000000000E+00  0.00000000000E+00 -0.12499946607E+02  0.17993566022E+04  0.17993131837E+04 0.  0.
        1    1    3    3  502    0 -0.71391285543E+03  0.92910280891E+02  0.53327958634E+03  0.89593024432E+03  0.50400001928E-02 0.  1.
       -1    1    3    3    0  502  0.71391285543E+03 -0.92910280891E+02 -0.54577953295E+03  0.90342635785E+03  0.50400001928E-02 0. -1.
</event>
<event>
 5   0  0.1000316E-05  0.1799841E+04  0.7818609E-02  0.8706384E-01
        2   -1    0    0  501    0  0.00000000000E+00  0.00000000000E+00  0.22810195436E+04  0.22810195436E+04  0.25500000920E-02 0.  1.
       -2   -1    0    0    0  501  0.00000000000E+00  0.00000000000E+00 -0.35504166913E+03  0.35504166914E+03  0.25500000920E-02 0. -1.
    10030    2    1    2    0    0  0.00000000000E+00  0.00000000000E+00  0.19259778745E+04  0.26360612128E+04  0.17998410886E+04 0.  0.
        5    1    3    3  502    0 -0.10022037664E+03 -0.42837398197E+03 -0.18678552259E+03  0.47797417689E+03  0.46999998093E+01 0. -1.
       -5    1    3    3    0  502  0.10022037664E+03  0.42837398197E+03  0.21127633971E+04  0.21580870359E+04  0.46999998093E+01 0.  1.
</event>
<event>
 5   0  0.1000316E-05  0.1800301E+04  0.7818609E-02  0.8706140E-01
        2   -1    0    0  501    0  0.00000000000E+00  0.00000000000E+00  0.86685594891E+03  0.86685594892E+03  0.25500000920E-02 0.  1.
       -2   -1    0    0    0  501  0.00000000000E+00  0.00000000000E+00 -0.93472351021E+03  0.93472351021E+03  0.25500000920E-02 0. -1.
    10030    2    1    2    0    0  0.00000000000E+00  0.00000000000E+00 -0.67867561297E+02  0.18015794591E+04  0.18003006809E+04 0.  0.
        5    1    3    3  502    0 -0.89013783866E+03 -0.88352413180E+02 -0.13448910821E+03  0.90457776390E+03  0.46999998093E+01 0. -1.
       -5    1    3    3    0  502  0.89013783866E+03  0.88352413180E+02  0.66621546917E+02  0.89700169522E+03  0.46999998093E+01 0.  1.
</event>
<event>
 5   0  0.1036381E-05  0.1800478E+04  0.7818609E-02  0.8706045E-01
        2   -1    0    0  501    0  0.00000000000E+00  0.00000000000E+00  0.18545981219E+04  0.18545981219E+04  0.25500000920E-02 0. -1.
       -2   -1    0    0    0  501  0.00000000000E+00  0.00000000000E+00 -0.43698441987E+03  0.43698441988E+03  0.25500000920E-02 0.  1.
    10030    2    1    2    0    0  0.00000000000E+00  0.00000000000E+00  0.14176137020E+04  0.22915825417E+04  0.18004782524E+04 0.  0.
        4    1    3    3  502    0 -0.66854831593E+03  0.51592210266E+03  0.31180180998E+03  0.90019689421E+03  0.12699999809E+01 0.  1.
       -4    1    3    3    0  502  0.66854831593E+03 -0.51592210266E+03  0.11058118920E+04  0.13913856475E+04  0.12699999809E+01 0. -1.
</event>
<event>
 5   0  0.4981384E-06  0.1800802E+04  0.7818609E-02  0.8705873E-01
        1   -1    0    0  501    0  0.00000000000E+00  0.00000000000E+00  0.22190673170E+04  0.22190673170E+04  0.50400001928E-02 0. -1.
       -1   -1    0    0    0  501  0.00000000000E+00  0.00000000000E+00 -0.36534376339E+03  0.36534376342E+03  0.50400001928E-02 0.  1.
    10030    2    1    2    0    0  0.00000000000E+00  0.00000000000E+00  0.18537235536E+04  0.25844110804E+04  0.18008024932E+04 0.  0.
        5    1    3    3  502    0 -0.83678599351E+03 -0.21484813891E+03  0.12908619485E+04  0.15532923685E+04  0.46999998093E+01 0.  1.
       -5    1    3    3    0  502  0.83678599351E+03  0.21484813891E+03  0.56286160506E+03  0.10311187120E+04  0.46999998093E+01 0. -1.
</event>
<event>
 5   0  0.9589963E-06  0.1801999E+04  0.7818609E-02  0.8705237E-01
       -2   -1    0    0    0  501  0.00000000000E+00  0.00000000000E+00  0.47068328739E+03  0.47068328740E+03  0.25500000920E-02 0. -1.
        2   -1    0    0  501    0  0.00000000000E+00  0.00000000000E+00 -0.17247263822E+04  0.17247263822E+04  0.25500000920E-02 0.  1.
    10030    2    1    2    0    0  0.00000000000E+00  0.00000000000E+00 -0.12540430948E+04  0.21954096696E+04  0.18019987608E+04 0.  0.
        2    1    3    3  502    0  0.74705048009E+03 -0.28999512555E+03 -0.12525994221E+03  0.81109287124E+03  0.25500000920E-02 0. -1.
       -2    1    3    3    0  502 -0.74705048009E+03  0.28999512555E+03 -0.11287831526E+04  0.13843167984E+04  0.25500000920E-02 0.  1.
</event>
<event>
 5   0  0.4953155E-06  0.1798948E+04  0.7818609E-02  0.8706859E-01
       -1   -1    0    0    0  501  0.00000000000E+00  0.00000000000E+00  0.41740699535E+03  0.41740699538E+03  0.50400001928E-02 0.  1.
        1   -1    0    0  501    0  0.00000000000E+00  0.00000000000E+00 -0.19382847500E+04  0.19382847500E+04  0.50400001928E-02 0. -1.
    10030    2    1    2    0    0  0.00000000000E+00  0.00000000000E+00 -0.15208777547E+04  0.23556917454E+04  0.17989481523E+04 0.  0.
        2    1    3    3  502    0  0.51930794784E+03 -0.28708471778E+03 -0.16456291675E+04  0.17493409436E+04  0.25500000920E-02 0. -1.
       -2    1    3    3    0  502 -0.51930794784E+03  0.28708471778E+03  0.12475141285E+03  0.60635080183E+03  0.25500000920E-02 0.  1.
</event>
<event>
 5   0  0.9589963E-06  0.1801997E+04  0.7818609E-02  0.8705238E-01
        2   -1    0    0  501    0  0.00000000000E+00  0.00000000000E+00  0.17987988581E+04  0.17987988581E+04  0.25500000920E-02 0. -1.
       -2   -1    0    0    0  501  0.00000000000E+00  0.00000000000E+00 -0.45130017883E+03  0.45130017884E+03  0.25500000920E-02 0.  1.
    10030    2    1    2    0    0  0.00000000000E+00  0.00000000000E+00  0.13474986792E+04  0.22500990369E+04  0.18019969438E+04 0.  0.
        2    1    3    3  502    0 -0.82317912143E+03 -0.70243373703E+02  0.11226461055E+04  0.13938767075E+04  0.25500000920E-02 0. -1.
       -2    1    3    3    0  502  0.82317912143E+03  0.70243373703E+02  0.22485257380E+03  0.85622232945E+03  0.25500000920E-02 0.  1.
</event>
<event>
 5   0  0.4981384E-06  0.1800214E+04  0.7818609E-02  0.8706186E-01
       -1   -1    0    0    0  501  0.00000000000E+00  0.00000000000E+00  0.17820853855E+04  0.17820853855E+04  0.50400001928E-02 0. -1.
        1   -1    0    0  501    0  0.00000000000E+00  0.00000000000E+00 -0.45463171614E+03  0.45463171617E+03  0.50400001928E-02 0.  1.
    10030    2    1    2    0    0  0.00000000000E+00  0.00000000000E+00  0.13274536693E+04  0.22367171017E+04  0.18002139175E+04 0.  0.
        5    1    3    3  502    0  0.24002851538E+02  0.25566634453E+03 -0.40813855238E+03  0.48222462043E+03  0.46999998093E+01 0.  1.
       -5    1    3    3    0  502 -0.24002851538E+02 -0.25566634453E+03  0.17355922217E+04  0.17544924812E+04  0.46999998093E+01 0. -1.
</event>
<event>
 5   0  0.1036381E-05  0.1799734E+04  0.7818609E-02  0.8706441E-01
        2   -1    0    0  501    0  0.00000000000E+00  0.00000000000E+00  0.12430298356E+04  0.12430298356E+04  0.25500000920E-02 0. -1.
       -2   -1    0    0    0  501  0.00000000000E+00  0.00000000000E+00 -0.65144126417E+03  0.65144126417E+03  0.25500000920E-02 0.  1.
    10030    2    1    2    0    0  0.00000000000E+00  0.00000000000E+00  0.59158857140E+03  0.18944710998E+04  0.17997343443E+04 0.  0.
        4    1    3    3  502    0 -0.21052478862E+02 -0.26544153648E+03  0.12006091913E+04  0.12297830944E+04  0.12699999809E+01 0. -1.
       -4    1    3    3    0  502  0.21052478862E+02  0.26544153648E+03 -0.60902061987E+03  0.66468800537E+03  0.12699999809E+01 0.  1.
</event>
<event>
 5   0  0.4994123E-06  0.1799356E+04  0.7818609E-02  0.8706642E-01
       -1   -1    0    0    0  501  0.00000000000E+00  0.00000000000E+00  0.97077224836E+03  0.97077224838E+03  0.50400001928E-02 0.  1.
        1   -1    0    0  501    0  0.00000000000E+00  0.00000000000E+00 -0.83379023336E+03  0.83379023338E+03  0.50400001928E-02 0. -1.
    10030    2    1    2    0    0  0.00000000000E+00  0.00000000000E+00  0.13698201500E+03  0.18045624818E+04  0.17993559065E+04 0.  0.
        1    1    3    3  502    0  0.77232080717E+03  0.23144600543E+03 -0.33188055958E+03  0.87188955061E+03  0.50400001928E-02 0. -1.
       -1    1    3    3    0  502 -0.77232080717E+03 -0.23144600543E+03  0.46886257458E+03  0.93267293114E+03  0.50400001928E-02 0.  1.
</event>
<event>
 5   0  0.4981384E-06  0.1800592E+04  0.7818609E-02  0.8705985E-01
        1   -1    0    0  501    0  0.00000000000E+00  0.00000000000E+00  0.65324648596E+03  0.65324648598E+03  0.50400001928E-02 0.  1.
       -1   -1    0    0    0  501  0.00000000000E+00  0.00000000000E+00 -0.12407758957E+04  0.12407758957E+04  0.50400001928E-02 0. -1.
    10030    2    1    2    0    0  0.00000000000E+00  0.00000000000E+00 -0.58752940973E+03  0.18940223817E+04  0.18005915625E+04 0.  0.
        5    1    3    3  502    0 -0.82128091021E+03 -0.25880859922E+03 -0.17403667991E+02  0.86128346215E+03  0.46999998093E+01 0. -1.
       -5    1    3    3    0  502  0.82128091021E+03  0.25880859922E+03 -0.57012574174E+03  0.10327389195E+04  0.46999998093E+01 0.  1.
</event>
<event>
 5   0  0.4994123E-06  0.1799634E+04  0.7818609E-02  0.8706494E-01
       -1   -1    0    0    0  501  0.00000000000E+00  0.00000000000E+00  0.43012988369E+03  0.43012988372E+03  0.50400001928E-02 0.  1.
        1   -1    0    0  501    0  0.00000000000E+00  0.00000000000E+00 -0.18823864240E+04  0.18823864240E+04  0.50400001928E-02 0. -1.
    10030    2    1    2    0    0  0.00000000000E+00  0.00000000000E+00 -0.14522565403E+04  0.23125163077E+04  0.17996340224E+04 0.  0.
        1    1    3    3  502    0 -0.61827695379E+03  0.41188632264E+03 -0.73744350307E+02  0.74656209627E+03  0.50400001928E-02 0.  1.
       -1    1    3    3    0  502  0.61827695379E+03 -0.41188632264E+03 -0.13785121900E+04  0.15659542114E+04  0.50400001928E-02 0. -1.
</event>
<event>
 5   0  0.9589963E-06  0.1797649E+04  0.7818609E-02  0.8707550E-01
        2   -1    0    0  501    0  0.00000000000E+00  0.00000000000E+00  0.11397222553E+04  0.11397222553E+04  0.25500000920E-02 0. -1.
       -2   -1    0    0    0  501  0.00000000000E+00  0.00000000000E+00 -0.70884451376E+03  0.70884451376E+03  0.25500000920E-02 0.  1.
    10030    2    1    2    0    0  0.00000000000E+00  0.00000000000E+00  0.43087774159E+03  0.18485667691E+04  0.17976494296E+04 0.  0.
        2    1    3    3  502    0 -0.54954246660E+03  0.70151198010E+03  0.94769977468E+02  0.89615697814E+03  0.25500000920E-02 0.  1.
       -2    1    3    3    0  502  0.54954246660E+03 -0.70151198010E+03  0.33610776412E+03  0.95240979097E+03  0.25500000920E-02 0. -1.
</event>
<event>
 5   0  0.1035018E-05  0.1801909E+04  0.7818609E-02  0.8705285E-01
        2   -1    0    0  501    0  0.00000000000E+00  0.00000000000E+00  0.72458189530E+03  0.72458189531E+03  0.25500000920E-02 0.  1.
       -2   -1    0    0    0  501  0.00000000000E+00  0.00000000000E+00 -0.11202590134E+04  0.11202590134E+04  0.25500000920E-02 0. -1.
    10030    2    1    2    0    0  0.00000000000E+00  0.00000000000E+00 -0.39567711814E+03  0.18448409088E+04  0.18019094308E+04 0.  0.
        3    1    3    3  502    0 -0.28586051462E+03 -0.54133767418E+03  0.47893775764E+03  0.77726706942E+03  0.10100000352E+00 0.  1.
       -3    1    3    3    0  502  0.28586051462E+03  0.54133767418E+03 -0.87461487578E+03  0.10675738393E+04  0.10100000352E+00 0. -1.
</event>
<event>
 5   0  0.4981384E-06  0.1800128E+04  0.7818609E-02  0.8706231E-01
       -1   -1    0    0    0  501  0.00000000000E+00  0.00000000000E+00  0.63662892261E+03  0.63662892263E+03  0.50400001928E-02 0.  1.
        1   -1    0    0  501    0  0.00000000000E+00  0.00000000000E+00 -0.12725079083E+04  0.12725079083E+04  0.50400001928E-02 0. -1.
    10030    2    1    2    0    0  0.00000000000E+00  0.00000000000E+00 -0.63587898569E+03  0.19091368309E+04  0.18001281496E+04 0.  0.
        5    1    3    3  502    0  0.42221543772E+03  0.16730913921E+03 -0.11420639126E+04  0.12290607366E+04  0.46999998093E+01 0. -1.
       -5    1    3    3    0  502 -0.42221543772E+03 -0.16730913921E+03  0.50618492687E+03  0.68007609434E+03  0.46999998093E+01 0.  1.
</event>
<event>
 5   0  0.1000316E-05  0.1804443E+04  0.7818609E-02  0.8703940E-01
       -2   -1    0    0    0  501  0.00000000000E+00  0.00000000000E+00  0.98075956584E+03  0.98075956584E+03  0.25500000920E-02 0. -1.
        2   -1    0    0  501    0  0.00000000000E+00  0.00000000000E+00 -0.82997237397E+03  0.82997237397E+03  0.25500000920E-02 0.  1.
    10030    2    1    2    0    0  0.00000000000E+00  0.00000000000E+00  0.15078719187E+03  0.18107319398E+04  0.18044426787E+04 0.  0.
        5    1    3    3  502    0 -0.35072030797E+03  0.66525563121E+03 -0.42475250859E+03  0.86371672025E+03  0.46999998093E+01 0.  1.
       -5    1    3    3    0  502  0.35072030797E+03 -0.66525563121E+03  0.57553970046E+03  0.94701521957E+03  0.46999998093E+01 0. -1.
</event>
<event>
 5   0  0.1000316E-05  0.1796819E+04  0.7818609E-02  0.8707993E-01
        2   -1    0    0  501    0  0.00000000000E+00  0.00000000000E+00  0.69352069265E+03  0.69352069265E+03  0.25500000920E-02 0. -1.
       -2   -1    0    0    0  501  0.00000000000E+00  0.00000000000E+00 -0.11638287372E+04  0.11638287372E+04  0.25500000920E-02 0.  1.
    10030    2    1    2    0    0  0.00000000000E+00  0.00000000000E+00 -0.47030804457E+03  0.18573494299E+04  0.17968186463E+04 0.  0.
        5    1    3    3  502    0 -0.86808481036E+03  0.15730192318E+03 -0.59725031615E+02  0.88425352836E+03  0.46999998093E+01 0. -1.
       -5    1    3    3    0  502  0.86808481036E+03 -0.15730192318E+03 -0.41058301295E+03  0.97309590151E+03  0.46999998093E+01 0.  1.
</event>
<event>
 5   0  0.1000316E-05  0.1800242E+04  0.7818609E-02  0.8706171E-01
        2   -1    0    0  501    0  0.00000000000E+00  0.00000000000E+00  0.76592999674E+03  0.76592999675E+03  0.25500000920E-02 0. -1.
       -2   -1    0    0    0  501  0.00000000000E+00  0.00000000000E+00 -0.10578220066E+04  0.10578220066E+04  0.25500000920E-02 0.  1.
    10030    2    1    2    0    0  0.00000000000E+00  0.00000000000E+00 -0.29189200985E+03  0.18237520033E+04  0.18002417683E+04 0.  0.
        5    1    3    3  502    0  0.74687971883E+01 -0.89643210639E+03 -0.63961936669E+02  0.89875442899E+03  0.46999998093E+01 0. -1.
       -5    1    3    3    0  502 -0.74687971883E+01  0.89643210639E+03 -0.22793007318E+03  0.92499757435E+03  0.46999998093E+01 0.  1.
</event>
<event>
 5   0  0.4994123E-06  0.1798169E+04  0.7818609E-02  0.8707274E-01
        1   -1    0    0  501    0  0.00000000000E+00  0.00000000000E+00  0.12356757501E+04  0.12356757501E+04  0.50400001928E-02 0. -1.
       -1   -1    0    0    0  501  0.00000000000E+00  0.00000000000E+00 -0.65417876421E+03  0.65417876423E+03  0.50400001928E-02 0.  1.
    10030    2    1    2    0    0  0.00000000000E+00  0.00000000000E+00  0.58149698587E+03  0.18898545143E+04  0.17981688855E+04 0.  0.
        1    1    3    3  502    0 -0.12378594159E+02 -0.34508677174E+03  0.11632047446E+04  0.12133768530E+04  0.50400001928E-02 0. -1.
       -1    1    3    3    0  502  0.12378594159E+02  0.34508677174E+03 -0.58170775873E+03  0.67647766128E+03  0.50400001928E-02 0.  1.
</event>
<event>
 5   0  0.1036381E-05  0.1801716E+04  0.7818609E-02  0.8705387E-01
        2   -1    0    0  501    0  0.00000000000E+00  0.00000000000E+00  0.14129804386E+04  0.14129804386E+04  0.25500000920E-02 0. -1.
       -2   -1    0    0    0  501  0.00000000000E+00  0.00000000000E+00 -0.57435005982E+03  0.57435005982E+03  0.25500000920E-02 0.  1.
    10030    2    1    2    0    0  0.00000000000E+00  0.00000000000E+00  0.83863037878E+03  0.19873304984E+04  0.18017162922E+04 0.  0.
        4    1    3    3  502    0  0.58101055776E+03  0.86173445909E+02  0.11727233173E+04  0.13115947250E+04  0.12699999809E+01 0. -1.
       -4    1    3    3    0  502 -0.58101055776E+03 -0.86173445909E+02 -0.33409293848E+03  0.67573577339E+03  0.12699999809E+01 0.  1.
</event>
<event>
 5   0  0.4994123E-06  0.1796638E+04  0.7818609E-02  0.8708090E-01
        1   -1    0    0  501    0  0.00000000000E+00  0.00000000000E+00  0.88243862708E+03  0.88243862709E+03  0.50400001928E-02 0. -1.
       -1   -1    0    0    0  501  0.00000000000E+00  0.00000000000E+00 -0.91448490234E+03  0.91448490236E+03  0.50400001928E-02 0.  1.
    10030    2    1    2    0    0  0.00000000000E+00  0.00000000000E+00 -0.32046275265E+02  0.17969235295E+04  0.17966377506E+04 0.  0.
        1    1    3    3  502    0  0.59295677431E+03  0.14242786388E+03 -0.67574413529E+03  0.91022720735E+03  0.50400001928E-02 0.  1.
       -1    1    3    3    0  502 -0.59295677431E+03 -0.14242786388E+03  0.64369786002E+03  0.88669632210E+03  0.50400001928E-02 0. -1.
</event>
<event>
 5   0  0.4987456E-06  0.1799086E+04  0.7818609E-02  0.8706786E-01
       -1   -1    0    0    0  501  0.00000000000E+00  0.00000000000E+00  0.30048319446E+03  0.30048319450E+03  0.50400001928E-02 0. -1.
        1   -1    0    0  501    0  0.00000000000E+00  0.00000000000E+00 -0.26929211446E+04  0.26929211446E+04  0.50400001928E-02 0.  1.
    10030    2    1    2    0    0  0.00000000000E+00  0.00000000000E+00 -0.23924379501E+04  0.29934043391E+04  0.17990859324E+04 0.  0.
        3    1    3    3  502    0 -0.73822161643E+03  0.32525054308E+03 -0.53397749534E+03  0.96741461973E+03  0.10100000352E+00 0. -1.
       -3    1    3    3    0  502  0.73822161643E+03 -0.32525054308E+03 -0.18584604548E+04  0.20259897193E+04  0.10100000352E+00 0.  1.
</event>
<event>
 5   0  0.4953155E-06  0.1800631E+04  0.7818609E-02  0.8705964E-01
        1   -1    0    0  501    0  0.00000000000E+00  0.00000000000E+00  0.74131563939E+03  0.74131563941E+03  0.50400001928E-02 0.  1.
       -1   -1    0    0    0  501  0.00000000000E+00  0.00000000000E+00 -0.10934179040E+04  0.10934179040E+04  0.50400001928E-02 0. -1.
    10030    2    1    2    0    0  0.00000000000E+00  0.00000000000E+00 -0.35210226461E+03  0.18347335434E+04  0.18006307702E+04 0.  0.
        2    1    3    3  502    0 -0.90877803242E+02  0.66023892333E+03 -0.79281974200E+03  0.10357303483E+04  0.25500000920E-02 0. -1.
       -2    1    3    3    0  502  0.90877803242E+02 -0.66023892333E+03  0.44071747739E+03  0.79900319517E+03  0.25500000920E-02 0.  1.
</event>
<event>
 5   0  0.1036381E-05  0.1800242E+04  0.7818609E-02  0.8706171E-01
        2   -1    0    0  501    0  0.00000000000E+00  0.00000000000E+00  0.13453861061E+04  0.13453861061E+04  0.25500000920E-02 0. -1.
       -2   -1    0    0    0  501  0.00000000000E+00  0.00000000000E+00 -0.60221943287E+03  0.60221943288E+03  0.25500000920E-02 0.  1.
    10030    2    1    2    0    0  0.00000000000E+00  0.00000000000E+00  0.74316667323E+03  0.19476055390E+04  0.18002418258E+04 0.  0.
        4    1    3    3  502    0  0.63271815565E+03  0.56194517032E+03  0.70345350033E+03  0.11004376761E+04  0.12699999809E+01 0. -1.
       -4    1    3    3    0  502 -0.63271815565E+03 -0.56194517032E+03  0.39713172903E+02  0.84716786290E+03  0.12699999809E+01 0.  1.
</event>
<event>
 5   0  0.4983159E-06  0.1799288E+04  0.7818609E-02  0.8706678E-01
        1   -1    0    0  501    0  0.00000000000E+00  0.00000000000E+00  0.15721322640E+04  0.15721322640E+04  0.50400001928E-02 0. -1.
       -1   -1    0    0    0  501  0.00000000000E+00  0.00000000000E+00 -0.51481657530E+03  0.51481657533E+03  0.50400001928E-02 0.  1.
    10030    2    1    2    0    0  0.00000000000E+00  0.00000000000E+00  0.10573156887E+04  0.20869488394E+04  0.17992884684E+04 0.  0.
        4    1    3    3  502    0 -0.52279542155E+03 -0.63862062919E+03  0.94396220673E+03  0.12538810236E+04  0.12699999809E+01 0. -1.
       -4    1    3    3    0  502  0.52279542155E+03  0.63862062919E+03  0.11335348201E+03  0.83306781573E+03  0.12699999809E+01 0.  1.
</event>
<event>
 5   0  0.4987456E-06  0.1799442E+04  0.7818609E-02  0.8706596E-01
       -1   -1    0    0    0  501  0.00000000000E+00  0.00000000000E+00  0.95359354181E+03  0.95359354182E+03  0.50400001928E-02 0.  1.
        1   -1    0    0  501    0  0.00000000000E+00  0.00000000000E+00 -0.84889197548E+03  0.84889197550E+03  0.50400001928E-02 0. -1.
    10030    2    1    2    0    0  0.00000000000E+00  0.00000000000E+00  0.10470156633E+03  0.18024855173E+04  0.17994420308E+04 0.  0.
        3    1    3    3  502    0 -0.42660155626E+03 -0.62223433383E+03  0.54341809510E+03  0.92976754637E+03  0.10100000352E+00 0.  1.
       -3    1    3    3    0  502  0.42660155626E+03  0.62223433383E+03 -0.43871652877E+03  0.87271797095E+03  0.10100000352E+00 0. -1.
</event>
<event>
 5   0  0.9999162E-06  0.1799667E+04  0.7818609E-02  0.8706476E-01
        2   -1    0    0  501    0  0.00000000000E+00  0.00000000000E+00  0.20237554896E+04  0.20237554896E+04  0.25500000920E-02 0. -1.
       -2   -1    0    0    0  501  0.00000000000E+00  0.00000000000E+00 -0.40009805631E+03  0.40009805631E+03  0.25500000920E-02 0.  1.
    10030    2    1    2    0    0  0.00000000000E+00  0.00000000000E+00  0.16236574333E+04  0.24238535459E+04  0.17996673446E+04 0.  0.
        1    1    3    3  502    0 -0.50413627543E+03 -0.31797137314E+03 -0.96102842042E+02  0.60373415890E+03  0.50400001928E-02 0.  1.
       -1    1    3    3    0  502  0.50413627543E+03  0.31797137314E+03  0.17197602753E+04  0.18201193870E+04  0.50400001928E-02 0. -1.
</event>
<event>
 5   0  0.1000316E-05  0.1798899E+04  0.7818609E-02  0.8706885E-01
        2   -1    0    0  501    0  0.00000000000E+00  0.00000000000E+00  0.12150404642E+04  0.12150404642E+04  0.25500000920E-02 0.  1.
       -2   -1    0    0    0  501  0.00000000000E+00  0.00000000000E+00 -0.66582895882E+03  0.66582895883E+03  0.25500000920E-02 0. -1.
    10030    2    1    2    0    0  0.00000000000E+00  0.00000000000E+00  0.54921150534E+03  0.18808694230E+04  0.17988986933E+04 0.  0.
        5    1    3    3  502    0 -0.33990197440E+03  0.79620591690E+03  0.19543454336E+02  0.86595684126E+03  0.46999998093E+01 0.  1.
       -5    1    3    3    0  502  0.33990197440E+03 -0.79620591690E+03  0.52966805100E+03  0.10149125817E+04  0.46999998093E+01 0. -1.
</event>
<event>
 5   0  0.4983159E-06  0.1794635E+04  0.7818609E-02  0.8709157E-01
        1   -1    0    0  501    0  0.00000000000E+00  0.00000000000E+00  0.68582810581E+03  0.68582810582E+03  0.50400001928E-02 0. -1.
       -1   -1    0    0    0  501  0.00000000000E+00  0.00000000000E+00 -0.11740247011E+04  0.11740247011E+04  0.50400001928E-02 0.  1.
    10030    2    1    2    0    0  0.00000000000E+00  0.00000000000E+00 -0.48819659529E+03  0.18598528069E+04  0.17946354916E+04 0.  0.
        4    1    3    3  502    0  0.96539076263E+02  0.76956464555E+03 -0.71174842430E+03  0.10526808487E+04  0.12699999809E+01 0.  1.
       -4    1    3    3    0  502 -0.96539076263E+02 -0.76956464555E+03  0.22355182901E+03  0.80717195818E+03  0.12699999809E+01 0. -1.
</event>
<event>
 5   0  0.1036381E-05  0.1800057E+04  0.7818609E-02  0.8706269E-01
        2   -1    0    0  501    0  0.00000000000E+00  0.00000000000E+00  0.43486092564E+03  0.43486092565E+03  0.25500000920E-02 0.  1.
       -2   -1    0    0    0  501  0.00000000000E+00  0.00000000000E+00 -0.18627832049E+04  0.18627832049E+04  0.25500000920E-02 0. -1.
    10030    2    1    2    0    0  0.00000000000E+00  0.00000000000E+00 -0.14279222793E+04  0.22976441306E+04  0.18000573644E+04 0.  0.
        4    1    3    3  502    0 -0.76929418909E+03  0.37314203096E+03 -0.10727294400E+04  0.13717866412E+04  0.12699999809E+01 0. -1.
       -4    1    3    3    0  502  0.76929418909E+03 -0.37314203096E+03 -0.35519283928E+03  0.92585748937E+03  0.12699999809E+01 0.  1.
</event>
<event>
 5   0  0.9589963E-06  0.1800509E+04  0.7818609E-02  0.8706029E-01
       -2   -1    0    0    0  501  0.00000000000E+00  0.00000000000E+00  0.52675712403E+03  0.52675712404E+03  0.25500000920E-02 0. -1.
        2   -1    0    0  501    0  0.00000000000E+00  0.00000000000E+00 -0.15385806730E+04  0.15385806730E+04  0.25500000920E-02 0.  1.
    10030    2    1    2    0    0  0.00000000000E+00  0.00000000000E+00 -0.10118235490E+04  0.20653377971E+04  0.18005091840E+04 0.  0.
        2    1    3    3  502    0 -0.38880962027E+02  0.21554369157E+03  0.49572929074E+03  0.54195787833E+03  0.25500000920E-02 0. -1.
       -2    1    3    3    0  502  0.38880962027E+02 -0.21554369157E+03 -0.15075528397E+04  0.15233799187E+04  0.25500000920E-02 0.  1.
</event>
<event>
 5   0  0.4994123E-06  0.1799324E+04  0.7818609E-02  0.8706659E-01
        1   -1    0    0  501    0  0.00000000000E+00  0.00000000000E+00  0.17592046986E+04  0.17592046986E+04  0.50400001928E-02 0. -1.
       -1   -1    0    0    0  501  0.00000000000E+00  0.00000000000E+00 -0.46008972538E+03  0.46008972541E+03  0.50400001928E-02 0.  1.
    10030    2    1    2    0    0  0.00000000000E+00  0.00000000000E+00  0.12991149732E+04  0.22192944240E+04  0.17993243251E+04 0.  0.
        1    1    3    3  502    0 -0.28556372049E+03  0.45697605450E+03 -0.23902303079E+03  0.58949619348E+03  0.50400001928E-02 0.  1.
       -1    1    3    3    0  502  0.28556372049E+03 -0.45697605450E+03  0.15381380040E+04  0.16297982306E+04  0.50400001928E-02 0. -1.
</event>
<event>
 5   0  0.9589963E-06  0.1798668E+04  0.7818609E-02  0.8707008E-01
       -2   -1    0    0    0  501  0.00000000000E+00  0.00000000000E+00  0.10161999685E+04  0.10161999685E+04  0.25500000920E-02 0.  1.
        2   -1    0    0  501    0  0.00000000000E+00  0.00000000000E+00 -0.79590823246E+03  0.79590823246E+03  0.25500000920E-02 0. -1.
    10030    2    1    2    0    0  0.00000000000E+00  0.00000000000E+00  0.22029173601E+03  0.18121082009E+04  0.17986683082E+04 0.  0.
        2    1    3    3  502    0 -0.33006741260E+03  0.57134065372E+03 -0.50550722345E+03  0.83121128025E+03  0.25500000920E-02 0. -1.
       -2    1    3    3    0  502  0.33006741260E+03 -0.57134065372E+03  0.72579895946E+03  0.98089692068E+03  0.25500000920E-02 0.  1.
</event>
<event>
 5   0  0.4953155E-06  0.1800657E+04  0.7818609E-02  0.8705950E-01
        1   -1    0    0  501    0  0.00000000000E+00  0.00000000000E+00  0.13782368208E+04  0.13782368209E+04  0.50400001928E-02 0.  1.
       -1   -1    0    0    0  501  0.00000000000E+00  0.00000000000E+00 -0.58813681468E+03  0.58813681470E+03  0.50400001928E-02 0. -1.
    10030    2    1    2    0    0  0.00000000000E+00  0.00000000000E+00  0.79010000617E+03  0.19663736356E+04  0.18006574507E+04 0.  0.
        2    1    3    3  502    0  0.43932153954E+03  0.76545737453E+03  0.58936832790E+03  0.10612650156E+04  0.25500000920E-02 0.  1.
       -2    1    3    3    0  502 -0.43932153954E+03 -0.76545737453E+03  0.20073167827E+03  0.90510862000E+03  0.25500000920E-02 0. -1.
</event>
<event>
 5   0  0.4983159E-06  0.1800096E+04  0.7818609E-02  0.8706248E-01
        1   -1    0    0  501    0  0.00000000000E+00  0.00000000000E+00  0.45967308712E+03  0.45967308715E+03  0.50400001928E-02 0.  1.
       -1   -1    0    0    0  501  0.00000000000E+00  0.00000000000E+00 -0.17623108070E+04  0.17623108071E+04  0.50400001928E-02 0. -1.
    10030    2    1    2    0    0  0.00000000000E+00  0.00000000000E+00 -0.13026377199E+04  0.22219838942E+04  0.18000964965E+04 0.  0.
        4    1    3    3  502    0  0.17586451199E+03  0.47064599176E+03 -0.15730954731E+04  0.16513833463E+04  0.12699999809E+01 0. -1.
       -4    1    3    3    0  502 -0.17586451199E+03 -0.47064599176E+03  0.27045775314E+03  0.57060054791E+03  0.12699999809E+01 0.  1.
</event>
<event>
 5   0  0.9999162E-06  0.1799035E+04  0.7818609E-02  0.8706813E-01
       -2   -1    0    0    0  501  0.00000000000E+00  0.00000000000E+00  0.61490945552E+03  0.61490945553E+03  0.25500000920E-02 0.  1.
        2   -1    0    0  501    0  0.00000000000E+00  0.00000000000E+00 -0.13158553723E+04  0.13158553723E+04  0.25500000920E-02 0. -1.
    10030    2    1    2    0    0  0.00000000000E+00  0.00000000000E+00 -0.70094591682E+03  0.19307648279E+04  0.17990351976E+04 0.  0.
        1    1    3    3  502    0 -0.31852581208E+03 -0.13142268520E+03  0.54127170153E+03  0.64164294592E+03  0.50400001928E-02 0.  1.
       -1    1    3    3    0  502  0.31852581208E+03  0.13142268520E+03 -0.12422176184E+04  0.12891218820E+04  0.50400001928E-02 0. -1.
</event>
<event>
 5   0  0.9589963E-06  0.1800520E+04  0.7818609E-02  0.8706023E-01
       -2   -1    0    0    0  501  0.00000000000E+00  0.00000000000E+00  0.27401907041E+03  0.27401907042E+03  0.25500000920E-02 0.  1.
        2   -1    0    0  501    0  0.00000000000E+00  0.00000000000E+00 -0.29577064210E+04  0.29577064210E+04  0.25500000920E-02 0. -1.
    10030    2    1    2    0    0  0.00000000000E+00  0.00000000000E+00 -0.26836873506E+04  0.32317254914E+04  0.18005198850E+04 0.  0.
        2    1    3    3  502    0 -0.16103260465E+03 -0.58810899668E+03 -0.25306269160E+04  0.26030513402E+04  0.25500000920E-02 0. -1.
       -2    1    3    3    0  502  0.16103260465E+03  0.58810899668E+03 -0.15306043455E+03  0.62867415118E+03  0.25500000920E-02 0.  1.
</event>
<event>
 5   0  0.4994123E-06  0.1799620E+04  0.7818609E-02  0.8706501E-01
        1   -1    0    0  501    0  0.00000000000E+00  0.00000000000E+00  0.10949339191E+04  0.10949339191E+04  0.50400001928E-02 0.  1.
       -1   -1    0    0    0  501  0.00000000000E+00  0.00000000000E+00 -0.73945852201E+03  0.73945852203E+03  0.50400001928E-02 0. -1.
    10030    2    1    2    0    0  0.00000000000E+00  0.00000000000E+00  0.35547539705E+03  0.18343924411E+04  0.17996202016E+04 0.  0.
        1    1    3    3  502    0  0.33648802060E+03  0.69612097099E+03  0.64690230359E+03  0.10081126845E+04  0.50400001928E-02 0.  1.
       -1    1    3    3    0  502 -0.33648802060E+03 -0.69612097099E+03 -0.29142690654E+03  0.82627975659E+03  0.50400001928E-02 0. -1.
</event>
<event>
 5   0  0.4953155E-06  0.1801324E+04  0.7818609E-02  0.8705596E-01
       -1   -1    0    0    0  501  0.00000000000E+00  0.00000000000E+00  0.49244528316E+03  0.49244528318E+03  0.50400001928E-02 0.  1.
        1   -1    0    0  501    0  0.00000000000E+00  0.00000000000E+00 -0.16472729121E+04  0.16472729121E+04  0.50400001928E-02 0. -1.
    10030    2    1    2    0    0  0.00000000000E+00  0.00000000000E+00 -0.11548276289E+04  0.21397181953E+04  0.18013237085E+04 0.  0.
        2    1    3    3  502    0 -0.65397356070E+03  0.45561887996E+03 -0.10756378062E+04  0.13387556432E+04  0.25500000920E-02 0. -1.
       -2    1    3    3    0  502  0.65397356070E+03 -0.45561887996E+03 -0.79189822683E+02  0.80096255212E+03  0.25500000920E-02 0.  1.
</event>
<event>
 5   0  0.9999162E-06  0.1801211E+04  0.7818609E-02  0.8705656E-01
       -2   -1    0    0    0  501  0.00000000000E+00  0.00000000000E+00  0.70447713814E+03  0.70447713815E+03  0.25500000920E-02 0. -1.
        2   -1    0    0  501    0  0.00000000000E+00  0.00000000000E+00 -0.11513364879E+04  0.11513364879E+04  0.25500000920E-02 0.  1.
    10030    2    1    2    0    0  0.00000000000E+00  0.00000000000E+00 -0.44685934974E+03  0.18558136260E+04  0.18012109638E+04 0.  0.
        1    1    3    3  502    0 -0.63635476844E+03  0.45293781101E+03  0.23848014923E+03  0.81668404757E+03  0.50400001928E-02 0. -1.
       -1    1    3    3    0  502  0.63635476844E+03 -0.45293781101E+03 -0.68533949896E+03  0.10391295785E+04  0.50400001928E-02 0.  1.
</event>
<event>
 5   0  0.4953155E-06  0.1800939E+04  0.7818609E-02  0.8705800E-01
        1   -1    0    0  501    0  0.00000000000E+00  0.00000000000E+00  0.63669973232E+03  0.63669973234E+03  0.50400001928E-02 0. -1.
       -1   -1    0    0    0  501  0.00000000000E+00  0.00000000000E+00 -0.12735135780E+04  0.12735135780E+04  0.50400001928E-02 0.  1.
    10030    2    1    2    0    0  0.00000000000E+00  0.00000000000E+00 -0.63681384570E+03  0.19102133104E+04  0.18009394818E+04 0.  0.
        2    1    3    3  502    0  0.39953114827E+03  0.40370948752E+03  0.42273110845E+03  0.70803112842E+03  0.25500000920E-02 0. -1.
       -2    1    3    3    0  502 -0.39953114827E+03 -0.40370948752E+03 -0.10595449541E+04  0.12021821820E+04  0.25500000920E-02 0.  1.
</event>
<event>
 5   0  0.4987456E-06  0.1801703E+04  0.7818609E-02  0.8705394E-01
        1   -1    0    0  501    0  0.00000000000E+00  0.00000000000E+00  0.59654210993E+03  0.59654210995E+03  0.50400001928E-02 0.  1.
       -1   -1    0    0    0  501  0.00000000000E+00  0.00000000000E+00 -0.13603959740E+04  0.13603959740E+04  0.50400001928E-02 0. -1.
    10030    2    1    2    0    0  0.00000000000E+00  0.00000000000E+00 -0.76385386405E+03  0.19569380839E+04  0.18017030662E+04 0.  0.
        3    1    3    3  502    0  0.74341835995E+03  0.20192190728E+03  0.12531120985E+03  0.78047820217E+03  0.10100000352E+00 0.  1.
       -3    1    3    3    0  502 -0.74341835995E+03 -0.20192190728E+03 -0.88916507391E+03  0.11764598818E+04  0.10100000352E+00 0. -1.
</event>
<event>
 5   0  0.1036381E-05  0.1799162E+04  0.7818609E-02  0.8706745E-01
       -2   -1    0    0    0  501  0.00000000000E+00  0.00000000000E+00  0.93701372251E+03  0.93701372252E+03  0.25500000920E-02 0. -1.
        2   -1    0    0  501    0  0.00000000000E+00  0.00000000000E+00 -0.86364372408E+03  0.86364372409E+03  0.25500000920E-02 0.  1.
    10030    2    1    2    0    0  0.00000000000E+00  0.00000000000E+00  0.73369998429E+02  0.18006574466E+04  0.17991620503E+04 0.  0.
        4    1    3    3  502    0 -0.66993862413E+03 -0.59574350220E+03  0.11101871407E+03  0.90335754178E+03  0.12699999809E+01 0. -1.
       -4    1    3    3    0  502  0.66993862413E+03  0.59574350220E+03 -0.37648715643E+02  0.89729990483E+03  0.12699999809E+01 0.  1.
</event>
<event>
 5   0  0.1036381E-05  0.1799334E+04  0.7818609E-02  0.8706654E-01
        2   -1    0    0  501    0  0.00000000000E+00  0.00000000000E+00  0.10980821174E+04  0.10980821174E+04  0.25500000920E-02 0. -1.
       -2   -1    0    0    0  501  0.00000000000E+00  0.00000000000E+00 -0.73710419622E+03  0.73710419622E+03  0.25500000920E-02 0.  1.
    10030    2    1    2    0    0  0.00000000000E+00  0.00000000000E+00  0.36097792118E+03  0.18351863136E+04  0.17993342508E+04 0.  0.
        4    1    3    3  502    0  0.72643926617E+02 -0.58670930071E+03  0.87215645488E+03  0.10536429368E+04  0.12699999809E+01 0. -1.
       -4    1    3    3    0  502 -0.72643926617E+02  0.58670930071E+03 -0.51117853370E+03  0.78154337681E+03  0.12699999809E+01 0.  1.
</event>
<event>
 5   0  0.1036381E-05  0.1799818E+04  0.7818609E-02  0.8706396E-01
       -2   -1    0    0    0  501  0.00000000000E+00  0.00000000000E+00  0.10222277472E+04  0.10222277472E+04  0.25500000920E-02 0. -1.
        2   -1    0    0  501    0  0.00000000000E+00  0.00000000000E+00 -0.79222722929E+03  0.79222722930E+03  0.25500000920E-02 0.  1.
    10030    2    1    2    0    0  0.00000000000E+00  0.00000000000E+00  0.23000051788E+03  0.18144549765E+04  0.17998184973E+04 0.  0.
        4    1    3    3  502    0 -0.25738526158E+03 -0.75174412321E+03 -0.31089072515E+03  0.85324149896E+03  0.12699999809E+01 0.  1.
       -4    1    3    3    0  502  0.25738526158E+03  0.75174412321E+03  0.54089124303E+03  0.96121347751E+03  0.12699999809E+01 0. -1.
</event>
<event>
 5   0  0.1035018E-05  0.1799302E+04  0.7818609E-02  0.8706671E-01
       -2   -1    0    0    0  501  0.00000000000E+00  0.00000000000E+00  0.90451187571E+03  0.90451187572E+03  0.25500000920E-02 0.  1.
        2   -1    0    0  501    0  0.00000000000E+00  0.00000000000E+00 -0.89481639650E+03  0.89481639650E+03  0.25500000920E-02 0. -1.
    10030    2    1    2    0    0  0.00000000000E+00  0.00000000000E+00  0.96954792154E+01  0.17993282722E+04  0.17993021505E+04 0.  0.
        3    1    3    3  502    0 -0.37197322314E+03  0.65921065498E+03 -0.48141982674E+03  0.89704393770E+03  0.10100000352E+00 0. -1.
       -3    1    3    3    0  502  0.37197322314E+03 -0.65921065498E+03  0.49111530595E+03  0.90228433452E+03  0.10100000352E+00 0.  1.
</event>
<event>
 5   0  0.4994123E-06  0.1799756E+04  0.7818609E-02  0.8706429E-01
       -1   -1    0    0    0  501  0.00000000000E+00  0.00000000000E+00  0.82531443732E+03  0.82531443733E+03  0.50400001928E-02 0.  1.
        1   -1    0    0  501    0  0.00000000000E+00  0.00000000000E+00 -0.98117826120E+03  0.98117826122E+03  0.50400001928E-02 0. -1.
    10030    2    1    2    0    0  0.00000000000E+00  0.00000000000E+00 -0.15586382389E+03  0.18064926985E+04  0.17997561886E+04 0.  0.
        1    1    3    3  502    0 -0.24494395818E+03  0.86506577199E+03 -0.11607747504E+03  0.90653754073E+03  0.50400001928E-02 0.  1.
       -1    1    3    3    0  502  0.24494395818E+03 -0.86506577199E+03 -0.39786348853E+02  0.89995515782E+03  0.50400001928E-02 0. -1.
</event>
<event>
 5   0  0.9589963E-06  0.1801811E+04  0.7818609E-02  0.8705337E-01
        2   -1    0    0  501    0  0.00000000000E+00  0.00000000000E+00  0.76162902985E+03  0.76162902986E+03  0.25500000920E-02 0. -1.
       -2   -1    0    0    0  501  0.00000000000E+00  0.00000000000E+00 -0.10656506803E+04  0.10656506803E+04  0.25500000920E-02 0.  1.
    10030    2    1    2    0    0  0.00000000000E+00  0.00000000000E+00 -0.30402165043E+03  0.18272797101E+04  0.18018107490E+04 0.  0.
        2    1    3    3  502    0 -0.39833769721E+03 -0.10448440318E+03  0.66058969950E+03  0.77843989018E+03  0.25500000920E-02 0. -1.
       -2    1    3    3    0  502  0.39833769721E+03  0.10448440318E+03 -0.96461134993E+03  0.10488398200E+04  0.25500000920E-02 0.  1.
</event>
<event>
 5   0  0.9999162E-06  0.1800018E+04  0.7818609E-02  0.8706290E-01
        2   -1    0    0  501    0  0.00000000000E+00  0.00000000000E+00  0.86683397316E+03  0.86683397317E+03  0.25500000920E-02 0.  1.
       -2   -1    0    0    0  501  0.00000000000E+00  0.00000000000E+00 -0.93445370488E+03  0.93445370489E+03  0.25500000920E-02 0. -1.
    10030    2    1    2    0    0  0.00000000000E+00  0.00000000000E+00 -0.67619731722E+02  0.18012876781E+04  0.18000180196E+04 0.  0.
        1    1    3    3  502    0  0.83314496035E+03  0.34037257582E+03 -0.39488583836E+02  0.90085701618E+03  0.50400001928E-02 0. -1.
       -1    1    3    3    0  502 -0.83314496035E+03 -0.34037257582E+03 -0.28131147886E+02  0.90043066187E+03  0.50400001928E-02 0.  1.
</event>
<event>
 5   0  0.4953155E-06  0.1799001E+04  0.7818609E-02  0.8706831E-01
        1   -1    0    0  501    0  0.00000000000E+00  0.00000000000E+00  0.12389921882E+04  0.12389921882E+04  0.50400001928E-02 0.  1.
       -1   -1    0    0    0  501  0.00000000000E+00  0.00000000000E+00 -0.65303177267E+03  0.65303177269E+03  0.50400001928E-02 0. -1.
    10030    2    1    2    0    0  0.00000000000E+00  0.00000000000E+00  0.58596041550E+03  0.18920239609E+04  0.17990011284E+04 0.  0.
        2    1    3    3  502    0  0.42435258430E+03  0.31320455597E+03  0.10593059999E+04  0.11833433192E+04  0.25500000920E-02 0.  1.
       -2    1    3    3    0  502 -0.42435258430E+03 -0.31320455597E+03 -0.47334558436E+03  0.70868064170E+03  0.25500000920E-02 0. -1.
</event>
<event>
 5   0  0.4953155E-06  0.1799176E+04  0.7818609E-02  0.8706738E-01
       -1   -1    0    0    0  501  0.00000000000E+00  0.00000000000E+00  0.55203648978E+03  0.55203648981E+03  0.50400001928E-02 0.  1.
        1   -1    0    0  501    0  0.00000000000E+00  0.00000000000E+00 -0.14659510062E+04  0.14659510062E+04  0.50400001928E-02 0. -1.
    10030    2    1    2    0    0  0.00000000000E+00  0.00000000000E+00 -0.91391451643E+03  0.20179874960E+04  0.17991758643E+04 0.  0.
        2    1    3    3  502    0  0.30410528399E+03  0.82002492839E+03 -0.22078403605E+03  0.90203464319E+03  0.25500000920E-02 0.  1.
       -2    1    3    3    0  502 -0.30410528399E+03 -0.82002492839E+03 -0.69313048038E+03  0.11159528528E+04  0.25500000920E-02 0. -1.
</event>
<event>
 5   0  0.9999162E-06  0.1799342E+04  0.7818609E-02  0.8706649E-01
       -2   -1    0    0    0  501  0.00000000000E+00  0.00000000000E+00  0.81619037847E+03  0.81619037847E+03  0.25500000920E-02 0.  1.
        2   -1    0    0  501    0  0.00000000000E+00  0.00000000000E+00 -0.99169047204E+03  0.99169047204E+03  0.25500000920E-02 0. -1.
    10030    2    1    2    0    0  0.00000000000E+00  0.00000000000E+00 -0.17550009357E+03  0.18078808505E+04  0.17993423484E+04 0.  0.
        1    1    3    3  502    0 -0.78247984938E+03  0.28802525027E+03  0.25175125313E+03  0.87098332530E+03  0.50400001928E-02 0.  1.
       -1    1    3    3    0  502  0.78247984938E+03 -0.28802525027E+03 -0.42725134671E+03  0.93689752522E+03  0.50400001928E-02 0. -1.
</event>
<event>
 5   0  0.1036381E-05  0.1798145E+04  0.7818609E-02  0.8707286E-01
        2   -1    0    0  501    0  0.00000000000E+00  0.00000000000E+00  0.95895375098E+03  0.95895375099E+03  0.25500000920E-02 0.  1.
       -2   -1    0    0    0  501  0.00000000000E+00  0.00000000000E+00 -0.84293068520E+03  0.84293068520E+03  0.25500000920E-02 0. -1.
    10030    2    1    2    0    0  0.00000000000E+00  0.00000000000E+00  0.11602306578E+03  0.18018844362E+04  0.17981452026E+04 0.  0.
        4    1    3    3  502    0 -0.21607617636E+03 -0.84188035024E+03  0.28844295685E+03  0.91577966256E+03  0.12699999809E+01 0.  1.
       -4    1    3    3    0  502  0.21607617636E+03  0.84188035024E+03 -0.17241989107E+03  0.88610477363E+03  0.12699999809E+01 0. -1.
</event>
<event>
 5   0  0.1036381E-05  0.1799894E+04  0.7818609E-02  0.8706356E-01
       -2   -1    0    0    0  501  0.00000000000E+00  0.00000000000E+00  0.75427219826E+03  0.75427219827E+03  0.25500000920E-02 0. -1.
        2   -1    0    0  501    0  0.00000000000E+00  0.00000000000E+00 -0.10737568374E+04  0.10737568374E+04  0.25500000920E-02 0.  1.
    10030    2    1    2    0    0  0.00000000000E+00  0.00000000000E+00 -0.31948463911E+03  0.18280290356E+04  0.17998943637E+04 0.  0.
        4    1    3    3  502    0  0.14571140817E+03  0.89479493538E+02  0.73762119047E+03  0.75718229494E+03  0.12699999809E+01 0. -1.
       -4    1    3    3    0  502 -0.14571140817E+03 -0.89479493538E+02 -0.10571058296E+04  0.10708467407E+04  0.12699999809E+01 0.  1.
</event>
<event>
 5   0  0.4987456E-06  0.1799654E+04  0.7818609E-02  0.8706483E-01
       -1   -1    0    0    0  501  0.00000000000E+00  0.00000000000E+00  0.80815252771E+03  0.80815252773E+03  0.50400001928E-02 0.  1.
        1   -1    0    0  501    0  0.00000000000E+00  0.00000000000E+00 -0.10019008522E+04  0.10019008522E+04  0.50400001928E-02 0. -1.
    10030    2    1    2    0    0  0.00000000000E+00  0.00000000000E+00 -0.19374832452E+03  0.18100533800E+04  0.17996540848E+04 0.  0.
        3    1    3    3  502    0  0.66079697225E+03  0.28154738881E+03  0.44826068279E+03  0.84667539271E+03  0.10100000352E+00 0.  1.
       -3    1    3    3    0  502 -0.66079697225E+03 -0.28154738881E+03 -0.64200900731E+03  0.96337798727E+03  0.10100000352E+00 0. -1.
</event>
<event>
 5   0  0.4981384E-06  0.1800550E+04  0.7818609E-02  0.8706007E-01
        1   -1    0    0  501    0  0.00000000000E+00  0.00000000000E+00  0.72580141381E+03  0.72580141383E+03  0.50400001928E-02 0.  1.
       -1   -1    0    0    0  501  0.00000000000E+00  0.00000000000E+00 -0.11166896749E+04  0.11166896749E+04  0.50400001928E-02 0. -1.
    10030    2    1    2    0    0  0.00000000000E+00  0.00000000000E+00 -0.39088826107E+03  0.18424910887E+04  0.18005498547E+04 0.  0.
        5    1    3    3  502    0  0.28653629997E+02 -0.86447932101E+03 -0.45091389007E+03  0.97544397749E+03  0.46999998093E+01 0. -1.
       -5    1    3    3    0  502 -0.28653629997E+02  0.86447932101E+03  0.60025628997E+02  0.86704711124E+03  0.46999998093E+01 0.  1.
</event>
<event>
 5   0  0.9589963E-06  0.1800153E+04  0.7818609E-02  0.8706218E-01
       -2   -1    0    0    0  501  0.00000000000E+00  0.00000000000E+00  0.49372217039E+03  0.49372217040E+03  0.25500000920E-02 0. -1.
        2   -1    0    0  501    0  0.00000000000E+00  0.00000000000E+00 -0.16408780016E+04  0.16408780016E+04  0.25500000920E-02 0.  1.
    10030    2    1    2    0    0  0.00000000000E+00  0.00000000000E+00 -0.11471558312E+04  0.21346001720E+04  0.18001531583E+04 0.  0.
        2    1    3    3  502    0  0.82777525647E+03  0.33141199218E+03 -0.71925170234E+03  0.11455866598E+04  0.25500000920E-02 0. -1.
       -2    1    3    3    0  502 -0.82777525647E+03 -0.33141199218E+03 -0.42790412886E+03  0.98901351219E+03  0.25500000920E-02 0.  1.
</event>
<event>
 5   0  0.4953155E-06  0.1796524E+04  0.7818609E-02  0.8708150E-01
        1   -1    0    0  501    0  0.00000000000E+00  0.00000000000E+00  0.10760006233E+04  0.10760006233E+04  0.50400001928E-02 0. -1.
       -1   -1    0    0    0  501  0.00000000000E+00  0.00000000000E+00 -0.74988322960E+03  0.74988322962E+03  0.50400001928E-02 0.  1.
    10030    2    1    2    0    0  0.00000000000E+00  0.00000000000E+00  0.32611739367E+03  0.18258838529E+04  0.17965242247E+04 0.  0.
        2    1    3    3  502    0 -0.22988872465E+03 -0.11461774405E+03  0.10378744121E+04  0.10691909784E+04  0.25500000920E-02 0. -1.
       -2    1    3    3    0  502  0.22988872465E+03  0.11461774405E+03 -0.71175701846E+03  0.75669287449E+03  0.25500000920E-02 0.  1.
</event>
<event>
 5   0  0.4953155E-06  0.1800848E+04  0.7818609E-02  0.8705849E-01
       -1   -1    0    0    0  501  0.00000000000E+00  0.00000000000E+00  0.12391615751E+04  0.12391615751E+04  0.50400001928E-02 0. -1.
        1   -1    0    0  501    0  0.00000000000E+00  0.00000000000E+00 -0.65428393340E+03  0.65428393341E+03  0.50400001928E-02 0.  1.
    10030    2    1    2    0    0  0.00000000000E+00  0.00000000000E+00  0.58487764173E+03  0.18934455086E+04  0.18008481441E+04 0.  0.
        2    1    3    3  502    0  0.68397246851E+02  0.82304692029E+03  0.66960237034E+03  0.10632270457E+04  0.25500000920E-02 0. -1.
       -2    1    3    3    0  502 -0.68397246851E+02 -0.82304692029E+03 -0.84724728611E+02  0.83021846283E+03  0.25500000920E-02 0.  1.
</event>
<event>
 5   0  0.4994123E-06  0.1799940E+04  0.7818609E-02  0.8706331E-01
        1   -1    0    0  501    0  0.00000000000E+00  0.00000000000E+00  0.83590570914E+03  0.83590570916E+03  0.50400001928E-02 0.  1.
       -1   -1    0    0    0  501  0.00000000000E+00  0.00000000000E+00 -0.96894415606E+03  0.96894415608E+03  0.50400001928E-02 0. -1.
    10030    2    1    2    0    0  0.00000000000E+00  0.00000000000E+00 -0.13303844692E+03  0.18048498652E+04  0.17999399456E+04 0.  0.
        1    1    3    3  502    0  0.31040779628E+03  0.80102445879E+03 -0.33549106721E+03  0.92225128884E+03  0.50400001928E-02 0. -1.
       -1    1    3    3    0  502 -0.31040779628E+03 -0.80102445879E+03  0.20245262029E+03  0.88259857639E+03  0.50400001928E-02 0.  1.
</event>
<event>
 5   0  0.9589963E-06  0.1800084E+04  0.7818609E-02  0.8706255E-01
        2   -1    0    0  501    0  0.00000000000E+00  0.00000000000E+00  0.14010075309E+04  0.14010075309E+04  0.25500000920E-02 0.  1.
       -2   -1    0    0    0  501  0.00000000000E+00  0.00000000000E+00 -0.57820912418E+03  0.57820912418E+03  0.25500000920E-02 0. -1.
    10030    2    1    2    0    0  0.00000000000E+00  0.00000000000E+00  0.82279840671E+03  0.19792166551E+04  0.18000837063E+04 0.  0.
        2    1    3    3  502    0 -0.63625656987E+03 -0.89730143852E+02  0.11043557946E+04  0.12776837021E+04  0.25500000920E-02 0.  1.
       -2    1    3    3    0  502  0.63625656987E+03  0.89730143852E+02 -0.28155738794E+03  0.70153295298E+03  0.25500000920E-02 0. -1.
</event>
<event>
 5   0  0.1036381E-05  0.1799605E+04  0.7818609E-02  0.8706510E-01
       -2   -1    0    0    0  501  0.00000000000E+00  0.00000000000E+00  0.52177419296E+03  0.52177419296E+03  0.25500000920E-02 0. -1.
        2   -1    0    0  501    0  0.00000000000E+00  0.00000000000E+00 -0.15517144544E+04  0.15517144544E+04  0.25500000920E-02 0.  1.
    10030    2    1    2    0    0  0.00000000000E+00  0.00000000000E+00 -0.10299402614E+04  0.20734886474E+04  0.17996050202E+04 0.  0.
        4    1    3    3  502    0  0.60887429902E+03  0.18022034336E+03 -0.12495184486E+04  0.14016080945E+04  0.12699999809E+01 0.  1.
       -4    1    3    3    0  502 -0.60887429902E+03 -0.18022034336E+03  0.21957818717E+03  0.67188055289E+03  0.12699999809E+01 0. -1.
</event>
<event>
 5   0  0.4994123E-06  0.1801710E+04  0.7818609E-02  0.8705390E-01
       -1   -1    0    0    0  501  0.00000000000E+00  0.00000000000E+00  0.54840149785E+03  0.54840149788E+03  0.50400001928E-02 0.  1.
        1   -1    0    0  501    0  0.00000000000E+00  0.00000000000E+00 -0.14798281914E+04  0.14798281914E+04  0.50400001928E-02 0. -1.
    10030    2    1    2    0    0  0.00000000000E+00  0.00000000000E+00 -0.93142669352E+03  0.20282296893E+04  0.18017102950E+04 0.  0.
        1    1    3    3  502    0 -0.36263510375E+03 -0.40782697116E+03 -0.12725626497E+04  0.13846453533E+04  0.50400001928E-02 0. -1.
       -1    1    3    3    0  502  0.36263510375E+03  0.40782697116E+03  0.34113595620E+03  0.64358433598E+03  0.50400001928E-02 0.  1.
</event>
<event>
 5   0  0.9999162E-06  0.1801171E+04  0.7818609E-02  0.8705677E-01
        2   -1    0    0  501    0  0.00000000000E+00  0.00000000000E+00  0.53461352151E+03  0.53461352152E+03  0.25500000920E-02 0. -1.
       -2   -1    0    0    0  501  0.00000000000E+00  0.00000000000E+00 -0.15170848602E+04  0.15170848602E+04  0.25500000920E-02 0.  1.
    10030    2    1    2    0    0  0.00000000000E+00  0.00000000000E+00 -0.98247133871E+03  0.20516983817E+04  0.18011708187E+04 0.  0.
        1    1    3    3  502    0 -0.56617136739E+02  0.37118275918E+03  0.44120096718E+03  0.57934483199E+03  0.50400001928E-02 0. -1.
       -1    1    3    3    0  502  0.56617136739E+02 -0.37118275918E+03 -0.14236723059E+04  0.14723535498E+04  0.50400001928E-02 0.  1.
</event>
<event>
 5   0  0.4953155E-06  0.1799810E+04  0.7818609E-02  0.8706401E-01
       -1   -1    0    0    0  501  0.00000000000E+00  0.00000000000E+00  0.42177931151E+03  0.42177931154E+03  0.50400001928E-02 0. -1.
        1   -1    0    0  501    0  0.00000000000E+00  0.00000000000E+00 -0.19200292567E+04  0.19200292567E+04  0.50400001928E-02 0.  1.
    10030    2    1    2    0    0  0.00000000000E+00  0.00000000000E+00 -0.14982499452E+04  0.23418085682E+04  0.17998095655E+04 0.  0.
        2    1    3    3  502    0  0.86866349218E+03 -0.23411469934E+03 -0.77650043049E+03  0.11884186441E+04  0.25500000920E-02 0. -1.
       -2    1    3    3    0  502 -0.86866349218E+03  0.23411469934E+03 -0.72174951468E+03  0.11533899241E+04  0.25500000920E-02 0.  1.
</event>
<event>
 5   0  0.4994123E-06  0.1799851E+04  0.7818609E-02  0.8706379E-01
        1   -1    0    0  501    0  0.00000000000E+00  0.00000000000E+00  0.58764777984E+03  0.58764777986E+03  0.50400001928E-02 0. -1.
       -1   -1    0    0    0  501  0.00000000000E+00  0.00000000000E+00 -0.13781482022E+04  0.13781482022E+04  0.50400001928E-02 0.  1.
    10030    2    1    2    0    0  0.00000000000E+00  0.00000000000E+00 -0.79050042235E+03  0.19657959821E+04  0.17998508064E+04 0.  0.
        1    1    3    3  502    0 -0.67236399420E+03 -0.45853051183E+03  0.24276874522E+02  0.81419465587E+03  0.50400001928E-02 0. -1.
       -1    1    3    3    0  502  0.67236399420E+03  0.45853051183E+03 -0.81477729687E+03  0.11516013262E+04  0.50400001928E-02 0.  1.
</event>
<event>
 5   0  0.4987456E-06  0.1800154E+04  0.7818609E-02  0.8706218E-01
        1   -1    0    0  501    0  0.00000000000E+00  0.00000000000E+00  0.10647657865E+04  0.10647657865E+04  0.50400001928E-02 0. -1.
       -1   -1    0    0    0  501  0.00000000000E+00  0.00000000000E+00 -0.76086062932E+03  0.76086062934E+03  0.50400001928E-02 0.  1.
    10030    2    1    2    0    0  0.00000000000E+00  0.00000000000E+00  0.30390515713E+03  0.18256264158E+04  0.18001537339E+04 0.  0.
        3    1    3    3  502    0 -0.61772425316E+03  0.51463659269E+03 -0.25837653639E+03  0.84450726476E+03  0.10100000352E+00 0. -1.
       -3    1    3    3    0  502  0.61772425316E+03 -0.51463659269E+03  0.56228169352E+03  0.98111915104E+03  0.10100000352E+00 0.  1.
</event>
<event>
 5   0  0.4994123E-06  0.1800605E+04  0.7818609E-02  0.8705978E-01
       -1   -1    0    0    0  501  0.00000000000E+00  0.00000000000E+00  0.35486853390E+03  0.35486853393E+03  0.50400001928E-02 0.  1.
        1   -1    0    0  501    0  0.00000000000E+00  0.00000000000E+00 -0.22840701204E+04  0.22840701204E+04  0.50400001928E-02 0. -1.
    10030    2    1    2    0    0  0.00000000000E+00  0.00000000000E+00 -0.19292015865E+04  0.26389386543E+04  0.18006050261E+04 0.  0.
        1    1    3    3  502    0  0.50455262660E+03 -0.63863671253E+03 -0.15286402621E+04  0.17318115528E+04  0.50400001928E-02 0.  1.
       -1    1    3    3    0  502 -0.50455262660E+03  0.63863671253E+03 -0.40056132435E+03  0.90712710145E+03  0.50400001928E-02 0. -1.
</event>
<event>
 5   0  0.4994123E-06  0.1798835E+04  0.7818609E-02  0.8706919E-01
       -1   -1    0    0    0  501  0.00000000000E+00  0.00000000000E+00  0.46706387359E+03  0.46706387362E+03  0.50400001928E-02 0.  1.
        1   -1    0    0  501    0  0.00000000000E+00  0.00000000000E+00 -0.17319948873E+04  0.17319948873E+04  0.50400001928E-02 0. -1.
    10030    2    1    2    0    0  0.00000000000E+00  0.00000000000E+00 -0.12649310137E+04  0.21990587610E+04  0.17988354468E+04 0.  0.
        1    1    3    3  502    0  0.54461770511E+02 -0.45295238251E+03  0.31511844018E+03  0.55446512662E+03  0.50400001928E-02 0.  1.
       -1    1    3    3    0  502 -0.54461770511E+02  0.45295238251E+03 -0.15800494539E+04  0.16445936343E+04  0.50400001928E-02 0. -1.
</event>
<event>
 5   0  0.4953155E-06  0.1799849E+04  0.7818609E-02  0.8706380E-01
        1   -1    0    0  501    0  0.00000000000E+00  0.00000000000E+00  0.82104920234E+03  0.82104920236E+03  0.50400001928E-02 0.  1.
       -1   -1    0    0    0  501  0.00000000000E+00  0.00000000000E+00 -0.98637670135E+03  0.98637670136E+03  0.50400001928E-02 0. -1.
    10030    2    1    2    0    0  0.00000000000E+00  0.00000000000E+00 -0.16532749900E+03  0.18074259037E+04  0.17998486646E+04 0.  0.
        2    1    3    3  502    0 -0.87484557843E+03  0.19745097010E+03 -0.15728764407E+03  0.91053889246E+03  0.25500000920E-02 0.  1.
       -2    1    3    3    0  502  0.87484557843E+03 -0.19745097010E+03 -0.80398549374E+01  0.89688701126E+03  0.25500000920E-02 0. -1.
</event>
<event>
 5   0  0.4994123E-06  0.1800166E+04  0.7818609E-02  0.8706211E-01
       -1   -1    0    0    0  501  0.00000000000E+00  0.00000000000E+00  0.96321787024E+03  0.96321787026E+03  0.50400001928E-02 0. -1.
        1   -1    0    0  501    0  0.00000000000E+00  0.00000000000E+00 -0.84108648794E+03  0.84108648795E+03  0.50400001928E-02 0.  1.
    10030    2    1    2    0    0  0.00000000000E+00  0.00000000000E+00  0.12213138231E+03  0.18043043582E+04  0.18001661430E+04 0.  0.
        1    1    3    3  502    0 -0.10673119548E+03 -0.74714759605E+03  0.55263011228E+03  0.93542563542E+03  0.50400001928E-02 0. -1.
       -1    1    3    3    0  502  0.10673119548E+03  0.74714759605E+03 -0.43049872998E+03  0.86887872279E+03  0.50400001928E-02 0.  1.
</event>
<event>
 5   0  0.9589963E-06  0.1799803E+04  0.7818609E-02  0.8706404E-01
       -2   -1    0    0    0  501  0.00000000000E+00  0.00000000000E+00  0.99146912740E+03  0.99146912740E+03  0.25500000920E-02 0.  1.
        2   -1    0    0  501    0  0.00000000000E+00  0.00000000000E+00 -0.81679068648E+03  0.81679068648E+03  0.25500000920E-02 0. -1.
    10030    2    1    2    0    0  0.00000000000E+00  0.00000000000E+00  0.17467844092E+03  0.18082598139E+04  0.17998030439E+04 0.  0.
        2    1    3    3  502    0 -0.78264677471E+03 -0.13579781605E+03  0.51222787508E+03  0.94517427855E+03  0.25500000920E-02 0.  1.
       -2    1    3    3    0  502  0.78264677471E+03  0.13579781605E+03 -0.33754943416E+03  0.86308553534E+03  0.25500000920E-02 0. -1.
</event>
<event>
 5   0  0.4953155E-06  0.1800330E+04  0.7818609E-02  0.8706124E-01
       -1   -1    0    0    0  501  0.00000000000E+00  0.00000000000E+00  0.17792372441E+04  0.17792372441E+04  0.50400001928E-02 0. -1.
        1   -1    0    0  501    0  0.00000000000E+00  0.00000000000E+00 -0.45541807580E+03  0.45541807583E+03  0.50400001928E-02 0.  1.
    10030    2    1    2    0    0  0.00000000000E+00  0.00000000000E+00  0.13238191683E+04  0.22346553199E+04  0.18003297499E+04 0.  0.
        2    1    3    3  502    0 -0.30527822174E+03  0.82961403667E+03  0.45110726374E+03  0.99244748270E+03  0.25500000920E-02 0.  1.
       -2    1    3    3    0  502  0.30527822174E+03 -0.82961403667E+03  0.87271190456E+03  0.12422078372E+04  0.25500000920E-02 0. -1.
</event>
<event>
 5   0  0.4981384E-06  0.1800339E+04  0.7818609E-02  0.8706119E-01
       -1   -1    0    0    0  501  0.00000000000E+00  0.00000000000E+00  0.13361713964E+04  0.13361713964E+04  0.50400001928E-02 0. -1.
        1   -1    0    0  501    0  0.00000000000E+00  0.00000000000E+00 -0.60643809611E+03  0.60643809613E+03  0.50400001928E-02 0.  1.
    10030    2    1    2    0    0  0.00000000000E+00  0.00000000000E+00  0.72973330031E+03  0.19426094926E+04  0.18003391211E+04 0.  0.
        5    1    3    3  502    0  0.36663573754E+03  0.22290095815E+03  0.12187127252E+04  0.12920485276E+04  0.46999998093E+01 0. -1.
       -5    1    3    3    0  502 -0.36663573754E+03 -0.22290095815E+03 -0.48897942487E+03  0.65056096496E+03  0.46999998093E+01 0.  1.
</event>
<event>
 5   0  0.9999162E-06  0.1799485E+04  0.7818609E-02  0.8706573E-01
       -2   -1    0    0    0  501  0.00000000000E+00  0.00000000000E+00  0.53903363575E+03  0.53903363576E+03  0.25500000920E-02 0.  1.
        2   -1    0    0  501    0  0.00000000000E+00  0.00000000000E+00 -0.15018297765E+04  0.15018297765E+04  0.25500000920E-02 0. -1.
    10030    2    1    2    0    0  0.00000000000E+00  0.00000000000E+00 -0.96279614075E+03  0.20408634123E+04  0.17994852205E+04 0.  0.
        1    1    3    3  502    0  0.48146532225E+03 -0.44323945788E+03 -0.11816915594E+04  0.13508016195E+04  0.50400001928E-02 0. -1.
       -1    1    3    3    0  502 -0.48146532225E+03  0.44323945788E+03  0.21889541866E+03  0.69006179280E+03  0.50400001928E-02 0.  1.
</event>
<event>
 5   0  0.9999162E-06  0.1800733E+04  0.7818609E-02  0.8705910E-01
       -2   -1    0    0    0  501  0.00000000000E+00  0.00000000000E+00  0.94590245842E+03  0.94590245843E+03  0.25500000920E-02 0.  1.
        2   -1    0    0  501    0  0.00000000000E+00  0.00000000000E+00 -0.85702284694E+03  0.85702284694E+03  0.25500000920E-02 0. -1.
    10030    2    1    2    0    0  0.00000000000E+00  0.00000000000E+00  0.88879611485E+02  0.18029253054E+04  0.18007332038E+04 0.  0.
        1    1    3    3  502    0  0.80166284509E+03  0.33875683095E+03 -0.18658013373E+03  0.89007395987E+03  0.50400001928E-02 0. -1.
       -1    1    3    3    0  502 -0.80166284509E+03 -0.33875683095E+03  0.27545974522E+03  0.91285134550E+03  0.50400001928E-02 0.  1.
</event>
<event>
 5   0  0.9589963E-06  0.1801185E+04  0.7818609E-02  0.8705670E-01
        2   -1    0    0  501    0  0.00000000000E+00  0.00000000000E+00  0.12640697940E+04  0.12640697940E+04  0.25500000920E-02 0.  1.
       -2   -1    0    0    0  501  0.00000000000E+00  0.00000000000E+00 -0.64163141892E+03  0.64163141893E+03  0.25500000920E-02 0. -1.
    10030    2    1    2    0    0  0.00000000000E+00  0.00000000000E+00  0.62243837503E+03  0.19057012129E+04  0.18011850494E+04 0.  0.
        2    1    3    3  502    0  0.31860301500E+03 -0.63286340278E+03  0.89939326727E+03  0.11449594827E+04  0.25500000920E-02 0.  1.
       -2    1    3    3    0  502 -0.31860301500E+03  0.63286340278E+03 -0.27695489223E+03  0.76074173021E+03  0.25500000920E-02 0. -1.
</event>
<event>
 5   0  0.1000316E-05  0.1800267E+04  0.7818609E-02  0.8706157E-01
        2   -1    0    0  501    0  0.00000000000E+00  0.00000000000E+00  0.12506679526E+04  0.12506679526E+04  0.25500000920E-02 0.  1.
       -2   -1    0    0    0  501  0.00000000000E+00  0.00000000000E+00 -0.64784630055E+03  0.64784630055E+03  0.25500000920E-02 0. -1.
    10030    2    1    2    0    0  0.00000000000E+00  0.00000000000E+00  0.60282165205E+03  0.18985142532E+04  0.18002673205E+04 0.  0.
        5    1    3    3  502    0 -0.72206547983E+03  0.17216085792E+03 -0.23549097857E+03  0.77877853665E+03  0.46999998093E+01 0. -1.
       -5    1    3    3    0  502  0.72206547983E+03 -0.17216085792E+03  0.83831263062E+03  0.11197357165E+04  0.46999998093E+01 0.  1.
</event>
<event>
 5   0  0.4983159E-06  0.1800098E+04  0.7818609E-02  0.8706247E-01
       -1   -1    0    0    0  501  0.00000000000E+00  0.00000000000E+00  0.45371907248E+03  0.45371907251E+03  0.50400001928E-02 0. -1.
        1   -1    0    0  501    0  0.00000000000E+00  0.00000000000E+00 -0.17854410312E+04  0.17854410312E+04  0.50400001928E-02 0.  1.
    10030    2    1    2    0    0  0.00000000000E+00  0.00000000000E+00 -0.13317219587E+04  0.22391601037E+04  0.18000984958E+04 0.  0.
        4    1    3    3  502    0 -0.43366248821E+02 -0.85179225229E+03 -0.10234852827E+04  0.13322741495E+04  0.12699999809E+01 0. -1.
       -4    1    3    3    0  502  0.43366248821E+02  0.85179225229E+03 -0.30823667599E+03  0.90688595420E+03  0.12699999809E+01 0.  1.
</event>
<event>
 5   0  0.9999162E-06  0.1798964E+04  0.7818609E-02  0.8706851E-01
        2   -1    0    0  501    0  0.00000000000E+00  0.00000000000E+00  0.20328059652E+04  0.20328059652E+04  0.25500000920E-02 0. -1.
       -2   -1    0    0    0  501  0.00000000000E+00  0.00000000000E+00 -0.39800550709E+03  0.39800550710E+03  0.25500000920E-02 0.  1.
    10030    2    1    2    0    0  0.00000000000E+00  0.00000000000E+00  0.16348004581E+04  0.24308114723E+04  0.17989641119E+04 0.  0.
        1    1    3    3  502    0  0.35930199888E+03  0.28269806419E+03  0.18641024996E+04  0.19193473502E+04  0.50400001928E-02 0. -1.
       -1    1    3    3    0  502 -0.35930199888E+03 -0.28269806419E+03 -0.22930204148E+03  0.51146412205E+03  0.50400001928E-02 0.  1.
</event>
<event>
 5   0  0.4994123E-06  0.1801437E+04  0.7818609E-02  0.8705536E-01
       -1   -1    0    0    0  501  0.00000000000E+00  0.00000000000E+00  0.79259989791E+03  0.79259989793E+03  0.50400001928E-02 0.  1.
        1   -1    0    0  501    0  0.00000000000E+00  0.00000000000E+00 -0.10235858477E+04  0.10235858477E+04  0.50400001928E-02 0. -1.
    10030    2    1    2    0    0  0.00000000000E+00  0.00000000000E+00 -0.23098594978E+03  0.18161857456E+04  0.18014372467E+04 0.  0.
        1    1    3    3  502    0 -0.24927406948E+02 -0.60256168620E+03  0.55900759350E+03  0.82230861050E+03  0.50400001928E-02 0.  1.
       -1    1    3    3    0  502  0.24927406948E+02  0.60256168620E+03 -0.78999354328E+03  0.99387713513E+03  0.50400001928E-02 0. -1.
</event>
<event>
 5   0  0.4953155E-06  0.1800302E+04  0.7818609E-02  0.8706139E-01
       -1   -1    0    0    0  501  0.00000000000E+00  0.00000000000E+00  0.95479843727E+03  0.95479843728E+03  0.50400001928E-02 0.  1.
        1   -1    0    0  501    0  0.00000000000E+00  0.00000000000E+00 -0.84863129054E+03  0.84863129056E+03  0.50400001928E-02 0. -1.
    10030    2    1    2    0    0  0.00000000000E+00  0.00000000000E+00  0.10616714672E+03  0.18034297278E+04  0.18003020081E+04 0.  0.
        2    1    3    3  502    0 -0.40205455907E+03  0.69320246171E+03 -0.35762177942E+03  0.87753681319E+03  0.25500000920E-02 0. -1.
       -2    1    3    3    0  502  0.40205455907E+03 -0.69320246171E+03  0.46378892614E+03  0.92589291465E+03  0.25500000920E-02 0.  1.
</event>
<event>
 5   0  0.4994123E-06  0.1799560E+04  0.7818609E-02  0.8706533E-01
        1   -1    0    0  501    0  0.00000000000E+00  0.00000000000E+00  0.78126431870E+03  0.78126431872E+03  0.50400001928E-02 0.  1.
       -1   -1    0    0    0  501  0.00000000000E+00  0.00000000000E+00 -0.10362746832E+04  0.10362746832E+04  0.50400001928E-02 0. -1.
    10030    2    1    2    0    0  0.00000000000E+00  0.00000000000E+00 -0.25501036453E+03  0.18175390020E+04  0.17995604290E+04 0.  0.
        1    1    3    3  502    0  0.63902364343E+03 -0.26616270833E+03  0.45305107448E+03  0.82731437814E+03  0.50400001928E-02 0.  1.
       -1    1    3    3    0  502 -0.63902364343E+03  0.26616270833E+03 -0.70806143902E+03  0.99022462382E+03  0.50400001928E-02 0. -1.
</event>
<event>
 5   0  0.4981384E-06  0.1799896E+04  0.7818609E-02  0.8706355E-01
       -1   -1    0    0    0  501  0.00000000000E+00  0.00000000000E+00  0.82316362069E+03  0.82316362070E+03  0.50400001928E-02 0.  1.
        1   -1    0    0  501    0  0.00000000000E+00  0.00000000000E+00 -0.98389449195E+03  0.98389449197E+03  0.50400001928E-02 0. -1.
    10030    2    1    2    0    0  0.00000000000E+00  0.00000000000E+00 -0.16073087127E+03  0.18070581127E+04  0.17998957219E+04 0.  0.
        5    1    3    3  502    0  0.21406095581E+03  0.78332444825E+03 -0.46980690873E+03  0.93816837802E+03  0.46999998093E+01 0.  1.
       -5    1    3    3    0  502 -0.21406095581E+03 -0.78332444825E+03  0.30907603747E+03  0.86888973464E+03  0.46999998093E+01 0. -1.
</event>
<event>
 5   0  0.4953155E-06  0.1799814E+04  0.7818609E-02  0.8706398E-01
        1   -1    0    0  501    0  0.00000000000E+00  0.00000000000E+00  0.18456726022E+04  0.18456726022E+04  0.50400001928E-02 0. -1.
       -1   -1    0    0    0  501  0.00000000000E+00  0.00000000000E+00 -0.43877365339E+03  0.43877365342E+03  0.50400001928E-02 0.  1.
    10030    2    1    2    0    0  0.00000000000E+00  0.00000000000E+00  0.14068989488E+04  0.22844462556E+04  0.17998138911E+04 0.  0.
        2    1    3    3  502    0 -0.54324647444E+03 -0.65839883770E+03  0.34170418708E+03  0.91943869451E+03  0.25500000920E-02 0.  1.
       -2    1    3    3    0  502  0.54324647444E+03  0.65839883770E+03  0.10651947617E+04  0.13650075611E+04  0.25500000920E-02 0. -1.
</event>
<event>
 5   0  0.9999162E-06  0.1799295E+04  0.7818609E-02  0.8706674E-01
       -2   -1    0    0    0  501  0.00000000000E+00  0.00000000000E+00  0.56194618572E+03  0.56194618572E+03  0.25500000920E-02 0.  1.
        2   -1    0    0  501    0  0.00000000000E+00  0.00000000000E+00 -0.14402904938E+04  0.14402904938E+04  0.25500000920E-02 0. -1.
    10030    2    1    2    0    0  0.00000000000E+00  0.00000000000E+00 -0.87834430805E+03  0.20022366795E+04  0.17992951390E+04 0.  0.
        1    1    3    3  502    0  0.36807007796E+03  0.81973100379E+03 -0.48807476828E+03  0.10225710148E+04  0.50400001928E-02 0.  1.
       -1    1    3    3    0  502 -0.36807007796E+03 -0.81973100379E+03 -0.39026953977E+03  0.97966566468E+03  0.50400001928E-02 0. -1.
</event>
<event>
 5   0  0.1035018E-05  0.1799634E+04  0.7818609E-02  0.8706494E-01
        2   -1    0    0  501    0  0.00000000000E+00  0.00000000000E+00  0.18687724692E+04  0.18687724692E+04  0.25500000920E-02 0. -1.
       -2   -1    0    0    0  501  0.00000000000E+00  0.00000000000E+00 -0.43326330468E+03  0.43326330469E+03  0.25500000920E-02 0.  1.
    10030    2    1    2    0    0  0.00000000000E+00  0.00000000000E+00  0.14355091645E+04  0.23020357739E+04  0.17996338913E+04 0.  0.
        3    1    3    3  502    0 -0.16802270471E+03 -0.32017462609E+03 -0.33624267009E+03  0.49376367209E+03  0.10100000352E+00 0.  1.
       -3    1    3    3    0  502  0.16802270471E+03  0.32017462609E+03  0.17717518346E+04  0.18082721018E+04  0.10100000352E+00 0. -1.
</event>
<event>
 5   0  0.4994123E-06  0.1800126E+04  0.7818609E-02  0.8706232E-01
        1   -1    0    0  501    0  0.00000000000E+00  0.00000000000E+00  0.16056786402E+04  0.16056786403E+04  0.50400001928E-02 0.  1.
       -1   -1    0    0    0  501  0.00000000000E+00  0.00000000000E+00 -0.50453032074E+03  0.50453032076E+03  0.50400001928E-02 0. -1.
    10030    2    1    2    0    0  0.00000000000E+00  0.00000000000E+00  0.11011483195E+04  0.21102089610E+04  0.18001261727E+04 0.  0.
        1    1    3    3  502    0 -0.48977597771E+03  0.62745649074E+03  0.10431050839E+04  0.13121167525E+04  0.50400001928E-02 0.  1.
       -1    1    3    3    0  502  0.48977597771E+03 -0.62745649074E+03  0.58043235651E+02  0.79809220855E+03  0.50400001928E-02 0. -1.
</event>
<event>
 5   0  0.4953155E-06  0.1799744E+04  0.7818609E-02  0.8706436E-01
        1   -1    0    0  501    0  0.00000000000E+00  0.00000000000E+00  0.18502855947E+04  0.18502855948E+04  0.50400001928E-02 0.  1.
       -1   -1    0    0    0  501  0.00000000000E+00  0.00000000000E+00 -0.43764572289E+03  0.43764572292E+03  0.50400001928E-02 0. -1.
    10030    2    1    2    0    0  0.00000000000E+00  0.00000000000E+00  0.14126398719E+04  0.22879313177E+04  0.17997439559E+04 0.  0.
        2    1    3    3  502    0  0.50884371259E+03 -0.67894990405E+03  0.10874304581E+04  0.13792751347E+04  0.25500000920E-02 0.  1.
       -2    1    3    3    0  502 -0.50884371259E+03  0.67894990405E+03  0.32520941378E+03  0.90865618298E+03  0.25500000920E-02 0. -1.
</event>
<event>
 5   0  0.4994123E-06  0.1799428E+04  0.7818609E-02  0.8706604E-01
       -1   -1    0    0    0  501  0.00000000000E+00  0.00000000000E+00  0.90613901810E+03  0.90613901811E+03  0.50400001928E-02 0.  1.
        1   -1    0    0  501    0  0.00000000000E+00  0.00000000000E+00 -0.89333486319E+03  0.89333486320E+03  0.50400001928E-02 0. -1.
    10030    2    1    2    0    0  0.00000000000E+00  0.00000000000E+00  0.12804154911E+02  0.17994738813E+04  0.17994283268E+04 0.  0.
        1    1    3    3  502    0  0.86518456795E+03 -0.24321535787E+03  0.48682325212E+02  0.90003778572E+03  0.50400001928E-02 0. -1.
       -1    1    3    3    0  502 -0.86518456795E+03  0.24321535787E+03 -0.35878170300E+02  0.89943609559E+03  0.50400001928E-02 0.  1.
</event>
<event>
 5   0  0.4953155E-06  0.1800354E+04  0.7818609E-02  0.8706111E-01
        1   -1    0    0  501    0  0.00000000000E+00  0.00000000000E+00  0.10312948428E+04  0.10312948428E+04  0.50400001928E-02 0. -1.
       -1   -1    0    0    0  501  0.00000000000E+00  0.00000000000E+00 -0.78572973712E+03  0.78572973713E+03  0.50400001928E-02 0.  1.
    10030    2    1    2    0    0  0.00000000000E+00  0.00000000000E+00  0.24556510570E+03  0.18170245800E+04  0.18003544382E+04 0.  0.
        2    1    3    3  502    0  0.24335657611E+03 -0.61525565469E+03  0.73880877690E+03  0.99176627922E+03  0.25500000920E-02 0. -1.
       -2    1    3    3    0  502 -0.24335657611E+03  0.61525565469E+03 -0.49324367120E+03  0.82525830074E+03  0.25500000920E-02 0.  1.
</event>
<event>
 5   0  0.4987456E-06  0.1799590E+04  0.7818609E-02  0.8706518E-01
       -1   -1    0    0    0  501  0.00000000000E+00  0.00000000000E+00  0.92821696451E+03  0.92821696453E+03  0.50400001928E-02 0. -1.
        1   -1    0    0  501    0  0.00000000000E+00  0.00000000000E+00 -0.87224295782E+03  0.87224295784E+03  0.50400001928E-02 0.  1.
    10030    2    1    2    0    0  0.00000000000E+00  0.00000000000E+00  0.55974006687E+02  0.18004599224E+04  0.17995896317E+04 0.  0.
        3    1    3    3  502    0  0.86443023589E+03  0.24938897278E+03  0.13972803019E+02  0.89979427754E+03  0.10100000352E+00 0.  1.
       -3    1    3    3    0  502 -0.86443023589E+03 -0.24938897278E+03  0.42001203669E+02  0.90066564483E+03  0.10100000352E+00 0. -1.
</event>
<event>
 5   0  0.9999162E-06  0.1802611E+04  0.7818609E-02  0.8704912E-01
        2   -1    0    0  501    0  0.00000000000E+00  0.00000000000E+00  0.16405108254E+04  0.16405108254E+04  0.25500000920E-02 0.  1.
       -2   -1    0    0    0  501  0.00000000000E+00  0.00000000000E+00 -0.49518212871E+03  0.49518212871E+03  0.25500000920E-02 0. -1.
    10030    2    1    2    0    0  0.00000000000E+00  0.00000000000E+00  0.11453286967E+04  0.21356929541E+04  0.18026110426E+04 0.  0.
        1    1    3    3  502    0 -0.24262822976E+03 -0.20325353862E+03  0.15725008465E+04  0.16040384569E+04  0.50400001928E-02 0.  1.
       -1    1    3    3    0  502  0.24262822976E+03  0.20325353862E+03 -0.42717214981E+03  0.53165449724E+03  0.50400001928E-02 0. -1.
</event>
<event>
 5   0  0.4981384E-06  0.1799025E+04  0.7818609E-02  0.8706818E-01
       -1   -1    0    0    0  501  0.00000000000E+00  0.00000000000E+00  0.10834899613E+04  0.10834899613E+04  0.50400001928E-02 0. -1.
        1   -1    0    0  501    0  0.00000000000E+00  0.00000000000E+00 -0.74677496174E+03  0.74677496176E+03  0.50400001928E-02 0.  1.
    10030    2    1    2    0    0  0.00000000000E+00  0.00000000000E+00  0.33671499953E+03  0.18302649231E+04  0.17990254855E+04 0.  0.
        5    1    3    3  502    0 -0.54935574043E+03  0.36533378465E+03  0.79039971899E+03  0.10295699634E+04  0.46999998093E+01 0. -1.
       -5    1    3    3    0  502  0.54935574043E+03 -0.36533378465E+03 -0.45368471945E+03  0.80069495965E+03  0.46999998093E+01 0.  1.
</event>
<event>
 5   0  0.9589963E-06  0.1799801E+04  0.7818609E-02  0.8706406E-01
        2   -1    0    0  501    0  0.00000000000E+00  0.00000000000E+00  0.83401896520E+03  0.83401896520E+03  0.25500000920E-02 0. -1.
       -2   -1    0    0    0  501  0.00000000000E+00  0.00000000000E+00 -0.97098577559E+03  0.97098577559E+03  0.25500000920E-02 0.  1.
    10030    2    1    2    0    0  0.00000000000E+00  0.00000000000E+00 -0.13696681039E+03  0.18050047408E+04  0.17998006020E+04 0.  0.
        2    1    3    3  502    0 -0.11489661530E+03  0.69989727394E+01 -0.96357198948E+03  0.97042320497E+03  0.25500000920E-02 0.  1.
       -2    1    3    3    0  502  0.11489661530E+03 -0.69989727394E+01  0.82660517909E+03  0.83458153582E+03  0.25500000920E-02 0. -1.
</event>
<event>
 5   0  0.4953155E-06  0.1799647E+04  0.7818609E-02  0.8706487E-01
        1   -1    0    0  501    0  0.00000000000E+00  0.00000000000E+00  0.10667889179E+04  0.10667889179E+04  0.50400001928E-02 0. -1.
       -1   -1    0    0    0  501  0.00000000000E+00  0.00000000000E+00 -0.75899019678E+03  0.75899019679E+03  0.50400001928E-02 0.  1.
    10030    2    1    2    0    0  0.00000000000E+00  0.00000000000E+00  0.30779872113E+03  0.18257791147E+04  0.17996469995E+04 0.  0.
        2    1    3    3  502    0  0.81664336835E+03 -0.34296802200E+03 -0.69873580579E+01  0.88576649201E+03  0.25500000920E-02 0. -1.
       -2    1    3    3    0  502 -0.81664336835E+03  0.34296802200E+03  0.31478607918E+03  0.94001262270E+03  0.25500000920E-02 0.  1.
</event>
<event>
 5   0  0.1035018E-05  0.1799581E+04  0.7818609E-02  0.8706522E-01
        2   -1    0    0  501    0  0.00000000000E+00  0.00000000000E+00  0.18318708007E+04  0.18318708007E+04  0.25500000920E-02 0.  1.
       -2   -1    0    0    0  501  0.00000000000E+00  0.00000000000E+00 -0.44196511930E+03  0.44196511931E+03  0.25500000920E-02 0. -1.
    10030    2    1    2    0    0  0.00000000000E+00  0.00000000000E+00  0.13899056814E+04  0.22738359200E+04  0.17995810590E+04 0.  0.
        3    1    3    3  502    0 -0.87941254628E+02 -0.62897096276E+03 -0.11043120781E+03  0.64461864550E+03  0.10100000352E+00 0. -1.
       -3    1    3    3    0  502  0.87941254628E+02  0.62897096276E+03  0.15003368892E+04  0.16292172745E+04  0.10100000352E+00 0.  1.
</event>
<event>
 5   0  0.4994123E-06  0.1799450E+04  0.7818609E-02  0.8706592E-01
       -1   -1    0    0    0  501  0.00000000000E+00  0.00000000000E+00  0.76812352873E+03  0.76812352875E+03  0.50400001928E-02 0. -1.
        1   -1    0    0  501    0  0.00000000000E+00  0.00000000000E+00 -0.10538738862E+04  0.10538738862E+04  0.50400001928E-02 0.  1.
    10030    2    1    2    0    0  0.00000000000E+00  0.00000000000E+00 -0.28575035742E+03  0.18219974149E+04  0.17994502808E+04 0.  0.
        1    1    3    3  502    0  0.50193044670E+03  0.61683138095E+03 -0.56896893672E+03  0.97782451229E+03  0.50400001928E-02 0.  1.
       -1    1    3    3    0  502 -0.50193044670E+03 -0.61683138095E+03  0.28321857929E+03  0.84417290263E+03  0.50400001928E-02 0. -1.
</event>
<event>
 5   0  0.1035018E-05  0.1799746E+04  0.7818609E-02  0.8706434E-01
       -2   -1    0    0    0  501  0.00000000000E+00  0.00000000000E+00  0.54563491382E+03  0.54563491383E+03  0.25500000920E-02 0.  1.
        2   -1    0    0  501    0  0.00000000000E+00  0.00000000000E+00 -0.14840908243E+04  0.14840908243E+04  0.25500000920E-02 0. -1.
    10030    2    1    2    0    0  0.00000000000E+00  0.00000000000E+00 -0.93845591044E+03  0.20297257381E+04  0.17997463921E+04 0.  0.
        3    1    3    3  502    0 -0.88965485514E+02  0.81800243360E+03 -0.58353797085E+02  0.82489272928E+03  0.10100000352E+00 0.  1.
       -3    1    3    3    0  502  0.88965485514E+02 -0.81800243360E+03 -0.88010211336E+03  0.12048330088E+04  0.10100000352E+00 0. -1.
</event>
<event>
 5   0  0.4987456E-06  0.1801303E+04  0.7818609E-02  0.8705607E-01
       -1   -1    0    0    0  501  0.00000000000E+00  0.00000000000E+00  0.61487554441E+03  0.61487554443E+03  0.50400001928E-02 0. -1.
        1   -1    0    0  501    0  0.00000000000E+00  0.00000000000E+00 -0.13192481301E+04  0.13192481301E+04  0.50400001928E-02 0.  1.
    10030    2    1    2    0    0  0.00000000000E+00  0.00000000000E+00 -0.70437258568E+03  0.19341236745E+04  0.18013033195E+04 0.  0.
        3    1    3    3  502    0 -0.23056967340E+03 -0.86908829723E+03 -0.40794367609E+03  0.98736765986E+03  0.10100000352E+00 0.  1.
       -3    1    3    3    0  502  0.23056967340E+03  0.86908829723E+03 -0.29642890959E+03  0.94675601467E+03  0.10100000352E+00 0. -1.
</event>
<event>
 5   0  0.4981384E-06  0.1797054E+04  0.7818609E-02  0.8707868E-01
        1   -1    0    0  501    0  0.00000000000E+00  0.00000000000E+00  0.10814917302E+04  0.10814917302E+04  0.50400001928E-02 0. -1.
       -1   -1    0    0    0  501  0.00000000000E+00  0.00000000000E+00 -0.74651549641E+03  0.74651549643E+03  0.50400001928E-02 0.  1.
    10030    2    1    2    0    0  0.00000000000E+00  0.00000000000E+00  0.33497623377E+03  0.18280072266E+04  0.17970535171E+04 0.  0.
        5    1    3    3  502    0  0.12309644536E+03 -0.88949103671E+03  0.19935188462E+03  0.91984254259E+03  0.46999998093E+01 0.  1.
       -5    1    3    3    0  502 -0.12309644536E+03  0.88949103671E+03  0.13562434915E+03  0.90816468404E+03  0.46999998093E+01 0. -1.
</event>
<event>
 5   0  0.4987456E-06  0.1799932E+04  0.7818609E-02  0.8706335E-01
       -1   -1    0    0    0  501  0.00000000000E+00  0.00000000000E+00  0.57755215012E+03  0.57755215014E+03  0.50400001928E-02 0.  1.
        1   -1    0    0  501    0  0.00000000000E+00  0.00000000000E+00 -0.14023652437E+04  0.14023652437E+04  0.50400001928E-02 0. -1.
    10030    2    1    2    0    0  0.00000000000E+00  0.00000000000E+00 -0.82481309358E+03  0.19799173938E+04  0.17999322896E+04 0.  0.
        3    1    3    3  502    0  0.19507914020E+03 -0.55846854695E+03  0.33364349702E+03  0.67916197050E+03  0.10100000352E+00 0.  1.
       -3    1    3    3    0  502 -0.19507914020E+03  0.55846854695E+03 -0.11584565906E+04  0.13007554233E+04  0.10100000352E+00 0. -1.
</event>
<event>
 5   0  0.1000316E-05  0.1799936E+04  0.7818609E-02  0.8706334E-01
       -2   -1    0    0    0  501  0.00000000000E+00  0.00000000000E+00  0.63827233008E+03  0.63827233009E+03  0.25500000920E-02 0.  1.
        2   -1    0    0  501    0  0.00000000000E+00  0.00000000000E+00 -0.12689604270E+04  0.12689604270E+04  0.25500000920E-02 0. -1.
    10030    2    1    2    0    0  0.00000000000E+00  0.00000000000E+00 -0.63068809689E+03  0.19072327571E+04  0.17999359194E+04 0.  0.
        5    1    3    3  502    0  0.47208333149E+03  0.76457976687E+03 -0.36806274636E+03  0.97104951832E+03  0.46999998093E+01 0. -1.
       -5    1    3    3    0  502 -0.47208333149E+03 -0.76457976687E+03 -0.26262535053E+03  0.93618323875E+03  0.46999998093E+01 0.  1.
</event>
<event>
 5   0  0.9999162E-06  0.1799739E+04  0.7818609E-02  0.8706438E-01
        2   -1    0    0  501    0  0.00000000000E+00  0.00000000000E+00  0.11767656788E+04  0.11767656788E+04  0.25500000920E-02 0. -1.
       -2   -1    0    0    0  501  0.00000000000E+00  0.00000000000E+00 -0.68812785906E+03  0.68812785907E+03  0.25500000920E-02 0.  1.
    10030    2    1    2    0    0  0.00000000000E+00  0.00000000000E+00  0.48863781974E+03  0.18648935379E+04  0.17997391446E+04 0.  0.
        1    1    3    3  502    0 -0.21338569121E+03  0.87031836307E+03  0.32962635995E+03  0.95479895450E+03  0.50400001928E-02 0. -1.
       -1    1    3    3    0  502  0.21338569121E+03 -0.87031836307E+03  0.15901145979E+03  0.91009458337E+03  0.50400001928E-02 0.  1.
</event>
<event>
 5   0  0.9999162E-06  0.1802682E+04  0.7818609E-02  0.8704875E-01
       -2   -1    0    0    0  501  0.00000000000E+00  0.00000000000E+00  0.18559135423E+04  0.18559135423E+04  0.25500000920E-02 0. -1.
        2   -1    0    0  501    0  0.00000000000E+00  0.00000000000E+00 -0.43774412512E+03  0.43774412512E+03  0.25500000920E-02 0.  1.
    10030    2    1    2    0    0  0.00000000000E+00  0.00000000000E+00  0.14181694172E+04  0.22936576675E+04  0.18026816135E+04 0.  0.
        1    1    3    3  502    0  0.30166180961E+03  0.84862409661E+03  0.66405426085E+03  0.11189864906E+04  0.50400001928E-02 0.  1.
       -1    1    3    3    0  502 -0.30166180961E+03 -0.84862409661E+03  0.75411515638E+03  0.11746711769E+04  0.50400001928E-02 0. -1.
</event>
<event>
 5   0  0.4953155E-06  0.1801513E+04  0.7818609E-02  0.8705495E-01
        1   -1    0    0  501    0  0.00000000000E+00  0.00000000000E+00  0.15830452836E+04  0.15830452836E+04  0.50400001928E-02 0.  1.
       -1   -1    0    0    0  501  0.00000000000E+00  0.00000000000E+00 -0.51253276041E+03  0.51253276044E+03  0.50400001928E-02 0. -1.
    10030    2    1    2    0    0  0.00000000000E+00  0.00000000000E+00  0.10705125232E+04  0.20955780440E+04  0.18015133295E+04 0.  0.
        2    1    3    3  502    0  0.53053795688E+03 -0.50051268848E+02  0.13800117756E+04  0.14793269260E+04  0.25500000920E-02 0.  1.
       -2    1    3    3    0  502 -0.53053795688E+03  0.50051268848E+02 -0.30949925243E+03  0.61625111802E+03  0.25500000920E-02 0. -1.
</event>
<event>
 5   0  0.3626125E-06  0.1799400E+04  0.7818609E-02  0.8706619E-01
       -4   -1    0    0    0  501  0.00000000000E+00  0.00000000000E+00  0.10800940286E+04  0.10800947752E+04  0.12699999809E+01 0. -1.
        4   -1    0    0  501    0  0.00000000000E+00  0.00000000000E+00 -0.74943341661E+03  0.74943449269E+03  0.12699999809E+01 0.  1.
    10030    2    1    2    0    0  0.00000000000E+00  0.00000000000E+00  0.33066061194E+03  0.18295292679E+04  0.17994001505E+04 0.  0.
        3    1    3    3  502    0  0.16132196520E+03  0.84070968516E+03  0.44680989297E+03  0.96563794552E+03  0.10100000352E+00 0. -1.
       -3    1    3    3    0  502 -0.16132196520E+03 -0.84070968516E+03 -0.11614928103E+03  0.86389132237E+03  0.10100000352E+00 0.  1.
</event>
<event>
 5   0  0.9589963E-06  0.1799451E+04  0.7818609E-02  0.8706591E-01
        2   -1    0    0  501    0  0.00000000000E+00  0.00000000000E+00  0.15076885562E+04  0.15076885562E+04  0.25500000920E-02 0.  1.
       -2   -1    0    0    0  501  0.00000000000E+00  0.00000000000E+00 -0.53691882711E+03  0.53691882711E+03  0.25500000920E-02 0. -1.
    10030    2    1    2    0    0  0.00000000000E+00  0.00000000000E+00  0.97076972909E+03  0.20446073833E+04  0.17994514400E+04 0.  0.
        2    1    3    3  502    0 -0.18084114301E+00  0.89875576413E+03  0.53284125423E+03  0.10448357567E+04  0.25500000920E-02 0. -1.
       -2    1    3    3    0  502  0.18084114301E+00 -0.89875576413E+03  0.43792847486E+03  0.99977162661E+03  0.25500000920E-02 0.  1.
</event>
<event>
 5   0  0.4981384E-06  0.1798368E+04  0.7818609E-02  0.8707168E-01
        1   -1    0    0  501    0  0.00000000000E+00  0.00000000000E+00  0.66431562902E+03  0.66431562904E+03  0.50400001928E-02 0.  1.
       -1   -1    0    0    0  501  0.00000000000E+00  0.00000000000E+00 -0.12170898649E+04  0.12170898649E+04  0.50400001928E-02 0. -1.
    10030    2    1    2    0    0  0.00000000000E+00  0.00000000000E+00 -0.55277423592E+03  0.18814054940E+04  0.17983679481E+04 0.  0.
        5    1    3    3  502    0 -0.89175221365E+03  0.24008893330E+02 -0.39433732213E+03  0.97535760167E+03  0.46999998093E+01 0. -1.
       -5    1    3    3    0  502  0.89175221365E+03 -0.24008893330E+02 -0.15843691379E+03  0.90604789231E+03  0.46999998093E+01 0.  1.
</event>
<event>
 5   0  0.4983159E-06  0.1798739E+04  0.7818609E-02  0.8706971E-01
        1   -1    0    0  501    0  0.00000000000E+00  0.00000000000E+00  0.72009452547E+03  0.72009452549E+03  0.50400001928E-02 0.  1.
       -1   -1    0    0    0  501  0.00000000000E+00  0.00000000000E+00 -0.11232762392E+04  0.11232762392E+04  0.50400001928E-02 0. -1.
    10030    2    1    2    0    0  0.00000000000E+00  0.00000000000E+00 -0.40318171376E+03  0.18433707647E+04  0.17987385252E+04 0.  0.
        4    1    3    3  502    0  0.13533691808E+03 -0.27374451841E+03 -0.10685193128E+04  0.11112998144E+04  0.12699999809E+01 0. -1.
       -4    1    3    3    0  502 -0.13533691808E+03  0.27374451841E+03  0.66533759903E+03  0.73207095034E+03  0.12699999809E+01 0.  1.
</event>
<event>
 5   0  0.4987456E-06  0.1800802E+04  0.7818609E-02  0.8705873E-01
       -1   -1    0    0    0  501  0.00000000000E+00  0.00000000000E+00  0.94781068555E+03  0.94781068556E+03  0.50400001928E-02 0. -1.
        1   -1    0    0  501    0  0.00000000000E+00  0.00000000000E+00 -0.85536317367E+03  0.85536317368E+03  0.50400001928E-02 0.  1.
    10030    2    1    2    0    0  0.00000000000E+00  0.00000000000E+00  0.92447511882E+02  0.18031738592E+04  0.18008024390E+04 0.  0.
        3    1    3    3  502    0  0.39762607222E+03  0.57768098359E+03  0.61168019722E+03  0.93057750133E+03  0.10100000352E+00 0. -1.
       -3    1    3    3    0  502 -0.39762607222E+03 -0.57768098359E+03 -0.51923268534E+03  0.87259635791E+03  0.10100000352E+00 0.  1.
</event>
<event>
 5   0  0.4981384E-06  0.1799906E+04  0.7818609E-02  0.8706349E-01
        1   -1    0    0  501    0  0.00000000000E+00  0.00000000000E+00  0.14005791758E+04  0.14005791758E+04  0.50400001928E-02 0. -1.
       -1   -1    0    0    0  501  0.00000000000E+00  0.00000000000E+00 -0.57827188168E+03  0.57827188170E+03  0.50400001928E-02 0.  1.
    10030    2    1    2    0    0  0.00000000000E+00  0.00000000000E+00  0.82230729412E+03  0.19788510575E+04  0.17999061703E+04 0.  0.
        5    1    3    3  502    0  0.50259037515E+03  0.61132568564E+03 -0.59902542250E+02  0.79367914404E+03  0.46999998093E+01 0.  1.
       -5    1    3    3    0  502 -0.50259037515E+03 -0.61132568564E+03  0.88220983637E+03  0.11851719135E+04  0.46999998093E+01 0. -1.
</event>
<event>
 5   0  0.9589963E-06  0.1800129E+04  0.7818609E-02  0.8706231E-01
       -2   -1    0    0    0  501  0.00000000000E+00  0.00000000000E+00  0.12668580906E+04  0.12668580906E+04  0.25500000920E-02 0.  1.
        2   -1    0    0  501    0  0.00000000000E+00  0.00000000000E+00 -0.63946863912E+03  0.63946863912E+03  0.25500000920E-02 0. -1.
    10030    2    1    2    0    0  0.00000000000E+00  0.00000000000E+00  0.62738945148E+03  0.19063267297E+04  0.18001289056E+04 0.  0.
        2    1    3    3  502    0 -0.10124422534E+03 -0.35559212951E+03  0.11827285754E+04  0.12391703026E+04  0.25500000920E-02 0.  1.
       -2    1    3    3    0  502  0.10124422534E+03  0.35559212951E+03 -0.55533912391E+03  0.66715642715E+03  0.25500000920E-02 0. -1.
</event>
<event>
 5   0  0.9589963E-06  0.1786621E+04  0.7818609E-02  0.8713447E-01
       -2   -1    0    0    0  501  0.00000000000E+00  0.00000000000E+00  0.42876213366E+03  0.42876213366E+03  0.25500000920E-02 0. -1.
        2   -1    0    0  501    0  0.00000000000E+00  0.00000000000E+00 -0.18611801161E+04  0.18611801161E+04  0.25500000920E-02 0.  1.
    10030    2    1    2    0    0  0.00000000000E+00  0.00000000000E+00 -0.14324179825E+04  0.22899422498E+04  0.17866208974E+04 0.  0.
        2    1    3    3  502    0  0.13234812039E+03 -0.42143243051E+03  0.27898642139E+03  0.52245070751E+03  0.25500000920E-02 0. -1.
       -2    1    3    3    0  502 -0.13234812039E+03  0.42143243051E+03 -0.17114044038E+04  0.17674915423E+04  0.25500000920E-02 0.  1.
</event>
<event>
 5   0  0.4983159E-06  0.1797538E+04  0.7818609E-02  0.8707610E-01
        1   -1    0    0  501    0  0.00000000000E+00  0.00000000000E+00  0.84204712082E+03  0.84204712084E+03  0.50400001928E-02 0. -1.
       -1   -1    0    0    0  501  0.00000000000E+00  0.00000000000E+00 -0.95931210508E+03  0.95931210510E+03  0.50400001928E-02 0.  1.
    10030    2    1    2    0    0  0.00000000000E+00  0.00000000000E+00 -0.11726498426E+03  0.18013592259E+04  0.17975383123E+04 0.  0.
        4    1    3    3  502    0  0.84232670247E+02  0.46397316948E+03  0.70812011220E+03  0.85076550878E+03  0.12699999809E+01 0. -1.
       -4    1    3    3    0  502 -0.84232670247E+02 -0.46397316948E+03 -0.82538509646E+03  0.95059371715E+03  0.12699999809E+01 0.  1.
</event>
<event>
 5   0  0.4994123E-06  0.1799892E+04  0.7818609E-02  0.8706357E-01
        1   -1    0    0  501    0  0.00000000000E+00  0.00000000000E+00  0.63572824067E+03  0.63572824069E+03  0.50400001928E-02 0.  1.
       -1   -1    0    0    0  501  0.00000000000E+00  0.00000000000E+00 -0.12739763345E+04  0.12739763345E+04  0.50400001928E-02 0. -1.
    10030    2    1    2    0    0  0.00000000000E+00  0.00000000000E+00 -0.63824809382E+03  0.19097045752E+04  0.17998919232E+04 0.  0.
        1    1    3    3  502    0 -0.39936558137E+02 -0.38120354270E+03 -0.11830445766E+04  0.12435857590E+04  0.50400001928E-02 0. -1.
       -1    1    3    3    0  502  0.39936558137E+02  0.38120354270E+03  0.54479648279E+03  0.66611881622E+03  0.50400001928E-02 0.  1.
</event>
<event>
 5   0  0.4994123E-06  0.1800515E+04  0.7818609E-02  0.8706026E-01
        1   -1    0    0  501    0  0.00000000000E+00  0.00000000000E+00  0.10573283895E+04  0.10573283895E+04  0.50400001928E-02 0. -1.
       -1   -1    0    0    0  501  0.00000000000E+00  0.00000000000E+00 -0.76652006863E+03  0.76652006864E+03  0.50400001928E-02 0.  1.
    10030    2    1    2    0    0  0.00000000000E+00  0.00000000000E+00  0.29080832089E+03  0.18238484582E+04  0.18005148483E+04 0.  0.
        1    1    3    3  502    0  0.52549098738E+03  0.23794055999E+03  0.84552470079E+03  0.10235567925E+04  0.50400001928E-02 0. -1.
       -1    1    3    3    0  502 -0.52549098738E+03 -0.23794055999E+03 -0.55471637990E+03  0.80029166562E+03  0.50400001928E-02 0.  1.
</event>
<event>
 5   0  0.4981384E-06  0.1800175E+04  0.7818609E-02  0.8706206E-01
        1   -1    0    0  501    0  0.00000000000E+00  0.00000000000E+00  0.23338970774E+04  0.23338970774E+04  0.50400001928E-02 0.  1.
       -1   -1    0    0    0  501  0.00000000000E+00  0.00000000000E+00 -0.34712659374E+03  0.34712659378E+03  0.50400001928E-02 0. -1.
    10030    2    1    2    0    0  0.00000000000E+00  0.00000000000E+00  0.19867704837E+04  0.26810236712E+04  0.18001752611E+04 0.  0.
        5    1    3    3  502    0  0.11155046987E+03 -0.75433624243E+03  0.28120571396E+03  0.81275175640E+03  0.46999998093E+01 0.  1.
       -5    1    3    3    0  502 -0.11155046987E+03  0.75433624243E+03  0.17055647697E+04  0.18682719148E+04  0.46999998093E+01 0. -1.
</event>
<event>
 5   0  0.1036381E-05  0.1801683E+04  0.7818609E-02  0.8705405E-01
        2   -1    0    0  501    0  0.00000000000E+00  0.00000000000E+00  0.11230195151E+04  0.11230195151E+04  0.25500000920E-02 0. -1.
       -2   -1    0    0    0  501  0.00000000000E+00  0.00000000000E+00 -0.72261904310E+03  0.72261904311E+03  0.25500000920E-02 0.  1.
    10030    2    1    2    0    0  0.00000000000E+00  0.00000000000E+00  0.40040047204E+03  0.18456385583E+04  0.18016828660E+04 0.  0.
        4    1    3    3  502    0 -0.52127596747E+03  0.67306739520E+02 -0.54926002335E+03  0.76022826677E+03  0.12699999809E+01 0.  1.
       -4    1    3    3    0  502  0.52127596747E+03 -0.67306739520E+02  0.94966049539E+03  0.10854102915E+04  0.12699999809E+01 0. -1.
</event>
<event>
 5   0  0.1035018E-05  0.1799619E+04  0.7818609E-02  0.8706502E-01
        2   -1    0    0  501    0  0.00000000000E+00  0.00000000000E+00  0.10951487764E+04  0.10951487764E+04  0.25500000920E-02 0. -1.
       -2   -1    0    0    0  501  0.00000000000E+00  0.00000000000E+00 -0.73931235654E+03  0.73931235654E+03  0.25500000920E-02 0.  1.
    10030    2    1    2    0    0  0.00000000000E+00  0.00000000000E+00  0.35583641987E+03  0.18344611330E+04  0.17996188737E+04 0.  0.
        3    1    3    3  502    0  0.20016683057E+03 -0.65597976879E+02  0.10696621942E+04  0.10902050608E+04  0.10100000352E+00 0. -1.
       -3    1    3    3    0  502 -0.20016683057E+03  0.65597976879E+02 -0.71382577435E+03  0.74425607216E+03  0.10100000352E+00 0.  1.
</event>
<event>
 5   0  0.9999162E-06  0.1801102E+04  0.7818609E-02  0.8705714E-01
        2   -1    0    0  501    0  0.00000000000E+00  0.00000000000E+00  0.61814925081E+03  0.61814925082E+03  0.25500000920E-02 0.  1.
       -2   -1    0    0    0  501  0.00000000000E+00  0.00000000000E+00 -0.13119674305E+04  0.13119674305E+04  0.25500000920E-02 0. -1.
    10030    2    1    2    0    0  0.00000000000E+00  0.00000000000E+00 -0.69381817965E+03  0.19301166813E+04  0.18011015343E+04 0.  0.
        1    1    3    3  502    0 -0.32805290282E+03 -0.67674088708E+03 -0.87776664255E+03  0.11558854675E+04  0.50400001928E-02 0.  1.
       -1    1    3    3    0  502  0.32805290282E+03  0.67674088708E+03  0.18394846290E+03  0.77423121374E+03  0.50400001928E-02 0. -1.
</event>
<event>
 5   0  0.1035018E-05  0.1800488E+04  0.7818609E-02  0.8706040E-01
        2   -1    0    0  501    0  0.00000000000E+00  0.00000000000E+00  0.13415314960E+04  0.13415314960E+04  0.25500000920E-02 0.  1.
       -2   -1    0    0    0  501  0.00000000000E+00  0.00000000000E+00 -0.60411500420E+03  0.60411500421E+03  0.25500000920E-02 0. -1.
    10030    2    1    2    0    0  0.00000000000E+00  0.00000000000E+00  0.73741649178E+03  0.19456465002E+04  0.18004880509E+04 0.  0.
        3    1    3    3  502    0 -0.16354009708E+03 -0.70287943275E+03 -0.21287754149E+03  0.75239731406E+03  0.10100000352E+00 0. -1.
       -3    1    3    3    0  502  0.16354009708E+03  0.70287943275E+03  0.95029403328E+03  0.11932491861E+04  0.10100000352E+00 0.  1.
</event>
<event>
 5   0  0.1000316E-05  0.1798835E+04  0.7818609E-02  0.8706919E-01
       -2   -1    0    0    0  501  0.00000000000E+00  0.00000000000E+00  0.71347671719E+03  0.71347671719E+03  0.25500000920E-02 0.  1.
        2   -1    0    0  501    0  0.00000000000E+00  0.00000000000E+00 -0.11338168695E+04  0.11338168695E+04  0.25500000920E-02 0. -1.
    10030    2    1    2    0    0  0.00000000000E+00  0.00000000000E+00 -0.42034015228E+03  0.18472935867E+04  0.17988351096E+04 0.  0.
        5    1    3    3  502    0  0.66936849161E+03 -0.50899955917E+03  0.11747831850E+03  0.84909244144E+03  0.46999998093E+01 0.  1.
       -5    1    3    3    0  502 -0.66936849161E+03  0.50899955917E+03 -0.53781847079E+03  0.99820114522E+03  0.46999998093E+01 0. -1.
</event>
<event>
 5   0  0.3626125E-06  0.1799509E+04  0.7818609E-02  0.8706561E-01
        4   -1    0    0  501    0  0.00000000000E+00  0.00000000000E+00  0.10649543648E+04  0.10649551221E+04  0.12699999809E+01 0. -1.
       -4   -1    0    0    0  501  0.00000000000E+00  0.00000000000E+00 -0.76017952382E+03  0.76018058469E+03  0.12699999809E+01 0.  1.
    10030    2    1    2    0    0  0.00000000000E+00  0.00000000000E+00  0.30477484101E+03  0.18251357068E+04  0.17995090009E+04 0.  0.
        1    1    3    3  502    0  0.17341525555E+03  0.87250220062E+03  0.15464066216E+02  0.88970336535E+03  0.50400001928E-02 0.  1.
       -1    1    3    3    0  502 -0.17341525555E+03 -0.87250220062E+03  0.28931077480E+03  0.93543234143E+03  0.50400001928E-02 0. -1.
</event>
<event>
 5   0  0.4987456E-06  0.1801563E+04  0.7818609E-02  0.8705469E-01
        1   -1    0    0  501    0  0.00000000000E+00  0.00000000000E+00  0.12619090005E+04  0.12619090005E+04  0.50400001928E-02 0.  1.
       -1   -1    0    0    0  501  0.00000000000E+00  0.00000000000E+00 -0.64299989516E+03  0.64299989518E+03  0.50400001928E-02 0. -1.
    10030    2    1    2    0    0  0.00000000000E+00  0.00000000000E+00  0.61890910531E+03  0.19049088957E+04  0.18015630492E+04 0.  0.
        3    1    3    3  502    0  0.62032823649E+03 -0.49915767462E+03  0.75485716510E+03  0.10971667398E+04  0.10100000352E+00 0. -1.
       -3    1    3    3    0  502 -0.62032823649E+03  0.49915767462E+03 -0.13594805980E+03  0.80774215582E+03  0.10100000352E+00 0.  1.
</event>
<event>
 5   0  0.9999162E-06  0.1799537E+04  0.7818609E-02  0.8706546E-01
       -2   -1    0    0    0  501  0.00000000000E+00  0.00000000000E+00  0.67672045865E+03  0.67672045865E+03  0.25500000920E-02 0. -1.
        2   -1    0    0  501    0  0.00000000000E+00  0.00000000000E+00 -0.11963340115E+04  0.11963340115E+04  0.25500000920E-02 0.  1.
    10030    2    1    2    0    0  0.00000000000E+00  0.00000000000E+00 -0.51961355286E+03  0.18730544702E+04  0.17995373861E+04 0.  0.
        1    1    3    3  502    0 -0.13487097534E+02  0.37428511750E+03  0.59173112959E+03  0.70029778004E+03  0.50400001928E-02 0. -1.
       -1    1    3    3    0  502  0.13487097534E+02 -0.37428511750E+03 -0.11113446825E+04  0.11727566901E+04  0.50400001928E-02 0.  1.
</event>
<event>
 5   0  0.4987456E-06  0.1800006E+04  0.7818609E-02  0.8706296E-01
       -1   -1    0    0    0  501  0.00000000000E+00  0.00000000000E+00  0.10617907045E+04  0.10617907045E+04  0.50400001928E-02 0. -1.
        1   -1    0    0  501    0  0.00000000000E+00  0.00000000000E+00 -0.76286757633E+03  0.76286757635E+03  0.50400001928E-02 0.  1.
    10030    2    1    2    0    0  0.00000000000E+00  0.00000000000E+00  0.29892312817E+03  0.18246582809E+04  0.18000063348E+04 0.  0.
        3    1    3    3  502    0 -0.57002183378E+03  0.18979350126E+03 -0.52983484861E+03  0.80104396952E+03  0.10100000352E+00 0.  1.
       -3    1    3    3    0  502  0.57002183378E+03 -0.18979350126E+03  0.82875797678E+03  0.10236143113E+04  0.10100000352E+00 0. -1.
</event>
<event>
 5   0  0.4953155E-06  0.1799436E+04  0.7818609E-02  0.8706599E-01
        1   -1    0    0  501    0  0.00000000000E+00  0.00000000000E+00  0.12586487691E+04  0.12586487691E+04  0.50400001928E-02 0.  1.
       -1   -1    0    0    0  501  0.00000000000E+00  0.00000000000E+00 -0.64314431404E+03  0.64314431406E+03  0.50400001928E-02 0. -1.
    10030    2    1    2    0    0  0.00000000000E+00  0.00000000000E+00  0.61550445508E+03  0.19017930832E+04  0.17994363554E+04 0.  0.
        2    1    3    3  502    0  0.23367000152E+03  0.29476178509E+03  0.11715600966E+04  0.12304630183E+04  0.25500000920E-02 0.  1.
       -2    1    3    3    0  502 -0.23367000152E+03 -0.29476178509E+03 -0.55605564149E+03  0.67133006487E+03  0.25500000920E-02 0. -1.
</event>
<event>
 5   0  0.4983159E-06  0.1799642E+04  0.7818609E-02  0.8706490E-01
       -1   -1    0    0    0  501  0.00000000000E+00  0.00000000000E+00  0.45210204660E+03  0.45210204663E+03  0.50400001928E-02 0. -1.
        1   -1    0    0  501    0  0.00000000000E+00  0.00000000000E+00 -0.17909174480E+04  0.17909174480E+04  0.50400001928E-02 0.  1.
    10030    2    1    2    0    0  0.00000000000E+00  0.00000000000E+00 -0.13388154014E+04  0.22430194946E+04  0.17996415683E+04 0.  0.
        4    1    3    3  502    0  0.40242130618E+03  0.30876097802E+03  0.25693930618E+03  0.56859095066E+03  0.12699999809E+01 0. -1.
       -4    1    3    3    0  502 -0.40242130618E+03 -0.30876097802E+03 -0.15957547075E+04  0.16744285439E+04  0.12699999809E+01 0.  1.
</event>
<event>
 5   0  0.1036381E-05  0.1801397E+04  0.7818609E-02  0.8705557E-01
       -2   -1    0    0    0  501  0.00000000000E+00  0.00000000000E+00  0.66420309004E+03  0.66420309004E+03  0.25500000920E-02 0.  1.
        2   -1    0    0  501    0  0.00000000000E+00  0.00000000000E+00 -0.12214002146E+04  0.12214002146E+04  0.25500000920E-02 0. -1.
    10030    2    1    2    0    0  0.00000000000E+00  0.00000000000E+00 -0.55719712456E+03  0.18856033046E+04  0.18013970098E+04 0.  0.
        4    1    3    3  502    0  0.24153736183E+03 -0.71463012023E+03 -0.79376267814E+03  0.10950330169E+04  0.12699999809E+01 0. -1.
       -4    1    3    3    0  502 -0.24153736183E+03  0.71463012023E+03  0.23656555357E+03  0.79057028779E+03  0.12699999809E+01 0.  1.
</event>
<event>
 5   0  0.4981384E-06  0.1801483E+04  0.7818609E-02  0.8705511E-01
       -1   -1    0    0    0  501  0.00000000000E+00  0.00000000000E+00  0.66501471218E+03  0.66501471220E+03  0.50400001928E-02 0. -1.
        1   -1    0    0  501    0  0.00000000000E+00  0.00000000000E+00 -0.12200258636E+04  0.12200258636E+04  0.50400001928E-02 0.  1.
    10030    2    1    2    0    0  0.00000000000E+00  0.00000000000E+00 -0.55501115142E+03  0.18850405758E+04  0.18014828876E+04 0.  0.
        5    1    3    3  502    0 -0.43813552628E+03 -0.33854743424E+03  0.46589464008E+03  0.72364149292E+03  0.46999998093E+01 0. -1.
       -5    1    3    3    0  502  0.43813552628E+03  0.33854743424E+03 -0.10209057915E+04  0.11613990829E+04  0.46999998093E+01 0.  1.
</event>
<event>
 5   0  0.4981384E-06  0.1800027E+04  0.7818609E-02  0.8706285E-01
       -1   -1    0    0    0  501  0.00000000000E+00  0.00000000000E+00  0.61939928076E+03  0.61939928078E+03  0.50400001928E-02 0. -1.
        1   -1    0    0  501    0  0.00000000000E+00  0.00000000000E+00 -0.13077585433E+04  0.13077585433E+04  0.50400001928E-02 0.  1.
    10030    2    1    2    0    0  0.00000000000E+00  0.00000000000E+00 -0.68835926255E+03  0.19271578241E+04  0.18000274455E+04 0.  0.
        5    1    3    3  502    0 -0.34037500700E+03 -0.78661574349E+03 -0.63813084735E+03  0.10685750051E+04  0.46999998093E+01 0.  1.
       -5    1    3    3    0  502  0.34037500700E+03  0.78661574349E+03 -0.50228415198E+02  0.85858281894E+03  0.46999998093E+01 0. -1.
</event>
<event>
 5   0  0.4981384E-06  0.1800651E+04  0.7818609E-02  0.8705953E-01
       -1   -1    0    0    0  501  0.00000000000E+00  0.00000000000E+00  0.51360792324E+03  0.51360792327E+03  0.50400001928E-02 0.  1.
        1   -1    0    0  501    0  0.00000000000E+00  0.00000000000E+00 -0.15782193836E+04  0.15782193836E+04  0.50400001928E-02 0. -1.
    10030    2    1    2    0    0  0.00000000000E+00  0.00000000000E+00 -0.10646114604E+04  0.20918273069E+04  0.18006509713E+04 0.  0.
        5    1    3    3  502    0 -0.31878477752E+03  0.35961156947E+03 -0.14167446548E+04  0.14960386767E+04  0.46999998093E+01 0. -1.
       -5    1    3    3    0  502  0.31878477752E+03 -0.35961156947E+03  0.35213319441E+03  0.59578863021E+03  0.46999998093E+01 0.  1.
</event>
<event>
 5   0  0.1000316E-05  0.1799618E+04  0.7818609E-02  0.8706503E-01
        2   -1    0    0  501    0  0.00000000000E+00  0.00000000000E+00  0.14449901901E+04  0.14449901901E+04  0.25500000920E-02 0.  1.
       -2   -1    0    0    0  501  0.00000000000E+00  0.00000000000E+00 -0.56031924079E+03  0.56031924080E+03  0.25500000920E-02 0. -1.
    10030    2    1    2    0    0  0.00000000000E+00  0.00000000000E+00  0.88467094931E+03  0.20053094309E+04  0.17996175219E+04 0.  0.
        5    1    3    3  502    0 -0.53920753307E+03  0.70394198397E+03  0.61262492058E+03  0.10777803412E+04  0.46999998093E+01 0. -1.
       -5    1    3    3    0  502  0.53920753307E+03 -0.70394198397E+03  0.27204602873E+03  0.92752908971E+03  0.46999998093E+01 0.  1.
</event>
<event>
 5   0  0.9999162E-06  0.1800401E+04  0.7818609E-02  0.8706086E-01
        2   -1    0    0  501    0  0.00000000000E+00  0.00000000000E+00  0.11291513018E+04  0.11291513018E+04  0.25500000920E-02 0.  1.
       -2   -1    0    0    0  501  0.00000000000E+00  0.00000000000E+00 -0.71767236709E+03  0.71767236709E+03  0.25500000920E-02 0. -1.
    10030    2    1    2    0    0  0.00000000000E+00  0.00000000000E+00  0.41147893468E+03  0.18468236689E+04  0.18004007193E+04 0.  0.
        1    1    3    3  502    0  0.61242567444E+03  0.18390267930E+03 -0.44421908361E+03  0.77859873904E+03  0.50400001928E-02 0. -1.
       -1    1    3    3    0  502 -0.61242567444E+03 -0.18390267930E+03  0.85569801829E+03  0.10682249298E+04  0.50400001928E-02 0.  1.
</event>
<event>
 5   0  0.4953155E-06  0.1799931E+04  0.7818609E-02  0.8706336E-01
       -1   -1    0    0    0  501  0.00000000000E+00  0.00000000000E+00  0.66012765098E+03  0.66012765100E+03  0.50400001928E-02 0.  1.
        1   -1    0    0  501    0  0.00000000000E+00  0.00000000000E+00 -0.12269409931E+04  0.12269409931E+04  0.50400001928E-02 0. -1.
    10030    2    1    2    0    0  0.00000000000E+00  0.00000000000E+00 -0.56681334213E+03  0.18870686441E+04  0.17999307494E+04 0.  0.
        2    1    3    3  502    0 -0.47503326131E+03 -0.69824104901E+03 -0.60949563194E+03  0.10414807186E+04  0.25500000920E-02 0. -1.
       -2    1    3    3    0  502  0.47503326131E+03  0.69824104901E+03  0.42682289814E+02  0.84558792550E+03  0.25500000920E-02 0.  1.
</event>
<event>
 5   0  0.3626125E-06  0.1800245E+04  0.7818609E-02  0.8706169E-01
       -4   -1    0    0    0  501  0.00000000000E+00  0.00000000000E+00  0.65808419494E+03  0.65808542039E+03  0.12699999809E+01 0.  1.
        4   -1    0    0  501    0  0.00000000000E+00  0.00000000000E+00 -0.12311775400E+04  0.12311781950E+04  0.12699999809E+01 0. -1.
    10030    2    1    2    0    0  0.00000000000E+00  0.00000000000E+00 -0.57309334504E+03  0.18892636154E+04  0.18002447129E+04 0.  0.
        4    1    3    3  502    0 -0.64702789743E+03  0.12620894480E+02 -0.94311410488E+03  0.11437964044E+04  0.12699999809E+01 0. -1.
       -4    1    3    3    0  502  0.64702789743E+03 -0.12620894480E+02  0.37002075984E+03  0.74546721098E+03  0.12699999809E+01 0.  1.
</event>
<event>
 5   0  0.9999162E-06  0.1800189E+04  0.7818609E-02  0.8706199E-01
        2   -1    0    0  501    0  0.00000000000E+00  0.00000000000E+00  0.14060865369E+04  0.14060865369E+04  0.25500000920E-02 0. -1.
       -2   -1    0    0    0  501  0.00000000000E+00  0.00000000000E+00 -0.57618776160E+03  0.57618776161E+03  0.25500000920E-02 0.  1.
    10030    2    1    2    0    0  0.00000000000E+00  0.00000000000E+00  0.82989877530E+03  0.19822742985E+04  0.18001887171E+04 0.  0.
        1    1    3    3  502    0  0.39127003157E+03  0.68984132084E+03  0.88367717397E+03  0.11873746811E+04  0.50400001928E-02 0. -1.
       -1    1    3    3    0  502 -0.39127003157E+03 -0.68984132084E+03 -0.53778398670E+02  0.79489961739E+03  0.50400001928E-02 0.  1.
</event>
<event>
 5   0  0.9999162E-06  0.1800862E+04  0.7818609E-02  0.8705841E-01
       -2   -1    0    0    0  501  0.00000000000E+00  0.00000000000E+00  0.38849788586E+03  0.38849788586E+03  0.25500000920E-02 0.  1.
        2   -1    0    0  501    0  0.00000000000E+00  0.00000000000E+00 -0.20869517468E+04  0.20869517468E+04  0.25500000920E-02 0. -1.
    10030    2    1    2    0    0  0.00000000000E+00  0.00000000000E+00 -0.16984538609E+04  0.24754496327E+04  0.18008623951E+04 0.  0.
        1    1    3    3  502    0 -0.48428545289E+03  0.25114944467E+03 -0.18339254959E+04  0.19133455433E+04  0.50400001928E-02 0. -1.
       -1    1    3    3    0  502  0.48428545289E+03 -0.25114944467E+03  0.13547163493E+03  0.56210408942E+03  0.50400001928E-02 0.  1.
</event>
<event>
 5   0  0.1035018E-05  0.1800153E+04  0.7818609E-02  0.8706218E-01
        2   -1    0    0  501    0  0.00000000000E+00  0.00000000000E+00  0.11687102448E+04  0.11687102448E+04  0.25500000920E-02 0.  1.
       -2   -1    0    0    0  501  0.00000000000E+00  0.00000000000E+00 -0.69318932618E+03  0.69318932618E+03  0.25500000920E-02 0. -1.
    10030    2    1    2    0    0  0.00000000000E+00  0.00000000000E+00  0.47552091860E+03  0.18618995710E+04  0.18001527347E+04 0.  0.
        3    1    3    3  502    0  0.72342489969E+03 -0.40013810002E+03 -0.13037419800E+03  0.83692982160E+03  0.10100000352E+00 0.  1.
       -3    1    3    3    0  502 -0.72342489969E+03  0.40013810002E+03  0.60589511660E+03  0.10249697494E+04  0.10100000352E+00 0. -1.
</event>
<event>
 5   0  0.4983159E-06  0.1800959E+04  0.7818609E-02  0.8705789E-01
        1   -1    0    0  501    0  0.00000000000E+00  0.00000000000E+00  0.94153911874E+03  0.94153911876E+03  0.50400001928E-02 0.  1.
       -1   -1    0    0    0  501  0.00000000000E+00  0.00000000000E+00 -0.86121087768E+03  0.86121087770E+03  0.50400001928E-02 0. -1.
    10030    2    1    2    0    0  0.00000000000E+00  0.00000000000E+00  0.80328241064E+02  0.18027499965E+04  0.18009594452E+04 0.  0.
        4    1    3    3  502    0 -0.57963424368E+01 -0.38281206553E+02  0.94070464750E+03  0.94150193578E+03  0.12699999809E+01 0.  1.
       -4    1    3    3    0  502  0.57963424368E+01  0.38281206553E+02 -0.86037640643E+03  0.86124806067E+03  0.12699999809E+01 0. -1.
</event>
<event>
 5   0  0.4983159E-06  0.1800619E+04  0.7818609E-02  0.8705971E-01
        1   -1    0    0  501    0  0.00000000000E+00  0.00000000000E+00  0.73767827600E+03  0.73767827601E+03  0.50400001928E-02 0.  1.
       -1   -1    0    0    0  501  0.00000000000E+00  0.00000000000E+00 -0.10987945695E+04  0.10987945695E+04  0.50400001928E-02 0. -1.
    10030    2    1    2    0    0  0.00000000000E+00  0.00000000000E+00 -0.36111629349E+03  0.18364728455E+04  0.18006186534E+04 0.  0.
        4    1    3    3  502    0  0.48485921698E+02 -0.42462152738E+03 -0.98873858545E+03  0.10771536238E+04  0.12699999809E+01 0. -1.
       -4    1    3    3    0  502 -0.48485921698E+02  0.42462152738E+03  0.62762229196E+03  0.75931922166E+03  0.12699999809E+01 0.  1.
</event>
<event>
 5   0  0.4994123E-06  0.1799749E+04  0.7818609E-02  0.8706433E-01
        1   -1    0    0  501    0  0.00000000000E+00  0.00000000000E+00  0.13033085873E+04  0.13033085873E+04  0.50400001928E-02 0. -1.
       -1   -1    0    0    0  501  0.00000000000E+00  0.00000000000E+00 -0.62132166175E+03  0.62132166177E+03  0.50400001928E-02 0.  1.
    10030    2    1    2    0    0  0.00000000000E+00  0.00000000000E+00  0.68198692554E+03  0.19246302491E+04  0.17997487127E+04 0.  0.
        1    1    3    3  502    0 -0.75497220710E+03  0.48164787111E+03  0.24651040569E+03  0.92883533814E+03  0.50400001928E-02 0.  1.
       -1    1    3    3    0  502  0.75497220710E+03 -0.48164787111E+03  0.43547651984E+03  0.99579491091E+03  0.50400001928E-02 0. -1.
</event>
<event>
 5   0  0.1000316E-05  0.1800024E+04  0.7818609E-02  0.8706287E-01
       -2   -1    0    0    0  501  0.00000000000E+00  0.00000000000E+00  0.59556071821E+03  0.59556071821E+03  0.25500000920E-02 0. -1.
        2   -1    0    0  501    0  0.00000000000E+00  0.00000000000E+00 -0.13600991340E+04  0.13600991340E+04  0.25500000920E-02 0.  1.
    10030    2    1    2    0    0  0.00000000000E+00  0.00000000000E+00 -0.76453841580E+03  0.19556598522E+04  0.18000240188E+04 0.  0.
        5    1    3    3  502    0 -0.41282550643E+02  0.89791487667E+03 -0.43139071140E+03  0.99703330467E+03  0.46999998093E+01 0.  1.
       -5    1    3    3    0  502  0.41282550643E+02 -0.89791487667E+03 -0.33314770440E+03  0.95862654756E+03  0.46999998093E+01 0. -1.
</event>
<event>
 5   0  0.4994123E-06  0.1799040E+04  0.7818609E-02  0.8706810E-01
        1   -1    0    0  501    0  0.00000000000E+00  0.00000000000E+00  0.67432449728E+03  0.67432449729E+03  0.50400001928E-02 0.  1.
       -1   -1    0    0    0  501  0.00000000000E+00  0.00000000000E+00 -0.11999216197E+04  0.11999216197E+04  0.50400001928E-02 0. -1.
    10030    2    1    2    0    0  0.00000000000E+00  0.00000000000E+00 -0.52559712246E+03  0.18742461170E+04  0.17990403475E+04 0.  0.
        1    1    3    3  502    0  0.85463823815E+02  0.34759831930E+02 -0.11949792065E+04  0.11985356128E+04  0.50400001928E-02 0. -1.
       -1    1    3    3    0  502 -0.85463823815E+02 -0.34759831930E+02  0.66938208405E+03  0.67571050426E+03  0.50400001928E-02 0.  1.
</event>
<event>
 5   0  0.1000316E-05  0.1800123E+04  0.7818609E-02  0.8706234E-01
        2   -1    0    0  501    0  0.00000000000E+00  0.00000000000E+00  0.12776672875E+04  0.12776672875E+04  0.25500000920E-02 0. -1.
       -2   -1    0    0    0  501  0.00000000000E+00  0.00000000000E+00 -0.63405438995E+03  0.63405438996E+03  0.25500000920E-02 0.  1.
    10030    2    1    2    0    0  0.00000000000E+00  0.00000000000E+00  0.64361289756E+03  0.19117216775E+04  0.18001228320E+04 0.  0.
        5    1    3    3  502    0 -0.43886921904E+03  0.18122105155E+03 -0.49021450017E+03  0.68248048113E+03  0.46999998093E+01 0.  1.
       -5    1    3    3    0  502  0.43886921904E+03 -0.18122105155E+03  0.11338273977E+04  0.12292411963E+04  0.46999998093E+01 0. -1.
</event>
<event>
 5   0  0.9999162E-06  0.1799906E+04  0.7818609E-02  0.8706350E-01
        2   -1    0    0  501    0  0.00000000000E+00  0.00000000000E+00  0.96599250338E+03  0.96599250339E+03  0.25500000920E-02 0.  1.
       -2   -1    0    0    0  501  0.00000000000E+00  0.00000000000E+00 -0.83842778407E+03  0.83842778407E+03  0.25500000920E-02 0. -1.
    10030    2    1    2    0    0  0.00000000000E+00  0.00000000000E+00  0.12756471932E+03  0.18044202875E+04  0.17999055020E+04 0.  0.
        1    1    3    3  502    0  0.19395287393E+03  0.41114204773E+03  0.84242837394E+03  0.95725705323E+03  0.50400001928E-02 0.  1.
       -1    1    3    3    0  502 -0.19395287393E+03 -0.41114204773E+03 -0.71486365462E+03  0.84716323423E+03  0.50400001928E-02 0. -1.
</event>
<event>
 5   0  0.1036381E-05  0.1804017E+04  0.7818609E-02  0.8704166E-01
        2   -1    0    0  501    0  0.00000000000E+00  0.00000000000E+00  0.88797934177E+03  0.88797934177E+03  0.25500000920E-02 0. -1.
       -2   -1    0    0    0  501  0.00000000000E+00  0.00000000000E+00 -0.91625964212E+03  0.91625964213E+03  0.25500000920E-02 0.  1.
    10030    2    1    2    0    0  0.00000000000E+00  0.00000000000E+00 -0.28280300352E+02  0.18042389839E+04  0.18040173324E+04 0.  0.
        4    1    3    3  502    0  0.46959686518E+02  0.62690189478E+02 -0.91285099618E+03  0.91620621377E+03  0.12699999809E+01 0.  1.
       -4    1    3    3    0  502 -0.46959686518E+02 -0.62690189478E+02  0.88457069583E+03  0.88803277013E+03  0.12699999809E+01 0. -1.
</event>
<event>
 5   0  0.1000316E-05  0.1800614E+04  0.7818609E-02  0.8705973E-01
       -2   -1    0    0    0  501  0.00000000000E+00  0.00000000000E+00  0.10767152129E+04  0.10767152129E+04  0.25500000920E-02 0. -1.
        2   -1    0    0  501    0  0.00000000000E+00  0.00000000000E+00 -0.75280130611E+03  0.75280130611E+03  0.25500000920E-02 0.  1.
    10030    2    1    2    0    0  0.00000000000E+00  0.00000000000E+00  0.32391390677E+03  0.18295165190E+04  0.18006139159E+04 0.  0.
        5    1    3    3  502    0  0.76630005606E+03 -0.31488362480E+03  0.51998077883E+03  0.97814598779E+03  0.46999998093E+01 0. -1.
       -5    1    3    3    0  502 -0.76630005606E+03  0.31488362480E+03 -0.19606687205E+03  0.85137053120E+03  0.46999998093E+01 0.  1.
</event>
<event>
 5   0  0.4983159E-06  0.1800285E+04  0.7818609E-02  0.8706148E-01
       -1   -1    0    0    0  501  0.00000000000E+00  0.00000000000E+00  0.12896923482E+04  0.12896923482E+04  0.50400001928E-02 0. -1.
        1   -1    0    0  501    0  0.00000000000E+00  0.00000000000E+00 -0.62825561755E+03  0.62825561757E+03  0.50400001928E-02 0.  1.
    10030    2    1    2    0    0  0.00000000000E+00  0.00000000000E+00  0.66143673063E+03  0.19179479658E+04  0.18002849360E+04 0.  0.
        4    1    3    3  502    0 -0.79364351738E+03  0.24921454134E+03 -0.35673306756E+02  0.83261763014E+03  0.12699999809E+01 0.  1.
       -4    1    3    3    0  502  0.79364351738E+03 -0.24921454134E+03  0.69711003738E+03  0.10853303356E+04  0.12699999809E+01 0. -1.
</event>
<event>
 5   0  0.9999162E-06  0.1814269E+04  0.7818609E-02  0.8698748E-01
       -2   -1    0    0    0  501  0.00000000000E+00  0.00000000000E+00  0.77669527181E+03  0.77669527181E+03  0.25500000920E-02 0.  1.
        2   -1    0    0  501    0  0.00000000000E+00  0.00000000000E+00 -0.10594796680E+04  0.10594796680E+04  0.25500000920E-02 0. -1.
    10030    2    1    2    0    0  0.00000000000E+00  0.00000000000E+00 -0.28278439616E+03  0.18361749398E+04  0.18142688320E+04 0.  0.
        1    1    3    3  502    0 -0.65454250373E+03 -0.58004745034E+03 -0.38515701121E+03  0.95562903741E+03  0.50400001928E-02 0. -1.
       -1    1    3    3    0  502  0.65454250373E+03  0.58004745034E+03  0.10237261506E+03  0.88054590237E+03  0.50400001928E-02 0.  1.
</event>
<event>
 5   0  0.4983159E-06  0.1799888E+04  0.7818609E-02  0.8706359E-01
        1   -1    0    0  501    0  0.00000000000E+00  0.00000000000E+00  0.68290613028E+03  0.68290613029E+03  0.50400001928E-02 0.  1.
       -1   -1    0    0    0  501  0.00000000000E+00  0.00000000000E+00 -0.11859602360E+04  0.11859602360E+04  0.50400001928E-02 0. -1.
    10030    2    1    2    0    0  0.00000000000E+00  0.00000000000E+00 -0.50305410568E+03  0.18688663663E+04  0.17998883470E+04 0.  0.
        4    1    3    3  502    0 -0.24100907502E+01  0.22238773874E+02  0.68261649950E+03  0.68298409197E+03  0.12699999809E+01 0.  1.
       -4    1    3    3    0  502  0.24100907502E+01 -0.22238773874E+02 -0.11856706052E+04  0.11858822743E+04  0.12699999809E+01 0. -1.
</event>
<event>
 5   0  0.4953155E-06  0.1801155E+04  0.7818609E-02  0.8705685E-01
       -1   -1    0    0    0  501  0.00000000000E+00  0.00000000000E+00  0.54791907849E+03  0.54791907851E+03  0.50400001928E-02 0.  1.
        1   -1    0    0  501    0  0.00000000000E+00  0.00000000000E+00 -0.14802190641E+04  0.14802190641E+04  0.50400001928E-02 0. -1.
    10030    2    1    2    0    0  0.00000000000E+00  0.00000000000E+00 -0.93229998557E+03  0.20281381426E+04  0.18011554798E+04 0.  0.
        2    1    3    3  502    0 -0.18328472872E+03 -0.53670407786E+03  0.32157823162E+03  0.65196404658E+03  0.25500000920E-02 0.  1.
       -2    1    3    3    0  502  0.18328472872E+03  0.53670407786E+03 -0.12538782172E+04  0.13761740960E+04  0.25500000920E-02 0. -1.
</event>
<event>
 5   0  0.4953155E-06  0.1799854E+04  0.7818609E-02  0.8706377E-01
       -1   -1    0    0    0  501  0.00000000000E+00  0.00000000000E+00  0.10314922993E+04  0.10314922993E+04  0.50400001928E-02 0.  1.
        1   -1    0    0  501    0  0.00000000000E+00  0.00000000000E+00 -0.78514236058E+03  0.78514236060E+03  0.50400001928E-02 0. -1.
    10030    2    1    2    0    0  0.00000000000E+00  0.00000000000E+00  0.24634993868E+03  0.18166346599E+04  0.17998536594E+04 0.  0.
        2    1    3    3  502    0 -0.37219210086E+03  0.73453360230E+03  0.48960490742E+03  0.95800810969E+03  0.25500000920E-02 0.  1.
       -2    1    3    3    0  502  0.37219210086E+03 -0.73453360230E+03 -0.24325496874E+03  0.85862655018E+03  0.25500000920E-02 0. -1.
</event>
<event>
 5   0  0.4994123E-06  0.1798604E+04  0.7818609E-02  0.8707042E-01
        1   -1    0    0  501    0  0.00000000000E+00  0.00000000000E+00  0.76003043408E+03  0.76003043409E+03  0.50400001928E-02 0. -1.
       -1   -1    0    0    0  501  0.00000000000E+00  0.00000000000E+00 -0.10640940323E+04  0.10640940323E+04  0.50400001928E-02 0.  1.
    10030    2    1    2    0    0  0.00000000000E+00  0.00000000000E+00 -0.30406359824E+03  0.18241244664E+04  0.17986037355E+04 0.  0.
        1    1    3    3  502    0  0.23320888408E+03 -0.25943584345E+03 -0.99267810755E+03  0.10521897004E+04  0.50400001928E-02 0.  1.
       -1    1    3    3    0  502 -0.23320888408E+03  0.25943584345E+03  0.68861450931E+03  0.77193476598E+03  0.50400001928E-02 0. -1.
</event>
<event>
 5   0  0.4983159E-06  0.1796051E+04  0.7818609E-02  0.8708403E-01
        1   -1    0    0  501    0  0.00000000000E+00  0.00000000000E+00  0.14308641061E+04  0.14308641061E+04  0.50400001928E-02 0. -1.
       -1   -1    0    0    0  501  0.00000000000E+00  0.00000000000E+00 -0.56361010729E+03  0.56361010732E+03  0.50400001928E-02 0.  1.
    10030    2    1    2    0    0  0.00000000000E+00  0.00000000000E+00  0.86725399883E+03  0.19944742134E+04  0.17960506367E+04 0.  0.
        4    1    3    3  502    0  0.65769116581E+03 -0.30883613694E+03  0.10196714815E+04  0.12520658817E+04  0.12699999809E+01 0. -1.
       -4    1    3    3    0  502 -0.65769116581E+03  0.30883613694E+03 -0.15241748270E+03  0.74240833171E+03  0.12699999809E+01 0.  1.
</event>
<event>
 5   0  0.1036381E-05  0.1800164E+04  0.7818609E-02  0.8706212E-01
       -2   -1    0    0    0  501  0.00000000000E+00  0.00000000000E+00  0.90419820844E+03  0.90419820845E+03  0.25500000920E-02 0. -1.
        2   -1    0    0  501    0  0.00000000000E+00  0.00000000000E+00 -0.89598418140E+03  0.89598418141E+03  0.25500000920E-02 0.  1.
    10030    2    1    2    0    0  0.00000000000E+00  0.00000000000E+00  0.82140270411E+01  0.18001823899E+04  0.18001636499E+04 0.  0.
        4    1    3    3  502    0 -0.17419475588E+03 -0.78697510589E+03 -0.39648678267E+03  0.89826333110E+03  0.12699999809E+01 0.  1.
       -4    1    3    3    0  502  0.17419475588E+03  0.78697510589E+03  0.40470080971E+03  0.90191905875E+03  0.12699999809E+01 0. -1.
</event>
<event>
 5   0  0.9589963E-06  0.1801236E+04  0.7818609E-02  0.8705643E-01
        2   -1    0    0  501    0  0.00000000000E+00  0.00000000000E+00  0.58661481734E+03  0.58661481735E+03  0.25500000920E-02 0.  1.
       -2   -1    0    0    0  501  0.00000000000E+00  0.00000000000E+00 -0.13827001909E+04  0.13827001909E+04  0.25500000920E-02 0. -1.
    10030    2    1    2    0    0  0.00000000000E+00  0.00000000000E+00 -0.79608537358E+03  0.19693150083E+04  0.18012355981E+04 0.  0.
        2    1    3    3  502    0  0.65793882818E+03  0.13448040495E+03 -0.10541618532E+04  0.12498902726E+04  0.25500000920E-02 0. -1.
       -2    1    3    3    0  502 -0.65793882818E+03 -0.13448040495E+03  0.25807647958E+03  0.71942473565E+03  0.25500000920E-02 0.  1.
</event>
<event>
 5   0  0.4981384E-06  0.1799743E+04  0.7818609E-02  0.8706436E-01
        1   -1    0    0  501    0  0.00000000000E+00  0.00000000000E+00  0.77948482153E+03  0.77948482155E+03  0.50400001928E-02 0.  1.
       -1   -1    0    0    0  501  0.00000000000E+00  0.00000000000E+00 -0.10388517064E+04  0.10388517064E+04  0.50400001928E-02 0. -1.
    10030    2    1    2    0    0  0.00000000000E+00  0.00000000000E+00 -0.25936688484E+03  0.18183365279E+04  0.17997434672E+04 0.  0.
        5    1    3    3  502    0 -0.13464208768E+03  0.85521915677E+01  0.76919626517E+03  0.78095237762E+03  0.46999998093E+01 0.  1.
       -5    1    3    3    0  502  0.13464208768E+03 -0.85521915677E+01 -0.10285631500E+04  0.10373841503E+04  0.46999998093E+01 0. -1.
</event>
<event>
 5   0  0.9589963E-06  0.1800070E+04  0.7818609E-02  0.8706262E-01
        2   -1    0    0  501    0  0.00000000000E+00  0.00000000000E+00  0.16653696766E+04  0.16653696766E+04  0.25500000920E-02 0. -1.
       -2   -1    0    0    0  501  0.00000000000E+00  0.00000000000E+00 -0.48641614787E+03  0.48641614788E+03  0.25500000920E-02 0.  1.
    10030    2    1    2    0    0  0.00000000000E+00  0.00000000000E+00  0.11789535287E+04  0.21517858245E+04  0.18000696685E+04 0.  0.
        2    1    3    3  502    0 -0.56260876872E+03  0.23838200448E+03  0.13794372167E+04  0.15087086006E+04  0.25500000920E-02 0. -1.
       -2    1    3    3    0  502  0.56260876872E+03 -0.23838200448E+03 -0.20048368798E+03  0.64307722387E+03  0.25500000920E-02 0.  1.
</event>
<event>
 5   0  0.4981384E-06  0.1800447E+04  0.7818609E-02  0.8706062E-01
        1   -1    0    0  501    0  0.00000000000E+00  0.00000000000E+00  0.14670534450E+04  0.14670534450E+04  0.50400001928E-02 0.  1.
       -1   -1    0    0    0  501  0.00000000000E+00  0.00000000000E+00 -0.55240151064E+03  0.55240151066E+03  0.50400001928E-02 0. -1.
    10030    2    1    2    0    0  0.00000000000E+00  0.00000000000E+00  0.91465193433E+03  0.20194549556E+04  0.18004472102E+04 0.  0.
        5    1    3    3  502    0 -0.88102158695E+02 -0.63121559951E+03  0.11704154799E+04  0.13327001197E+04  0.46999998093E+01 0.  1.
       -5    1    3    3    0  502  0.88102158695E+02  0.63121559951E+03 -0.25576354558E+03  0.68675483593E+03  0.46999998093E+01 0. -1.
</event>
<event>
 5   0  0.9999162E-06  0.1799646E+04  0.7818609E-02  0.8706488E-01
        2   -1    0    0  501    0  0.00000000000E+00  0.00000000000E+00  0.18112661174E+04  0.18112661174E+04  0.25500000920E-02 0. -1.
       -2   -1    0    0    0  501  0.00000000000E+00  0.00000000000E+00 -0.44702486701E+03  0.44702486702E+03  0.25500000920E-02 0.  1.
    10030    2    1    2    0    0  0.00000000000E+00  0.00000000000E+00  0.13642412504E+04  0.22582909844E+04  0.17996455154E+04 0.  0.
        1    1    3    3  502    0 -0.40531070784E+03  0.60056024527E+03  0.13517134321E+04  0.15336487800E+04  0.50400001928E-02 0. -1.
       -1    1    3    3    0  502  0.40531070784E+03 -0.60056024527E+03  0.12527818311E+02  0.72464220436E+03  0.50400001928E-02 0.  1.
</event>
<event>
 5   0  0.1036381E-05  0.1799702E+04  0.7818609E-02  0.8706458E-01
        2   -1    0    0  501    0  0.00000000000E+00  0.00000000000E+00  0.80573601855E+03  0.80573601855E+03  0.25500000920E-02 0. -1.
       -2   -1    0    0    0  501  0.00000000000E+00  0.00000000000E+00 -0.10049596952E+04  0.10049596952E+04  0.25500000920E-02 0.  1.
    10030    2    1    2    0    0  0.00000000000E+00  0.00000000000E+00 -0.19922367665E+03  0.18106957138E+04  0.17997024461E+04 0.  0.
        4    1    3    3  502    0  0.11130747913E+03 -0.24761326283E+03 -0.96277363115E+03  0.10003181297E+04  0.12699999809E+01 0.  1.
       -4    1    3    3    0  502 -0.11130747913E+03  0.24761326283E+03  0.76354995450E+03  0.81037758407E+03  0.12699999809E+01 0. -1.
</event>
<event>
 5   0  0.4981384E-06  0.1801644E+04  0.7818609E-02  0.8705425E-01
        1   -1    0    0  501    0  0.00000000000E+00  0.00000000000E+00  0.15285308980E+04  0.15285308980E+04  0.50400001928E-02 0. -1.
       -1   -1    0    0    0  501  0.00000000000E+00  0.00000000000E+00 -0.53088930526E+03  0.53088930529E+03  0.50400001928E-02 0.  1.
    10030    2    1    2    0    0  0.00000000000E+00  0.00000000000E+00  0.99764159273E+03  0.20594202033E+04  0.18016444783E+04 0.  0.
        5    1    3    3  502    0 -0.58228854636E+02  0.28959364780E+03  0.14715818948E+04  0.15009431847E+04  0.46999998093E+01 0. -1.
       -5    1    3    3    0  502  0.58228854636E+02 -0.28959364780E+03 -0.47394030211E+03  0.55847701862E+03  0.46999998093E+01 0.  1.
</event>
<event>
 5   0  0.1036381E-05  0.1799762E+04  0.7818609E-02  0.8706426E-01
        2   -1    0    0  501    0  0.00000000000E+00  0.00000000000E+00  0.12170679838E+04  0.12170679838E+04  0.25500000920E-02 0. -1.
       -2   -1    0    0    0  501  0.00000000000E+00  0.00000000000E+00 -0.66535762858E+03  0.66535762858E+03  0.25500000920E-02 0.  1.
    10030    2    1    2    0    0  0.00000000000E+00  0.00000000000E+00  0.55171035518E+03  0.18824256123E+04  0.17997616148E+04 0.  0.
        4    1    3    3  502    0 -0.13779375676E+01 -0.61096352424E+03  0.96688646684E+03  0.11437435811E+04  0.12699999809E+01 0. -1.
       -4    1    3    3    0  502  0.13779375676E+01  0.61096352424E+03 -0.41517611166E+03  0.73868203123E+03  0.12699999809E+01 0.  1.
</event>
<event>
 5   0  0.1000316E-05  0.1800601E+04  0.7818609E-02  0.8705980E-01
       -2   -1    0    0    0  501  0.00000000000E+00  0.00000000000E+00  0.37177400737E+03  0.37177400738E+03  0.25500000920E-02 0.  1.
        2   -1    0    0  501    0  0.00000000000E+00  0.00000000000E+00 -0.21801970743E+04  0.21801970743E+04  0.25500000920E-02 0. -1.
    10030    2    1    2    0    0  0.00000000000E+00  0.00000000000E+00 -0.18084230669E+04  0.25519710817E+04  0.18006005700E+04 0.  0.
        5    1    3    3  502    0 -0.26415250302E+02  0.13126208723E+03 -0.21659894933E+04  0.21701290459E+04  0.46999998093E+01 0. -1.
       -5    1    3    3    0  502  0.26415250302E+02 -0.13126208723E+03  0.35756642636E+03  0.38184203573E+03  0.46999998093E+01 0.  1.
</event>
<event>
 5   0  0.9999162E-06  0.1799109E+04  0.7818609E-02  0.8706773E-01
       -2   -1    0    0    0  501  0.00000000000E+00  0.00000000000E+00  0.23319817694E+04  0.23319817694E+04  0.25500000920E-02 0. -1.
        2   -1    0    0  501    0  0.00000000000E+00  0.00000000000E+00 -0.34700024777E+03  0.34700024778E+03  0.25500000920E-02 0.  1.
    10030    2    1    2    0    0  0.00000000000E+00  0.00000000000E+00  0.19849815216E+04  0.26789820172E+04  0.17991089481E+04 0.  0.
        1    1    3    3  502    0 -0.73473858017E+03  0.11988888420E+03  0.24057548672E+03  0.78236225023E+03  0.50400001928E-02 0.  1.
       -1    1    3    3    0  502  0.73473858017E+03 -0.11988888420E+03  0.17444060349E+04  0.18966197669E+04  0.50400001928E-02 0. -1.
</event>
<event>
 5   0  0.4983159E-06  0.1798865E+04  0.7818609E-02  0.8706903E-01
        1   -1    0    0  501    0  0.00000000000E+00  0.00000000000E+00  0.12342846866E+04  0.12342846866E+04  0.50400001928E-02 0. -1.
       -1   -1    0    0    0  501  0.00000000000E+00  0.00000000000E+00 -0.65542307614E+03  0.65542307616E+03  0.50400001928E-02 0.  1.
    10030    2    1    2    0    0  0.00000000000E+00  0.00000000000E+00  0.57886161049E+03  0.18897077628E+04  0.17988648267E+04 0.  0.
        4    1    3    3  502    0 -0.57990532736E+03 -0.39199694992E+03 -0.30391605671E+03  0.76309788355E+03  0.12699999809E+01 0.  1.
       -4    1    3    3    0  502  0.57990532736E+03  0.39199694992E+03  0.88277766720E+03  0.11266098793E+04  0.12699999809E+01 0. -1.
</event>
<event>
 5   0  0.9999162E-06  0.1799576E+04  0.7818609E-02  0.8706525E-01
       -2   -1    0    0    0  501  0.00000000000E+00  0.00000000000E+00  0.77775368489E+03  0.77775368490E+03  0.25500000920E-02 0. -1.
        2   -1    0    0  501    0  0.00000000000E+00  0.00000000000E+00 -0.10409702177E+04  0.10409702177E+04  0.25500000920E-02 0.  1.
    10030    2    1    2    0    0  0.00000000000E+00  0.00000000000E+00 -0.26321653276E+03  0.18187239026E+04  0.17995759752E+04 0.  0.
        1    1    3    3  502    0  0.35592782126E+03 -0.51747570295E+03  0.51957094019E+03  0.81511942622E+03  0.50400001928E-02 0. -1.
       -1    1    3    3    0  502 -0.35592782126E+03  0.51747570295E+03 -0.78278747295E+03  0.10036044763E+04  0.50400001928E-02 0.  1.
</event>
<event>
 5   0  0.4953155E-06  0.1800350E+04  0.7818609E-02  0.8706113E-01
        1   -1    0    0  501    0  0.00000000000E+00  0.00000000000E+00  0.18115120393E+04  0.18115120393E+04  0.50400001928E-02 0. -1.
       -1   -1    0    0    0  501  0.00000000000E+00  0.00000000000E+00 -0.44731424761E+03  0.44731424763E+03  0.50400001928E-02 0.  1.
    10030    2    1    2    0    0  0.00000000000E+00  0.00000000000E+00  0.13641977917E+04  0.22588262869E+04  0.18003501270E+04 0.  0.
        2    1    3    3  502    0  0.29953939449E+03  0.67172100376E+03  0.13332927580E+04  0.15226958115E+04  0.25500000920E-02 0. -1.
       -2    1    3    3    0  502 -0.29953939449E+03 -0.67172100376E+03  0.30905033648E+02  0.73613047542E+03  0.25500000920E-02 0.  1.
</event>
<event>
 5   0  0.1035018E-05  0.1799489E+04  0.7818609E-02  0.8706571E-01
       -2   -1    0    0    0  501  0.00000000000E+00  0.00000000000E+00  0.94608789605E+03  0.94608789605E+03  0.25500000920E-02 0.  1.
        2   -1    0    0  501    0  0.00000000000E+00  0.00000000000E+00 -0.85567133266E+03  0.85567133267E+03  0.25500000920E-02 0. -1.
    10030    2    1    2    0    0  0.00000000000E+00  0.00000000000E+00  0.90416563387E+02  0.18017592287E+04  0.17994891395E+04 0.  0.
        3    1    3    3  502    0  0.77344559638E+03  0.29421258842E+03 -0.30845274028E+03  0.88313206313E+03  0.10100000352E+00 0. -1.
       -3    1    3    3    0  502 -0.77344559638E+03 -0.29421258842E+03  0.39886930367E+03  0.91862716559E+03  0.10100000352E+00 0.  1.
</event>
<event>
 5   0  0.4983159E-06  0.1799406E+04  0.7818609E-02  0.8706615E-01
       -1   -1    0    0    0  501  0.00000000000E+00  0.00000000000E+00  0.94916712481E+03  0.94916712482E+03  0.50400001928E-02 0.  1.
        1   -1    0    0  501    0  0.00000000000E+00  0.00000000000E+00 -0.85281660596E+03  0.85281660598E+03  0.50400001928E-02 0. -1.
    10030    2    1    2    0    0  0.00000000000E+00  0.00000000000E+00  0.96350518843E+02  0.18019837308E+04  0.17994059974E+04 0.  0.
        4    1    3    3  502    0 -0.70112302123E+03  0.44677356754E+03  0.39259201025E+03  0.91940753257E+03  0.12699999809E+01 0.  1.
       -4    1    3    3    0  502  0.70112302123E+03 -0.44677356754E+03 -0.29624149141E+03  0.88257619823E+03  0.12699999809E+01 0. -1.
</event>
<event>
 5   0  0.4994123E-06  0.1799359E+04  0.7818609E-02  0.8706641E-01
       -1   -1    0    0    0  501  0.00000000000E+00  0.00000000000E+00  0.52128892203E+03  0.52128892206E+03  0.50400001928E-02 0. -1.
        1   -1    0    0  501    0  0.00000000000E+00  0.00000000000E+00 -0.15527336445E+04  0.15527336445E+04  0.50400001928E-02 0.  1.
    10030    2    1    2    0    0  0.00000000000E+00  0.00000000000E+00 -0.10314447224E+04  0.20740225665E+04  0.17993586055E+04 0.  0.
        1    1    3    3  502    0 -0.85339147800E+03 -0.14743265451E+03 -0.79666878048E+03  0.11767304484E+04  0.50400001928E-02 0.  1.
       -1    1    3    3    0  502  0.85339147800E+03  0.14743265451E+03 -0.23477594195E+03  0.89729211815E+03  0.50400001928E-02 0. -1.
</event>
<event>
 5   0  0.9999162E-06  0.1800331E+04  0.7818609E-02  0.8706124E-01
       -2   -1    0    0    0  501  0.00000000000E+00  0.00000000000E+00  0.12304175708E+04  0.12304175708E+04  0.25500000920E-02 0. -1.
        2   -1    0    0  501    0  0.00000000000E+00  0.00000000000E+00 -0.65855507536E+03  0.65855507537E+03  0.25500000920E-02 0.  1.
    10030    2    1    2    0    0  0.00000000000E+00  0.00000000000E+00  0.57186249540E+03  0.18889726461E+04  0.18003307874E+04 0.  0.
        1    1    3    3  502    0 -0.67334234825E+02 -0.31245715758E+02 -0.65533824506E+03  0.65952892991E+03  0.50400001928E-02 0.  1.
       -1    1    3    3    0  502  0.67334234825E+02  0.31245715758E+02  0.12272007405E+04  0.12294437162E+04  0.50400001928E-02 0. -1.
</event>
<event>
 5   0  0.1036381E-05  0.1799626E+04  0.7818609E-02  0.8706499E-01
        2   -1    0    0  501    0  0.00000000000E+00  0.00000000000E+00  0.97294370452E+03  0.97294370453E+03  0.25500000920E-02 0. -1.
       -2   -1    0    0    0  501  0.00000000000E+00  0.00000000000E+00 -0.83217874528E+03  0.83217874528E+03  0.25500000920E-02 0.  1.
    10030    2    1    2    0    0  0.00000000000E+00  0.00000000000E+00  0.14076495925E+03  0.18051224498E+04  0.17996255958E+04 0.  0.
        4    1    3    3  502    0  0.42064315774E+03  0.70485681882E+03  0.44015147287E+03  0.93139612044E+03  0.12699999809E+01 0. -1.
       -4    1    3    3    0  502 -0.42064315774E+03 -0.70485681882E+03 -0.29938651362E+03  0.87372632937E+03  0.12699999809E+01 0.  1.
</event>
<event>
 5   0  0.4981384E-06  0.1801576E+04  0.7818609E-02  0.8705462E-01
       -1   -1    0    0    0  501  0.00000000000E+00  0.00000000000E+00  0.99700762306E+03  0.99700762307E+03  0.50400001928E-02 0.  1.
        1   -1    0    0  501    0  0.00000000000E+00  0.00000000000E+00 -0.81385400881E+03  0.81385400882E+03  0.50400001928E-02 0. -1.
    10030    2    1    2    0    0  0.00000000000E+00  0.00000000000E+00  0.18315361425E+03  0.18108616319E+04  0.18015755892E+04 0.  0.
        5    1    3    3  502    0  0.26031487232E+03 -0.65145180012E+03  0.65950530395E+03  0.96287206656E+03  0.46999998093E+01 0.  1.
       -5    1    3    3    0  502 -0.26031487232E+03  0.65145180012E+03 -0.47635168970E+03  0.84798956533E+03  0.46999998093E+01 0. -1.
</event>
<event>
 5   0  0.9999162E-06  0.1798990E+04  0.7818609E-02  0.8706837E-01
       -2   -1    0    0    0  501  0.00000000000E+00  0.00000000000E+00  0.52813241787E+03  0.52813241788E+03  0.25500000920E-02 0. -1.
        2   -1    0    0  501    0  0.00000000000E+00  0.00000000000E+00 -0.15319851970E+04  0.15319851970E+04  0.25500000920E-02 0.  1.
    10030    2    1    2    0    0  0.00000000000E+00  0.00000000000E+00 -0.10038527791E+04  0.20601176149E+04  0.17989897679E+04 0.  0.
        1    1    3    3  502    0 -0.39630821866E+03 -0.20527846536E+03  0.39238682085E+03  0.59427844461E+03  0.50400001928E-02 0. -1.
       -1    1    3    3    0  502  0.39630821866E+03  0.20527846536E+03 -0.13962396000E+04  0.14658391703E+04  0.50400001928E-02 0.  1.
</event>
<event>
 5   0  0.1035018E-05  0.1799638E+04  0.7818609E-02  0.8706492E-01
        2   -1    0    0  501    0  0.00000000000E+00  0.00000000000E+00  0.87561640586E+03  0.87561640586E+03  0.25500000920E-02 0. -1.
       -2   -1    0    0    0  501  0.00000000000E+00  0.00000000000E+00 -0.92469067345E+03  0.92469067345E+03  0.25500000920E-02 0.  1.
    10030    2    1    2    0    0  0.00000000000E+00  0.00000000000E+00 -0.49074267589E+02  0.18003070793E+04  0.17996381014E+04 0.  0.
        3    1    3    3  502    0 -0.28836771169E+03 -0.74565827246E+03  0.38854749385E+03  0.88889333534E+03  0.10100000352E+00 0. -1.
       -3    1    3    3    0  502  0.28836771169E+03  0.74565827246E+03 -0.43762176144E+03  0.91141374398E+03  0.10100000352E+00 0.  1.
</event>
<event>
 5   0  0.4994123E-06  0.1800420E+04  0.7818609E-02  0.8706076E-01
       -1   -1    0    0    0  501  0.00000000000E+00  0.00000000000E+00  0.57909492168E+03  0.57909492171E+03  0.50400001928E-02 0.  1.
        1   -1    0    0  501    0  0.00000000000E+00  0.00000000000E+00 -0.13993865522E+04  0.13993865523E+04  0.50400001928E-02 0. -1.
    10030    2    1    2    0    0  0.00000000000E+00  0.00000000000E+00 -0.82029163056E+03  0.19784814740E+04  0.18004195577E+04 0.  0.
        1    1    3    3  502    0 -0.43103246177E+02  0.10282262650E+03 -0.13917702512E+04  0.13962287830E+04  0.50400001928E-02 0. -1.
       -1    1    3    3    0  502  0.43103246177E+02 -0.10282262650E+03  0.57147862059E+03  0.58225269100E+03  0.50400001928E-02 0.  1.
</event>
<event>
 5   0  0.4994123E-06  0.1800118E+04  0.7818609E-02  0.8706237E-01
       -1   -1    0    0    0  501  0.00000000000E+00  0.00000000000E+00  0.50364164068E+03  0.50364164071E+03  0.50400001928E-02 0. -1.
        1   -1    0    0  501    0  0.00000000000E+00  0.00000000000E+00 -0.16084970007E+04  0.16084970007E+04  0.50400001928E-02 0.  1.
    10030    2    1    2    0    0  0.00000000000E+00  0.00000000000E+00 -0.11048553600E+04  0.21121386414E+04  0.18001178500E+04 0.  0.
        1    1    3    3  502    0 -0.10847480104E+03  0.66937546474E+03  0.14199921692E+03  0.69281604549E+03  0.50400001928E-02 0. -1.
       -1    1    3    3    0  502  0.10847480104E+03 -0.66937546474E+03 -0.12468545769E+04  0.14193225959E+04  0.50400001928E-02 0.  1.
</event>
<event>
 5   0  0.4987456E-06  0.1802486E+04  0.7818609E-02  0.8704978E-01
       -1   -1    0    0    0  501  0.00000000000E+00  0.00000000000E+00  0.76905433739E+03  0.76905433740E+03  0.50400001928E-02 0. -1.
        1   -1    0    0  501    0  0.00000000000E+00  0.00000000000E+00 -0.10561531717E+04  0.10561531718E+04  0.50400001928E-02 0.  1.
    10030    2    1    2    0    0  0.00000000000E+00  0.00000000000E+00 -0.28709883435E+03  0.18252075092E+04  0.18024862581E+04 0.  0.
        3    1    3    3  502    0 -0.24088425273E+03 -0.10526670518E+02 -0.10228870443E+04  0.10509205249E+04  0.10100000352E+00 0.  1.
       -3    1    3    3    0  502  0.24088425273E+03  0.10526670518E+02  0.73578820992E+03  0.77428698431E+03  0.10100000352E+00 0. -1.
</event>
<event>
 5   0  0.4981384E-06  0.1800317E+04  0.7818609E-02  0.8706131E-01
       -1   -1    0    0    0  501  0.00000000000E+00  0.00000000000E+00  0.38889362540E+03  0.38889362543E+03  0.50400001928E-02 0.  1.
        1   -1    0    0  501    0  0.00000000000E+00  0.00000000000E+00 -0.20835648191E+04  0.20835648191E+04  0.50400001928E-02 0. -1.
    10030    2    1    2    0    0  0.00000000000E+00  0.00000000000E+00 -0.16946711937E+04  0.24724584446E+04  0.18003167236E+04 0.  0.
        5    1    3    3  502    0 -0.14747850601E+03  0.35425552695E+03 -0.19655938752E+04  0.20027052355E+04  0.46999998093E+01 0. -1.
       -5    1    3    3    0  502  0.14747850601E+03 -0.35425552695E+03  0.27092268146E+03  0.46975320907E+03  0.46999998093E+01 0.  1.
</event>
<event>
 5   0  0.4981384E-06  0.1799916E+04  0.7818609E-02  0.8706344E-01
       -1   -1    0    0    0  501  0.00000000000E+00  0.00000000000E+00  0.51709404958E+03  0.51709404960E+03  0.50400001928E-02 0.  1.
        1   -1    0    0  501    0  0.00000000000E+00  0.00000000000E+00 -0.15662995842E+04  0.15662995842E+04  0.50400001928E-02 0. -1.
    10030    2    1    2    0    0  0.00000000000E+00  0.00000000000E+00 -0.10492055346E+04  0.20833936338E+04  0.17999157701E+04 0.  0.
        5    1    3    3  502    0  0.54058500624E+03 -0.60360313254E+03 -0.71353333155E+02  0.81343855252E+03  0.46999998093E+01 0.  1.
       -5    1    3    3    0  502 -0.54058500624E+03  0.60360313254E+03 -0.97785220144E+03  0.12699550813E+04  0.46999998093E+01 0. -1.
</event>
<event>
 5   0  0.1036381E-05  0.1799745E+04  0.7818609E-02  0.8706435E-01
       -2   -1    0    0    0  501  0.00000000000E+00  0.00000000000E+00  0.46372179902E+03  0.46372179903E+03  0.25500000920E-02 0.  1.
        2   -1    0    0  501    0  0.00000000000E+00  0.00000000000E+00 -0.17462419360E+04  0.17462419360E+04  0.25500000920E-02 0. -1.
    10030    2    1    2    0    0  0.00000000000E+00  0.00000000000E+00 -0.12825201370E+04  0.22099637350E+04  0.17997449287E+04 0.  0.
        4    1    3    3  502    0  0.21602674766E+02 -0.43637849094E+03  0.32473742784E+03  0.54437934646E+03  0.12699999809E+01 0.  1.
       -4    1    3    3    0  502 -0.21602674766E+02  0.43637849094E+03 -0.16072575648E+04  0.16655843886E+04  0.12699999809E+01 0. -1.
</event>
<event>
 5   0  0.9999162E-06  0.1798481E+04  0.7818609E-02  0.8707108E-01
        2   -1    0    0  501    0  0.00000000000E+00  0.00000000000E+00  0.75235519464E+03  0.75235519464E+03  0.25500000920E-02 0. -1.
       -2   -1    0    0    0  501  0.00000000000E+00  0.00000000000E+00 -0.10748031866E+04  0.10748031866E+04  0.25500000920E-02 0.  1.
    10030    2    1    2    0    0  0.00000000000E+00  0.00000000000E+00 -0.32244799193E+03  0.18271583812E+04  0.17984813156E+04 0.  0.
        1    1    3    3  502    0 -0.56683847282E+03  0.40959972719E+03 -0.73553049605E+03  0.10149299983E+04  0.50400001928E-02 0.  1.
       -1    1    3    3    0  502  0.56683847282E+03 -0.40959972719E+03  0.41308250412E+03  0.81222838292E+03  0.50400001928E-02 0. -1.
</event>
<event>
 5   0  0.4953155E-06  0.1800644E+04  0.7818609E-02  0.8705957E-01
        1   -1    0    0  501    0  0.00000000000E+00  0.00000000000E+00  0.25466034868E+04  0.25466034868E+04  0.50400001928E-02 0.  1.
       -1   -1    0    0    0  501  0.00000000000E+00  0.00000000000E+00 -0.31829827081E+03  0.31829827085E+03  0.50400001928E-02 0. -1.
    10030    2    1    2    0    0  0.00000000000E+00  0.00000000000E+00  0.22283052160E+04  0.28649017576E+04  0.18006437586E+04 0.  0.
        2    1    3    3  502    0 -0.15932216192E+03 -0.27563183048E+03 -0.22575035777E+03  0.39028154106E+03  0.25500000920E-02 0. -1.
       -2    1    3    3    0  502  0.15932216192E+03  0.27563183048E+03  0.24540555737E+04  0.24746202166E+04  0.25500000920E-02 0.  1.
</event>
<event>
 5   0  0.1000316E-05  0.1800342E+04  0.7818609E-02  0.8706118E-01
       -2   -1    0    0    0  501  0.00000000000E+00  0.00000000000E+00  0.75491353744E+03  0.75491353745E+03  0.25500000920E-02 0. -1.
        2   -1    0    0  501    0  0.00000000000E+00  0.00000000000E+00 -0.10733778713E+04  0.10733778713E+04  0.25500000920E-02 0.  1.
    10030    2    1    2    0    0  0.00000000000E+00  0.00000000000E+00 -0.31846433386E+03  0.18282914088E+04  0.18003416185E+04 0.  0.
        5    1    3    3  502    0  0.23688573853E+03 -0.20010278095E+03  0.69894896089E+03  0.76466183113E+03  0.46999998093E+01 0. -1.
       -5    1    3    3    0  502 -0.23688573853E+03  0.20010278095E+03 -0.10174132947E+04  0.10636295776E+04  0.46999998093E+01 0.  1.
</event>
<event>
 5   0  0.4953155E-06  0.1798503E+04  0.7818609E-02  0.8707096E-01
       -1   -1    0    0    0  501  0.00000000000E+00  0.00000000000E+00  0.52983948285E+03  0.52983948287E+03  0.50400001928E-02 0. -1.
        1   -1    0    0  501    0  0.00000000000E+00  0.00000000000E+00 -0.15262236387E+04  0.15262236387E+04  0.50400001928E-02 0.  1.
    10030    2    1    2    0    0  0.00000000000E+00  0.00000000000E+00 -0.99638415583E+03  0.20560631216E+04  0.17985033149E+04 0.  0.
        2    1    3    3  502    0  0.78784375730E+03 -0.41091378429E+03 -0.34017436849E+03  0.95145495165E+03  0.25500000920E-02 0. -1.
       -2    1    3    3    0  502 -0.78784375730E+03  0.41091378429E+03 -0.65620978734E+03  0.11046081699E+04  0.25500000920E-02 0.  1.
</event>
<event>
 5   0  0.9589963E-06  0.1799962E+04  0.7818609E-02  0.8706319E-01
       -2   -1    0    0    0  501  0.00000000000E+00  0.00000000000E+00  0.62002843148E+03  0.62002843149E+03  0.25500000920E-02 0.  1.
        2   -1    0    0  501    0  0.00000000000E+00  0.00000000000E+00 -0.13063371324E+04  0.13063371324E+04  0.25500000920E-02 0. -1.
    10030    2    1    2    0    0  0.00000000000E+00  0.00000000000E+00 -0.68630870091E+03  0.19263655639E+04  0.17999624032E+04 0.  0.
        2    1    3    3  502    0  0.73854712699E+03 -0.16728995263E+03 -0.86364975249E+03  0.11486203385E+04  0.25500000920E-02 0. -1.
       -2    1    3    3    0  502 -0.73854712699E+03  0.16728995263E+03  0.17734105158E+03  0.77774522539E+03  0.25500000920E-02 0.  1.
</event>
<event>
 5   0  0.1035018E-05  0.1800120E+04  0.7818609E-02  0.8706235E-01
       -2   -1    0    0    0  501  0.00000000000E+00  0.00000000000E+00  0.84625932748E+03  0.84625932748E+03  0.25500000920E-02 0. -1.
        2   -1    0    0  501    0  0.00000000000E+00  0.00000000000E+00 -0.95728148600E+03  0.95728148601E+03  0.25500000920E-02 0.  1.
    10030    2    1    2    0    0  0.00000000000E+00  0.00000000000E+00 -0.11102215853E+03  0.18035408135E+04  0.18001204255E+04 0.  0.
        3    1    3    3  502    0 -0.19855414086E+02  0.46379568202E+02 -0.95586371720E+03  0.95719421116E+03  0.10100000352E+00 0.  1.
       -3    1    3    3    0  502  0.19855414086E+02 -0.46379568202E+02  0.84484155867E+03  0.84634660233E+03  0.10100000352E+00 0. -1.
</event>
<event>
 5   0  0.9999162E-06  0.1795660E+04  0.7818609E-02  0.8708611E-01
       -2   -1    0    0    0  501  0.00000000000E+00  0.00000000000E+00  0.49600524601E+03  0.49600524602E+03  0.25500000920E-02 0.  1.
        2   -1    0    0  501    0  0.00000000000E+00  0.00000000000E+00 -0.16251813760E+04  0.16251813760E+04  0.25500000920E-02 0. -1.
    10030    2    1    2    0    0  0.00000000000E+00  0.00000000000E+00 -0.11291761300E+04  0.21211866220E+04  0.17956597542E+04 0.  0.
        1    1    3    3  502    0  0.20402852153E+03 -0.84095396908E+03 -0.84727652498E+03  0.12110775060E+04  0.50400001928E-02 0.  1.
       -1    1    3    3    0  502 -0.20402852153E+03  0.84095396908E+03 -0.28189960498E+03  0.91010911600E+03  0.50400001928E-02 0. -1.
</event>
<event>
 5   0  0.1036381E-05  0.1802580E+04  0.7818609E-02  0.8704929E-01
        2   -1    0    0  501    0  0.00000000000E+00  0.00000000000E+00  0.13070329417E+04  0.13070329417E+04  0.25500000920E-02 0.  1.
       -2   -1    0    0    0  501  0.00000000000E+00  0.00000000000E+00 -0.62150195939E+03  0.62150195939E+03  0.25500000920E-02 0. -1.
    10030    2    1    2    0    0  0.00000000000E+00  0.00000000000E+00  0.68553098231E+03  0.19285349011E+04  0.18025798559E+04 0.  0.
        4    1    3    3  502    0 -0.56207603189E+03  0.60603108103E+03  0.72720472578E+03  0.11009230050E+04  0.12699999809E+01 0.  1.
       -4    1    3    3    0  502  0.56207603189E+03 -0.60603108103E+03 -0.41673743469E+02  0.82761189611E+03  0.12699999809E+01 0. -1.
</event>
<event>
 5   0  0.4981384E-06  0.1799077E+04  0.7818609E-02  0.8706790E-01
        1   -1    0    0  501    0  0.00000000000E+00  0.00000000000E+00  0.14366826313E+04  0.14366826313E+04  0.50400001928E-02 0. -1.
       -1   -1    0    0    0  501  0.00000000000E+00  0.00000000000E+00 -0.56322097669E+03  0.56322097671E+03  0.50400001928E-02 0.  1.
    10030    2    1    2    0    0  0.00000000000E+00  0.00000000000E+00  0.87346165458E+03  0.19999036080E+04  0.17990773133E+04 0.  0.
        5    1    3    3  502    0  0.79850699199E+03 -0.41371266414E+03  0.45828952375E+03  0.10093676051E+04  0.46999998093E+01 0. -1.
       -5    1    3    3    0  502 -0.79850699199E+03  0.41371266414E+03  0.41517213083E+03  0.99053600285E+03  0.46999998093E+01 0.  1.
</event>
<event>
 5   0  0.4983159E-06  0.1800090E+04  0.7818609E-02  0.8706252E-01
        1   -1    0    0  501    0  0.00000000000E+00  0.00000000000E+00  0.18118548267E+04  0.18118548267E+04  0.50400001928E-02 0.  1.
       -1   -1    0    0    0  501  0.00000000000E+00  0.00000000000E+00 -0.44710023778E+03  0.44710023781E+03  0.50400001928E-02 0. -1.
    10030    2    1    2    0    0  0.00000000000E+00  0.00000000000E+00  0.13647545889E+04  0.22589550645E+04  0.18000896910E+04 0.  0.
        4    1    3    3  502    0 -0.63625632953E+03 -0.48928134347E+03  0.17130154506E+03  0.82070956018E+03  0.12699999809E+01 0.  1.
       -4    1    3    3    0  502  0.63625632953E+03  0.48928134347E+03  0.11934530439E+04  0.14382455043E+04  0.12699999809E+01 0. -1.
</event>
<event>
 5   0  0.4981384E-06  0.1787002E+04  0.7818609E-02  0.8713242E-01
        1   -1    0    0  501    0  0.00000000000E+00  0.00000000000E+00  0.11650307269E+04  0.11650307269E+04  0.50400001928E-02 0.  1.
       -1   -1    0    0    0  501  0.00000000000E+00  0.00000000000E+00 -0.68525560287E+03  0.68525560289E+03  0.50400001928E-02 0. -1.
    10030    2    1    2    0    0  0.00000000000E+00  0.00000000000E+00  0.47977512399E+03  0.18502863298E+04  0.17870017718E+04 0.  0.
        5    1    3    3  502    0 -0.83626109476E+03 -0.18828208636E+03  0.50088369820E+03  0.99281888166E+03  0.46999998093E+01 0.  1.
       -5    1    3    3    0  502  0.83626109476E+03  0.18828208636E+03 -0.21108574211E+02  0.85746744810E+03  0.46999998093E+01 0. -1.
</event>
<event>
 5   0  0.1035018E-05  0.1800221E+04  0.7818609E-02  0.8706182E-01
        2   -1    0    0  501    0  0.00000000000E+00  0.00000000000E+00  0.53922839839E+03  0.53922839840E+03  0.25500000920E-02 0. -1.
       -2   -1    0    0    0  501  0.00000000000E+00  0.00000000000E+00 -0.15025158073E+04  0.15025158073E+04  0.25500000920E-02 0.  1.
    10030    2    1    2    0    0  0.00000000000E+00  0.00000000000E+00 -0.96328740889E+03  0.20417442057E+04  0.18002213112E+04 0.  0.
        3    1    3    3  502    0  0.89427983952E+03 -0.96010916758E+02 -0.52165658891E+03  0.10397500346E+04  0.10100000352E+00 0.  1.
       -3    1    3    3    0  502 -0.89427983952E+03  0.96010916758E+02 -0.44163081998E+03  0.10019941711E+04  0.10100000352E+00 0. -1.
</event>
<event>
 5   0  0.9589963E-06  0.1799965E+04  0.7818609E-02  0.8706318E-01
        2   -1    0    0  501    0  0.00000000000E+00  0.00000000000E+00  0.76090201620E+03  0.76090201621E+03  0.25500000920E-02 0.  1.
       -2   -1    0    0    0  501  0.00000000000E+00  0.00000000000E+00 -0.10644843858E+04  0.10644843858E+04  0.25500000920E-02 0. -1.
    10030    2    1    2    0    0  0.00000000000E+00  0.00000000000E+00 -0.30358236961E+03  0.18253864020E+04  0.17999647945E+04 0.  0.
        2    1    3    3  502    0  0.74095529165E+03 -0.29064942919E+03 -0.57781533331E+03  0.98354582727E+03  0.25500000920E-02 0. -1.
       -2    1    3    3    0  502 -0.74095529165E+03  0.29064942919E+03  0.27423296371E+03  0.84184057476E+03  0.25500000920E-02 0.  1.
</event>
<event>
 5   0  0.1000316E-05  0.1799286E+04  0.7818609E-02  0.8706679E-01
       -2   -1    0    0    0  501  0.00000000000E+00  0.00000000000E+00  0.56459267741E+03  0.56459267742E+03  0.25500000920E-02 0. -1.
        2   -1    0    0  501    0  0.00000000000E+00  0.00000000000E+00 -0.14335251243E+04  0.14335251243E+04  0.25500000920E-02 0.  1.
    10030    2    1    2    0    0  0.00000000000E+00  0.00000000000E+00 -0.86893244685E+03  0.19981178017E+04  0.17992862897E+04 0.  0.
        5    1    3    3  502    0  0.32625413044E+03  0.21050485162E+03  0.46674300561E+03  0.60714510084E+03  0.46999998093E+01 0. -1.
       -5    1    3    3    0  502 -0.32625413044E+03 -0.21050485162E+03 -0.13356754525E+04  0.13909727008E+04  0.46999998093E+01 0.  1.
</event>
<event>
 5   0  0.4983159E-06  0.1800732E+04  0.7818609E-02  0.8705910E-01
        1   -1    0    0  501    0  0.00000000000E+00  0.00000000000E+00  0.14116041106E+04  0.14116041106E+04  0.50400001928E-02 0. -1.
       -1   -1    0    0    0  501  0.00000000000E+00  0.00000000000E+00 -0.57428222847E+03  0.57428222849E+03  0.50400001928E-02 0.  1.
    10030    2    1    2    0    0  0.00000000000E+00  0.00000000000E+00  0.83732188211E+03  0.19858863391E+04  0.18007322448E+04 0.  0.
        4    1    3    3  502    0  0.32957032799E+03 -0.26331903132E+03  0.12958749258E+04  0.13628084787E+04  0.12699999809E+01 0. -1.
       -4    1    3    3    0  502 -0.32957032799E+03  0.26331903132E+03 -0.45855304369E+03  0.62307786040E+03  0.12699999809E+01 0.  1.
</event>
<event>
 5   0  0.4994123E-06  0.1800021E+04  0.7818609E-02  0.8706288E-01
        1   -1    0    0  501    0  0.00000000000E+00  0.00000000000E+00  0.10389682389E+04  0.10389682389E+04  0.50400001928E-02 0. -1.
       -1   -1    0    0    0  501  0.00000000000E+00  0.00000000000E+00 -0.77963770734E+03  0.77963770736E+03  0.50400001928E-02 0.  1.
    10030    2    1    2    0    0  0.00000000000E+00  0.00000000000E+00  0.25933053153E+03  0.18186059462E+04  0.18000209063E+04 0.  0.
        1    1    3    3  502    0  0.68595736490E+03 -0.58057280284E+03  0.17933103248E+03  0.91638523836E+03  0.50400001928E-02 0.  1.
       -1    1    3    3    0  502 -0.68595736490E+03  0.58057280284E+03  0.79999499049E+02  0.90222070788E+03  0.50400001928E-02 0. -1.
</event>
<event>
 5   0  0.9589963E-06  0.1798851E+04  0.7818609E-02  0.8706911E-01
        2   -1    0    0  501    0  0.00000000000E+00  0.00000000000E+00  0.15452074953E+04  0.15452074953E+04  0.25500000920E-02 0.  1.
       -2   -1    0    0    0  501  0.00000000000E+00  0.00000000000E+00 -0.52353256420E+03  0.52353256421E+03  0.25500000920E-02 0. -1.
    10030    2    1    2    0    0  0.00000000000E+00  0.00000000000E+00  0.10216749311E+04  0.20687400596E+04  0.17988512360E+04 0.  0.
        2    1    3    3  502    0 -0.63565298857E+03 -0.29226992166E+03  0.11608763242E+04  0.13554004092E+04  0.25500000920E-02 0.  1.
       -2    1    3    3    0  502  0.63565298857E+03  0.29226992166E+03 -0.13920139309E+03  0.71333965040E+03  0.25500000920E-02 0. -1.
</event>
<event>
 5   0  0.3626125E-06  0.1799626E+04  0.7818609E-02  0.8706498E-01
       -3   -1    0    0    0  501  0.00000000000E+00  0.00000000000E+00  0.49930959102E+03  0.49930960123E+03  0.10100000352E+00 0. -1.
        3   -1    0    0  501    0  0.00000000000E+00  0.00000000000E+00 -0.16215667529E+04  0.16215667560E+04  0.10100000352E+00 0.  1.
    10030    2    1    2    0    0  0.00000000000E+00  0.00000000000E+00 -0.11222571618E+04  0.21208763572E+04  0.17996264572E+04 0.  0.
        3    1    3    3  502    0  0.64872552865E+02  0.52391146017E+03  0.29762559287E+03  0.60603025497E+03  0.10100000352E+00 0. -1.
       -3    1    3    3    0  502 -0.64872552865E+02 -0.52391146017E+03 -0.14198827547E+04  0.15148461023E+04  0.10100000352E+00 0.  1.
</event>
<event>
 5   0  0.4983159E-06  0.1799692E+04  0.7818609E-02  0.8706463E-01
       -1   -1    0    0    0  501  0.00000000000E+00  0.00000000000E+00  0.22878509023E+04  0.22878509023E+04  0.50400001928E-02 0. -1.
        1   -1    0    0  501    0  0.00000000000E+00  0.00000000000E+00 -0.35392299074E+03  0.35392299077E+03  0.50400001928E-02 0.  1.
    10030    2    1    2    0    0  0.00000000000E+00  0.00000000000E+00  0.19339279115E+04  0.26417738931E+04  0.17996922334E+04 0.  0.
        4    1    3    3  502    0 -0.88113639666E+03  0.17500977429E+03  0.89080750177E+03  0.12651361147E+04  0.12699999809E+01 0.  1.
       -4    1    3    3    0  502  0.88113639666E+03 -0.17500977429E+03  0.10431204098E+04  0.13766377784E+04  0.12699999809E+01 0. -1.
</event>
<event>
 5   0  0.1036381E-05  0.1799880E+04  0.7818609E-02  0.8706363E-01
       -2   -1    0    0    0  501  0.00000000000E+00  0.00000000000E+00  0.90126347880E+03  0.90126347880E+03  0.25500000920E-02 0. -1.
        2   -1    0    0  501    0  0.00000000000E+00  0.00000000000E+00 -0.89861884002E+03  0.89861884002E+03  0.25500000920E-02 0.  1.
    10030    2    1    2    0    0  0.00000000000E+00  0.00000000000E+00  0.26446387817E+01  0.17998823188E+04  0.17998803759E+04 0.  0.
        4    1    3    3  502    0  0.41489502350E+03 -0.76926675454E+03  0.21575554462E+03  0.90025623469E+03  0.12699999809E+01 0. -1.
       -4    1    3    3    0  502 -0.41489502350E+03  0.76926675454E+03 -0.21311090584E+03  0.89962608413E+03  0.12699999809E+01 0.  1.
</event>
<event>
 5   0  0.4981384E-06  0.1798790E+04  0.7818609E-02  0.8706943E-01
        1   -1    0    0  501    0  0.00000000000E+00  0.00000000000E+00  0.58587243411E+03  0.58587243413E+03  0.50400001928E-02 0.  1.
       -1   -1    0    0    0  501  0.00000000000E+00  0.00000000000E+00 -0.13806953709E+04  0.13806953709E+04  0.50400001928E-02 0. -1.
    10030    2    1    2    0    0  0.00000000000E+00  0.00000000000E+00 -0.79482293682E+03  0.19665678051E+04  0.17987899908E+04 0.  0.
        5    1    3    3  502    0  0.68633605332E+03 -0.19276897757E+03 -0.99689203382E+03  0.12255745077E+04  0.46999998093E+01 0. -1.
       -5    1    3    3    0  502 -0.68633605332E+03  0.19276897757E+03  0.20206909701E+03  0.74099329738E+03  0.46999998093E+01 0.  1.
</event>
<event>
 5   0  0.1000316E-05  0.1799988E+04  0.7818609E-02  0.8706306E-01
       -2   -1    0    0    0  501  0.00000000000E+00  0.00000000000E+00  0.71015312704E+03  0.71015312705E+03  0.25500000920E-02 0.  1.
        2   -1    0    0  501    0  0.00000000000E+00  0.00000000000E+00 -0.11405839144E+04  0.11405839144E+04  0.25500000920E-02 0. -1.
    10030    2    1    2    0    0  0.00000000000E+00  0.00000000000E+00 -0.43043078735E+03  0.18507370414E+04  0.17999880371E+04 0.  0.
        5    1    3    3  502    0  0.22188833889E+03 -0.64251290045E+02 -0.11095695977E+04  0.11333708331E+04  0.46999998093E+01 0. -1.
       -5    1    3    3    0  502 -0.22188833889E+03  0.64251290045E+02  0.67913881032E+03  0.71736620836E+03  0.46999998093E+01 0.  1.
</event>
<event>
 5   0  0.9999162E-06  0.1799195E+04  0.7818609E-02  0.8706728E-01
        2   -1    0    0  501    0  0.00000000000E+00  0.00000000000E+00  0.26021236110E+04  0.26021236110E+04  0.25500000920E-02 0. -1.
       -2   -1    0    0    0  501  0.00000000000E+00  0.00000000000E+00 -0.31100593664E+03  0.31100593665E+03  0.25500000920E-02 0.  1.
    10030    2    1    2    0    0  0.00000000000E+00  0.00000000000E+00  0.22911176744E+04  0.29131295477E+04  0.17991952545E+04 0.  0.
        1    1    3    3  502    0  0.73626681946E+03 -0.33457400168E+03  0.50759872226E+03  0.95482200169E+03  0.50400001928E-02 0.  1.
       -1    1    3    3    0  502 -0.73626681946E+03  0.33457400168E+03  0.17835189521E+04  0.19583075460E+04  0.50400001928E-02 0. -1.
</event>
<event>
 5   0  0.4987456E-06  0.1799621E+04  0.7818609E-02  0.8706501E-01
       -1   -1    0    0    0  501  0.00000000000E+00  0.00000000000E+00  0.96145947117E+03  0.96145947118E+03  0.50400001928E-02 0.  1.
        1   -1    0    0  501    0  0.00000000000E+00  0.00000000000E+00 -0.84211457262E+03  0.84211457263E+03  0.50400001928E-02 0. -1.
    10030    2    1    2    0    0  0.00000000000E+00  0.00000000000E+00  0.11934489855E+03  0.18035740438E+04  0.17996211064E+04 0.  0.
        3    1    3    3  502    0  0.26348356785E+03  0.44479025547E+03 -0.67842135830E+03  0.85294637082E+03  0.10100000352E+00 0. -1.
       -3    1    3    3    0  502 -0.26348356785E+03 -0.44479025547E+03  0.79776625685E+03  0.95062767299E+03  0.10100000352E+00 0.  1.
</event>
<event>
 5   0  0.4983159E-06  0.1800453E+04  0.7818609E-02  0.8706059E-01
        1   -1    0    0  501    0  0.00000000000E+00  0.00000000000E+00  0.13342555271E+04  0.13342555271E+04  0.50400001928E-02 0. -1.
       -1   -1    0    0    0  501  0.00000000000E+00  0.00000000000E+00 -0.60738557915E+03  0.60738557917E+03  0.50400001928E-02 0.  1.
    10030    2    1    2    0    0  0.00000000000E+00  0.00000000000E+00  0.72686994792E+03  0.19416411063E+04  0.18004527942E+04 0.  0.
        4    1    3    3  502    0 -0.61418527126E+03  0.26223768991E+03  0.10144404264E+04  0.12145300099E+04  0.12699999809E+01 0. -1.
       -4    1    3    3    0  502  0.61418527126E+03 -0.26223768991E+03 -0.28757047845E+03  0.72711109634E+03  0.12699999809E+01 0.  1.
</event>
<event>
 5   0  0.4983159E-06  0.1799253E+04  0.7818609E-02  0.8706697E-01
        1   -1    0    0  501    0  0.00000000000E+00  0.00000000000E+00  0.15004050461E+04  0.15004050461E+04  0.50400001928E-02 0.  1.
       -1   -1    0    0    0  501  0.00000000000E+00  0.00000000000E+00 -0.53940619747E+03  0.53940619750E+03  0.50400001928E-02 0. -1.
    10030    2    1    2    0    0  0.00000000000E+00  0.00000000000E+00  0.96099884866E+03  0.20398112436E+04  0.17992529346E+04 0.  0.
        4    1    3    3  502    0 -0.17626114651E+03  0.10787214122E+03  0.14731315750E+04  0.14875559286E+04  0.12699999809E+01 0.  1.
       -4    1    3    3    0  502  0.17626114651E+03 -0.10787214122E+03 -0.51213272636E+03  0.55225531499E+03  0.12699999809E+01 0. -1.
</event>
<event>
 5   0  0.4983159E-06  0.1799964E+04  0.7818609E-02  0.8706319E-01
        1   -1    0    0  501    0  0.00000000000E+00  0.00000000000E+00  0.81373264150E+03  0.81373264152E+03  0.50400001928E-02 0. -1.
       -1   -1    0    0    0  501  0.00000000000E+00  0.00000000000E+00 -0.99537273519E+03  0.99537273520E+03  0.50400001928E-02 0.  1.
    10030    2    1    2    0    0  0.00000000000E+00  0.00000000000E+00 -0.18164009368E+03  0.18091053767E+04  0.17999636498E+04 0.  0.
        4    1    3    3  502    0  0.28007727224E+03 -0.38083387242E+03  0.67889447188E+03  0.82727083453E+03  0.12699999809E+01 0. -1.
       -4    1    3    3    0  502 -0.28007727224E+03  0.38083387242E+03 -0.86053456557E+03  0.98183454219E+03  0.12699999809E+01 0.  1.
</event>
<event>
 5   0  0.4987456E-06  0.1799606E+04  0.7818609E-02  0.8706509E-01
        1   -1    0    0  501    0  0.00000000000E+00  0.00000000000E+00  0.83785720164E+03  0.83785720166E+03  0.50400001928E-02 0.  1.
       -1   -1    0    0    0  501  0.00000000000E+00  0.00000000000E+00 -0.96632870344E+03  0.96632870346E+03  0.50400001928E-02 0. -1.
    10030    2    1    2    0    0  0.00000000000E+00  0.00000000000E+00 -0.12847150180E+03  0.18041859051E+04  0.17996060273E+04 0.  0.
        3    1    3    3  502    0  0.39315675950E+03  0.82638479415E+02  0.74294934074E+03  0.84461534969E+03  0.10100000352E+00 0.  1.
       -3    1    3    3    0  502 -0.39315675950E+03 -0.82638479415E+02 -0.87142084254E+03  0.95957055543E+03  0.10100000352E+00 0. -1.
</event>
<event>
 5   0  0.1000316E-05  0.1794395E+04  0.7818609E-02  0.8709286E-01
        2   -1    0    0  501    0  0.00000000000E+00  0.00000000000E+00  0.11063762879E+04  0.11063762879E+04  0.25500000920E-02 0. -1.
       -2   -1    0    0    0  501  0.00000000000E+00  0.00000000000E+00 -0.72756721623E+03  0.72756721623E+03  0.25500000920E-02 0.  1.
    10030    2    1    2    0    0  0.00000000000E+00  0.00000000000E+00  0.37880907165E+03  0.18339435041E+04  0.17943947346E+04 0.  0.
        5    1    3    3  502    0  0.97293413543E+02 -0.10882978988E+03  0.10941445467E+04  0.11038497681E+04  0.46999998093E+01 0. -1.
       -5    1    3    3    0  502 -0.97293413543E+02  0.10882978988E+03 -0.71533547505E+03  0.73009373600E+03  0.46999998093E+01 0.  1.
</event>
<event>
 5   0  0.9589963E-06  0.1801077E+04  0.7818609E-02  0.8705727E-01
        2   -1    0    0  501    0  0.00000000000E+00  0.00000000000E+00  0.86127005871E+03  0.86127005872E+03  0.25500000920E-02 0.  1.
       -2   -1    0    0    0  501  0.00000000000E+00  0.00000000000E+00 -0.94159746396E+03  0.94159746396E+03  0.25500000920E-02 0. -1.
    10030    2    1    2    0    0  0.00000000000E+00  0.00000000000E+00 -0.80327405245E+02  0.18028675227E+04  0.18010771256E+04 0.  0.
        2    1    3    3  502    0 -0.74133216576E+03 -0.63838587599E+02  0.46760868958E+03  0.87880978137E+03  0.25500000920E-02 0.  1.
       -2    1    3    3    0  502  0.74133216576E+03  0.63838587599E+02 -0.54793609483E+03  0.92405774131E+03  0.25500000920E-02 0. -1.
</event>
<event>
 5   0  0.4953155E-06  0.1800160E+04  0.7818609E-02  0.8706215E-01
        1   -1    0    0  501    0  0.00000000000E+00  0.00000000000E+00  0.14115855512E+04  0.14115855512E+04  0.50400001928E-02 0.  1.
       -1   -1    0    0    0  501  0.00000000000E+00  0.00000000000E+00 -0.57392466227E+03  0.57392466229E+03  0.50400001928E-02 0. -1.
    10030    2    1    2    0    0  0.00000000000E+00  0.00000000000E+00  0.83766088890E+03  0.19855102135E+04  0.18001597271E+04 0.  0.
        2    1    3    3  502    0 -0.72180004448E+02 -0.63014779451E+03  0.11232153174E+04  0.12899259069E+04  0.25500000920E-02 0.  1.
       -2    1    3    3    0  502  0.72180004448E+02  0.63014779451E+03 -0.28555442849E+03  0.69558430661E+03  0.25500000920E-02 0. -1.
</event>
<event>
 5   0  0.4994123E-06  0.1800226E+04  0.7818609E-02  0.8706179E-01
       -1   -1    0    0    0  501  0.00000000000E+00  0.00000000000E+00  0.47587418331E+03  0.47587418333E+03  0.50400001928E-02 0. -1.
        1   -1    0    0  501    0  0.00000000000E+00  0.00000000000E+00 -0.17025582901E+04  0.17025582901E+04  0.50400001928E-02 0.  1.
    10030    2    1    2    0    0  0.00000000000E+00  0.00000000000E+00 -0.12266841068E+04  0.21784324735E+04  0.18002261368E+04 0.  0.
        1    1    3    3  502    0 -0.70755647150E+03  0.37712958921E+03 -0.11083563742E+04  0.13679607961E+04  0.50400001928E-02 0.  1.
       -1    1    3    3    0  502  0.70755647150E+03 -0.37712958921E+03 -0.11832773257E+03  0.81047167732E+03  0.50400001928E-02 0. -1.
</event>
<event>
 5   0  0.4987456E-06  0.1800308E+04  0.7818609E-02  0.8706136E-01
        1   -1    0    0  501    0  0.00000000000E+00  0.00000000000E+00  0.78830533811E+03  0.78830533813E+03  0.50400001928E-02 0.  1.
       -1   -1    0    0    0  501  0.00000000000E+00  0.00000000000E+00 -0.10278719537E+04  0.10278719537E+04  0.50400001928E-02 0. -1.
    10030    2    1    2    0    0  0.00000000000E+00  0.00000000000E+00 -0.23956661555E+03  0.18161772918E+04  0.18003076937E+04 0.  0.
        3    1    3    3  502    0  0.17762187917E+03  0.80242170731E+03 -0.49023522048E+03  0.95695387032E+03  0.10100000352E+00 0. -1.
       -3    1    3    3    0  502 -0.17762187917E+03 -0.80242170731E+03  0.25066860493E+03  0.85922342148E+03  0.10100000352E+00 0.  1.
</event>
<event>
 5   0  0.4994123E-06  0.1800641E+04  0.7818609E-02  0.8705958E-01
        1   -1    0    0  501    0  0.00000000000E+00  0.00000000000E+00  0.92277915300E+03  0.92277915301E+03  0.50400001928E-02 0.  1.
       -1   -1    0    0    0  501  0.00000000000E+00  0.00000000000E+00 -0.87840891456E+03  0.87840891457E+03  0.50400001928E-02 0. -1.
    10030    2    1    2    0    0  0.00000000000E+00  0.00000000000E+00  0.44370238440E+02  0.18011880676E+04  0.18006414792E+04 0.  0.
        1    1    3    3  502    0  0.79370560819E+03  0.41157769932E+03 -0.83736773591E+02  0.89798476732E+03  0.50400001928E-02 0.  1.
       -1    1    3    3    0  502 -0.79370560819E+03 -0.41157769932E+03  0.12810701203E+03  0.90320330027E+03  0.50400001928E-02 0. -1.
</event>
<event>
 5   0  0.4983159E-06  0.1800520E+04  0.7818609E-02  0.8706023E-01
       -1   -1    0    0    0  501  0.00000000000E+00  0.00000000000E+00  0.50316483015E+03  0.50316483017E+03  0.50400001928E-02 0.  1.
        1   -1    0    0  501    0  0.00000000000E+00  0.00000000000E+00 -0.16107406960E+04  0.16107406960E+04  0.50400001928E-02 0. -1.
    10030    2    1    2    0    0  0.00000000000E+00  0.00000000000E+00 -0.11075758658E+04  0.21139055262E+04  0.18005200013E+04 0.  0.
        4    1    3    3  502    0  0.43720738743E+02 -0.13555783339E+03 -0.15974271085E+04  0.16037650729E+04  0.12699999809E+01 0. -1.
       -4    1    3    3    0  502 -0.43720738743E+02  0.13555783339E+03  0.48985124268E+03  0.51014045325E+03  0.12699999809E+01 0.  1.
</event>
<event>
 5   0  0.4983159E-06  0.1799849E+04  0.7818609E-02  0.8706380E-01
        1   -1    0    0  501    0  0.00000000000E+00  0.00000000000E+00  0.13394424110E+04  0.13394424110E+04  0.50400001928E-02 0.  1.
       -1   -1    0    0    0  501  0.00000000000E+00  0.00000000000E+00 -0.60462752479E+03  0.60462752481E+03  0.50400001928E-02 0. -1.
    10030    2    1    2    0    0  0.00000000000E+00  0.00000000000E+00  0.73481488624E+03  0.19440699358E+04  0.17998486043E+04 0.  0.
        4    1    3    3  502    0 -0.48144201636E+03  0.47035393597E+03  0.10126372719E+04  0.12159173893E+04  0.12699999809E+01 0.  1.
       -4    1    3    3    0  502  0.48144201636E+03 -0.47035393597E+03 -0.27782238567E+03  0.72815254657E+03  0.12699999809E+01 0. -1.
</event>
<event>
 5   0  0.4987456E-06  0.1787379E+04  0.7818609E-02  0.8713040E-01
       -1   -1    0    0    0  501  0.00000000000E+00  0.00000000000E+00  0.75205439067E+03  0.75205439068E+03  0.50400001928E-02 0. -1.
        1   -1    0    0  501    0  0.00000000000E+00  0.00000000000E+00 -0.10619986107E+04  0.10619986107E+04  0.50400001928E-02 0.  1.
    10030    2    1    2    0    0  0.00000000000E+00  0.00000000000E+00 -0.30994422006E+03  0.18140530014E+04  0.17873787714E+04 0.  0.
        3    1    3    3  502    0  0.39784336594E+03 -0.11758248936E+03 -0.95835052299E+03  0.10442895770E+04  0.10100000352E+00 0.  1.
       -3    1    3    3    0  502 -0.39784336594E+03  0.11758248936E+03  0.64840630293E+03  0.76976342437E+03  0.10100000352E+00 0. -1.
</event>
<event>
 5   0  0.9589963E-06  0.1800283E+04  0.7818609E-02  0.8706149E-01
        2   -1    0    0  501    0  0.00000000000E+00  0.00000000000E+00  0.14202141861E+04  0.14202141861E+04  0.25500000920E-02 0. -1.
       -2   -1    0    0    0  501  0.00000000000E+00  0.00000000000E+00 -0.57051613982E+03  0.57051613982E+03  0.25500000920E-02 0.  1.
    10030    2    1    2    0    0  0.00000000000E+00  0.00000000000E+00  0.84969804628E+03  0.19907303259E+04  0.18002834390E+04 0.  0.
        2    1    3    3  502    0  0.76747637716E+03  0.43830159415E+03  0.23612889716E+03  0.91481426149E+03  0.25500000920E-02 0. -1.
       -2    1    3    3    0  502 -0.76747637716E+03 -0.43830159415E+03  0.61356914911E+03  0.10759160644E+04  0.25500000920E-02 0.  1.
</event>
<event>
 5   0  0.4981384E-06  0.1800187E+04  0.7818609E-02  0.8706200E-01
       -1   -1    0    0    0  501  0.00000000000E+00  0.00000000000E+00  0.86512045661E+03  0.86512045663E+03  0.50400001928E-02 0.  1.
        1   -1    0    0  501    0  0.00000000000E+00  0.00000000000E+00 -0.93648041936E+03  0.93648041937E+03  0.50400001928E-02 0. -1.
    10030    2    1    2    0    0  0.00000000000E+00  0.00000000000E+00 -0.71359962747E+02  0.18016008760E+04  0.18001870659E+04 0.  0.
        5    1    3    3  502    0  0.55128429414E+03  0.47037202241E+03 -0.56993635544E+03  0.92196190360E+03  0.46999998093E+01 0. -1.
       -5    1    3    3    0  502 -0.55128429414E+03 -0.47037202241E+03  0.49857639269E+03  0.87963897241E+03  0.46999998093E+01 0.  1.
</event>
<event>
 5   0  0.9999162E-06  0.1797720E+04  0.7818609E-02  0.8707513E-01
        2   -1    0    0  501    0  0.00000000000E+00  0.00000000000E+00  0.60442118900E+03  0.60442118901E+03  0.25500000920E-02 0. -1.
       -2   -1    0    0    0  501  0.00000000000E+00  0.00000000000E+00 -0.13367325187E+04  0.13367325187E+04  0.25500000920E-02 0.  1.
    10030    2    1    2    0    0  0.00000000000E+00  0.00000000000E+00 -0.73231132968E+03  0.19411537077E+04  0.17977201766E+04 0.  0.
        1    1    3    3  502    0  0.61042027001E+03  0.32147234092E+02 -0.10777529811E+04  0.12390310081E+04  0.50400001928E-02 0.  1.
       -1    1    3    3    0  502 -0.61042027001E+03 -0.32147234092E+02  0.34544165144E+03  0.70212269959E+03  0.50400001928E-02 0. -1.
</event>
<event>
 5   0  0.4987456E-06  0.1798904E+04  0.7818609E-02  0.8706882E-01
        1   -1    0    0  501    0  0.00000000000E+00  0.00000000000E+00  0.68301315291E+03  0.68301315293E+03  0.50400001928E-02 0. -1.
       -1   -1    0    0    0  501  0.00000000000E+00  0.00000000000E+00 -0.11844782437E+04  0.11844782437E+04  0.50400001928E-02 0.  1.
    10030    2    1    2    0    0  0.00000000000E+00  0.00000000000E+00 -0.50146509075E+03  0.18674913966E+04  0.17989043552E+04 0.  0.
        3    1    3    3  502    0 -0.63262936061E+02  0.35929295810E+03  0.60275732610E+03  0.70456371833E+03  0.10100000352E+00 0. -1.
       -3    1    3    3    0  502  0.63262936061E+02 -0.35929295810E+03 -0.11042224169E+04  0.11629276783E+04  0.10100000352E+00 0.  1.
</event>
<event>
 5   0  0.9999162E-06  0.1800145E+04  0.7818609E-02  0.8706222E-01
       -2   -1    0    0    0  501  0.00000000000E+00  0.00000000000E+00  0.33832699238E+03  0.33832699239E+03  0.25500000920E-02 0.  1.
        2   -1    0    0  501    0  0.00000000000E+00  0.00000000000E+00 -0.23945192966E+04  0.23945192966E+04  0.25500000920E-02 0. -1.
    10030    2    1    2    0    0  0.00000000000E+00  0.00000000000E+00 -0.20561923042E+04  0.27328462890E+04  0.18001450073E+04 0.  0.
        1    1    3    3  502    0  0.17928636472E+03 -0.88197873522E+03 -0.10128829077E+04  0.13549767063E+04  0.50400001928E-02 0.  1.
       -1    1    3    3    0  502 -0.17928636472E+03  0.88197873522E+03 -0.10433093965E+04  0.13778695827E+04  0.50400001928E-02 0. -1.
</event>
<event>
 5   0  0.4994123E-06  0.1800232E+04  0.7818609E-02  0.8706176E-01
       -1   -1    0    0    0  501  0.00000000000E+00  0.00000000000E+00  0.19563812498E+04  0.19563812499E+04  0.50400001928E-02 0. -1.
        1   -1    0    0  501    0  0.00000000000E+00  0.00000000000E+00 -0.41413629261E+03  0.41413629264E+03  0.50400001928E-02 0.  1.
    10030    2    1    2    0    0  0.00000000000E+00  0.00000000000E+00  0.15422449572E+04  0.23705175425E+04  0.18002316271E+04 0.  0.
        1    1    3    3  502    0  0.32405465996E+03  0.74156790770E+03  0.12899993198E+04  0.15228370331E+04  0.50400001928E-02 0. -1.
       -1    1    3    3    0  502 -0.32405465996E+03 -0.74156790770E+03  0.25224563749E+03  0.84768050941E+03  0.50400001928E-02 0.  1.
</event>
<event>
 5   0  0.1000316E-05  0.1796242E+04  0.7818609E-02  0.8708301E-01
        2   -1    0    0  501    0  0.00000000000E+00  0.00000000000E+00  0.10275386537E+04  0.10275386537E+04  0.25500000920E-02 0. -1.
       -2   -1    0    0    0  501  0.00000000000E+00  0.00000000000E+00 -0.78500332740E+03  0.78500332741E+03  0.25500000920E-02 0.  1.
    10030    2    1    2    0    0  0.00000000000E+00  0.00000000000E+00  0.24253532634E+03  0.18125419811E+04  0.17962419238E+04 0.  0.
        5    1    3    3  502    0 -0.60388017959E+03 -0.58495900743E+03  0.43996730198E+03  0.94891602815E+03  0.46999998093E+01 0. -1.
       -5    1    3    3    0  502  0.60388017959E+03  0.58495900743E+03 -0.19743197564E+03  0.86362595299E+03  0.46999998093E+01 0.  1.
</event>
<event>
 5   0  0.4953155E-06  0.1800320E+04  0.7818609E-02  0.8706129E-01
        1   -1    0    0  501    0  0.00000000000E+00  0.00000000000E+00  0.11234413665E+04  0.11234413665E+04  0.50400001928E-02 0.  1.
       -1   -1    0    0    0  501  0.00000000000E+00  0.00000000000E+00 -0.72125511700E+03  0.72125511702E+03  0.50400001928E-02 0. -1.
    10030    2    1    2    0    0  0.00000000000E+00  0.00000000000E+00  0.40218624952E+03  0.18446964835E+04  0.18003197875E+04 0.  0.
        2    1    3    3  502    0  0.75806701220E+03  0.40418335845E+03 -0.74341408305E+02  0.86229718035E+03  0.25500000920E-02 0. -1.
       -2    1    3    3    0  502 -0.75806701220E+03 -0.40418335845E+03  0.47652765782E+03  0.98239930320E+03  0.25500000920E-02 0.  1.
</event>
<event>
 5   0  0.1035018E-05  0.1800155E+04  0.7818609E-02  0.8706217E-01
        2   -1    0    0  501    0  0.00000000000E+00  0.00000000000E+00  0.10269095981E+04  0.10269095981E+04  0.25500000920E-02 0.  1.
       -2   -1    0    0    0  501  0.00000000000E+00  0.00000000000E+00 -0.78890987812E+03  0.78890987813E+03  0.25500000920E-02 0. -1.
    10030    2    1    2    0    0  0.00000000000E+00  0.00000000000E+00  0.23799972000E+03  0.18158194763E+04  0.18001545777E+04 0.  0.
        3    1    3    3  502    0 -0.12685525694E+02  0.79046723098E+03  0.55302282265E+03  0.96479719029E+03  0.10100000352E+00 0.  1.
       -3    1    3    3    0  502  0.12685525694E+02 -0.79046723098E+03 -0.31502310265E+03  0.85102228597E+03  0.10100000352E+00 0. -1.
</event>
<event>
 5   0  0.9589963E-06  0.1799434E+04  0.7818609E-02  0.8706600E-01
        2   -1    0    0  501    0  0.00000000000E+00  0.00000000000E+00  0.21070762554E+04  0.21070762554E+04  0.25500000920E-02 0. -1.
       -2   -1    0    0    0  501  0.00000000000E+00  0.00000000000E+00 -0.38417725556E+03  0.38417725557E+03  0.25500000920E-02 0.  1.
    10030    2    1    2    0    0  0.00000000000E+00  0.00000000000E+00  0.17228989999E+04  0.24912535110E+04  0.17994341033E+04 0.  0.
        2    1    3    3  502    0 -0.72445024002E+03  0.49056797076E+03  0.11518760986E+04  0.14464797374E+04  0.25500000920E-02 0. -1.
       -2    1    3    3    0  502  0.72445024002E+03 -0.49056797076E+03  0.57102290130E+03  0.10447737736E+04  0.25500000920E-02 0.  1.
</event>
<event>
 5   0  0.4953155E-06  0.1801130E+04  0.7818609E-02  0.8705699E-01
       -1   -1    0    0    0  501  0.00000000000E+00  0.00000000000E+00  0.49881996037E+03  0.49881996040E+03  0.50400001928E-02 0. -1.
        1   -1    0    0  501    0  0.00000000000E+00  0.00000000000E+00 -0.16258711620E+04  0.16258711620E+04  0.50400001928E-02 0.  1.
    10030    2    1    2    0    0  0.00000000000E+00  0.00000000000E+00 -0.11270512016E+04  0.21246911224E+04  0.18011296329E+04 0.  0.
        2    1    3    3  502    0 -0.30868833054E+03  0.10361948651E+03 -0.15539989030E+04  0.15877462247E+04  0.25500000920E-02 0.  1.
       -2    1    3    3    0  502  0.30868833054E+03 -0.10361948651E+03  0.42694770143E+03  0.53694489769E+03  0.25500000920E-02 0. -1.
</event>
<event>
 5   0  0.1000316E-05  0.1790977E+04  0.7818609E-02  0.8711113E-01
        2   -1    0    0  501    0  0.00000000000E+00  0.00000000000E+00  0.41686580965E+03  0.41686580966E+03  0.25500000920E-02 0.  1.
       -2   -1    0    0    0  501  0.00000000000E+00  0.00000000000E+00 -0.19236399613E+04  0.19236399613E+04  0.25500000920E-02 0. -1.
    10030    2    1    2    0    0  0.00000000000E+00  0.00000000000E+00 -0.15067741517E+04  0.23405057710E+04  0.17909770852E+04 0.  0.
        5    1    3    3  502    0 -0.69057421157E+03  0.22057913259E+03 -0.66423825420E+02  0.72799870193E+03  0.46999998093E+01 0.  1.
       -5    1    3    3    0  502  0.69057421157E+03 -0.22057913259E+03 -0.14403503262E+04  0.16125070691E+04  0.46999998093E+01 0. -1.
</event>
<event>
 5   0  0.1000316E-05  0.1800018E+04  0.7818609E-02  0.8706290E-01
       -2   -1    0    0    0  501  0.00000000000E+00  0.00000000000E+00  0.64814306680E+03  0.64814306681E+03  0.25500000920E-02 0. -1.
        2   -1    0    0  501    0  0.00000000000E+00  0.00000000000E+00 -0.12497487646E+04  0.12497487647E+04  0.25500000920E-02 0.  1.
    10030    2    1    2    0    0  0.00000000000E+00  0.00000000000E+00 -0.60160569784E+03  0.18978918315E+04  0.18000177744E+04 0.  0.
        5    1    3    3  502    0 -0.24199921837E+03  0.86621836223E+03 -0.26589631424E+03  0.93788102267E+03  0.46999998093E+01 0.  1.
       -5    1    3    3    0  502  0.24199921837E+03 -0.86621836223E+03 -0.33570938360E+03  0.96001080879E+03  0.46999998093E+01 0. -1.
</event>
<event>
 5   0  0.1035018E-05  0.1798848E+04  0.7818609E-02  0.8706912E-01
       -2   -1    0    0    0  501  0.00000000000E+00  0.00000000000E+00  0.62564059334E+03  0.62564059334E+03  0.25500000920E-02 0.  1.
        2   -1    0    0  501    0  0.00000000000E+00  0.00000000000E+00 -0.12930169794E+04  0.12930169794E+04  0.25500000920E-02 0. -1.
    10030    2    1    2    0    0  0.00000000000E+00  0.00000000000E+00 -0.66737638601E+03  0.19186575727E+04  0.17988484207E+04 0.  0.
        3    1    3    3  502    0  0.62130033770E+03  0.59644122710E+03 -0.61019910044E+03  0.10555089765E+04  0.10100000352E+00 0. -1.
       -3    1    3    3    0  502 -0.62130033770E+03 -0.59644122710E+03 -0.57177285576E+02  0.86314859624E+03  0.10100000352E+00 0.  1.
</event>
<event>
 5   0  0.9999162E-06  0.1800056E+04  0.7818609E-02  0.8706270E-01
       -2   -1    0    0    0  501  0.00000000000E+00  0.00000000000E+00  0.49719732016E+03  0.49719732016E+03  0.25500000920E-02 0. -1.
        2   -1    0    0  501    0  0.00000000000E+00  0.00000000000E+00 -0.16292336382E+04  0.16292336382E+04  0.25500000920E-02 0.  1.
    10030    2    1    2    0    0  0.00000000000E+00  0.00000000000E+00 -0.11320363180E+04  0.21264309583E+04  0.18000562200E+04 0.  0.
        1    1    3    3  502    0 -0.11028642680E+03  0.68366458673E+03 -0.12451350518E+04  0.14247531928E+04  0.50400001928E-02 0.  1.
       -1    1    3    3    0  502  0.11028642680E+03 -0.68366458673E+03  0.11309873377E+03  0.70167776557E+03  0.50400001928E-02 0. -1.
</event>
<event>
 5   0  0.4981384E-06  0.1801762E+04  0.7818609E-02  0.8705363E-01
        1   -1    0    0  501    0  0.00000000000E+00  0.00000000000E+00  0.65580508937E+03  0.65580508939E+03  0.50400001928E-02 0.  1.
       -1   -1    0    0    0  501  0.00000000000E+00  0.00000000000E+00 -0.12375422693E+04  0.12375422693E+04  0.50400001928E-02 0. -1.
    10030    2    1    2    0    0  0.00000000000E+00  0.00000000000E+00 -0.58173717995E+03  0.18933473587E+04  0.18017619361E+04 0.  0.
        5    1    3    3  502    0  0.34510969578E+03  0.76390964482E+03 -0.63765203546E+03  0.10532240293E+04  0.46999998093E+01 0. -1.
       -5    1    3    3    0  502 -0.34510969578E+03 -0.76390964482E+03  0.55914855507E+02  0.84012332942E+03  0.46999998093E+01 0.  1.
</event>
<event>
 5   0  0.4994123E-06  0.1799856E+04  0.7818609E-02  0.8706376E-01
       -1   -1    0    0    0  501  0.00000000000E+00  0.00000000000E+00  0.10439186523E+04  0.10439186523E+04  0.50400001928E-02 0.  1.
        1   -1    0    0  501    0  0.00000000000E+00  0.00000000000E+00 -0.77579868755E+03  0.77579868757E+03  0.50400001928E-02 0. -1.
    10030    2    1    2    0    0  0.00000000000E+00  0.00000000000E+00  0.26811996473E+03  0.18197173399E+04  0.17998563502E+04 0.  0.
        1    1    3    3  502    0  0.42973161109E+03 -0.50900918557E+03 -0.47768799755E+03  0.81972277728E+03  0.50400001928E-02 0. -1.
       -1    1    3    3    0  502 -0.42973161109E+03  0.50900918557E+03  0.74580796228E+03  0.99999456258E+03  0.50400001928E-02 0.  1.
</event>
<event>
 5   0  0.9589963E-06  0.1798659E+04  0.7818609E-02  0.8707013E-01
        2   -1    0    0  501    0  0.00000000000E+00  0.00000000000E+00  0.25607875625E+04  0.25607875625E+04  0.25500000920E-02 0.  1.
       -2   -1    0    0    0  501  0.00000000000E+00  0.00000000000E+00 -0.31583778642E+03  0.31583778643E+03  0.25500000920E-02 0. -1.
    10030    2    1    2    0    0  0.00000000000E+00  0.00000000000E+00  0.22449497761E+04  0.28766253489E+04  0.17986589173E+04 0.  0.
        2    1    3    3  502    0  0.66077153244E+02  0.72602713839E+03  0.28026812406E+03  0.78104533622E+03  0.25500000920E-02 0. -1.
       -2    1    3    3    0  502 -0.66077153244E+02 -0.72602713839E+03  0.19646816520E+04  0.20955800127E+04  0.25500000920E-02 0.  1.
</event>
<event>
 5   0  0.4953155E-06  0.1799621E+04  0.7818609E-02  0.8706501E-01
       -1   -1    0    0    0  501  0.00000000000E+00  0.00000000000E+00  0.13365814739E+04  0.13365814739E+04  0.50400001928E-02 0.  1.
        1   -1    0    0  501    0  0.00000000000E+00  0.00000000000E+00 -0.60576851218E+03  0.60576851220E+03  0.50400001928E-02 0. -1.
    10030    2    1    2    0    0  0.00000000000E+00  0.00000000000E+00  0.73081296170E+03  0.19423499861E+04  0.17996210388E+04 0.  0.
        2    1    3    3  502    0  0.23299318849E+03 -0.32692223620E+03 -0.50375353641E+03  0.64415184534E+03  0.25500000920E-02 0. -1.
       -2    1    3    3    0  502 -0.23299318849E+03  0.32692223620E+03  0.12345664981E+04  0.12981981407E+04  0.25500000920E-02 0.  1.
</event>
<event>
 5   0  0.9999162E-06  0.1798302E+04  0.7818609E-02  0.8707203E-01
        2   -1    0    0  501    0  0.00000000000E+00  0.00000000000E+00  0.21137106657E+04  0.21137106657E+04  0.25500000920E-02 0.  1.
       -2   -1    0    0    0  501  0.00000000000E+00  0.00000000000E+00 -0.38248987376E+03  0.38248987377E+03  0.25500000920E-02 0. -1.
    10030    2    1    2    0    0  0.00000000000E+00  0.00000000000E+00  0.17312207920E+04  0.24962005395E+04  0.17983024503E+04 0.  0.
        1    1    3    3  502    0  0.25172250696E+03 -0.67004402343E+03  0.11021837376E+03  0.72420391036E+03  0.50400001928E-02 0.  1.
       -1    1    3    3    0  502 -0.25172250696E+03  0.67004402343E+03  0.16210024182E+04  0.17719966292E+04  0.50400001928E-02 0. -1.
</event>
<event>
 5   0  0.1000316E-05  0.1800104E+04  0.7818609E-02  0.8706244E-01
        2   -1    0    0  501    0  0.00000000000E+00  0.00000000000E+00  0.14068914738E+04  0.14068914738E+04  0.25500000920E-02 0.  1.
       -2   -1    0    0    0  501  0.00000000000E+00  0.00000000000E+00 -0.57580391425E+03  0.57580391426E+03  0.25500000920E-02 0. -1.
    10030    2    1    2    0    0  0.00000000000E+00  0.00000000000E+00  0.83108755957E+03  0.19826953881E+04  0.18001040165E+04 0.  0.
        5    1    3    3  502    0  0.29448241074E+03 -0.51382339999E+03 -0.33094654224E+03  0.67844091890E+03  0.46999998093E+01 0. -1.
       -5    1    3    3    0  502 -0.29448241074E+03  0.51382339999E+03  0.11620341018E+04  0.13042544692E+04  0.46999998093E+01 0.  1.
</event>
<event>
 5   0  0.4981384E-06  0.1801217E+04  0.7818609E-02  0.8705652E-01
       -1   -1    0    0    0  501  0.00000000000E+00  0.00000000000E+00  0.50293644290E+03  0.50293644292E+03  0.50400001928E-02 0.  1.
        1   -1    0    0  501    0  0.00000000000E+00  0.00000000000E+00 -0.16127207775E+04  0.16127207775E+04  0.50400001928E-02 0. -1.
    10030    2    1    2    0    0  0.00000000000E+00  0.00000000000E+00 -0.11097843346E+04  0.21156572205E+04  0.18012174230E+04 0.  0.
        5    1    3    3  502    0  0.70833991316E+03 -0.23913193263E+03  0.34906612551E+02  0.74844510512E+03  0.46999998093E+01 0.  1.
       -5    1    3    3    0  502 -0.70833991316E+03  0.23913193263E+03 -0.11446909472E+04  0.13672121153E+04  0.46999998093E+01 0. -1.
</event>
<event>
 5   0  0.4981384E-06  0.1800450E+04  0.7818609E-02  0.8706060E-01
        1   -1    0    0  501    0  0.00000000000E+00  0.00000000000E+00  0.76349932314E+03  0.76349932316E+03  0.50400001928E-02 0.  1.
       -1   -1    0    0    0  501  0.00000000000E+00  0.00000000000E+00 -0.10614352151E+04  0.10614352151E+04  0.50400001928E-02 0. -1.
    10030    2    1    2    0    0  0.00000000000E+00  0.00000000000E+00 -0.29793589195E+03  0.18249345383E+04  0.18004500196E+04 0.  0.
        5    1    3    3  502    0  0.43538082821E+03 -0.71211804473E+03  0.19283354966E+03  0.85666530400E+03  0.46999998093E+01 0.  1.
       -5    1    3    3    0  502 -0.43538082821E+03  0.71211804473E+03 -0.49076944160E+03  0.96826923426E+03  0.46999998093E+01 0. -1.
</event>
<event>
 5   0  0.9999162E-06  0.1800673E+04  0.7818609E-02  0.8705941E-01
        2   -1    0    0  501    0  0.00000000000E+00  0.00000000000E+00  0.14974746500E+04  0.14974746500E+04  0.25500000920E-02 0.  1.
       -2   -1    0    0    0  501  0.00000000000E+00  0.00000000000E+00 -0.54131546380E+03  0.54131546380E+03  0.25500000920E-02 0. -1.
    10030    2    1    2    0    0  0.00000000000E+00  0.00000000000E+00  0.95615918616E+03  0.20387901138E+04  0.18006734126E+04 0.  0.
        1    1    3    3  502    0 -0.35101987737E+03 -0.62842398032E+03 -0.13424484651E+03  0.73222491912E+03  0.50400001928E-02 0.  1.
       -1    1    3    3    0  502  0.35101987737E+03  0.62842398032E+03  0.10904040327E+04  0.13065651946E+04  0.50400001928E-02 0. -1.
</event>
<event>
 5   0  0.1036381E-05  0.1800098E+04  0.7818609E-02  0.8706247E-01
        2   -1    0    0  501    0  0.00000000000E+00  0.00000000000E+00  0.18717088312E+04  0.18717088312E+04  0.25500000920E-02 0.  1.
       -2   -1    0    0    0  501  0.00000000000E+00  0.00000000000E+00 -0.43280668705E+03  0.43280668706E+03  0.25500000920E-02 0. -1.
    10030    2    1    2    0    0  0.00000000000E+00  0.00000000000E+00  0.14389021442E+04  0.23045155183E+04  0.18000978844E+04 0.  0.
        4    1    3    3  502    0 -0.32987924061E+03  0.43162027039E+03  0.16381527899E+04  0.17258802239E+04  0.12699999809E+01 0.  1.
       -4    1    3    3    0  502  0.32987924061E+03 -0.43162027039E+03 -0.19925064575E+03  0.57863529440E+03  0.12699999809E+01 0. -1.
</event>
<event>
 5   0  0.4953155E-06  0.1799803E+04  0.7818609E-02  0.8706404E-01
       -1   -1    0    0    0  501  0.00000000000E+00  0.00000000000E+00  0.47116692489E+03  0.47116692491E+03  0.50400001928E-02 0. -1.
        1   -1    0    0  501    0  0.00000000000E+00  0.00000000000E+00 -0.17187600598E+04  0.17187600598E+04  0.50400001928E-02 0.  1.
    10030    2    1    2    0    0  0.00000000000E+00  0.00000000000E+00 -0.12475931349E+04  0.21899269847E+04  0.17998032026E+04 0.  0.
        2    1    3    3  502    0  0.73368935651E+03  0.39688606612E+01  0.10212085203E+02  0.73377115670E+03  0.25500000920E-02 0.  1.
       -2    1    3    3    0  502 -0.73368935651E+03 -0.39688606612E+01 -0.12578052201E+04  0.14561558280E+04  0.25500000920E-02 0. -1.
</event>
<event>
 5   0  0.4983159E-06  0.1800691E+04  0.7818609E-02  0.8705932E-01
        1   -1    0    0  501    0  0.00000000000E+00  0.00000000000E+00  0.95943565837E+03  0.95943565838E+03  0.50400001928E-02 0.  1.
       -1   -1    0    0    0  501  0.00000000000E+00  0.00000000000E+00 -0.84489438449E+03  0.84489438451E+03  0.50400001928E-02 0. -1.
    10030    2    1    2    0    0  0.00000000000E+00  0.00000000000E+00  0.11454127388E+03  0.18043300429E+04  0.18006907564E+04 0.  0.
        4    1    3    3  502    0 -0.30627729992E+03 -0.78955231709E+03 -0.24899647222E+03  0.88272277751E+03  0.12699999809E+01 0. -1.
       -4    1    3    3    0  502  0.30627729992E+03  0.78955231709E+03  0.36353774610E+03  0.92160726538E+03  0.12699999809E+01 0.  1.
</event>
<event>
 5   0  0.1035018E-05  0.1800032E+04  0.7818609E-02  0.8706283E-01
        2   -1    0    0  501    0  0.00000000000E+00  0.00000000000E+00  0.10811702855E+04  0.10811702855E+04  0.25500000920E-02 0.  1.
       -2   -1    0    0    0  501  0.00000000000E+00  0.00000000000E+00 -0.74921447221E+03  0.74921447222E+03  0.25500000920E-02 0. -1.
    10030    2    1    2    0    0  0.00000000000E+00  0.00000000000E+00  0.33195581327E+03  0.18303847577E+04  0.18000315829E+04 0.  0.
        3    1    3    3  502    0  0.41544609205E+03  0.63937064058E+03  0.65220214829E+03  0.10033732725E+04  0.10100000352E+00 0.  1.
       -3    1    3    3    0  502 -0.41544609205E+03 -0.63937064058E+03 -0.32024633502E+03  0.82701148525E+03  0.10100000352E+00 0. -1.
</event>
<event>
 5   0  0.4994123E-06  0.1799846E+04  0.7818609E-02  0.8706381E-01
        1   -1    0    0  501    0  0.00000000000E+00  0.00000000000E+00  0.13400292874E+04  0.13400292875E+04  0.50400001928E-02 0. -1.
       -1   -1    0    0    0  501  0.00000000000E+00  0.00000000000E+00 -0.60436104115E+03  0.60436104118E+03  0.50400001928E-02 0.  1.
    10030    2    1    2    0    0  0.00000000000E+00  0.00000000000E+00  0.73566824629E+03  0.19443903286E+04  0.17998460994E+04 0.  0.
        1    1    3    3  502    0  0.22177314181E+03  0.14458091006E+03  0.12970096621E+04  0.13237526315E+04  0.50400001928E-02 0. -1.
       -1    1    3    3    0  502 -0.22177314181E+03 -0.14458091006E+03 -0.56134141577E+03  0.62063769710E+03  0.50400001928E-02 0.  1.
</event>
<event>
 5   0  0.1000316E-05  0.1799928E+04  0.7818609E-02  0.8706338E-01
        2   -1    0    0  501    0  0.00000000000E+00  0.00000000000E+00  0.14831337674E+04  0.14831337674E+04  0.25500000920E-02 0.  1.
       -2   -1    0    0    0  501  0.00000000000E+00  0.00000000000E+00 -0.54609728301E+03  0.54609728302E+03  0.25500000920E-02 0. -1.
    10030    2    1    2    0    0  0.00000000000E+00  0.00000000000E+00  0.93703648439E+03  0.20292310504E+04  0.17999281327E+04 0.  0.
        5    1    3    3  502    0 -0.29514364174E+03  0.56100171106E+02  0.14249167271E+04  0.14562509288E+04  0.46999998093E+01 0.  1.
       -5    1    3    3    0  502  0.29514364174E+03 -0.56100171106E+02 -0.48788024275E+03  0.57298012158E+03  0.46999998093E+01 0. -1.
</event>
<event>
 5   0  0.4953155E-06  0.1799743E+04  0.7818609E-02  0.8706436E-01
       -1   -1    0    0    0  501  0.00000000000E+00  0.00000000000E+00  0.11653872830E+04  0.11653872830E+04  0.50400001928E-02 0. -1.
        1   -1    0    0  501    0  0.00000000000E+00  0.00000000000E+00 -0.69484948682E+03  0.69484948684E+03  0.50400001928E-02 0.  1.
    10030    2    1    2    0    0  0.00000000000E+00  0.00000000000E+00  0.47053779620E+03  0.18602367699E+04  0.17997430434E+04 0.  0.
        2    1    3    3  502    0 -0.63239543984E+03 -0.10947680099E+03  0.88723143065E+03  0.10950291201E+04  0.25500000920E-02 0. -1.
       -2    1    3    3    0  502  0.63239543984E+03  0.10947680099E+03 -0.41669363445E+03  0.76520764978E+03  0.25500000920E-02 0.  1.
</event>
<event>
 5   0  0.9999162E-06  0.1800665E+04  0.7818609E-02  0.8705946E-01
        2   -1    0    0  501    0  0.00000000000E+00  0.00000000000E+00  0.12885380185E+04  0.12885380185E+04  0.25500000920E-02 0. -1.
       -2   -1    0    0    0  501  0.00000000000E+00  0.00000000000E+00 -0.62908401795E+03  0.62908401795E+03  0.25500000920E-02 0.  1.
    10030    2    1    2    0    0  0.00000000000E+00  0.00000000000E+00  0.65945400058E+03  0.19176220365E+04  0.18006650704E+04 0.  0.
        1    1    3    3  502    0 -0.10881716857E+03  0.30371144144E+03  0.12248677666E+04  0.12666423574E+04  0.50400001928E-02 0. -1.
       -1    1    3    3    0  502  0.10881716857E+03 -0.30371144144E+03 -0.56541376599E+03  0.65097967912E+03  0.50400001928E-02 0.  1.
</event>
<event>
 5   0  0.9589963E-06  0.1799742E+04  0.7818609E-02  0.8706436E-01
       -2   -1    0    0    0  501  0.00000000000E+00  0.00000000000E+00  0.63236173678E+03  0.63236173679E+03  0.25500000920E-02 0.  1.
        2   -1    0    0  501    0  0.00000000000E+00  0.00000000000E+00 -0.12805458105E+04  0.12805458105E+04  0.25500000920E-02 0. -1.
    10030    2    1    2    0    0  0.00000000000E+00  0.00000000000E+00 -0.64818407376E+03  0.19129075473E+04  0.17997423958E+04 0.  0.
        2    1    3    3  502    0  0.18653770141E+03 -0.63698501174E+03  0.32175160924E+03  0.73761122367E+03  0.25500000920E-02 0.  1.
       -2    1    3    3    0  502 -0.18653770141E+03  0.63698501174E+03 -0.96993568300E+03  0.11752963237E+04  0.25500000920E-02 0. -1.
</event>
<event>
 5   0  0.3626125E-06  0.1800012E+04  0.7818609E-02  0.8706293E-01
       -3   -1    0    0    0  501  0.00000000000E+00  0.00000000000E+00  0.53834249874E+03  0.53834250822E+03  0.10100000352E+00 0. -1.
        3   -1    0    0  501    0  0.00000000000E+00  0.00000000000E+00 -0.15046383714E+04  0.15046383748E+04  0.10100000352E+00 0.  1.
    10030    2    1    2    0    0  0.00000000000E+00  0.00000000000E+00 -0.96629587269E+03  0.20429808830E+04  0.18000119930E+04 0.  0.
        1    1    3    3  502    0  0.77330924181E+03 -0.44757809766E+03 -0.60579666122E+03  0.10795012421E+04  0.50400001928E-02 0.  1.
       -1    1    3    3    0  502 -0.77330924181E+03  0.44757809766E+03 -0.36049921147E+03  0.96347964092E+03  0.50400001928E-02 0. -1.
</event>
<event>
 5   0  0.4983159E-06  0.1799299E+04  0.7818609E-02  0.8706672E-01
        1   -1    0    0  501    0  0.00000000000E+00  0.00000000000E+00  0.15811871137E+04  0.15811871137E+04  0.50400001928E-02 0.  1.
       -1   -1    0    0    0  501  0.00000000000E+00  0.00000000000E+00 -0.51187454872E+03  0.51187454875E+03  0.50400001928E-02 0. -1.
    10030    2    1    2    0    0  0.00000000000E+00  0.00000000000E+00  0.10693125650E+04  0.20930616624E+04  0.17992992417E+04 0.  0.
        4    1    3    3  502    0 -0.25560893652E+03 -0.48081928453E+03 -0.29839467541E+03  0.62093808711E+03  0.12699999809E+01 0. -1.
       -4    1    3    3    0  502  0.25560893652E+03  0.48081928453E+03  0.13677072404E+04  0.14721235753E+04  0.12699999809E+01 0.  1.
</event>
<event>
 5   0  0.1036381E-05  0.1801067E+04  0.7818609E-02  0.8705732E-01
        2   -1    0    0  501    0  0.00000000000E+00  0.00000000000E+00  0.13513943418E+04  0.13513943418E+04  0.25500000920E-02 0. -1.
       -2   -1    0    0    0  501  0.00000000000E+00  0.00000000000E+00 -0.60009203531E+03  0.60009203531E+03  0.25500000920E-02 0.  1.
    10030    2    1    2    0    0  0.00000000000E+00  0.00000000000E+00  0.75130230653E+03  0.19514863771E+04  0.18010674403E+04 0.  0.
        4    1    3    3  502    0  0.11932354760E+03 -0.87454277795E+03  0.56916183588E+03  0.10502428233E+04  0.12699999809E+01 0. -1.
       -4    1    3    3    0  502 -0.11932354760E+03  0.87454277795E+03  0.18214047065E+03  0.90124355389E+03  0.12699999809E+01 0.  1.
</event>
<event>
 5   0  0.1000316E-05  0.1802628E+04  0.7818609E-02  0.8704903E-01
        2   -1    0    0  501    0  0.00000000000E+00  0.00000000000E+00  0.17193677073E+04  0.17193677073E+04  0.25500000920E-02 0.  1.
       -2   -1    0    0    0  501  0.00000000000E+00  0.00000000000E+00 -0.47248022950E+03  0.47248022951E+03  0.25500000920E-02 0. -1.
    10030    2    1    2    0    0  0.00000000000E+00  0.00000000000E+00  0.12468874778E+04  0.21918479368E+04  0.18026283576E+04 0.  0.
        5    1    3    3  502    0  0.80817653702E+02  0.25292605641E+01 -0.46804638995E+03  0.47500252994E+03  0.46999998093E+01 0. -1.
       -5    1    3    3    0  502 -0.80817653702E+02 -0.25292605641E+01  0.17149338677E+04  0.17168454069E+04  0.46999998093E+01 0.  1.
</event>
<event>
 5   0  0.4994123E-06  0.1800163E+04  0.7818609E-02  0.8706213E-01
        1   -1    0    0  501    0  0.00000000000E+00  0.00000000000E+00  0.78590233043E+03  0.78590233045E+03  0.50400001928E-02 0. -1.
       -1   -1    0    0    0  501  0.00000000000E+00  0.00000000000E+00 -0.10308492812E+04  0.10308492812E+04  0.50400001928E-02 0.  1.
    10030    2    1    2    0    0  0.00000000000E+00  0.00000000000E+00 -0.24494695075E+03  0.18167516116E+04  0.18001631620E+04 0.  0.
        1    1    3    3  502    0 -0.44150929538E+03  0.29698163679E+03  0.61017648865E+03  0.80959489736E+03  0.50400001928E-02 0. -1.
       -1    1    3    3    0  502  0.44150929538E+03 -0.29698163679E+03 -0.85512343940E+03  0.10071567143E+04  0.50400001928E-02 0.  1.
</event>
<event>
 5   0  0.1036381E-05  0.1799616E+04  0.7818609E-02  0.8706504E-01
        2   -1    0    0  501    0  0.00000000000E+00  0.00000000000E+00  0.90638398310E+03  0.90638398310E+03  0.25500000920E-02 0.  1.
       -2   -1    0    0    0  501  0.00000000000E+00  0.00000000000E+00 -0.89327949005E+03  0.89327949005E+03  0.25500000920E-02 0. -1.
    10030    2    1    2    0    0  0.00000000000E+00  0.00000000000E+00  0.13104493056E+02  0.17996634732E+04  0.17996157615E+04 0.  0.
        4    1    3    3  502    0  0.77505274272E+03 -0.20038894819E+03 -0.40429939928E+03  0.89684006473E+03  0.12699999809E+01 0. -1.
       -4    1    3    3    0  502 -0.77505274272E+03  0.20038894819E+03  0.41740389234E+03  0.90282340842E+03  0.12699999809E+01 0.  1.
</event>
<event>
 5   0  0.4987456E-06  0.1800264E+04  0.7818609E-02  0.8706159E-01
        1   -1    0    0  501    0  0.00000000000E+00  0.00000000000E+00  0.16924288464E+04  0.16924288464E+04  0.50400001928E-02 0.  1.
       -1   -1    0    0    0  501  0.00000000000E+00  0.00000000000E+00 -0.47874236407E+03  0.47874236410E+03  0.50400001928E-02 0. -1.
    10030    2    1    2    0    0  0.00000000000E+00  0.00000000000E+00  0.12136864823E+04  0.21711712105E+04  0.18002637440E+04 0.  0.
        3    1    3    3  502    0 -0.35732992498E+03  0.66498278077E+03  0.15580456719E+02  0.75506922519E+03  0.10100000352E+00 0. -1.
       -3    1    3    3    0  502  0.35732992498E+03 -0.66498278077E+03  0.11981060256E+04  0.14161019853E+04  0.10100000352E+00 0.  1.
</event>
<event>
 5   0  0.4953155E-06  0.1800547E+04  0.7818609E-02  0.8706008E-01
        1   -1    0    0  501    0  0.00000000000E+00  0.00000000000E+00  0.87754176966E+03  0.87754176967E+03  0.50400001928E-02 0. -1.
       -1   -1    0    0    0  501  0.00000000000E+00  0.00000000000E+00 -0.92359447405E+03  0.92359447407E+03  0.50400001928E-02 0.  1.
    10030    2    1    2    0    0  0.00000000000E+00  0.00000000000E+00 -0.46052704392E+02  0.18011362437E+04  0.18005473937E+04 0.  0.
        2    1    3    3  502    0  0.39590297541E+03  0.56872084415E+03 -0.59794047531E+03  0.91526792609E+03  0.25500000920E-02 0.  1.
       -2    1    3    3    0  502 -0.39590297541E+03 -0.56872084415E+03  0.55188777092E+03  0.88586831765E+03  0.25500000920E-02 0. -1.
</event>
<event>
 5   0  0.4953155E-06  0.1798136E+04  0.7818609E-02  0.8707292E-01
       -1   -1    0    0    0  501  0.00000000000E+00  0.00000000000E+00  0.84527075259E+03  0.84527075260E+03  0.50400001928E-02 0. -1.
        1   -1    0    0  501    0  0.00000000000E+00  0.00000000000E+00 -0.95628884714E+03  0.95628884716E+03  0.50400001928E-02 0.  1.
    10030    2    1    2    0    0  0.00000000000E+00  0.00000000000E+00 -0.11101809456E+03  0.18015595998E+04  0.17981356940E+04 0.  0.
        2    1    3    3  502    0 -0.82471250555E+03 -0.27345138662E+03  0.17600803409E+03  0.88651294730E+03  0.25500000920E-02 0. -1.
       -2    1    3    3    0  502  0.82471250555E+03  0.27345138662E+03 -0.28702612865E+03  0.91504665246E+03  0.25500000920E-02 0.  1.
</event>
<event>
 5   0  0.4994123E-06  0.1801415E+04  0.7818609E-02  0.8705547E-01
        1   -1    0    0  501    0  0.00000000000E+00  0.00000000000E+00  0.19695199318E+04  0.19695199318E+04  0.50400001928E-02 0. -1.
       -1   -1    0    0    0  501  0.00000000000E+00  0.00000000000E+00 -0.41191466732E+03  0.41191466735E+03  0.50400001928E-02 0.  1.
    10030    2    1    2    0    0  0.00000000000E+00  0.00000000000E+00  0.15576052645E+04  0.23814345992E+04  0.18014151632E+04 0.  0.
        1    1    3    3  502    0 -0.68012753698E+03  0.36590156267E+03  0.13915181691E+04  0.15914710915E+04  0.50400001928E-02 0. -1.
       -1    1    3    3    0  502  0.68012753698E+03 -0.36590156267E+03  0.16608709534E+03  0.78996350762E+03  0.50400001928E-02 0.  1.
</event>
<event>
 5   0  0.4981384E-06  0.1799996E+04  0.7818609E-02  0.8706302E-01
        1   -1    0    0  501    0  0.00000000000E+00  0.00000000000E+00  0.14032279406E+04  0.14032279406E+04  0.50400001928E-02 0. -1.
       -1   -1    0    0    0  501  0.00000000000E+00  0.00000000000E+00 -0.57723784125E+03  0.57723784127E+03  0.50400001928E-02 0.  1.
    10030    2    1    2    0    0  0.00000000000E+00  0.00000000000E+00  0.82599009937E+03  0.19804657819E+04  0.17999958525E+04 0.  0.
        5    1    3    3  502    0  0.10464571248E+02  0.31851081593E+03  0.13390566481E+04  0.13764641092E+04  0.46999998093E+01 0. -1.
       -5    1    3    3    0  502 -0.10464571248E+02 -0.31851081593E+03 -0.51306654876E+03  0.60400167266E+03  0.46999998093E+01 0.  1.
</event>
<event>
 5   0  0.4953155E-06  0.1799347E+04  0.7818609E-02  0.8706647E-01
        1   -1    0    0  501    0  0.00000000000E+00  0.00000000000E+00  0.61642278075E+03  0.61642278077E+03  0.50400001928E-02 0. -1.
       -1   -1    0    0    0  501  0.00000000000E+00  0.00000000000E+00 -0.13130801484E+04  0.13130801485E+04  0.50400001928E-02 0.  1.
    10030    2    1    2    0    0  0.00000000000E+00  0.00000000000E+00 -0.69665736769E+03  0.19295029292E+04  0.17993471221E+04 0.  0.
        2    1    3    3  502    0  0.10753614292E+03  0.87101299871E+03 -0.56059915593E+03  0.10413928556E+04  0.25500000920E-02 0. -1.
       -2    1    3    3    0  502 -0.10753614292E+03 -0.87101299871E+03 -0.13605821175E+03  0.88811007367E+03  0.25500000920E-02 0.  1.
</event>
<event>
 5   0  0.1036381E-05  0.1799996E+04  0.7818609E-02  0.8706301E-01
        2   -1    0    0  501    0  0.00000000000E+00  0.00000000000E+00  0.94967820319E+03  0.94967820319E+03  0.25500000920E-02 0.  1.
       -2   -1    0    0    0  501  0.00000000000E+00  0.00000000000E+00 -0.85291698415E+03  0.85291698415E+03  0.25500000920E-02 0. -1.
    10030    2    1    2    0    0  0.00000000000E+00  0.00000000000E+00  0.96761219039E+02  0.18025951873E+04  0.17999962989E+04 0.  0.
        4    1    3    3  502    0  0.68478917267E+03  0.23226153859E+03 -0.48822269572E+03  0.87249335059E+03  0.12699999809E+01 0. -1.
       -4    1    3    3    0  502 -0.68478917267E+03 -0.23226153859E+03  0.58498391476E+03  0.93010183675E+03  0.12699999809E+01 0.  1.
</event>
<event>
 5   0  0.1036381E-05  0.1799000E+04  0.7818609E-02  0.8706831E-01
       -2   -1    0    0    0  501  0.00000000000E+00  0.00000000000E+00  0.39951591222E+03  0.39951591223E+03  0.25500000920E-02 0. -1.
        2   -1    0    0  501    0  0.00000000000E+00  0.00000000000E+00 -0.20252015346E+04  0.20252015346E+04  0.25500000920E-02 0.  1.
    10030    2    1    2    0    0  0.00000000000E+00  0.00000000000E+00 -0.16256856224E+04  0.24247174468E+04  0.17989999872E+04 0.  0.
        4    1    3    3  502    0  0.53022399734E+02 -0.17578663135E+03  0.37398862697E+03  0.41663103657E+03  0.12699999809E+01 0. -1.
       -4    1    3    3    0  502 -0.53022399734E+02  0.17578663135E+03 -0.19996742493E+04  0.20080864102E+04  0.12699999809E+01 0.  1.
</event>
<event>
 5   0  0.9999162E-06  0.1796881E+04  0.7818609E-02  0.8707960E-01
       -2   -1    0    0    0  501  0.00000000000E+00  0.00000000000E+00  0.41657589392E+03  0.41657589393E+03  0.25500000920E-02 0. -1.
        2   -1    0    0  501    0  0.00000000000E+00  0.00000000000E+00 -0.19376899383E+04  0.19376899383E+04  0.25500000920E-02 0.  1.
    10030    2    1    2    0    0  0.00000000000E+00  0.00000000000E+00 -0.15211140443E+04  0.23542658322E+04  0.17968805394E+04 0.  0.
        1    1    3    3  502    0 -0.21566772272E+03 -0.44340593888E+03 -0.17445775370E+04  0.18129181382E+04  0.50400001928E-02 0.  1.
       -1    1    3    3    0  502  0.21566772272E+03  0.44340593888E+03  0.22346349262E+03  0.54134769401E+03  0.50400001928E-02 0. -1.
</event>
<event>
 5   0  0.4983159E-06  0.1806854E+04  0.7818609E-02  0.8702663E-01
       -1   -1    0    0    0  501  0.00000000000E+00  0.00000000000E+00  0.78259981152E+03  0.78259981153E+03  0.50400001928E-02 0. -1.
        1   -1    0    0  501    0  0.00000000000E+00  0.00000000000E+00 -0.10429084997E+04  0.10429084997E+04  0.50400001928E-02 0.  1.
    10030    2    1    2    0    0  0.00000000000E+00  0.00000000000E+00 -0.26030868817E+03  0.18255083112E+04  0.18068536137E+04 0.  0.
        4    1    3    3  502    0  0.80724924697E+03  0.36175200445E+03  0.55213405372E+02  0.88632160782E+03  0.12699999809E+01 0. -1.
       -4    1    3    3    0  502 -0.80724924697E+03 -0.36175200445E+03 -0.31552209354E+03  0.93918670341E+03  0.12699999809E+01 0.  1.
</event>
<event>
 5   0  0.4983159E-06  0.1795237E+04  0.7818609E-02  0.8708836E-01
        1   -1    0    0  501    0  0.00000000000E+00  0.00000000000E+00  0.22139399792E+04  0.22139399792E+04  0.50400001928E-02 0.  1.
       -1   -1    0    0    0  501  0.00000000000E+00  0.00000000000E+00 -0.36393006706E+03  0.36393006710E+03  0.50400001928E-02 0. -1.
    10030    2    1    2    0    0  0.00000000000E+00  0.00000000000E+00  0.18500099121E+04  0.25778700463E+04  0.17952373939E+04 0.  0.
        4    1    3    3  502    0 -0.40083285058E+03  0.34017039570E+03 -0.11972578558E+03  0.53918340928E+03  0.12699999809E+01 0. -1.
       -4    1    3    3    0  502  0.40083285058E+03 -0.34017039570E+03  0.19697356977E+04  0.20386866370E+04  0.12699999809E+01 0.  1.
</event>
<event>
 5   0  0.1000316E-05  0.1798589E+04  0.7818609E-02  0.8707050E-01
        2   -1    0    0  501    0  0.00000000000E+00  0.00000000000E+00  0.63503539004E+03  0.63503539004E+03  0.25500000920E-02 0.  1.
       -2   -1    0    0    0  501  0.00000000000E+00  0.00000000000E+00 -0.12735208731E+04  0.12735208731E+04  0.25500000920E-02 0. -1.
    10030    2    1    2    0    0  0.00000000000E+00  0.00000000000E+00 -0.63848548307E+03  0.19085562631E+04  0.17985892520E+04 0.  0.
        5    1    3    3  502    0 -0.87261925742E+03 -0.21725996077E+03 -0.32615853112E+03  0.95659172921E+03  0.46999998093E+01 0. -1.
       -5    1    3    3    0  502  0.87261925742E+03  0.21725996077E+03 -0.31232695194E+03  0.95196453394E+03  0.46999998093E+01 0.  1.
</event>
<event>
 5   0  0.4981384E-06  0.1799847E+04  0.7818609E-02  0.8706381E-01
       -1   -1    0    0    0  501  0.00000000000E+00  0.00000000000E+00  0.68299887216E+03  0.68299887217E+03  0.50400001928E-02 0. -1.
        1   -1    0    0  501    0  0.00000000000E+00  0.00000000000E+00 -0.11857452467E+04  0.11857452467E+04  0.50400001928E-02 0.  1.
    10030    2    1    2    0    0  0.00000000000E+00  0.00000000000E+00 -0.50274637455E+03  0.18687441189E+04  0.17998474004E+04 0.  0.
        5    1    3    3  502    0 -0.71707475433E+03  0.32466406974E+03 -0.70423150589E+03  0.10562040832E+04  0.46999998093E+01 0.  1.
       -5    1    3    3    0  502  0.71707475433E+03 -0.32466406974E+03  0.20148513134E+03  0.81254003570E+03  0.46999998093E+01 0. -1.
</event>
<event>
 5   0  0.4981384E-06  0.1803557E+04  0.7818609E-02  0.8704410E-01
        1   -1    0    0  501    0  0.00000000000E+00  0.00000000000E+00  0.11255977351E+04  0.11255977351E+04  0.50400001928E-02 0.  1.
       -1   -1    0    0    0  501  0.00000000000E+00  0.00000000000E+00 -0.72246482042E+03  0.72246482044E+03  0.50400001928E-02 0. -1.
    10030    2    1    2    0    0  0.00000000000E+00  0.00000000000E+00  0.40313291465E+03  0.18480625555E+04  0.18035573354E+04 0.  0.
        5    1    3    3  502    0 -0.58924405222E+03  0.15417231372E+03 -0.47982792507E+03  0.77539317967E+03  0.46999998093E+01 0. -1.
       -5    1    3    3    0  502  0.58924405222E+03 -0.15417231372E+03  0.88296083972E+03  0.10726693758E+04  0.46999998093E+01 0.  1.
</event>
<event>
 5   0  0.9589963E-06  0.1799508E+04  0.7818609E-02  0.8706561E-01
        2   -1    0    0  501    0  0.00000000000E+00  0.00000000000E+00  0.16648099977E+04  0.16648099977E+04  0.25500000920E-02 0. -1.
       -2   -1    0    0    0  501  0.00000000000E+00  0.00000000000E+00 -0.48627631372E+03  0.48627631373E+03  0.25500000920E-02 0.  1.
    10030    2    1    2    0    0  0.00000000000E+00  0.00000000000E+00  0.11785336839E+04  0.21510863114E+04  0.17995084537E+04 0.  0.
        2    1    3    3  502    0 -0.28085265674E+02 -0.59082885928E+03 -0.22120240877E+03  0.63150457541E+03  0.25500000920E-02 0.  1.
       -2    1    3    3    0  502  0.28085265674E+02  0.59082885928E+03  0.13997360927E+04  0.15195817360E+04  0.25500000920E-02 0. -1.
</event>
<event>
 5   0  0.4987456E-06  0.1801961E+04  0.7818609E-02  0.8705257E-01
       -1   -1    0    0    0  501  0.00000000000E+00  0.00000000000E+00  0.11237362984E+04  0.11237362984E+04  0.50400001928E-02 0.  1.
        1   -1    0    0  501    0  0.00000000000E+00  0.00000000000E+00 -0.72238089198E+03  0.72238089200E+03  0.50400001928E-02 0. -1.
    10030    2    1    2    0    0  0.00000000000E+00  0.00000000000E+00  0.40135540640E+03  0.18461171904E+04  0.18019607427E+04 0.  0.
        3    1    3    3  502    0  0.19128683627E+03  0.47254711084E+03 -0.56040873663E+03  0.75759447463E+03  0.10100000352E+00 0. -1.
       -3    1    3    3    0  502 -0.19128683627E+03 -0.47254711084E+03  0.96176414303E+03  0.10885227158E+04  0.10100000352E+00 0.  1.
</event>
<event>
 5   0  0.1035018E-05  0.1798806E+04  0.7818609E-02  0.8706935E-01
       -2   -1    0    0    0  501  0.00000000000E+00  0.00000000000E+00  0.92946851062E+03  0.92946851062E+03  0.25500000920E-02 0.  1.
        2   -1    0    0  501    0  0.00000000000E+00  0.00000000000E+00 -0.87030998968E+03  0.87030998968E+03  0.25500000920E-02 0. -1.
    10030    2    1    2    0    0  0.00000000000E+00  0.00000000000E+00  0.59158520943E+02  0.17997785003E+04  0.17988059705E+04 0.  0.
        3    1    3    3  502    0 -0.26932424583E+03  0.49568606245E+03  0.73044745233E+03  0.92292671037E+03  0.10100000352E+00 0.  1.
       -3    1    3    3    0  502  0.26932424583E+03 -0.49568606245E+03 -0.67128893139E+03  0.87685178993E+03  0.10100000352E+00 0. -1.
</event>
<event>
 5   0  0.1036381E-05  0.1799918E+04  0.7818609E-02  0.8706343E-01
        2   -1    0    0  501    0  0.00000000000E+00  0.00000000000E+00  0.11480777916E+04  0.11480777916E+04  0.25500000920E-02 0. -1.
       -2   -1    0    0    0  501  0.00000000000E+00  0.00000000000E+00 -0.70546280236E+03  0.70546280236E+03  0.25500000920E-02 0.  1.
    10030    2    1    2    0    0  0.00000000000E+00  0.00000000000E+00  0.44261498920E+03  0.18535405939E+04  0.17999179716E+04 0.  0.
        4    1    3    3  502    0 -0.69990207497E+03  0.48106487089E+03 -0.85283890510E+02  0.85355801175E+03  0.12699999809E+01 0.  1.
       -4    1    3    3    0  502  0.69990207497E+03 -0.48106487089E+03  0.52789887971E+03  0.99998258217E+03  0.12699999809E+01 0. -1.
</event>
<event>
 5   0  0.1036381E-05  0.1799876E+04  0.7818609E-02  0.8706365E-01
       -2   -1    0    0    0  501  0.00000000000E+00  0.00000000000E+00  0.60144611944E+03  0.60144611945E+03  0.25500000920E-02 0.  1.
        2   -1    0    0  501    0  0.00000000000E+00  0.00000000000E+00 -0.13465687569E+04  0.13465687569E+04  0.25500000920E-02 0. -1.
    10030    2    1    2    0    0  0.00000000000E+00  0.00000000000E+00 -0.74512263748E+03  0.19480148764E+04  0.17998761662E+04 0.  0.
        4    1    3    3  502    0 -0.84355242368E+03  0.22588828102E+03 -0.13722348805E+03  0.88398987865E+03  0.12699999809E+01 0.  1.
       -4    1    3    3    0  502  0.84355242368E+03 -0.22588828102E+03 -0.60789914943E+03  0.10640249977E+04  0.12699999809E+01 0. -1.
</event>
<event>
 5   0  0.4953155E-06  0.1801727E+04  0.7818609E-02  0.8705382E-01
        1   -1    0    0  501    0  0.00000000000E+00  0.00000000000E+00  0.15053468803E+04  0.15053468803E+04  0.50400001928E-02 0. -1.
       -1   -1    0    0    0  501  0.00000000000E+00  0.00000000000E+00 -0.53911481493E+03  0.53911481495E+03  0.50400001928E-02 0.  1.
    10030    2    1    2    0    0  0.00000000000E+00  0.00000000000E+00  0.96623206534E+03  0.20444616952E+04  0.18017267327E+04 0.  0.
        2    1    3    3  502    0  0.45357288192E+03 -0.68950785464E+03  0.89288379066E+03  0.12158909920E+04  0.25500000920E-02 0. -1.
       -2    1    3    3    0  502 -0.45357288192E+03  0.68950785464E+03  0.73348274682E+02  0.82857070322E+03  0.25500000920E-02 0.  1.
</event>
<event>
 5   0  0.9999162E-06  0.1799435E+04  0.7818609E-02  0.8706600E-01
        2   -1    0    0  501    0  0.00000000000E+00  0.00000000000E+00  0.92963836255E+03  0.92963836255E+03  0.25500000920E-02 0. -1.
       -2   -1    0    0    0  501  0.00000000000E+00  0.00000000000E+00 -0.87075943082E+03  0.87075943082E+03  0.25500000920E-02 0.  1.
    10030    2    1    2    0    0  0.00000000000E+00  0.00000000000E+00  0.58878931730E+02  0.18003977934E+04  0.17994347684E+04 0.  0.
        1    1    3    3  502    0  0.42423288781E+03  0.37446190449E+03  0.72931086506E+03  0.92308699424E+03  0.50400001928E-02 0. -1.
       -1    1    3    3    0  502 -0.42423288781E+03 -0.37446190449E+03 -0.67043193334E+03  0.87731079913E+03  0.50400001928E-02 0.  1.
</event>
<event>
 5   0  0.4994123E-06  0.1801382E+04  0.7818609E-02  0.8705565E-01
        1   -1    0    0  501    0  0.00000000000E+00  0.00000000000E+00  0.47618821659E+03  0.47618821661E+03  0.50400001928E-02 0.  1.
       -1   -1    0    0    0  501  0.00000000000E+00  0.00000000000E+00 -0.17036216763E+04  0.17036216763E+04  0.50400001928E-02 0. -1.
    10030    2    1    2    0    0  0.00000000000E+00  0.00000000000E+00 -0.12274334597E+04  0.21798098929E+04  0.18013823223E+04 0.  0.
        1    1    3    3  502    0 -0.37846862338E+03  0.81529334135E+03 -0.68326018373E+03  0.11290643073E+04  0.50400001928E-02 0. -1.
       -1    1    3    3    0  502  0.37846862338E+03 -0.81529334135E+03 -0.54417327594E+03  0.10507455856E+04  0.50400001928E-02 0.  1.
</event>
<event>
 5   0  0.4981384E-06  0.1799191E+04  0.7818609E-02  0.8706730E-01
       -1   -1    0    0    0  501  0.00000000000E+00  0.00000000000E+00  0.64185902793E+03  0.64185902795E+03  0.50400001928E-02 0.  1.
        1   -1    0    0  501    0  0.00000000000E+00  0.00000000000E+00 -0.12608252691E+04  0.12608252691E+04  0.50400001928E-02 0. -1.
    10030    2    1    2    0    0  0.00000000000E+00  0.00000000000E+00 -0.61896624115E+03  0.19026842970E+04  0.17991910200E+04 0.  0.
        5    1    3    3  502    0  0.42741280233E+03  0.76300958527E+03 -0.86687878575E+02  0.87886415850E+03  0.46999998093E+01 0.  1.
       -5    1    3    3    0  502 -0.42741280233E+03 -0.76300958527E+03 -0.53227836257E+03  0.10238201385E+04  0.46999998093E+01 0. -1.
</event>
<event>
 5   0  0.9999162E-06  0.1799653E+04  0.7818609E-02  0.8706484E-01
       -2   -1    0    0    0  501  0.00000000000E+00  0.00000000000E+00  0.60107192404E+03  0.60107192405E+03  0.25500000920E-02 0. -1.
        2   -1    0    0  501    0  0.00000000000E+00  0.00000000000E+00 -0.13470725394E+04  0.13470725394E+04  0.25500000920E-02 0.  1.
    10030    2    1    2    0    0  0.00000000000E+00  0.00000000000E+00 -0.74600061536E+03  0.19481444635E+04  0.17996527255E+04 0.  0.
        1    1    3    3  502    0 -0.77102987029E+03 -0.36201120092E+02 -0.87364266410E+03  0.11657826069E+04  0.50400001928E-02 0.  1.
       -1    1    3    3    0  502  0.77102987029E+03  0.36201120092E+02  0.12764204874E+03  0.78236185656E+03  0.50400001928E-02 0. -1.
</event>
<event>
 5   0  0.4981384E-06  0.1800160E+04  0.7818609E-02  0.8706214E-01
        1   -1    0    0  501    0  0.00000000000E+00  0.00000000000E+00  0.93781645037E+03  0.93781645038E+03  0.50400001928E-02 0.  1.
       -1   -1    0    0    0  501  0.00000000000E+00  0.00000000000E+00 -0.86386183350E+03  0.86386183351E+03  0.50400001928E-02 0. -1.
    10030    2    1    2    0    0  0.00000000000E+00  0.00000000000E+00  0.73954616870E+02  0.18016782839E+04  0.18001598133E+04 0.  0.
        5    1    3    3  502    0  0.76482933548E+03 -0.46420306137E+03  0.13541348041E+03  0.90487971314E+03  0.46999998093E+01 0. -1.
       -5    1    3    3    0  502 -0.76482933548E+03  0.46420306137E+03 -0.61458863536E+02  0.89679857075E+03  0.46999998093E+01 0.  1.
</event>
<event>
 5   0  0.4987456E-06  0.1797324E+04  0.7818609E-02  0.8707724E-01
       -1   -1    0    0    0  501  0.00000000000E+00  0.00000000000E+00  0.86504368864E+03  0.86504368865E+03  0.50400001928E-02 0. -1.
        1   -1    0    0  501    0  0.00000000000E+00  0.00000000000E+00 -0.93358698114E+03  0.93358698115E+03  0.50400001928E-02 0.  1.
    10030    2    1    2    0    0  0.00000000000E+00  0.00000000000E+00 -0.68543292499E+02  0.17986306698E+04  0.17973241509E+04 0.  0.
        3    1    3    3  502    0 -0.47972444059E+03  0.74683620781E+03 -0.17470774373E+03  0.90466715764E+03  0.10100000352E+00 0. -1.
       -3    1    3    3    0  502  0.47972444059E+03 -0.74683620781E+03  0.10616445123E+03  0.89396351217E+03  0.10100000352E+00 0.  1.
</event>
<event>
 5   0  0.4983159E-06  0.1800503E+04  0.7818609E-02  0.8706032E-01
       -1   -1    0    0    0  501  0.00000000000E+00  0.00000000000E+00  0.94622086339E+03  0.94622086340E+03  0.50400001928E-02 0.  1.
        1   -1    0    0  501    0  0.00000000000E+00  0.00000000000E+00 -0.85651571327E+03  0.85651571328E+03  0.50400001928E-02 0. -1.
    10030    2    1    2    0    0  0.00000000000E+00  0.00000000000E+00  0.89705150122E+02  0.18027365767E+04  0.18005033049E+04 0.  0.
        4    1    3    3  502    0  0.57123485450E+03  0.19360037756E+03 -0.62430345130E+03  0.86807072142E+03  0.12699999809E+01 0. -1.
       -4    1    3    3    0  502 -0.57123485450E+03 -0.19360037756E+03  0.71400860142E+03  0.93466585526E+03  0.12699999809E+01 0.  1.
</event>
<event>
 5   0  0.1000316E-05  0.1799492E+04  0.7818609E-02  0.8706569E-01
       -2   -1    0    0    0  501  0.00000000000E+00  0.00000000000E+00  0.66576039312E+03  0.66576039313E+03  0.25500000920E-02 0.  1.
        2   -1    0    0  501    0  0.00000000000E+00  0.00000000000E+00 -0.12159678111E+04  0.12159678111E+04  0.25500000920E-02 0. -1.
    10030    2    1    2    0    0  0.00000000000E+00  0.00000000000E+00 -0.55020741797E+03  0.18817282042E+04  0.17994923817E+04 0.  0.
        5    1    3    3  502    0  0.40065467653E+03  0.20976232785E+03 -0.10884647940E+04  0.11786866003E+04  0.46999998093E+01 0. -1.
       -5    1    3    3    0  502 -0.40065467653E+03 -0.20976232785E+03  0.53825737601E+03  0.70304160391E+03  0.46999998093E+01 0.  1.
</event>
<event>
 5   0  0.9999162E-06  0.1802179E+04  0.7818609E-02  0.8705141E-01
       -2   -1    0    0    0  501  0.00000000000E+00  0.00000000000E+00  0.10652062121E+04  0.10652062121E+04  0.25500000920E-02 0. -1.
        2   -1    0    0  501    0  0.00000000000E+00  0.00000000000E+00 -0.76225845831E+03  0.76225845831E+03  0.25500000920E-02 0.  1.
    10030    2    1    2    0    0  0.00000000000E+00  0.00000000000E+00  0.30294775381E+03  0.18274646704E+04  0.18021791754E+04 0.  0.
        1    1    3    3  502    0 -0.56692179889E+03  0.70039973594E+03  0.14992641116E+03  0.91347580425E+03  0.50400001928E-02 0.  1.
       -1    1    3    3    0  502  0.56692179889E+03 -0.70039973594E+03  0.15302134265E+03  0.91398886618E+03  0.50400001928E-02 0. -1.
</event>
<event>
 5   0  0.4953155E-06  0.1802727E+04  0.7818609E-02  0.8704851E-01
       -1   -1    0    0    0  501  0.00000000000E+00  0.00000000000E+00  0.11534961005E+04  0.11534961005E+04  0.50400001928E-02 0.  1.
        1   -1    0    0  501    0  0.00000000000E+00  0.00000000000E+00 -0.70434223864E+03  0.70434223866E+03  0.50400001928E-02 0. -1.
    10030    2    1    2    0    0  0.00000000000E+00  0.00000000000E+00  0.44915386182E+03  0.18578383391E+04  0.18027268520E+04 0.  0.
        2    1    3    3  502    0  0.53420965641E+03 -0.40934110745E+03 -0.39334991039E+03  0.77952822351E+03  0.25500000920E-02 0. -1.
       -2    1    3    3    0  502 -0.53420965641E+03  0.40934110745E+03  0.84250377221E+03  0.10783101156E+04  0.25500000920E-02 0.  1.
</event>
<event>
 5   0  0.4981384E-06  0.1799996E+04  0.7818609E-02  0.8706302E-01
        1   -1    0    0  501    0  0.00000000000E+00  0.00000000000E+00  0.11960868226E+04  0.11960868227E+04  0.50400001928E-02 0. -1.
       -1   -1    0    0    0  501  0.00000000000E+00  0.00000000000E+00 -0.67720536752E+03  0.67720536754E+03  0.50400001928E-02 0.  1.
    10030    2    1    2    0    0  0.00000000000E+00  0.00000000000E+00  0.51888145513E+03  0.18732921902E+04  0.17999960182E+04 0.  0.
        5    1    3    3  502    0  0.20686151309E+03  0.87560764238E+03  0.23631196875E+03  0.93023968178E+03  0.46999998093E+01 0. -1.
       -5    1    3    3    0  502 -0.20686151309E+03 -0.87560764238E+03  0.28256948638E+03  0.94305250841E+03  0.46999998093E+01 0.  1.
</event>
<event>
 5   0  0.1035018E-05  0.1800945E+04  0.7818609E-02  0.8705797E-01
        2   -1    0    0  501    0  0.00000000000E+00  0.00000000000E+00  0.14535583812E+04  0.14535583812E+04  0.25500000920E-02 0.  1.
       -2   -1    0    0    0  501  0.00000000000E+00  0.00000000000E+00 -0.55783869634E+03  0.55783869635E+03  0.25500000920E-02 0. -1.
    10030    2    1    2    0    0  0.00000000000E+00  0.00000000000E+00  0.89571968483E+03  0.20113970775E+04  0.18009454322E+04 0.  0.
        3    1    3    3  502    0 -0.59951700228E+03 -0.54560577973E+03  0.99371223092E+01  0.81068184851E+03  0.10100000352E+00 0. -1.
       -3    1    3    3    0  502  0.59951700228E+03  0.54560577973E+03  0.88578256252E+03  0.12007152290E+04  0.10100000352E+00 0.  1.
</event>
<event>
 5   0  0.9999162E-06  0.1799927E+04  0.7818609E-02  0.8706338E-01
        2   -1    0    0  501    0  0.00000000000E+00  0.00000000000E+00  0.20521109975E+04  0.20521109975E+04  0.25500000920E-02 0. -1.
       -2   -1    0    0    0  501  0.00000000000E+00  0.00000000000E+00 -0.39468332929E+03  0.39468332930E+03  0.25500000920E-02 0.  1.
    10030    2    1    2    0    0  0.00000000000E+00  0.00000000000E+00  0.16574276682E+04  0.24467943268E+04  0.17999266658E+04 0.  0.
        1    1    3    3  502    0 -0.29333514367E+03 -0.46005602206E+03  0.18016360170E+04  0.18824423995E+04  0.50400001928E-02 0. -1.
       -1    1    3    3    0  502  0.29333514367E+03  0.46005602206E+03 -0.14420834873E+03  0.56435192727E+03  0.50400001928E-02 0.  1.
</event>
<event>
 5   0  0.3626125E-06  0.1800866E+04  0.7818609E-02  0.8705839E-01
       -3   -1    0    0    0  501  0.00000000000E+00  0.00000000000E+00  0.11271647566E+04  0.11271647611E+04  0.10100000352E+00 0.  1.
        3   -1    0    0  501    0  0.00000000000E+00  0.00000000000E+00 -0.71930868007E+03  0.71930868716E+03  0.10100000352E+00 0. -1.
    10030    2    1    2    0    0  0.00000000000E+00  0.00000000000E+00  0.40785607649E+03  0.18464734482E+04  0.18008657962E+04 0.  0.
        2    1    3    3  502    0  0.83866652429E+03  0.10339903066E+03  0.52281331385E+03  0.99367331636E+03  0.25500000920E-02 0.  1.
       -2    1    3    3    0  502 -0.83866652429E+03 -0.10339903066E+03 -0.11495723736E+03  0.85280013188E+03  0.25500000920E-02 0. -1.
</event>
<event>
 5   0  0.4953155E-06  0.1801067E+04  0.7818609E-02  0.8705732E-01
       -1   -1    0    0    0  501  0.00000000000E+00  0.00000000000E+00  0.80983196440E+03  0.80983196442E+03  0.50400001928E-02 0. -1.
        1   -1    0    0  501    0  0.00000000000E+00  0.00000000000E+00 -0.10013938286E+04  0.10013938287E+04  0.50400001928E-02 0.  1.
    10030    2    1    2    0    0  0.00000000000E+00  0.00000000000E+00 -0.19156186424E+03  0.18112257931E+04  0.18010671630E+04 0.  0.
        2    1    3    3  502    0  0.16813326555E+02 -0.84605427392E+03 -0.40552829295E+03  0.93837291029E+03  0.25500000920E-02 0.  1.
       -2    1    3    3    0  502 -0.16813326555E+02  0.84605427392E+03  0.21396642871E+03  0.87285288279E+03  0.25500000920E-02 0. -1.
</event>
<event>
 5   0  0.4981384E-06  0.1800173E+04  0.7818609E-02  0.8706208E-01
       -1   -1    0    0    0  501  0.00000000000E+00  0.00000000000E+00  0.42539836285E+03  0.42539836288E+03  0.50400001928E-02 0.  1.
        1   -1    0    0  501    0  0.00000000000E+00  0.00000000000E+00 -0.19044626505E+04  0.19044626505E+04  0.50400001928E-02 0. -1.
    10030    2    1    2    0    0  0.00000000000E+00  0.00000000000E+00 -0.14790642877E+04  0.23298610134E+04  0.18001725403E+04 0.  0.
        5    1    3    3  502    0  0.63199871884E+03  0.63278157764E+03 -0.60819166054E+03  0.10815517055E+04  0.46999998093E+01 0. -1.
       -5    1    3    3    0  502 -0.63199871884E+03 -0.63278157764E+03 -0.87087262713E+03  0.12483093079E+04  0.46999998093E+01 0.  1.
</event>
<event>
 5   0  0.4953155E-06  0.1799697E+04  0.7818609E-02  0.8706460E-01
       -1   -1    0    0    0  501  0.00000000000E+00  0.00000000000E+00  0.44116589506E+03  0.44116589509E+03  0.50400001928E-02 0.  1.
        1   -1    0    0  501    0  0.00000000000E+00  0.00000000000E+00 -0.18354264947E+04  0.18354264947E+04  0.50400001928E-02 0. -1.
    10030    2    1    2    0    0  0.00000000000E+00  0.00000000000E+00 -0.13942605997E+04  0.22765923898E+04  0.17996972772E+04 0.  0.
        2    1    3    3  502    0  0.86070043263E+03 -0.16499725844E+03 -0.43881823271E+03  0.98009732751E+03  0.25500000920E-02 0.  1.
       -2    1    3    3    0  502 -0.86070043263E+03  0.16499725844E+03 -0.95544236696E+03  0.12964950623E+04  0.25500000920E-02 0. -1.
</event>
<event>
 5   0  0.4981384E-06  0.1801149E+04  0.7818609E-02  0.8705688E-01
       -1   -1    0    0    0  501  0.00000000000E+00  0.00000000000E+00  0.86047295407E+03  0.86047295408E+03  0.50400001928E-02 0. -1.
        1   -1    0    0  501    0  0.00000000000E+00  0.00000000000E+00 -0.94254540121E+03  0.94254540123E+03  0.50400001928E-02 0.  1.
    10030    2    1    2    0    0  0.00000000000E+00  0.00000000000E+00 -0.82072447145E+02  0.18030183553E+04  0.18011494394E+04 0.  0.
        5    1    3    3  502    0 -0.28623475215E+03 -0.76803204316E+03 -0.41453083741E+03  0.91851045602E+03  0.46999998093E+01 0.  1.
       -5    1    3    3    0  502  0.28623475215E+03  0.76803204316E+03  0.33245839027E+03  0.88450789929E+03  0.46999998093E+01 0. -1.
</event>
<event>
 5   0  0.4953155E-06  0.1800850E+04  0.7818609E-02  0.8705848E-01
       -1   -1    0    0    0  501  0.00000000000E+00  0.00000000000E+00  0.61737912891E+03  0.61737912893E+03  0.50400001928E-02 0.  1.
        1   -1    0    0  501    0  0.00000000000E+00  0.00000000000E+00 -0.13132369940E+04  0.13132369940E+04  0.50400001928E-02 0. -1.
    10030    2    1    2    0    0  0.00000000000E+00  0.00000000000E+00 -0.69585786510E+03  0.19306161230E+04  0.18008499232E+04 0.  0.
        2    1    3    3  502    0 -0.86509667117E+03 -0.19439563521E+03 -0.17984058937E+03  0.90472346662E+03  0.25500000920E-02 0. -1.
       -2    1    3    3    0  502  0.86509667117E+03  0.19439563521E+03 -0.51601727573E+03  0.10258926563E+04  0.25500000920E-02 0.  1.
</event>
<event>
 5   0  0.1035018E-05  0.1799497E+04  0.7818609E-02  0.8706567E-01
       -2   -1    0    0    0  501  0.00000000000E+00  0.00000000000E+00  0.34569640079E+03  0.34569640079E+03  0.25500000920E-02 0.  1.
        2   -1    0    0  501    0  0.00000000000E+00  0.00000000000E+00 -0.23417874692E+04  0.23417874692E+04  0.25500000920E-02 0. -1.
    10030    2    1    2    0    0  0.00000000000E+00  0.00000000000E+00 -0.19960910684E+04  0.26874838700E+04  0.17994971514E+04 0.  0.
        3    1    3    3  502    0  0.69762364435E+03 -0.11322001305E+03 -0.18296380054E+04  0.19613956158E+04  0.10100000352E+00 0. -1.
       -3    1    3    3    0  502 -0.69762364435E+03  0.11322001305E+03 -0.16645306297E+03  0.72608825420E+03  0.10100000352E+00 0.  1.
</event>
<event>
 5   0  0.9589963E-06  0.1800441E+04  0.7818609E-02  0.8706065E-01
       -2   -1    0    0    0  501  0.00000000000E+00  0.00000000000E+00  0.62620512904E+03  0.62620512905E+03  0.25500000920E-02 0.  1.
        2   -1    0    0  501    0  0.00000000000E+00  0.00000000000E+00 -0.12941401041E+04  0.12941401041E+04  0.25500000920E-02 0. -1.
    10030    2    1    2    0    0  0.00000000000E+00  0.00000000000E+00 -0.66793497509E+03  0.19203452332E+04  0.18004412469E+04 0.  0.
        2    1    3    3  502    0  0.34212851159E+03 -0.46965962069E+03 -0.10673373508E+04  0.12152535119E+04  0.25500000920E-02 0. -1.
       -2    1    3    3    0  502 -0.34212851159E+03  0.46965962069E+03  0.39940237569E+03  0.70509172131E+03  0.25500000920E-02 0.  1.
</event>
<event>
 5   0  0.9999162E-06  0.1799429E+04  0.7818609E-02  0.8706603E-01
       -2   -1    0    0    0  501  0.00000000000E+00  0.00000000000E+00  0.12587710443E+04  0.12587710443E+04  0.25500000920E-02 0.  1.
        2   -1    0    0  501    0  0.00000000000E+00  0.00000000000E+00 -0.64307680121E+03  0.64307680121E+03  0.25500000920E-02 0. -1.
    10030    2    1    2    0    0  0.00000000000E+00  0.00000000000E+00  0.61569424311E+03  0.19018478455E+04  0.17994293058E+04 0.  0.
        1    1    3    3  502    0 -0.11918729368E+03 -0.36761037821E+03  0.11665840528E+04  0.12289269114E+04  0.50400001928E-02 0.  1.
       -1    1    3    3    0  502  0.11918729368E+03  0.36761037821E+03 -0.55088980973E+03  0.67292093416E+03  0.50400001928E-02 0. -1.
</event>
<event>
 5   0  0.4953155E-06  0.1799758E+04  0.7818609E-02  0.8706428E-01
       -1   -1    0    0    0  501  0.00000000000E+00  0.00000000000E+00  0.67972097039E+03  0.67972097041E+03  0.50400001928E-02 0. -1.
        1   -1    0    0  501    0  0.00000000000E+00  0.00000000000E+00 -0.11913452179E+04  0.11913452179E+04  0.50400001928E-02 0.  1.
    10030    2    1    2    0    0  0.00000000000E+00  0.00000000000E+00 -0.51162424748E+03  0.18710661883E+04  0.17997581255E+04 0.  0.
        2    1    3    3  502    0  0.67960975152E+02  0.68286605547E+03 -0.86099079385E+03  0.11010131203E+04  0.25500000920E-02 0.  1.
       -2    1    3    3    0  502 -0.67960975152E+02 -0.68286605547E+03  0.34936654638E+03  0.77005306804E+03  0.25500000920E-02 0. -1.
</event>
<event>
 5   0  0.1036381E-05  0.1800466E+04  0.7818609E-02  0.8706052E-01
        2   -1    0    0  501    0  0.00000000000E+00  0.00000000000E+00  0.11219863963E+04  0.11219863963E+04  0.25500000920E-02 0. -1.
       -2   -1    0    0    0  501  0.00000000000E+00  0.00000000000E+00 -0.72230763740E+03  0.72230763741E+03  0.25500000920E-02 0.  1.
    10030    2    1    2    0    0  0.00000000000E+00  0.00000000000E+00  0.39967875887E+03  0.18442940337E+04  0.18004658765E+04 0.  0.
        4    1    3    3  502    0  0.70205260156E+03 -0.54943049015E+02  0.77431312368E+03  0.10466417823E+04  0.12699999809E+01 0. -1.
       -4    1    3    3    0  502 -0.70205260156E+03  0.54943049015E+02 -0.37463436480E+03  0.79765225141E+03  0.12699999809E+01 0.  1.
</event>
<event>
 5   0  0.4994123E-06  0.1801869E+04  0.7818609E-02  0.8705306E-01
        1   -1    0    0  501    0  0.00000000000E+00  0.00000000000E+00  0.15711109107E+04  0.15711109107E+04  0.50400001928E-02 0. -1.
       -1   -1    0    0    0  501  0.00000000000E+00  0.00000000000E+00 -0.51662996587E+03  0.51662996589E+03  0.50400001928E-02 0.  1.
    10030    2    1    2    0    0  0.00000000000E+00  0.00000000000E+00  0.10544809448E+04  0.20877408766E+04  0.18018690032E+04 0.  0.
        1    1    3    3  502    0 -0.51983169084E+03  0.39707422322E+03  0.12450351538E+04  0.14064158204E+04  0.50400001928E-02 0. -1.
       -1    1    3    3    0  502  0.51983169084E+03 -0.39707422322E+03 -0.19055420904E+03  0.68132505617E+03  0.50400001928E-02 0.  1.
</event>
<event>
 5   0  0.4983159E-06  0.1795768E+04  0.7818609E-02  0.8708553E-01
        1   -1    0    0  501    0  0.00000000000E+00  0.00000000000E+00  0.82002122864E+03  0.82002122865E+03  0.50400001928E-02 0. -1.
       -1   -1    0    0    0  501  0.00000000000E+00  0.00000000000E+00 -0.98313958748E+03  0.98313958749E+03  0.50400001928E-02 0.  1.
    10030    2    1    2    0    0  0.00000000000E+00  0.00000000000E+00 -0.16311835884E+03  0.18031608161E+04  0.17957676158E+04 0.  0.
        4    1    3    3  502    0 -0.35131258935E+03  0.77709212304E+03 -0.36360886826E+03  0.92709531608E+03  0.12699999809E+01 0. -1.
       -4    1    3    3    0  502  0.35131258935E+03 -0.77709212304E+03  0.20049050942E+03  0.87606550006E+03  0.12699999809E+01 0.  1.
</event>
<event>
 5   0  0.1035018E-05  0.1800100E+04  0.7818609E-02  0.8706246E-01
        2   -1    0    0  501    0  0.00000000000E+00  0.00000000000E+00  0.16041237840E+04  0.16041237840E+04  0.25500000920E-02 0.  1.
       -2   -1    0    0    0  501  0.00000000000E+00  0.00000000000E+00 -0.50500463734E+03  0.50500463735E+03  0.25500000920E-02 0. -1.
    10030    2    1    2    0    0  0.00000000000E+00  0.00000000000E+00  0.10991191466E+04  0.21091284213E+04  0.18000999414E+04 0.  0.
        3    1    3    3  502    0  0.30434855787E+03 -0.22863106093E+02 -0.44252240746E+03  0.53756567748E+03  0.10100000352E+00 0. -1.
       -3    1    3    3    0  502 -0.30434855787E+03  0.22863106093E+02  0.15416415541E+04  0.15715627438E+04  0.10100000352E+00 0.  1.
</event>
<event>
 5   0  0.4981384E-06  0.1799820E+04  0.7818609E-02  0.8706395E-01
        1   -1    0    0  501    0  0.00000000000E+00  0.00000000000E+00  0.17854716527E+04  0.17854716527E+04  0.50400001928E-02 0.  1.
       -1   -1    0    0    0  501  0.00000000000E+00  0.00000000000E+00 -0.45357083008E+03  0.45357083010E+03  0.50400001928E-02 0. -1.
    10030    2    1    2    0    0  0.00000000000E+00  0.00000000000E+00  0.13319008226E+04  0.22390424828E+04  0.17998198350E+04 0.  0.
        5    1    3    3  502    0  0.34017719105E+03 -0.76014337977E+03  0.24174055804E+03  0.86717879731E+03  0.46999998093E+01 0. -1.
       -5    1    3    3    0  502 -0.34017719105E+03  0.76014337977E+03  0.10901602646E+04  0.13718636855E+04  0.46999998093E+01 0.  1.
</event>
<event>
 5   0  0.1035018E-05  0.1800411E+04  0.7818609E-02  0.8706081E-01
        2   -1    0    0  501    0  0.00000000000E+00  0.00000000000E+00  0.62697292998E+03  0.62697292999E+03  0.25500000920E-02 0. -1.
       -2   -1    0    0    0  501  0.00000000000E+00  0.00000000000E+00 -0.12925124741E+04  0.12925124741E+04  0.25500000920E-02 0.  1.
    10030    2    1    2    0    0  0.00000000000E+00  0.00000000000E+00 -0.66553954412E+03  0.19194854041E+04  0.18004114340E+04 0.  0.
        3    1    3    3  502    0 -0.74611150413E+03 -0.40742490597E+03 -0.17054748668E+02  0.85027542905E+03  0.10100000352E+00 0. -1.
       -3    1    3    3    0  502  0.74611150413E+03  0.40742490597E+03 -0.64848479546E+03  0.10692099750E+04  0.10100000352E+00 0.  1.
</event>
<event>
 5   0  0.4983159E-06  0.1800266E+04  0.7818609E-02  0.8706158E-01
        1   -1    0    0  501    0  0.00000000000E+00  0.00000000000E+00  0.65584599842E+03  0.65584599844E+03  0.50400001928E-02 0.  1.
       -1   -1    0    0    0  501  0.00000000000E+00  0.00000000000E+00 -0.12354116598E+04  0.12354116598E+04  0.50400001928E-02 0. -1.
    10030    2    1    2    0    0  0.00000000000E+00  0.00000000000E+00 -0.57956566138E+03  0.18912576583E+04  0.18002664175E+04 0.  0.
        4    1    3    3  502    0  0.14232505796E+02 -0.13211005590E+03 -0.12250510401E+04  0.12322367040E+04  0.12699999809E+01 0. -1.
       -4    1    3    3    0  502 -0.14232505796E+02  0.13211005590E+03  0.64548537869E+03  0.65902095421E+03  0.12699999809E+01 0.  1.
</event>
<event>
 5   0  0.4981384E-06  0.1807315E+04  0.7818609E-02  0.8702419E-01
       -1   -1    0    0    0  501  0.00000000000E+00  0.00000000000E+00  0.17591061257E+04  0.17591061257E+04  0.50400001928E-02 0. -1.
        1   -1    0    0  501    0  0.00000000000E+00  0.00000000000E+00 -0.46421118667E+03  0.46421118670E+03  0.50400001928E-02 0.  1.
    10030    2    1    2    0    0  0.00000000000E+00  0.00000000000E+00  0.12948949390E+04  0.22233173124E+04  0.18073148504E+04 0.  0.
        5    1    3    3  502    0  0.48051206294E+02  0.54292922010E+03  0.15341087252E+04  0.16280641041E+04  0.46999998093E+01 0. -1.
       -5    1    3    3    0  502 -0.48051206294E+02 -0.54292922010E+03 -0.23921378616E+03  0.59525320827E+03  0.46999998093E+01 0.  1.
</event>
<event>
 5   0  0.1000316E-05  0.1799361E+04  0.7818609E-02  0.8706640E-01
       -2   -1    0    0    0  501  0.00000000000E+00  0.00000000000E+00  0.70234014515E+03  0.70234014516E+03  0.25500000920E-02 0.  1.
        2   -1    0    0  501    0  0.00000000000E+00  0.00000000000E+00 -0.11524681379E+04  0.11524681379E+04  0.25500000920E-02 0. -1.
    10030    2    1    2    0    0  0.00000000000E+00  0.00000000000E+00 -0.45012799279E+03  0.18548082831E+04  0.17993605968E+04 0.  0.
        5    1    3    3  502    0  0.98830344874E+02  0.26064314751E+03 -0.11068179712E+04  0.11413896787E+04  0.46999998093E+01 0. -1.
       -5    1    3    3    0  502 -0.98830344874E+02 -0.26064314751E+03  0.65668997836E+03  0.71341860439E+03  0.46999998093E+01 0.  1.
</event>
<event>
 5   0  0.4994123E-06  0.1797323E+04  0.7818609E-02  0.8707724E-01
       -1   -1    0    0    0  501  0.00000000000E+00  0.00000000000E+00  0.62476674852E+03  0.62476674854E+03  0.50400001928E-02 0. -1.
        1   -1    0    0  501    0  0.00000000000E+00  0.00000000000E+00 -0.12926310471E+04  0.12926310471E+04  0.50400001928E-02 0.  1.
    10030    2    1    2    0    0  0.00000000000E+00  0.00000000000E+00 -0.66786429856E+03  0.19173977956E+04  0.17973234504E+04 0.  0.
        1    1    3    3  502    0 -0.82889415074E+03 -0.59407135150E+02 -0.69883354758E+03  0.10858006484E+04  0.50400001928E-02 0.  1.
       -1    1    3    3    0  502  0.82889415074E+03  0.59407135150E+02  0.30969249020E+02  0.83159714721E+03  0.50400001928E-02 0. -1.
</event>
<event>
 5   0  0.1000316E-05  0.1801301E+04  0.7818609E-02  0.8705608E-01
        2   -1    0    0  501    0  0.00000000000E+00  0.00000000000E+00  0.17969319726E+04  0.17969319726E+04  0.25500000920E-02 0.  1.
       -2   -1    0    0    0  501  0.00000000000E+00  0.00000000000E+00 -0.45142030259E+03  0.45142030259E+03  0.25500000920E-02 0. -1.
    10030    2    1    2    0    0  0.00000000000E+00  0.00000000000E+00  0.13455116700E+04  0.22483522752E+04  0.18013012794E+04 0.  0.
        5    1    3    3  502    0  0.70443874110E+03  0.46061216939E+03  0.27265165539E+03  0.88473641597E+03  0.46999998093E+01 0. -1.
       -5    1    3    3    0  502 -0.70443874110E+03 -0.46061216939E+03  0.10728600146E+04  0.13636158592E+04  0.46999998093E+01 0.  1.
</event>
<event>
 5   0  0.4953155E-06  0.1799617E+04  0.7818609E-02  0.8706503E-01
       -1   -1    0    0    0  501  0.00000000000E+00  0.00000000000E+00  0.85686763430E+03  0.85686763431E+03  0.50400001928E-02 0.  1.
        1   -1    0    0  501    0  0.00000000000E+00  0.00000000000E+00 -0.94490165471E+03  0.94490165472E+03  0.50400001928E-02 0. -1.
    10030    2    1    2    0    0  0.00000000000E+00  0.00000000000E+00 -0.88034020410E+02  0.18017692890E+04  0.17996173433E+04 0.  0.
        2    1    3    3  502    0  0.32146365002E+02  0.60458996445E+03 -0.71046546953E+03  0.93344715828E+03  0.25500000920E-02 0. -1.
       -2    1    3    3    0  502 -0.32146365002E+02 -0.60458996445E+03  0.62243144912E+03  0.86832213075E+03  0.25500000920E-02 0.  1.
</event>
<event>
 5   0  0.4987456E-06  0.1799843E+04  0.7818609E-02  0.8706383E-01
       -1   -1    0    0    0  501  0.00000000000E+00  0.00000000000E+00  0.53982148901E+03  0.53982148903E+03  0.50400001928E-02 0. -1.
        1   -1    0    0  501    0  0.00000000000E+00  0.00000000000E+00 -0.15002342910E+04  0.15002342910E+04  0.50400001928E-02 0.  1.
    10030    2    1    2    0    0  0.00000000000E+00  0.00000000000E+00 -0.96041280201E+03  0.20400557801E+04  0.17998430030E+04 0.  0.
        3    1    3    3  502    0 -0.62851745307E+03  0.32130566352E+03  0.15249268759E+03  0.72216725777E+03  0.10100000352E+00 0. -1.
       -3    1    3    3    0  502  0.62851745307E+03 -0.32130566352E+03 -0.11129054896E+04  0.13178885223E+04  0.10100000352E+00 0.  1.
</event>
<event>
 5   0  0.4981384E-06  0.1800153E+04  0.7818609E-02  0.8706218E-01
       -1   -1    0    0    0  501  0.00000000000E+00  0.00000000000E+00  0.45969957605E+03  0.45969957607E+03  0.50400001928E-02 0.  1.
        1   -1    0    0  501    0  0.00000000000E+00  0.00000000000E+00 -0.17623195854E+04  0.17623195854E+04  0.50400001928E-02 0. -1.
    10030    2    1    2    0    0  0.00000000000E+00  0.00000000000E+00 -0.13026200094E+04  0.22220191615E+04  0.18001528450E+04 0.  0.
        5    1    3    3  502    0  0.46201232280E+03  0.59745050985E+03 -0.12556539735E+04  0.14652957003E+04  0.46999998093E+01 0. -1.
       -5    1    3    3    0  502 -0.46201232280E+03 -0.59745050985E+03 -0.46966035820E+02  0.75672346116E+03  0.46999998093E+01 0.  1.
</event>
<event>
 5   0  0.9589963E-06  0.1799835E+04  0.7818609E-02  0.8706387E-01
       -2   -1    0    0    0  501  0.00000000000E+00  0.00000000000E+00  0.73563856834E+03  0.73563856834E+03  0.25500000920E-02 0.  1.
        2   -1    0    0  501    0  0.00000000000E+00  0.00000000000E+00 -0.11008826805E+04  0.11008826805E+04  0.25500000920E-02 0. -1.
    10030    2    1    2    0    0  0.00000000000E+00  0.00000000000E+00 -0.36524411213E+03  0.18365212488E+04  0.17998352802E+04 0.  0.
        2    1    3    3  502    0  0.31746132675E+03  0.21985785188E+03 -0.10120450312E+04  0.10832148052E+04  0.25500000920E-02 0. -1.
       -2    1    3    3    0  502 -0.31746132675E+03 -0.21985785188E+03  0.64680091909E+03  0.75330644359E+03  0.25500000920E-02 0.  1.
</event>
<event>
 5   0  0.9999162E-06  0.1799153E+04  0.7818609E-02  0.8706750E-01
       -2   -1    0    0    0  501  0.00000000000E+00  0.00000000000E+00  0.75451365050E+03  0.75451365051E+03  0.25500000920E-02 0. -1.
        2   -1    0    0  501    0  0.00000000000E+00  0.00000000000E+00 -0.10725291759E+04  0.10725291759E+04  0.25500000920E-02 0.  1.
    10030    2    1    2    0    0  0.00000000000E+00  0.00000000000E+00 -0.31801552538E+03  0.18270428264E+04  0.17991530271E+04 0.  0.
        1    1    3    3  502    0  0.27833317947E+03  0.61618645504E+03  0.44355602287E+03  0.80863901193E+03  0.50400001928E-02 0. -1.
       -1    1    3    3    0  502 -0.27833317947E+03 -0.61618645504E+03 -0.76157154825E+03  0.10184038145E+04  0.50400001928E-02 0.  1.
</event>
<event>
 5   0  0.4994123E-06  0.1799705E+04  0.7818609E-02  0.8706456E-01
        1   -1    0    0  501    0  0.00000000000E+00  0.00000000000E+00  0.10867487938E+04  0.10867487938E+04  0.50400001928E-02 0.  1.
       -1   -1    0    0    0  501  0.00000000000E+00  0.00000000000E+00 -0.74509807150E+03  0.74509807151E+03  0.50400001928E-02 0. -1.
    10030    2    1    2    0    0  0.00000000000E+00  0.00000000000E+00  0.34165072229E+03  0.18318468653E+04  0.17997048986E+04 0.  0.
        1    1    3    3  502    0  0.62445923876E+03 -0.63685472037E+03  0.29212225971E+03  0.93854605128E+03  0.50400001928E-02 0.  1.
       -1    1    3    3    0  502 -0.62445923876E+03  0.63685472037E+03  0.49528462579E+02  0.89330081404E+03  0.50400001928E-02 0. -1.
</event>
<event>
 5   0  0.4987456E-06  0.1800410E+04  0.7818609E-02  0.8706081E-01
        1   -1    0    0  501    0  0.00000000000E+00  0.00000000000E+00  0.73615540503E+03  0.73615540505E+03  0.50400001928E-02 0.  1.
       -1   -1    0    0    0  501  0.00000000000E+00  0.00000000000E+00 -0.11008126305E+04  0.11008126305E+04  0.50400001928E-02 0. -1.
    10030    2    1    2    0    0  0.00000000000E+00  0.00000000000E+00 -0.36465722549E+03  0.18369680356E+04  0.18004101398E+04 0.  0.
        3    1    3    3  502    0  0.80391704546E+02 -0.13674096543E+03  0.72178409472E+03  0.73900825934E+03  0.10100000352E+00 0.  1.
       -3    1    3    3    0  502 -0.80391704546E+02  0.13674096543E+03 -0.10864413202E+04  0.10979597762E+04  0.10100000352E+00 0. -1.
</event>
<event>
 5   0  0.4987456E-06  0.1795883E+04  0.7818609E-02  0.8708492E-01
       -1   -1    0    0    0  501  0.00000000000E+00  0.00000000000E+00  0.92083644846E+03  0.92083644847E+03  0.50400001928E-02 0.  1.
        1   -1    0    0  501    0  0.00000000000E+00  0.00000000000E+00 -0.87561531364E+03  0.87561531365E+03  0.50400001928E-02 0. -1.
    10030    2    1    2    0    0  0.00000000000E+00  0.00000000000E+00  0.45221134823E+02  0.17964517621E+04  0.17958825080E+04 0.  0.
        3    1    3    3  502    0 -0.32471049481E+03 -0.20729230369E+03 -0.78875163306E+03  0.87780188737E+03  0.10100000352E+00 0. -1.
       -3    1    3    3    0  502  0.32471049481E+03  0.20729230369E+03  0.83397276789E+03  0.91864987475E+03  0.10100000352E+00 0.  1.
</event>
<event>
 5   0  0.4953155E-06  0.1800021E+04  0.7818609E-02  0.8706288E-01
        1   -1    0    0  501    0  0.00000000000E+00  0.00000000000E+00  0.13584996854E+04  0.13584996854E+04  0.50400001928E-02 0. -1.
       -1   -1    0    0    0  501  0.00000000000E+00  0.00000000000E+00 -0.59626003779E+03  0.59626003781E+03  0.50400001928E-02 0.  1.
    10030    2    1    2    0    0  0.00000000000E+00  0.00000000000E+00  0.76223964761E+03  0.19547597232E+04  0.18000211930E+04 0.  0.
        2    1    3    3  502    0  0.47404361577E+03 -0.10819602961E+03  0.12035869950E+04  0.12980929801E+04  0.25500000920E-02 0. -1.
       -2    1    3    3    0  502 -0.47404361577E+03  0.10819602961E+03 -0.44134734738E+03  0.65666674312E+03  0.25500000920E-02 0.  1.
</event>
<event>
 5   0  0.9999162E-06  0.1798710E+04  0.7818609E-02  0.8706986E-01
        2   -1    0    0  501    0  0.00000000000E+00  0.00000000000E+00  0.10311050924E+04  0.10311050924E+04  0.25500000920E-02 0. -1.
       -2   -1    0    0    0  501  0.00000000000E+00  0.00000000000E+00 -0.78443909459E+03  0.78443909459E+03  0.25500000920E-02 0.  1.
    10030    2    1    2    0    0  0.00000000000E+00  0.00000000000E+00  0.24666599784E+03  0.18155441870E+04  0.17987096988E+04 0.  0.
        1    1    3    3  502    0 -0.32223082715E+03 -0.83867509043E+03  0.82575231241E+02  0.90223460480E+03  0.50400001928E-02 0.  1.
       -1    1    3    3    0  502  0.32223082715E+03  0.83867509043E+03  0.16409076660E+03  0.91330958222E+03  0.50400001928E-02 0. -1.
</event>
<event>
 5   0  0.1035018E-05  0.1800877E+04  0.7818609E-02  0.8705833E-01
       -2   -1    0    0    0  501  0.00000000000E+00  0.00000000000E+00  0.35871521351E+03  0.35871521351E+03  0.25500000920E-02 0.  1.
        2   -1    0    0  501    0  0.00000000000E+00  0.00000000000E+00 -0.22602587613E+04  0.22602587613E+04  0.25500000920E-02 0. -1.
    10030    2    1    2    0    0  0.00000000000E+00  0.00000000000E+00 -0.19015435478E+04  0.26189739748E+04  0.18008766800E+04 0.  0.
        3    1    3    3  502    0  0.52238415024E+02 -0.42650910997E+03  0.19999287558E+03  0.47395783924E+03  0.10100000352E+00 0.  1.
       -3    1    3    3    0  502 -0.52238415024E+02  0.42650910997E+03 -0.21015364234E+04  0.21450161355E+04  0.10100000352E+00 0. -1.
</event>
<event>
 5   0  0.4987456E-06  0.1799506E+04  0.7818609E-02  0.8706562E-01
        1   -1    0    0  501    0  0.00000000000E+00  0.00000000000E+00  0.15870971413E+04  0.15870971413E+04  0.50400001928E-02 0. -1.
       -1   -1    0    0    0  501  0.00000000000E+00  0.00000000000E+00 -0.51008581890E+03  0.51008581892E+03  0.50400001928E-02 0.  1.
    10030    2    1    2    0    0  0.00000000000E+00  0.00000000000E+00  0.10770113224E+04  0.20971829602E+04  0.17995063156E+04 0.  0.
        3    1    3    3  502    0 -0.62787147473E+03  0.60350523456E+03  0.80199032037E+03  0.11839044054E+04  0.10100000352E+00 0. -1.
       -3    1    3    3    0  502  0.62787147473E+03 -0.60350523456E+03  0.27502100200E+03  0.91327855481E+03  0.10100000352E+00 0.  1.
</event>
<event>
 5   0  0.1036381E-05  0.1799444E+04  0.7818609E-02  0.8706595E-01
       -2   -1    0    0    0  501  0.00000000000E+00  0.00000000000E+00  0.50877060692E+03  0.50877060693E+03  0.25500000920E-02 0. -1.
        2   -1    0    0  501    0  0.00000000000E+00  0.00000000000E+00 -0.15910896688E+04  0.15910896688E+04  0.25500000920E-02 0.  1.
    10030    2    1    2    0    0  0.00000000000E+00  0.00000000000E+00 -0.10823190619E+04  0.20998602758E+04  0.17994439769E+04 0.  0.
        4    1    3    3  502    0  0.22008419851E+03  0.53995046360E+03  0.25844742938E+03  0.63779326135E+03  0.12699999809E+01 0. -1.
       -4    1    3    3    0  502 -0.22008419851E+03 -0.53995046360E+03 -0.13407664913E+04  0.14620670144E+04  0.12699999809E+01 0.  1.
</event>
<event>
 5   0  0.4987456E-06  0.1799981E+04  0.7818609E-02  0.8706309E-01
        1   -1    0    0  501    0  0.00000000000E+00  0.00000000000E+00  0.79190100614E+03  0.79190100616E+03  0.50400001928E-02 0. -1.
       -1   -1    0    0    0  501  0.00000000000E+00  0.00000000000E+00 -0.10228338900E+04  0.10228338900E+04  0.50400001928E-02 0.  1.
    10030    2    1    2    0    0  0.00000000000E+00  0.00000000000E+00 -0.23093288389E+03  0.18147348962E+04  0.17999813184E+04 0.  0.
        3    1    3    3  502    0 -0.17260777418E+03  0.68917840707E+02 -0.10032749663E+04  0.10203449322E+04  0.10100000352E+00 0.  1.
       -3    1    3    3    0  502  0.17260777418E+03 -0.68917840707E+02  0.77234208239E+03  0.79438996401E+03  0.10100000352E+00 0. -1.
</event>
<event>
 5   0  0.4987456E-06  0.1799660E+04  0.7818609E-02  0.8706480E-01
       -1   -1    0    0    0  501  0.00000000000E+00  0.00000000000E+00  0.56390414556E+03  0.56390414559E+03  0.50400001928E-02 0. -1.
        1   -1    0    0  501    0  0.00000000000E+00  0.00000000000E+00 -0.14358715431E+04  0.14358715431E+04  0.50400001928E-02 0.  1.
    10030    2    1    2    0    0  0.00000000000E+00  0.00000000000E+00 -0.87196739757E+03  0.19997756887E+04  0.17996598742E+04 0.  0.
        3    1    3    3  502    0 -0.38623490981E+03 -0.12002062212E+03  0.45720784578E+03  0.61042721084E+03  0.10100000352E+00 0. -1.
       -3    1    3    3    0  502  0.38623490981E+03  0.12002062212E+03 -0.13291752434E+04  0.13893484779E+04  0.10100000352E+00 0.  1.
</event>
<event>
 5   0  0.1000316E-05  0.1799801E+04  0.7818609E-02  0.8706405E-01
       -2   -1    0    0    0  501  0.00000000000E+00  0.00000000000E+00  0.92777077580E+03  0.92777077580E+03  0.25500000920E-02 0. -1.
        2   -1    0    0  501    0  0.00000000000E+00  0.00000000000E+00 -0.87286749572E+03  0.87286749572E+03  0.25500000920E-02 0.  1.
    10030    2    1    2    0    0  0.00000000000E+00  0.00000000000E+00  0.54903280081E+02  0.18006382715E+04  0.17998010486E+04 0.  0.
        5    1    3    3  502    0 -0.67315185039E+02  0.24695523028E+03 -0.83566668712E+03  0.87400178596E+03  0.46999998093E+01 0.  1.
       -5    1    3    3    0  502  0.67315185039E+02 -0.24695523028E+03  0.89056996720E+03  0.92663648556E+03  0.46999998093E+01 0. -1.
</event>
<event>
 5   0  0.4983159E-06  0.1799003E+04  0.7818609E-02  0.8706830E-01
        1   -1    0    0  501    0  0.00000000000E+00  0.00000000000E+00  0.10377172683E+04  0.10377172683E+04  0.50400001928E-02 0.  1.
       -1   -1    0    0    0  501  0.00000000000E+00  0.00000000000E+00 -0.77969536063E+03  0.77969536064E+03  0.50400001928E-02 0. -1.
    10030    2    1    2    0    0  0.00000000000E+00  0.00000000000E+00  0.25802190762E+03  0.18174126289E+04  0.17990034349E+04 0.  0.
        4    1    3    3  502    0  0.66589343569E+03 -0.13651762018E+03 -0.46612741164E+03  0.82421326433E+03  0.12699999809E+01 0. -1.
       -4    1    3    3    0  502 -0.66589343569E+03  0.13651762018E+03  0.72414931927E+03  0.99319936458E+03  0.12699999809E+01 0.  1.
</event>
<event>
 5   0  0.4987456E-06  0.1800588E+04  0.7818609E-02  0.8705987E-01
        1   -1    0    0  501    0  0.00000000000E+00  0.00000000000E+00  0.11430837218E+04  0.11430837219E+04  0.50400001928E-02 0.  1.
       -1   -1    0    0    0  501  0.00000000000E+00  0.00000000000E+00 -0.70907220943E+03  0.70907220945E+03  0.50400001928E-02 0. -1.
    10030    2    1    2    0    0  0.00000000000E+00  0.00000000000E+00  0.43401151242E+03  0.18521559313E+04  0.18005875710E+04 0.  0.
        3    1    3    3  502    0  0.45405424310E+03 -0.13800185898E+02 -0.58254129021E+03  0.73872191372E+03  0.10100000352E+00 0. -1.
       -3    1    3    3    0  502 -0.45405424310E+03  0.13800185898E+02  0.10165528026E+04  0.11134340176E+04  0.10100000352E+00 0.  1.
</event>
<event>
 5   0  0.9589963E-06  0.1799230E+04  0.7818609E-02  0.8706709E-01
       -2   -1    0    0    0  501  0.00000000000E+00  0.00000000000E+00  0.10577705687E+04  0.10577705687E+04  0.25500000920E-02 0.  1.
        2   -1    0    0  501    0  0.00000000000E+00  0.00000000000E+00 -0.76510648438E+03  0.76510648439E+03  0.25500000920E-02 0. -1.
    10030    2    1    2    0    0  0.00000000000E+00  0.00000000000E+00  0.29266408428E+03  0.18228770531E+04  0.17992299698E+04 0.  0.
        2    1    3    3  502    0  0.57541691812E+03  0.47995809074E+03 -0.35804903755E+03  0.83045981951E+03  0.25500000920E-02 0. -1.
       -2    1    3    3    0  502 -0.57541691812E+03 -0.47995809074E+03  0.65071312183E+03  0.99241723355E+03  0.25500000920E-02 0.  1.
</event>
<event>
 5   0  0.4983159E-06  0.1800290E+04  0.7818609E-02  0.8706145E-01
       -1   -1    0    0    0  501  0.00000000000E+00  0.00000000000E+00  0.53857893062E+03  0.53857893065E+03  0.50400001928E-02 0. -1.
        1   -1    0    0  501    0  0.00000000000E+00  0.00000000000E+00 -0.15044431577E+04  0.15044431577E+04  0.50400001928E-02 0.  1.
    10030    2    1    2    0    0  0.00000000000E+00  0.00000000000E+00 -0.96586422704E+03  0.20430220883E+04  0.18002904066E+04 0.  0.
        4    1    3    3  502    0 -0.69740136556E+03  0.56182686010E+03 -0.37990806797E+03  0.97280513897E+03  0.12699999809E+01 0. -1.
       -4    1    3    3    0  502  0.69740136556E+03 -0.56182686010E+03 -0.58595615907E+03  0.10702169493E+04  0.12699999809E+01 0.  1.
</event>
<event>
 5   0  0.9999162E-06  0.1800288E+04  0.7818609E-02  0.8706146E-01
        2   -1    0    0  501    0  0.00000000000E+00  0.00000000000E+00  0.89868264595E+03  0.89868264595E+03  0.25500000920E-02 0. -1.
       -2   -1    0    0    0  501  0.00000000000E+00  0.00000000000E+00 -0.90160774338E+03  0.90160774338E+03  0.25500000920E-02 0.  1.
    10030    2    1    2    0    0  0.00000000000E+00  0.00000000000E+00 -0.29250974345E+01  0.18002903893E+04  0.18002880130E+04 0.  0.
        1    1    3    3  502    0  0.30267759725E+03 -0.49698106304E+03 -0.68823512582E+03  0.90126105726E+03  0.50400001928E-02 0.  1.
       -1    1    3    3    0  502 -0.30267759725E+03  0.49698106304E+03  0.68531002838E+03  0.89902933207E+03  0.50400001928E-02 0. -1.
</event>
<event>
 5   0  0.4953155E-06  0.1801142E+04  0.7818609E-02  0.8705692E-01
       -1   -1    0    0    0  501  0.00000000000E+00  0.00000000000E+00  0.66777239431E+03  0.66777239432E+03  0.50400001928E-02 0.  1.
        1   -1    0    0  501    0  0.00000000000E+00  0.00000000000E+00 -0.12145280658E+04  0.12145280658E+04  0.50400001928E-02 0. -1.
    10030    2    1    2    0    0  0.00000000000E+00  0.00000000000E+00 -0.54675567151E+03  0.18823004602E+04  0.18011422093E+04 0.  0.
        2    1    3    3  502    0 -0.49476544407E+03 -0.75234637189E+03 -0.25821883523E+03  0.93674696413E+03  0.25500000920E-02 0.  1.
       -2    1    3    3    0  502  0.49476544407E+03  0.75234637189E+03 -0.28853683629E+03  0.94555349602E+03  0.25500000920E-02 0. -1.
</event>
<event>
 5   0  0.4983159E-06  0.1800452E+04  0.7818609E-02  0.8706059E-01
        1   -1    0    0  501    0  0.00000000000E+00  0.00000000000E+00  0.83727528016E+03  0.83727528017E+03  0.50400001928E-02 0. -1.
       -1   -1    0    0    0  501  0.00000000000E+00  0.00000000000E+00 -0.96791003516E+03  0.96791003517E+03  0.50400001928E-02 0.  1.
    10030    2    1    2    0    0  0.00000000000E+00  0.00000000000E+00 -0.13063475500E+03  0.18051853153E+04  0.18004523275E+04 0.  0.
        4    1    3    3  502    0  0.59238286961E+03 -0.41141314938E+03  0.47482628914E+03  0.86350440731E+03  0.12699999809E+01 0. -1.
       -4    1    3    3    0  502 -0.59238286961E+03  0.41141314938E+03 -0.60546104413E+03  0.94168090803E+03  0.12699999809E+01 0.  1.
</event>
<event>
 5   0  0.1035018E-05  0.1799603E+04  0.7818609E-02  0.8706511E-01
       -2   -1    0    0    0  501  0.00000000000E+00  0.00000000000E+00  0.24680467318E+03  0.24680467319E+03  0.25500000920E-02 0. -1.
        2   -1    0    0  501    0  0.00000000000E+00  0.00000000000E+00 -0.32804995042E+04  0.32804995042E+04  0.25500000920E-02 0.  1.
    10030    2    1    2    0    0  0.00000000000E+00  0.00000000000E+00 -0.30336948310E+04  0.35273041774E+04  0.17996028540E+04 0.  0.
        3    1    3    3  502    0  0.34438698344E+03 -0.79386387059E+03 -0.20002296968E+04  0.21793900729E+04  0.10100000352E+00 0.  1.
       -3    1    3    3    0  502 -0.34438698344E+03  0.79386387059E+03 -0.10334651342E+04  0.13479141045E+04  0.10100000352E+00 0. -1.
</event>
<event>
 5   0  0.4987456E-06  0.1799736E+04  0.7818609E-02  0.8706440E-01
        1   -1    0    0  501    0  0.00000000000E+00  0.00000000000E+00  0.13740157677E+04  0.13740157677E+04  0.50400001928E-02 0.  1.
       -1   -1    0    0    0  501  0.00000000000E+00  0.00000000000E+00 -0.58934008888E+03  0.58934008890E+03  0.50400001928E-02 0. -1.
    10030    2    1    2    0    0  0.00000000000E+00  0.00000000000E+00  0.78467567885E+03  0.19633558566E+04  0.17997361748E+04 0.  0.
        3    1    3    3  502    0 -0.86186428182E+03  0.23800604001E+03  0.28159188954E+03  0.93741715251E+03  0.10100000352E+00 0. -1.
       -3    1    3    3    0  502  0.86186428182E+03 -0.23800604001E+03  0.50308378931E+03  0.10259387041E+04  0.10100000352E+00 0.  1.
</event>
<event>
 5   0  0.9589963E-06  0.1800308E+04  0.7818609E-02  0.8706136E-01
        2   -1    0    0  501    0  0.00000000000E+00  0.00000000000E+00  0.18091416956E+04  0.18091416956E+04  0.25500000920E-02 0.  1.
       -2   -1    0    0    0  501  0.00000000000E+00  0.00000000000E+00 -0.44787951403E+03  0.44787951404E+03  0.25500000920E-02 0. -1.
    10030    2    1    2    0    0  0.00000000000E+00  0.00000000000E+00  0.13612621816E+04  0.22570212097E+04  0.18003083108E+04 0.  0.
        2    1    3    3  502    0 -0.42042274473E+03  0.48217089421E+03  0.14745553126E+04  0.16073448371E+04  0.25500000920E-02 0.  1.
       -2    1    3    3    0  502  0.42042274473E+03 -0.48217089421E+03 -0.11329313101E+03  0.64967637255E+03  0.25500000920E-02 0. -1.
</event>
<event>
 5   0  0.1035018E-05  0.1799951E+04  0.7818609E-02  0.8706325E-01
       -2   -1    0    0    0  501  0.00000000000E+00  0.00000000000E+00  0.73653763323E+03  0.73653763323E+03  0.25500000920E-02 0.  1.
        2   -1    0    0  501    0  0.00000000000E+00  0.00000000000E+00 -0.10996803938E+04  0.10996803938E+04  0.25500000920E-02 0. -1.
    10030    2    1    2    0    0  0.00000000000E+00  0.00000000000E+00 -0.36314276061E+03  0.18362180271E+04  0.17999511044E+04 0.  0.
        3    1    3    3  502    0  0.29846472126E+03 -0.29714827795E+03  0.62980147925E+03  0.75764648906E+03  0.10100000352E+00 0.  1.
       -3    1    3    3    0  502 -0.29846472126E+03  0.29714827795E+03 -0.99294423986E+03  0.10785715380E+04  0.10100000352E+00 0. -1.
</event>
<event>
 5   0  0.9589963E-06  0.1800663E+04  0.7818609E-02  0.8705947E-01
       -2   -1    0    0    0  501  0.00000000000E+00  0.00000000000E+00  0.49435159896E+03  0.49435159897E+03  0.25500000920E-02 0.  1.
        2   -1    0    0  501    0  0.00000000000E+00  0.00000000000E+00 -0.16397178639E+04  0.16397178639E+04  0.25500000920E-02 0. -1.
    10030    2    1    2    0    0  0.00000000000E+00  0.00000000000E+00 -0.11453662649E+04  0.21340694629E+04  0.18006633754E+04 0.  0.
        2    1    3    3  502    0 -0.73453272769E+03 -0.52013269594E+03 -0.59972961886E+03  0.10815507224E+04  0.25500000920E-02 0.  1.
       -2    1    3    3    0  502  0.73453272769E+03  0.52013269594E+03 -0.54563664606E+03  0.10525187404E+04  0.25500000920E-02 0. -1.
</event>
<event>
 5   0  0.9589963E-06  0.1799457E+04  0.7818609E-02  0.8706588E-01
       -2   -1    0    0    0  501  0.00000000000E+00  0.00000000000E+00  0.35249552696E+03  0.35249552697E+03  0.25500000920E-02 0. -1.
        2   -1    0    0  501    0  0.00000000000E+00  0.00000000000E+00 -0.22965161699E+04  0.22965161699E+04  0.25500000920E-02 0.  1.
    10030    2    1    2    0    0  0.00000000000E+00  0.00000000000E+00 -0.19440206429E+04  0.26490116968E+04  0.17994573376E+04 0.  0.
        2    1    3    3  502    0 -0.23242426234E+03 -0.78692836538E+03 -0.42865278762E+03  0.92575401825E+03  0.25500000920E-02 0. -1.
       -2    1    3    3    0  502  0.23242426234E+03  0.78692836538E+03 -0.15153678553E+04  0.17232576786E+04  0.25500000920E-02 0.  1.
</event>
<event>
 5   0  0.4981384E-06  0.1799665E+04  0.7818609E-02  0.8706478E-01
       -1   -1    0    0    0  501  0.00000000000E+00  0.00000000000E+00  0.40031936153E+03  0.40031936156E+03  0.50400001928E-02 0.  1.
        1   -1    0    0  501    0  0.00000000000E+00  0.00000000000E+00 -0.20226307911E+04  0.20226307911E+04  0.50400001928E-02 0. -1.
    10030    2    1    2    0    0  0.00000000000E+00  0.00000000000E+00 -0.16223114296E+04  0.24229501527E+04  0.17996647098E+04 0.  0.
        5    1    3    3  502    0 -0.14274162515E+03 -0.36625264409E+03 -0.19009049380E+04  0.19411279824E+04  0.46999998093E+01 0. -1.
       -5    1    3    3    0  502  0.14274162515E+03  0.36625264409E+03  0.27859350839E+03  0.48182217028E+03  0.46999998093E+01 0.  1.
</event>
<event>
 5   0  0.4983159E-06  0.1799767E+04  0.7818609E-02  0.8706423E-01
        1   -1    0    0  501    0  0.00000000000E+00  0.00000000000E+00  0.67252560425E+03  0.67252560427E+03  0.50400001928E-02 0. -1.
       -1   -1    0    0    0  501  0.00000000000E+00  0.00000000000E+00 -0.12041031118E+04  0.12041031118E+04  0.50400001928E-02 0.  1.
    10030    2    1    2    0    0  0.00000000000E+00  0.00000000000E+00 -0.53157750751E+03  0.18766287160E+04  0.17997668436E+04 0.  0.
        4    1    3    3  502    0 -0.25614693714E+03 -0.26512014478E+03  0.59017656882E+03  0.69585195254E+03  0.12699999809E+01 0. -1.
       -4    1    3    3    0  502  0.25614693714E+03  0.26512014478E+03 -0.11217540763E+04  0.11807767635E+04  0.12699999809E+01 0.  1.
</event>
<event>
 5   0  0.9589963E-06  0.1801145E+04  0.7818609E-02  0.8705691E-01
       -2   -1    0    0    0  501  0.00000000000E+00  0.00000000000E+00  0.52317788432E+03  0.52317788433E+03  0.25500000920E-02 0.  1.
        2   -1    0    0  501    0  0.00000000000E+00  0.00000000000E+00 -0.15502011147E+04  0.15502011147E+04  0.25500000920E-02 0. -1.
    10030    2    1    2    0    0  0.00000000000E+00  0.00000000000E+00 -0.10270232303E+04  0.20733789990E+04  0.18011451240E+04 0.  0.
        2    1    3    3  502    0 -0.68476480964E+03 -0.25809953892E+03 -0.11177395754E+04  0.13359865175E+04  0.25500000920E-02 0. -1.
       -2    1    3    3    0  502  0.68476480964E+03  0.25809953892E+03  0.90716345042E+02  0.73739248151E+03  0.25500000920E-02 0.  1.
</event>
<event>
 5   0  0.9589963E-06  0.1802083E+04  0.7818609E-02  0.8705193E-01
        2   -1    0    0  501    0  0.00000000000E+00  0.00000000000E+00  0.90482255452E+03  0.90482255453E+03  0.25500000920E-02 0. -1.
       -2   -1    0    0    0  501  0.00000000000E+00  0.00000000000E+00 -0.89727603325E+03  0.89727603325E+03  0.25500000920E-02 0.  1.
    10030    2    1    2    0    0  0.00000000000E+00  0.00000000000E+00  0.75465212724E+01  0.18020985878E+04  0.18020827867E+04 0.  0.
        2    1    3    3  502    0  0.40328638014E+03  0.74775592674E+03 -0.29639059816E+03  0.89979231885E+03  0.25500000920E-02 0.  1.
       -2    1    3    3    0  502 -0.40328638014E+03 -0.74775592674E+03  0.30393711943E+03  0.90230626893E+03  0.25500000920E-02 0. -1.
</event>
<event>
 5   0  0.3626125E-06  0.1801695E+04  0.7818609E-02  0.8705399E-01
       -3   -1    0    0    0  501  0.00000000000E+00  0.00000000000E+00  0.49928396798E+03  0.49928397820E+03  0.10100000352E+00 0.  1.
        3   -1    0    0  501    0  0.00000000000E+00  0.00000000000E+00 -0.16253802017E+04  0.16253802048E+04  0.10100000352E+00 0. -1.
    10030    2    1    2    0    0  0.00000000000E+00  0.00000000000E+00 -0.11260962337E+04  0.21246641830E+04  0.18016950805E+04 0.  0.
        5    1    3    3  502    0  0.45420234878E+02  0.57512386512E+03  0.25283661633E+03  0.62990388355E+03  0.46999998093E+01 0.  1.
       -5    1    3    3    0  502 -0.45420234878E+02 -0.57512386512E+03 -0.13789328500E+04  0.14947602995E+04  0.46999998093E+01 0. -1.
</event>
<event>
 5   0  0.1035018E-05  0.1800731E+04  0.7818609E-02  0.8705911E-01
       -2   -1    0    0    0  501  0.00000000000E+00  0.00000000000E+00  0.32848292112E+03  0.32848292113E+03  0.25500000920E-02 0.  1.
        2   -1    0    0  501    0  0.00000000000E+00  0.00000000000E+00 -0.24678858070E+04  0.24678858070E+04  0.25500000920E-02 0. -1.
    10030    2    1    2    0    0  0.00000000000E+00  0.00000000000E+00 -0.21394028859E+04  0.27963687282E+04  0.18007313391E+04 0.  0.
        3    1    3    3  502    0  0.31516016199E+02  0.39448906437E+03 -0.23255833778E+04  0.23590152476E+04  0.10100000352E+00 0. -1.
       -3    1    3    3    0  502 -0.31516016199E+02 -0.39448906437E+03  0.18618049189E+03  0.43735348054E+03  0.10100000352E+00 0.  1.
</event>
<event>
 5   0  0.4953155E-06  0.1797871E+04  0.7818609E-02  0.8707433E-01
       -1   -1    0    0    0  501  0.00000000000E+00  0.00000000000E+00  0.51333545474E+03  0.51333545477E+03  0.50400001928E-02 0.  1.
        1   -1    0    0  501    0  0.00000000000E+00  0.00000000000E+00 -0.15741842535E+04  0.15741842535E+04  0.50400001928E-02 0. -1.
    10030    2    1    2    0    0  0.00000000000E+00  0.00000000000E+00 -0.10608487987E+04  0.20875197082E+04  0.17978705066E+04 0.  0.
        2    1    3    3  502    0 -0.11197081416E+03 -0.28791802329E+03  0.44976595415E+03  0.54564060047E+03  0.25500000920E-02 0.  1.
       -2    1    3    3    0  502  0.11197081416E+03  0.28791802329E+03 -0.15106147529E+04  0.15418791078E+04  0.25500000920E-02 0. -1.
</event>
<event>
 5   0  0.4994123E-06  0.1799761E+04  0.7818609E-02  0.8706427E-01
        1   -1    0    0  501    0  0.00000000000E+00  0.00000000000E+00  0.17714951353E+04  0.17714951353E+04  0.50400001928E-02 0. -1.
       -1   -1    0    0    0  501  0.00000000000E+00  0.00000000000E+00 -0.45711935332E+03  0.45711935335E+03  0.50400001928E-02 0.  1.
    10030    2    1    2    0    0  0.00000000000E+00  0.00000000000E+00  0.13143757820E+04  0.22286144886E+04  0.17997607738E+04 0.  0.
        1    1    3    3  502    0  0.75300780515E+03  0.43553852503E+03  0.37192497180E+03  0.94606698816E+03  0.50400001928E-02 0.  1.
       -1    1    3    3    0  502 -0.75300780515E+03 -0.43553852503E+03  0.94245081015E+03  0.12825475005E+04  0.50400001928E-02 0. -1.
</event>
<event>
 5   0  0.9589963E-06  0.1799932E+04  0.7818609E-02  0.8706336E-01
        2   -1    0    0  501    0  0.00000000000E+00  0.00000000000E+00  0.78036032446E+03  0.78036032446E+03  0.25500000920E-02 0. -1.
       -2   -1    0    0    0  501  0.00000000000E+00  0.00000000000E+00 -0.10379032179E+04  0.10379032179E+04  0.25500000920E-02 0.  1.
    10030    2    1    2    0    0  0.00000000000E+00  0.00000000000E+00 -0.25754289349E+03  0.18182635424E+04  0.17999316564E+04 0.  0.
        2    1    3    3  502    0 -0.79395617715E+03 -0.42024346711E+03 -0.73741785375E+02  0.90133724753E+03  0.25500000920E-02 0.  1.
       -2    1    3    3    0  502  0.79395617715E+03  0.42024346711E+03 -0.18380110811E+03  0.91692629487E+03  0.25500000920E-02 0. -1.
</event>
<event>
 5   0  0.1000316E-05  0.1799600E+04  0.7818609E-02  0.8706512E-01
       -2   -1    0    0    0  501  0.00000000000E+00  0.00000000000E+00  0.50294267549E+03  0.50294267550E+03  0.25500000920E-02 0.  1.
        2   -1    0    0  501    0  0.00000000000E+00  0.00000000000E+00 -0.16098050841E+04  0.16098050841E+04  0.25500000920E-02 0. -1.
    10030    2    1    2    0    0  0.00000000000E+00  0.00000000000E+00 -0.11068624086E+04  0.21127477596E+04  0.17995995955E+04 0.  0.
        5    1    3    3  502    0 -0.31096864470E+03  0.43124863641E+03  0.29879058847E+03  0.60989736034E+03  0.46999998093E+01 0.  1.
       -5    1    3    3    0  502  0.31096864470E+03 -0.43124863641E+03 -0.14056529971E+04  0.15028503992E+04  0.46999998093E+01 0. -1.
</event>
<event>
 5   0  0.4953155E-06  0.1800205E+04  0.7818609E-02  0.8706190E-01
       -1   -1    0    0    0  501  0.00000000000E+00  0.00000000000E+00  0.54791264612E+03  0.54791264614E+03  0.50400001928E-02 0. -1.
        1   -1    0    0  501    0  0.00000000000E+00  0.00000000000E+00 -0.14786753309E+04  0.14786753309E+04  0.50400001928E-02 0.  1.
    10030    2    1    2    0    0  0.00000000000E+00  0.00000000000E+00 -0.93076268481E+03  0.20265879771E+04  0.18002054476E+04 0.  0.
        2    1    3    3  502    0  0.37283315263E+03  0.94548171575E+02 -0.13814993537E+04  0.14340447625E+04  0.25500000920E-02 0.  1.
       -2    1    3    3    0  502 -0.37283315263E+03 -0.94548171575E+02  0.45073666892E+03  0.59254321460E+03  0.25500000920E-02 0. -1.
</event>
<event>
 5   0  0.4981384E-06  0.1800303E+04  0.7818609E-02  0.8706138E-01
        1   -1    0    0  501    0  0.00000000000E+00  0.00000000000E+00  0.10828811772E+04  0.10828811772E+04  0.50400001928E-02 0. -1.
       -1   -1    0    0    0  501  0.00000000000E+00  0.00000000000E+00 -0.74825643231E+03  0.74825643233E+03  0.50400001928E-02 0.  1.
    10030    2    1    2    0    0  0.00000000000E+00  0.00000000000E+00  0.33462474485E+03  0.18311376095E+04  0.18003030926E+04 0.  0.
        5    1    3    3  502    0 -0.35954939589E+03 -0.73873618841E+03  0.54136613263E+03  0.98392393187E+03  0.46999998093E+01 0. -1.
       -5    1    3    3    0  502  0.35954939589E+03  0.73873618841E+03 -0.20674138779E+03  0.84721367763E+03  0.46999998093E+01 0.  1.
</event>
<event>
 5   0  0.1036381E-05  0.1795371E+04  0.7818609E-02  0.8708765E-01
       -2   -1    0    0    0  501  0.00000000000E+00  0.00000000000E+00  0.59575976268E+03  0.59575976268E+03  0.25500000920E-02 0. -1.
        2   -1    0    0  501    0  0.00000000000E+00  0.00000000000E+00 -0.13526248866E+04  0.13526248866E+04  0.25500000920E-02 0.  1.
    10030    2    1    2    0    0  0.00000000000E+00  0.00000000000E+00 -0.75686512393E+03  0.19483846493E+04  0.17953712501E+04 0.  0.
        4    1    3    3  502    0 -0.82452385290E+03  0.64606002054E+02  0.34782426390E+00  0.82705214672E+03  0.12699999809E+01 0. -1.
       -4    1    3    3    0  502  0.82452385290E+03 -0.64606002054E+02 -0.75721294819E+03  0.11213325026E+04  0.12699999809E+01 0.  1.
</event>
<event>
 5   0  0.4987456E-06  0.1801462E+04  0.7818609E-02  0.8705523E-01
       -1   -1    0    0    0  501  0.00000000000E+00  0.00000000000E+00  0.87326703533E+03  0.87326703534E+03  0.50400001928E-02 0. -1.
        1   -1    0    0  501    0  0.00000000000E+00  0.00000000000E+00 -0.92905833725E+03  0.92905833727E+03  0.50400001928E-02 0.  1.
    10030    2    1    2    0    0  0.00000000000E+00  0.00000000000E+00 -0.55791301923E+02  0.18023253726E+04  0.18014616508E+04 0.  0.
        3    1    3    3  502    0 -0.67124146742E+02 -0.81711033132E+03 -0.40109066843E+03  0.91271500433E+03  0.10100000352E+00 0.  1.
       -3    1    3    3    0  502  0.67124146742E+02  0.81711033132E+03  0.34529936651E+03  0.88961036828E+03  0.10100000352E+00 0. -1.
</event>
<event>
 5   0  0.4953155E-06  0.1799032E+04  0.7818609E-02  0.8706814E-01
       -1   -1    0    0    0  501  0.00000000000E+00  0.00000000000E+00  0.53859809407E+03  0.53859809410E+03  0.50400001928E-02 0. -1.
        1   -1    0    0  501    0  0.00000000000E+00  0.00000000000E+00 -0.15022876984E+04  0.15022876985E+04  0.50400001928E-02 0.  1.
    10030    2    1    2    0    0  0.00000000000E+00  0.00000000000E+00 -0.96368960437E+03  0.20408857926E+04  0.17990322856E+04 0.  0.
        2    1    3    3  502    0  0.54476454201E+03  0.71075933171E+03 -0.38570478878E+03  0.97504636707E+03  0.25500000920E-02 0. -1.
       -2    1    3    3    0  502 -0.54476454201E+03 -0.71075933171E+03 -0.57798481560E+03  0.10658394255E+04  0.25500000920E-02 0.  1.
</event>
<event>
 5   0  0.9589963E-06  0.1799717E+04  0.7818609E-02  0.8706450E-01
        2   -1    0    0  501    0  0.00000000000E+00  0.00000000000E+00  0.18225583616E+04  0.18225583616E+04  0.25500000920E-02 0.  1.
       -2   -1    0    0    0  501  0.00000000000E+00  0.00000000000E+00 -0.44429049240E+03  0.44429049241E+03  0.25500000920E-02 0. -1.
    10030    2    1    2    0    0  0.00000000000E+00  0.00000000000E+00  0.13782678692E+04  0.22668488540E+04  0.17997170354E+04 0.  0.
        2    1    3    3  502    0  0.54494671692E+03 -0.14755485691E+03 -0.19346161288E+03  0.59679708088E+03  0.25500000920E-02 0. -1.
       -2    1    3    3    0  502 -0.54494671692E+03  0.14755485691E+03  0.15717294821E+04  0.16700517731E+04  0.25500000920E-02 0.  1.
</event>
<event>
 5   0  0.1000316E-05  0.1800113E+04  0.7818609E-02  0.8706239E-01
        2   -1    0    0  501    0  0.00000000000E+00  0.00000000000E+00  0.69732408781E+03  0.69732408781E+03  0.25500000920E-02 0.  1.
       -2   -1    0    0    0  501  0.00000000000E+00  0.00000000000E+00 -0.11617293692E+04  0.11617293692E+04  0.25500000920E-02 0. -1.
    10030    2    1    2    0    0  0.00000000000E+00  0.00000000000E+00 -0.46440528135E+03  0.18590534570E+04  0.18001131883E+04 0.  0.
        5    1    3    3  502    0 -0.43937987434E+02 -0.58139932879E+03 -0.94030868535E+03  0.11064168473E+04  0.46999998093E+01 0. -1.
       -5    1    3    3    0  502  0.43937987434E+02  0.58139932879E+03  0.47590340401E+03  0.75263660966E+03  0.46999998093E+01 0.  1.
</event>
<event>
 5   0  0.4983159E-06  0.1799561E+04  0.7818609E-02  0.8706533E-01
       -1   -1    0    0    0  501  0.00000000000E+00  0.00000000000E+00  0.49739802205E+03  0.49739802208E+03  0.50400001928E-02 0.  1.
        1   -1    0    0  501    0  0.00000000000E+00  0.00000000000E+00 -0.16276802818E+04  0.16276802819E+04  0.50400001928E-02 0. -1.
    10030    2    1    2    0    0  0.00000000000E+00  0.00000000000E+00 -0.11302822598E+04  0.21250783039E+04  0.17995610051E+04 0.  0.
        4    1    3    3  502    0 -0.54591788562E+03  0.69765528075E+03 -0.37897207990E+03  0.96351994211E+03  0.12699999809E+01 0.  1.
       -4    1    3    3    0  502  0.54591788562E+03 -0.69765528075E+03 -0.75131017989E+03  0.11615583618E+04  0.12699999809E+01 0. -1.
</event>
<event>
 5   0  0.1000316E-05  0.1798882E+04  0.7818609E-02  0.8706894E-01
        2   -1    0    0  501    0  0.00000000000E+00  0.00000000000E+00  0.12628813414E+04  0.12628813414E+04  0.25500000920E-02 0.  1.
       -2   -1    0    0    0  501  0.00000000000E+00  0.00000000000E+00 -0.64059415225E+03  0.64059415225E+03  0.25500000920E-02 0. -1.
    10030    2    1    2    0    0  0.00000000000E+00  0.00000000000E+00  0.62228718919E+03  0.19034754937E+04  0.17988823222E+04 0.  0.
        5    1    3    3  502    0 -0.40091975521E+03  0.67699015437E+03 -0.14999330871E+03  0.80098214829E+03  0.46999998093E+01 0.  1.
       -5    1    3    3    0  502  0.40091975521E+03 -0.67699015437E+03  0.77228049790E+03  0.11024933454E+04  0.46999998093E+01 0. -1.
</event>
<event>
 5   0  0.4987456E-06  0.1800374E+04  0.7818609E-02  0.8706101E-01
       -1   -1    0    0    0  501  0.00000000000E+00  0.00000000000E+00  0.60632811295E+03  0.60632811297E+03  0.50400001928E-02 0.  1.
        1   -1    0    0  501    0  0.00000000000E+00  0.00000000000E+00 -0.13364651834E+04  0.13364651834E+04  0.50400001928E-02 0. -1.
    10030    2    1    2    0    0  0.00000000000E+00  0.00000000000E+00 -0.73013707044E+03  0.19427932964E+04  0.18003737531E+04 0.  0.
        3    1    3    3  502    0 -0.89280531393E+03  0.70592533392E+02 -0.46309366634E+03  0.10082362761E+04  0.10100000352E+00 0. -1.
       -3    1    3    3    0  502  0.89280531393E+03 -0.70592533392E+02 -0.26704340410E+03  0.93455702032E+03  0.10100000352E+00 0.  1.
</event>
<event>
 5   0  0.9589963E-06  0.1800558E+04  0.7818609E-02  0.8706003E-01
        2   -1    0    0  501    0  0.00000000000E+00  0.00000000000E+00  0.13519875921E+04  0.13519875921E+04  0.25500000920E-02 0.  1.
       -2   -1    0    0    0  501  0.00000000000E+00  0.00000000000E+00 -0.59948944085E+03  0.59948944085E+03  0.25500000920E-02 0. -1.
    10030    2    1    2    0    0  0.00000000000E+00  0.00000000000E+00  0.75249815128E+03  0.19514770330E+04  0.18005580087E+04 0.  0.
        2    1    3    3  502    0  0.31870715732E+03 -0.59865332570E+03 -0.26544273800E+03  0.72829932285E+03  0.25500000920E-02 0. -1.
       -2    1    3    3    0  502 -0.31870715732E+03  0.59865332570E+03  0.10179408893E+04  0.12231777101E+04  0.25500000920E-02 0.  1.
</event>
<event>
 5   0  0.1035018E-05  0.1800192E+04  0.7818609E-02  0.8706197E-01
        2   -1    0    0  501    0  0.00000000000E+00  0.00000000000E+00  0.13384119101E+04  0.13384119101E+04  0.25500000920E-02 0. -1.
       -2   -1    0    0    0  501  0.00000000000E+00  0.00000000000E+00 -0.60532394078E+03  0.60532394078E+03  0.25500000920E-02 0.  1.
    10030    2    1    2    0    0  0.00000000000E+00  0.00000000000E+00  0.73308796933E+03  0.19437358509E+04  0.18001919584E+04 0.  0.
        3    1    3    3  502    0 -0.81372064672E+01 -0.60907661734E+03  0.10820545980E+04  0.12417256956E+04  0.10100000352E+00 0. -1.
       -3    1    3    3    0  502  0.81372064672E+01  0.60907661734E+03 -0.34896662870E+03  0.70201015524E+03  0.10100000352E+00 0.  1.
</event>
<event>
 5   0  0.9999162E-06  0.1799714E+04  0.7818609E-02  0.8706452E-01
       -2   -1    0    0    0  501  0.00000000000E+00  0.00000000000E+00  0.55082213425E+03  0.55082213426E+03  0.25500000920E-02 0. -1.
        2   -1    0    0  501    0  0.00000000000E+00  0.00000000000E+00 -0.14700611682E+04  0.14700611682E+04  0.25500000920E-02 0.  1.
    10030    2    1    2    0    0  0.00000000000E+00  0.00000000000E+00 -0.91923903394E+03  0.20208833024E+04  0.17997135663E+04 0.  0.
        1    1    3    3  502    0  0.20997798469E+03  0.20212484689E+03 -0.14155934391E+04  0.14452854364E+04  0.50400001928E-02 0.  1.
       -1    1    3    3    0  502 -0.20997798469E+03 -0.20212484689E+03  0.49635440520E+03  0.57559786602E+03  0.50400001928E-02 0. -1.
</event>
<event>
 5   0  0.4994123E-06  0.1800981E+04  0.7818609E-02  0.8705778E-01
        1   -1    0    0  501    0  0.00000000000E+00  0.00000000000E+00  0.53921904026E+03  0.53921904029E+03  0.50400001928E-02 0. -1.
       -1   -1    0    0    0  501  0.00000000000E+00  0.00000000000E+00 -0.15038099889E+04  0.15038099889E+04  0.50400001928E-02 0.  1.
    10030    2    1    2    0    0  0.00000000000E+00  0.00000000000E+00 -0.96459094864E+03  0.20430290292E+04  0.18009808205E+04 0.  0.
        1    1    3    3  502    0 -0.64157219662E+02 -0.70580498694E+03 -0.11124800052E+04  0.13190483654E+04  0.50400001928E-02 0.  1.
       -1    1    3    3    0  502  0.64157219662E+02  0.70580498694E+03  0.14788905653E+03  0.72398066376E+03  0.50400001928E-02 0. -1.
</event>
<event>
 5   0  0.1035018E-05  0.1799581E+04  0.7818609E-02  0.8706522E-01
       -2   -1    0    0    0  501  0.00000000000E+00  0.00000000000E+00  0.86762876112E+03  0.86762876113E+03  0.25500000920E-02 0. -1.
        2   -1    0    0  501    0  0.00000000000E+00  0.00000000000E+00 -0.93314417721E+03  0.93314417721E+03  0.25500000920E-02 0.  1.
    10030    2    1    2    0    0  0.00000000000E+00  0.00000000000E+00 -0.65515416082E+02  0.18007729383E+04  0.17995807583E+04 0.  0.
        3    1    3    3  502    0  0.53151677949E+03 -0.72596643359E+03 -0.23512179958E+02  0.90005009993E+03  0.10100000352E+00 0. -1.
       -3    1    3    3    0  502 -0.53151677949E+03  0.72596643359E+03 -0.42003236124E+02  0.90072283841E+03  0.10100000352E+00 0.  1.
</event>
<event>
 5   0  0.4983159E-06  0.1801188E+04  0.7818609E-02  0.8705668E-01
        1   -1    0    0  501    0  0.00000000000E+00  0.00000000000E+00  0.11204526561E+04  0.11204526561E+04  0.50400001928E-02 0.  1.
       -1   -1    0    0    0  501  0.00000000000E+00  0.00000000000E+00 -0.72387702866E+03  0.72387702868E+03  0.50400001928E-02 0. -1.
    10030    2    1    2    0    0  0.00000000000E+00  0.00000000000E+00  0.39657562744E+03  0.18443296848E+04  0.18011884293E+04 0.  0.
        4    1    3    3  502    0 -0.38187844878E+03 -0.78493906548E+03  0.42519843550E+03  0.97095613115E+03  0.12699999809E+01 0.  1.
       -4    1    3    3    0  502  0.38187844878E+03  0.78493906548E+03 -0.28622808066E+02  0.87337355364E+03  0.12699999809E+01 0. -1.
</event>
<event>
 5   0  0.1000316E-05  0.1799482E+04  0.7818609E-02  0.8706575E-01
       -2   -1    0    0    0  501  0.00000000000E+00  0.00000000000E+00  0.74841851074E+03  0.74841851074E+03  0.25500000920E-02 0. -1.
        2   -1    0    0  501    0  0.00000000000E+00  0.00000000000E+00 -0.10816592895E+04  0.10816592895E+04  0.25500000920E-02 0.  1.
    10030    2    1    2    0    0  0.00000000000E+00  0.00000000000E+00 -0.33324077877E+03  0.18300778003E+04  0.17994819639E+04 0.  0.
        5    1    3    3  502    0 -0.57292974440E+03 -0.40799172687E+03 -0.73723588037E+03  0.10189428711E+04  0.46999998093E+01 0.  1.
       -5    1    3    3    0  502  0.57292974440E+03  0.40799172687E+03  0.40399510160E+03  0.81113492917E+03  0.46999998093E+01 0. -1.
</event>
<event>
 5   0  0.4983159E-06  0.1801537E+04  0.7818609E-02  0.8705482E-01
        1   -1    0    0  501    0  0.00000000000E+00  0.00000000000E+00  0.78848896075E+03  0.78848896077E+03  0.50400001928E-02 0. -1.
       -1   -1    0    0    0  501  0.00000000000E+00  0.00000000000E+00 -0.10290370206E+04  0.10290370206E+04  0.50400001928E-02 0.  1.
    10030    2    1    2    0    0  0.00000000000E+00  0.00000000000E+00 -0.24054805984E+03  0.18175259814E+04  0.18015374889E+04 0.  0.
        4    1    3    3  502    0 -0.33006231313E+03 -0.83704348595E+03 -0.77473587364E+02  0.90309838753E+03  0.12699999809E+01 0. -1.
       -4    1    3    3    0  502  0.33006231313E+03  0.83704348595E+03 -0.16307447248E+03  0.91442759385E+03  0.12699999809E+01 0.  1.
</event>
<event>
 5   0  0.4987456E-06  0.1799855E+04  0.7818609E-02  0.8706377E-01
        1   -1    0    0  501    0  0.00000000000E+00  0.00000000000E+00  0.12094544176E+04  0.12094544176E+04  0.50400001928E-02 0.  1.
       -1   -1    0    0    0  501  0.00000000000E+00  0.00000000000E+00 -0.66961557952E+03  0.66961557953E+03  0.50400001928E-02 0. -1.
    10030    2    1    2    0    0  0.00000000000E+00  0.00000000000E+00  0.53983883808E+03  0.18790699971E+04  0.17998550172E+04 0.  0.
        3    1    3    3  502    0 -0.26716067935E+03 -0.84296856850E+03  0.95539199454E+02  0.88943722932E+03  0.10100000352E+00 0. -1.
       -3    1    3    3    0  502  0.26716067935E+03  0.84296856850E+03  0.44429963863E+03  0.98963276783E+03  0.10100000352E+00 0.  1.
</event>
<event>
 5   0  0.9999162E-06  0.1799485E+04  0.7818609E-02  0.8706573E-01
        2   -1    0    0  501    0  0.00000000000E+00  0.00000000000E+00  0.14123579873E+04  0.14123579873E+04  0.25500000920E-02 0. -1.
       -2   -1    0    0    0  501  0.00000000000E+00  0.00000000000E+00 -0.57318106057E+03  0.57318106058E+03  0.25500000920E-02 0.  1.
    10030    2    1    2    0    0  0.00000000000E+00  0.00000000000E+00  0.83917692670E+03  0.19855390478E+04  0.17994853143E+04 0.  0.
        1    1    3    3  502    0 -0.31038625589E+03  0.57416247026E+03  0.11029215428E+04  0.12815764120E+04  0.50400001928E-02 0. -1.
       -1    1    3    3    0  502  0.31038625589E+03 -0.57416247026E+03 -0.26374461615E+03  0.70396263585E+03  0.50400001928E-02 0.  1.
</event>
<event>
 5   0  0.1036381E-05  0.1800019E+04  0.7818609E-02  0.8706289E-01
       -2   -1    0    0    0  501  0.00000000000E+00  0.00000000000E+00  0.36962438694E+03  0.36962438695E+03  0.25500000920E-02 0. -1.
        2   -1    0    0  501    0  0.00000000000E+00  0.00000000000E+00 -0.21914597495E+04  0.21914597495E+04  0.25500000920E-02 0.  1.
    10030    2    1    2    0    0  0.00000000000E+00  0.00000000000E+00 -0.18218353625E+04  0.25610841364E+04  0.18000188515E+04 0.  0.
        4    1    3    3  502    0 -0.28909707325E+03  0.48708761090E+03  0.84219305068E+02  0.57264820152E+03  0.12699999809E+01 0. -1.
       -4    1    3    3    0  502  0.28909707325E+03 -0.48708761090E+03 -0.19060546676E+04  0.19884359349E+04  0.12699999809E+01 0.  1.
</event>
<event>
 5   0  0.1035018E-05  0.1799722E+04  0.7818609E-02  0.8706447E-01
        2   -1    0    0  501    0  0.00000000000E+00  0.00000000000E+00  0.13747085750E+04  0.13747085750E+04  0.25500000920E-02 0.  1.
       -2   -1    0    0    0  501  0.00000000000E+00  0.00000000000E+00 -0.58903411529E+03  0.58903411529E+03  0.25500000920E-02 0. -1.
    10030    2    1    2    0    0  0.00000000000E+00  0.00000000000E+00  0.78567445971E+03  0.19637426903E+04  0.17997224778E+04 0.  0.
        3    1    3    3  502    0 -0.41488062679E+03  0.52263920446E+03  0.10515733281E+04  0.12454252876E+04  0.10100000352E+00 0.  1.
       -3    1    3    3    0  502  0.41488062679E+03 -0.52263920446E+03 -0.26589886840E+03  0.71831740265E+03  0.10100000352E+00 0. -1.
</event>
<event>
 5   0  0.4983159E-06  0.1798335E+04  0.7818609E-02  0.8707185E-01
        1   -1    0    0  501    0  0.00000000000E+00  0.00000000000E+00  0.10753890490E+04  0.10753890490E+04  0.50400001928E-02 0.  1.
       -1   -1    0    0    0  501  0.00000000000E+00  0.00000000000E+00 -0.75182297362E+03  0.75182297364E+03  0.50400001928E-02 0. -1.
    10030    2    1    2    0    0  0.00000000000E+00  0.00000000000E+00  0.32356607541E+03  0.18272120227E+04  0.17983349996E+04 0.  0.
        4    1    3    3  502    0 -0.75239869391E+03 -0.48527525348E+03  0.77354128153E+02  0.89865518430E+03  0.12699999809E+01 0. -1.
       -4    1    3    3    0  502  0.75239869391E+03  0.48527525348E+03  0.24621194726E+03  0.92855683838E+03  0.12699999809E+01 0.  1.
</event>
<event>
 5   0  0.4953155E-06  0.1800159E+04  0.7818609E-02  0.8706215E-01
        1   -1    0    0  501    0  0.00000000000E+00  0.00000000000E+00  0.76577744629E+03  0.76577744631E+03  0.50400001928E-02 0.  1.
       -1   -1    0    0    0  501  0.00000000000E+00  0.00000000000E+00 -0.10579355270E+04  0.10579355270E+04  0.50400001928E-02 0. -1.
    10030    2    1    2    0    0  0.00000000000E+00  0.00000000000E+00 -0.29215808071E+03  0.18237129733E+04  0.18001590666E+04 0.  0.
        2    1    3    3  502    0  0.79623791049E+03  0.10879520063E+03  0.26457887111E+03  0.84606925534E+03  0.25500000920E-02 0.  1.
       -2    1    3    3    0  502 -0.79623791049E+03 -0.10879520063E+03 -0.55673695182E+03  0.97764371798E+03  0.25500000920E-02 0. -1.
</event>
<event>
 5   0  0.1000316E-05  0.1799371E+04  0.7818609E-02  0.8706634E-01
        2   -1    0    0  501    0  0.00000000000E+00  0.00000000000E+00  0.12302305930E+04  0.12302305930E+04  0.25500000920E-02 0.  1.
       -2   -1    0    0    0  501  0.00000000000E+00  0.00000000000E+00 -0.65795308564E+03  0.65795308565E+03  0.25500000920E-02 0. -1.
    10030    2    1    2    0    0  0.00000000000E+00  0.00000000000E+00  0.57227750740E+03  0.18881836787E+04  0.17993710176E+04 0.  0.
        5    1    3    3  502    0  0.31430957077E+03  0.39024259135E+03  0.10702358252E+04  0.11817388028E+04  0.46999998093E+01 0.  1.
       -5    1    3    3    0  502 -0.31430957077E+03 -0.39024259135E+03 -0.49795831784E+03  0.70644487590E+03  0.46999998093E+01 0. -1.
</event>
<event>
 5   0  0.4994123E-06  0.1800313E+04  0.7818609E-02  0.8706133E-01
       -1   -1    0    0    0  501  0.00000000000E+00  0.00000000000E+00  0.55082333364E+03  0.55082333367E+03  0.50400001928E-02 0.  1.
        1   -1    0    0  501    0  0.00000000000E+00  0.00000000000E+00 -0.14710370717E+04  0.14710370717E+04  0.50400001928E-02 0. -1.
    10030    2    1    2    0    0  0.00000000000E+00  0.00000000000E+00 -0.92021373802E+03  0.20218604053E+04  0.18003127992E+04 0.  0.
        1    1    3    3  502    0  0.49327066445E+03  0.50658558391E+03 -0.10857399815E+04  0.12956759663E+04  0.50400001928E-02 0. -1.
       -1    1    3    3    0  502 -0.49327066445E+03 -0.50658558391E+03  0.16552624344E+03  0.72618443906E+03  0.50400001928E-02 0.  1.
</event>
<event>
 5   0  0.1035018E-05  0.1799939E+04  0.7818609E-02  0.8706332E-01
       -2   -1    0    0    0  501  0.00000000000E+00  0.00000000000E+00  0.80253442304E+03  0.80253442305E+03  0.25500000920E-02 0.  1.
        2   -1    0    0  501    0  0.00000000000E+00  0.00000000000E+00 -0.10092338940E+04  0.10092338940E+04  0.25500000920E-02 0. -1.
    10030    2    1    2    0    0  0.00000000000E+00  0.00000000000E+00 -0.20669947100E+03  0.18117683171E+04  0.17999388222E+04 0.  0.
        3    1    3    3  502    0 -0.44317380353E+03 -0.27868367749E+03 -0.84019721843E+03  0.98994898267E+03  0.10100000352E+00 0. -1.
       -3    1    3    3    0  502  0.44317380353E+03  0.27868367749E+03  0.63349774743E+03  0.82181933442E+03  0.10100000352E+00 0.  1.
</event>
<event>
 5   0  0.4953155E-06  0.1799879E+04  0.7818609E-02  0.8706364E-01
       -1   -1    0    0    0  501  0.00000000000E+00  0.00000000000E+00  0.43616481017E+03  0.43616481020E+03  0.50400001928E-02 0.  1.
        1   -1    0    0  501    0  0.00000000000E+00  0.00000000000E+00 -0.18568457630E+04  0.18568457630E+04  0.50400001928E-02 0. -1.
    10030    2    1    2    0    0  0.00000000000E+00  0.00000000000E+00 -0.14206809528E+04  0.22930105732E+04  0.17998786401E+04 0.  0.
        2    1    3    3  502    0 -0.82486182763E+03 -0.33234467559E+03 -0.53454609390E+03  0.10375883310E+04  0.25500000920E-02 0.  1.
       -2    1    3    3    0  502  0.82486182763E+03  0.33234467559E+03 -0.88613485891E+03  0.12554222422E+04  0.25500000920E-02 0. -1.
</event>
<event>
 5   0  0.4983159E-06  0.1800068E+04  0.7818609E-02  0.8706263E-01
        1   -1    0    0  501    0  0.00000000000E+00  0.00000000000E+00  0.10754198221E+04  0.10754198221E+04  0.50400001928E-02 0. -1.
       -1   -1    0    0    0  501  0.00000000000E+00  0.00000000000E+00 -0.75325099390E+03  0.75325099392E+03  0.50400001928E-02 0.  1.
    10030    2    1    2    0    0  0.00000000000E+00  0.00000000000E+00  0.32216882822E+03  0.18286708161E+04  0.18000678319E+04 0.  0.
        4    1    3    3  502    0 -0.81775700180E+03  0.29729796892E+03 -0.72673696637E+02  0.87315272169E+03  0.12699999809E+01 0.  1.
       -4    1    3    3    0  502  0.81775700180E+03 -0.29729796892E+03  0.39484252486E+03  0.95551809436E+03  0.12699999809E+01 0. -1.
</event>
<event>
 5   0  0.3626125E-06  0.1809713E+04  0.7818609E-02  0.8701151E-01
        3   -1    0    0  501    0  0.00000000000E+00  0.00000000000E+00  0.56990475803E+03  0.56990476698E+03  0.10100000352E+00 0.  1.
       -3   -1    0    0    0  501  0.00000000000E+00  0.00000000000E+00 -0.14366705015E+04  0.14366705050E+04  0.10100000352E+00 0. -1.
    10030    2    1    2    0    0  0.00000000000E+00  0.00000000000E+00 -0.86676574344E+03  0.20065752720E+04  0.18097130900E+04 0.  0.
        4    1    3    3  502    0  0.76955209324E+03  0.29273440628E+03 -0.17242920514E+02  0.82353068434E+03  0.12699999809E+01 0.  1.
       -4    1    3    3    0  502 -0.76955209324E+03 -0.29273440628E+03 -0.84952282293E+03  0.11830445877E+04  0.12699999809E+01 0. -1.
</event>
<event>
 5   0  0.1036381E-05  0.1799343E+04  0.7818609E-02  0.8706649E-01
        2   -1    0    0  501    0  0.00000000000E+00  0.00000000000E+00  0.20819927523E+04  0.20819927523E+04  0.25500000920E-02 0. -1.
       -2   -1    0    0    0  501  0.00000000000E+00  0.00000000000E+00 -0.38876643273E+03  0.38876643273E+03  0.25500000920E-02 0.  1.
    10030    2    1    2    0    0  0.00000000000E+00  0.00000000000E+00  0.16932263196E+04  0.24707591850E+04  0.17993430971E+04 0.  0.
        4    1    3    3  502    0 -0.39022135691E+03 -0.24246461453E+02  0.19592392575E+04  0.19978690346E+04  0.12699999809E+01 0. -1.
       -4    1    3    3    0  502  0.39022135691E+03  0.24246461453E+02 -0.26601293798E+03  0.47289015041E+03  0.12699999809E+01 0.  1.
</event>
<event>
 5   0  0.4981384E-06  0.1799065E+04  0.7818609E-02  0.8706797E-01
        1   -1    0    0  501    0  0.00000000000E+00  0.00000000000E+00  0.14408981815E+04  0.14408981815E+04  0.50400001928E-02 0.  1.
       -1   -1    0    0    0  501  0.00000000000E+00  0.00000000000E+00 -0.56156578164E+03  0.56156578166E+03  0.50400001928E-02 0. -1.
    10030    2    1    2    0    0  0.00000000000E+00  0.00000000000E+00  0.87933239985E+03  0.20024639632E+04  0.17990654391E+04 0.  0.
        5    1    3    3  502    0  0.34524402159E+03  0.52057778166E+03 -0.28076893896E+03  0.68487075298E+03  0.46999998093E+01 0. -1.
       -5    1    3    3    0  502 -0.34524402159E+03 -0.52057778166E+03  0.11601013388E+04  0.13175932102E+04  0.46999998093E+01 0.  1.
</event>
<event>
 5   0  0.9589963E-06  0.1799152E+04  0.7818609E-02  0.8706750E-01
        2   -1    0    0  501    0  0.00000000000E+00  0.00000000000E+00  0.11876262484E+04  0.11876262484E+04  0.25500000920E-02 0. -1.
       -2   -1    0    0    0  501  0.00000000000E+00  0.00000000000E+00 -0.68139049099E+03  0.68139049100E+03  0.25500000920E-02 0.  1.
    10030    2    1    2    0    0  0.00000000000E+00  0.00000000000E+00  0.50623575744E+03  0.18690167394E+04  0.17991522810E+04 0.  0.
        2    1    3    3  502    0 -0.41654390604E+03 -0.10209914367E+03  0.10745864084E+04  0.11570086473E+04  0.25500000920E-02 0. -1.
       -2    1    3    3    0  502  0.41654390604E+03  0.10209914367E+03 -0.56835065096E+03  0.71200809213E+03  0.25500000920E-02 0.  1.
</event>
<event>
 5   0  0.4983159E-06  0.1800217E+04  0.7818609E-02  0.8706184E-01
        1   -1    0    0  501    0  0.00000000000E+00  0.00000000000E+00  0.51666711476E+03  0.51666711479E+03  0.50400001928E-02 0.  1.
       -1   -1    0    0    0  501  0.00000000000E+00  0.00000000000E+00 -0.15681185305E+04  0.15681185305E+04  0.50400001928E-02 0. -1.
    10030    2    1    2    0    0  0.00000000000E+00  0.00000000000E+00 -0.10514514157E+04  0.20847856453E+04  0.18002169611E+04 0.  0.
        4    1    3    3  502    0 -0.90972020584E+01 -0.89691029316E+03 -0.61287289078E+03  0.10863450769E+04  0.12699999809E+01 0. -1.
       -4    1    3    3    0  502  0.90972020584E+01  0.89691029316E+03 -0.43857852494E+03  0.99844056834E+03  0.12699999809E+01 0.  1.
</event>
<event>
 5   0  0.4994123E-06  0.1800233E+04  0.7818609E-02  0.8706175E-01
        1   -1    0    0  501    0  0.00000000000E+00  0.00000000000E+00  0.62380152705E+03  0.62380152707E+03  0.50400001928E-02 0.  1.
       -1   -1    0    0    0  501  0.00000000000E+00  0.00000000000E+00 -0.12988263666E+04  0.12988263666E+04  0.50400001928E-02 0. -1.
    10030    2    1    2    0    0  0.00000000000E+00  0.00000000000E+00 -0.67502483955E+03  0.19226278937E+04  0.18002331748E+04 0.  0.
        1    1    3    3  502    0 -0.59932014554E+03 -0.48337834451E+03  0.16041597193E+03  0.78649383015E+03  0.50400001928E-02 0.  1.
       -1    1    3    3    0  502  0.59932014554E+03  0.48337834451E+03 -0.83544081148E+03  0.11361340635E+04  0.50400001928E-02 0. -1.
</event>
<event>
 5   0  0.9589963E-06  0.1799970E+04  0.7818609E-02  0.8706315E-01
       -2   -1    0    0    0  501  0.00000000000E+00  0.00000000000E+00  0.15432307500E+04  0.15432307500E+04  0.25500000920E-02 0. -1.
        2   -1    0    0  501    0  0.00000000000E+00  0.00000000000E+00 -0.52485545918E+03  0.52485545918E+03  0.25500000920E-02 0.  1.
    10030    2    1    2    0    0  0.00000000000E+00  0.00000000000E+00  0.10183752908E+04  0.20680862092E+04  0.17999700930E+04 0.  0.
        2    1    3    3  502    0  0.53624449987E+03 -0.72228040481E+03  0.47823107475E+03  0.10187993461E+04  0.25500000920E-02 0.  1.
       -2    1    3    3    0  502 -0.53624449987E+03  0.72228040481E+03  0.54014421608E+03  0.10492868631E+04  0.25500000920E-02 0. -1.
</event>
<event>
 5   0  0.1036381E-05  0.1800218E+04  0.7818609E-02  0.8706184E-01
       -2   -1    0    0    0  501  0.00000000000E+00  0.00000000000E+00  0.84810650620E+03  0.84810650621E+03  0.25500000920E-02 0.  1.
        2   -1    0    0  501    0  0.00000000000E+00  0.00000000000E+00 -0.95530008417E+03  0.95530008417E+03  0.25500000920E-02 0. -1.
    10030    2    1    2    0    0  0.00000000000E+00  0.00000000000E+00 -0.10719357796E+03  0.18034065904E+04  0.18002180054E+04 0.  0.
        4    1    3    3  502    0  0.10214357729E+03 -0.52600329820E+03 -0.77812177296E+03  0.94476869473E+03  0.12699999809E+01 0. -1.
       -4    1    3    3    0  502 -0.10214357729E+03  0.52600329820E+03  0.67092819499E+03  0.85863789564E+03  0.12699999809E+01 0.  1.
</event>
<event>
 5   0  0.4953155E-06  0.1800075E+04  0.7818609E-02  0.8706260E-01
       -1   -1    0    0    0  501  0.00000000000E+00  0.00000000000E+00  0.77452686948E+03  0.77452686950E+03  0.50400001928E-02 0.  1.
        1   -1    0    0  501    0  0.00000000000E+00  0.00000000000E+00 -0.10458866398E+04  0.10458866398E+04  0.50400001928E-02 0. -1.
    10030    2    1    2    0    0  0.00000000000E+00  0.00000000000E+00 -0.27135977034E+03  0.18204135093E+04  0.18000747818E+04 0.  0.
        2    1    3    3  502    0  0.40960926437E+03 -0.71498718060E+03 -0.50182158042E+03  0.96478563239E+03  0.25500000920E-02 0. -1.
       -2    1    3    3    0  502 -0.40960926437E+03  0.71498718060E+03  0.23046181008E+03  0.85562787694E+03  0.25500000920E-02 0.  1.
</event>
<event>
 5   0  0.4994123E-06  0.1799554E+04  0.7818609E-02  0.8706537E-01
       -1   -1    0    0    0  501  0.00000000000E+00  0.00000000000E+00  0.15308255840E+04  0.15308255840E+04  0.50400001928E-02 0.  1.
        1   -1    0    0  501    0  0.00000000000E+00  0.00000000000E+00 -0.52886379279E+03  0.52886379281E+03  0.50400001928E-02 0. -1.
    10030    2    1    2    0    0  0.00000000000E+00  0.00000000000E+00  0.10019617912E+04  0.20596893768E+04  0.17995535274E+04 0.  0.
        1    1    3    3  502    0 -0.78540495103E+03  0.32829271904E+03  0.16736462556E+03  0.86755285971E+03  0.50400001928E-02 0. -1.
       -1    1    3    3    0  502  0.78540495103E+03 -0.32829271904E+03  0.83459716566E+03  0.11921365171E+04  0.50400001928E-02 0.  1.
</event>
<event>
 5   0  0.4983159E-06  0.1799792E+04  0.7818609E-02  0.8706410E-01
        1   -1    0    0  501    0  0.00000000000E+00  0.00000000000E+00  0.13614947472E+04  0.13614947472E+04  0.50400001928E-02 0.  1.
       -1   -1    0    0    0  501  0.00000000000E+00  0.00000000000E+00 -0.59479670631E+03  0.59479670633E+03  0.50400001928E-02 0. -1.
    10030    2    1    2    0    0  0.00000000000E+00  0.00000000000E+00  0.76669804087E+03  0.19562914535E+04  0.17997917561E+04 0.  0.
        4    1    3    3  502    0  0.76609916651E+03 -0.40661489593E+03  0.12255387617E+03  0.87593645430E+03  0.12699999809E+01 0. -1.
       -4    1    3    3    0  502 -0.76609916651E+03  0.40661489593E+03  0.64414416469E+03  0.10803549992E+04  0.12699999809E+01 0.  1.
</event>
<event>
 5   0  0.1036381E-05  0.1800580E+04  0.7818609E-02  0.8705991E-01
        2   -1    0    0  501    0  0.00000000000E+00  0.00000000000E+00  0.14807509562E+04  0.14807509563E+04  0.25500000920E-02 0. -1.
       -2   -1    0    0    0  501  0.00000000000E+00  0.00000000000E+00 -0.54737227549E+03  0.54737227550E+03  0.25500000920E-02 0.  1.
    10030    2    1    2    0    0  0.00000000000E+00  0.00000000000E+00  0.93337868076E+03  0.20281232317E+04  0.18005799292E+04 0.  0.
        4    1    3    3  502    0  0.62460397851E+03  0.46735062890E+03  0.97289769713E+03  0.12470277793E+04  0.12699999809E+01 0. -1.
       -4    1    3    3    0  502 -0.62460397851E+03 -0.46735062890E+03 -0.39519016372E+02  0.78109545247E+03  0.12699999809E+01 0.  1.
</event>
<event>
 5   0  0.4987456E-06  0.1798956E+04  0.7818609E-02  0.8706855E-01
       -1   -1    0    0    0  501  0.00000000000E+00  0.00000000000E+00  0.86568612806E+03  0.86568612807E+03  0.50400001928E-02 0.  1.
        1   -1    0    0  501    0  0.00000000000E+00  0.00000000000E+00 -0.93458882525E+03  0.93458882526E+03  0.50400001928E-02 0. -1.
    10030    2    1    2    0    0  0.00000000000E+00  0.00000000000E+00 -0.68902697190E+02  0.18002749533E+04  0.17989558988E+04 0.  0.
        3    1    3    3  502    0 -0.16215143540E+03  0.87677003018E+03  0.84133628716E+02  0.89559882285E+03  0.10100000352E+00 0.  1.
       -3    1    3    3    0  502  0.16215143540E+03 -0.87677003018E+03 -0.15303632591E+03  0.90467613048E+03  0.10100000352E+00 0. -1.
</event>
<event>
 5   0  0.4994123E-06  0.1800600E+04  0.7818609E-02  0.8705981E-01
       -1   -1    0    0    0  501  0.00000000000E+00  0.00000000000E+00  0.38774258057E+03  0.38774258060E+03  0.50400001928E-02 0.  1.
        1   -1    0    0  501    0  0.00000000000E+00  0.00000000000E+00 -0.20904073098E+04  0.20904073098E+04  0.50400001928E-02 0. -1.
    10030    2    1    2    0    0  0.00000000000E+00  0.00000000000E+00 -0.17026647292E+04  0.24781498904E+04  0.18005998165E+04 0.  0.
        1    1    3    3  502    0 -0.11440561218E+03 -0.69006957262E+03 -0.71258914478E+02  0.70310916085E+03  0.50400001928E-02 0.  1.
       -1    1    3    3    0  502  0.11440561218E+03  0.69006957262E+03 -0.16314058147E+04  0.17750407296E+04  0.50400001928E-02 0. -1.
</event>
<event>
 5   0  0.4994123E-06  0.1799871E+04  0.7818609E-02  0.8706368E-01
       -1   -1    0    0    0  501  0.00000000000E+00  0.00000000000E+00  0.10598335582E+04  0.10598335582E+04  0.50400001928E-02 0.  1.
        1   -1    0    0  501    0  0.00000000000E+00  0.00000000000E+00 -0.76416151602E+03  0.76416151604E+03  0.50400001928E-02 0. -1.
    10030    2    1    2    0    0  0.00000000000E+00  0.00000000000E+00  0.29567204219E+03  0.18239950743E+04  0.17998711272E+04 0.  0.
        1    1    3    3  502    0  0.63078390836E+03 -0.54036899808E+03  0.49888481984E+03  0.96890301714E+03  0.50400001928E-02 0.  1.
       -1    1    3    3    0  502 -0.63078390836E+03  0.54036899808E+03 -0.20321277765E+03  0.85509205712E+03  0.50400001928E-02 0. -1.
</event>
<event>
 5   0  0.1036381E-05  0.1799866E+04  0.7818609E-02  0.8706371E-01
        2   -1    0    0  501    0  0.00000000000E+00  0.00000000000E+00  0.11350627774E+04  0.11350627774E+04  0.25500000920E-02 0.  1.
       -2   -1    0    0    0  501  0.00000000000E+00  0.00000000000E+00 -0.71351043599E+03  0.71351043600E+03  0.25500000920E-02 0. -1.
    10030    2    1    2    0    0  0.00000000000E+00  0.00000000000E+00  0.42155234139E+03  0.18485732134E+04  0.17998657030E+04 0.  0.
        4    1    3    3  502    0 -0.85497601667E+03  0.13497741940E+03 -0.42211949282E+02  0.86659468865E+03  0.12699999809E+01 0.  1.
       -4    1    3    3    0  502  0.85497601667E+03 -0.13497741940E+03  0.46376429067E+03  0.98197852473E+03  0.12699999809E+01 0. -1.
</event>
<event>
 5   0  0.1035018E-05  0.1791925E+04  0.7818609E-02  0.8710606E-01
        2   -1    0    0  501    0  0.00000000000E+00  0.00000000000E+00  0.62281162727E+03  0.62281162727E+03  0.25500000920E-02 0.  1.
       -2   -1    0    0    0  501  0.00000000000E+00  0.00000000000E+00 -0.12889106327E+04  0.12889106327E+04  0.25500000920E-02 0. -1.
    10030    2    1    2    0    0  0.00000000000E+00  0.00000000000E+00 -0.66609900538E+03  0.19117222599E+04  0.17919246954E+04 0.  0.
        3    1    3    3  502    0 -0.24926673782E+03 -0.17534456017E+03 -0.12319137702E+04  0.12690512869E+04  0.10100000352E+00 0. -1.
       -3    1    3    3    0  502  0.24926673782E+03  0.17534456017E+03  0.56581476479E+03  0.64267097306E+03  0.10100000352E+00 0.  1.
</event>
<event>
 5   0  0.1000316E-05  0.1801607E+04  0.7818609E-02  0.8705445E-01
        2   -1    0    0  501    0  0.00000000000E+00  0.00000000000E+00  0.11314216368E+04  0.11314216368E+04  0.25500000920E-02 0.  1.
       -2   -1    0    0    0  501  0.00000000000E+00  0.00000000000E+00 -0.71719262537E+03  0.71719262538E+03  0.25500000920E-02 0. -1.
    10030    2    1    2    0    0  0.00000000000E+00  0.00000000000E+00  0.41422901146E+03  0.18486142622E+04  0.18016073425E+04 0.  0.
        5    1    3    3  502    0 -0.72302030578E+03 -0.52578872656E+03  0.32051047817E+03  0.94971638090E+03  0.46999998093E+01 0.  1.
       -5    1    3    3    0  502  0.72302030578E+03  0.52578872656E+03  0.93718533295E+02  0.89889788131E+03  0.46999998093E+01 0. -1.
</event>
<event>
 5   0  0.1035018E-05  0.1799822E+04  0.7818609E-02  0.8706394E-01
       -2   -1    0    0    0  501  0.00000000000E+00  0.00000000000E+00  0.12904153820E+04  0.12904153820E+04  0.25500000920E-02 0.  1.
        2   -1    0    0  501    0  0.00000000000E+00  0.00000000000E+00 -0.62758069987E+03  0.62758069987E+03  0.25500000920E-02 0. -1.
    10030    2    1    2    0    0  0.00000000000E+00  0.00000000000E+00  0.66283468210E+03  0.19179960819E+04  0.17998219785E+04 0.  0.
        3    1    3    3  502    0 -0.45370051788E+03 -0.21269026443E+03  0.11279988565E+04  0.12342863278E+04  0.10100000352E+00 0.  1.
       -3    1    3    3    0  502  0.45370051788E+03  0.21269026443E+03 -0.46516417437E+03  0.68370975408E+03  0.10100000352E+00 0. -1.
</event>
<event>
 5   0  0.4981384E-06  0.1800411E+04  0.7818609E-02  0.8706081E-01
       -1   -1    0    0    0  501  0.00000000000E+00  0.00000000000E+00  0.81947959966E+03  0.81947959967E+03  0.50400001928E-02 0.  1.
        1   -1    0    0  501    0  0.00000000000E+00  0.00000000000E+00 -0.98888411894E+03  0.98888411896E+03  0.50400001928E-02 0. -1.
    10030    2    1    2    0    0  0.00000000000E+00  0.00000000000E+00 -0.16940451929E+03  0.18083637186E+04  0.18004114662E+04 0.  0.
        5    1    3    3  502    0  0.89508425185E+02 -0.18429723916E+03 -0.96514174110E+03  0.98665997231E+03  0.46999998093E+01 0. -1.
       -5    1    3    3    0  502 -0.89508425185E+02  0.18429723916E+03  0.79573722181E+03  0.82170374632E+03  0.46999998093E+01 0.  1.
</event>
<event>
 5   0  0.1000316E-05  0.1800143E+04  0.7818609E-02  0.8706224E-01
        2   -1    0    0  501    0  0.00000000000E+00  0.00000000000E+00  0.13782166625E+04  0.13782166625E+04  0.25500000920E-02 0. -1.
       -2   -1    0    0    0  501  0.00000000000E+00  0.00000000000E+00 -0.58780914660E+03  0.58780914660E+03  0.25500000920E-02 0.  1.
    10030    2    1    2    0    0  0.00000000000E+00  0.00000000000E+00  0.79040751592E+03  0.19660258091E+04  0.18001426168E+04 0.  0.
        5    1    3    3  502    0 -0.20795486494E+03 -0.60755505227E+03 -0.29357665891E+03  0.70610035551E+03  0.46999998093E+01 0.  1.
       -5    1    3    3    0  502  0.20795486494E+03  0.60755505227E+03  0.10839841748E+04  0.12599254536E+04  0.46999998093E+01 0. -1.
</event>
<event>
 5   0  0.9589963E-06  0.1799750E+04  0.7818609E-02  0.8706432E-01
       -2   -1    0    0    0  501  0.00000000000E+00  0.00000000000E+00  0.37155066179E+03  0.37155066180E+03  0.25500000920E-02 0. -1.
        2   -1    0    0  501    0  0.00000000000E+00  0.00000000000E+00 -0.21794479999E+04  0.21794479999E+04  0.25500000920E-02 0.  1.
    10030    2    1    2    0    0  0.00000000000E+00  0.00000000000E+00 -0.18078973381E+04  0.25509986617E+04  0.17997503679E+04 0.  0.
        2    1    3    3  502    0  0.42091601882E+03 -0.42496671773E+03 -0.18569010162E+04  0.19508583726E+04  0.25500000920E-02 0.  1.
       -2    1    3    3    0  502 -0.42091601882E+03  0.42496671773E+03  0.49003678111E+02  0.60014028905E+03  0.25500000920E-02 0. -1.
</event>
<event>
 5   0  0.1000316E-05  0.1799956E+04  0.7818609E-02  0.8706323E-01
        2   -1    0    0  501    0  0.00000000000E+00  0.00000000000E+00  0.17659560741E+04  0.17659560741E+04  0.25500000920E-02 0.  1.
       -2   -1    0    0    0  501  0.00000000000E+00  0.00000000000E+00 -0.45865240215E+03  0.45865240216E+03  0.25500000920E-02 0. -1.
    10030    2    1    2    0    0  0.00000000000E+00  0.00000000000E+00  0.13073036720E+04  0.22246084763E+04  0.17999555500E+04 0.  0.
        5    1    3    3  502    0  0.30811752621E+03 -0.83563718914E+03  0.81342572581E+03  0.12061962623E+04  0.46999998093E+01 0.  1.
       -5    1    3    3    0  502 -0.30811752621E+03  0.83563718914E+03  0.49387794616E+03  0.10184122140E+04  0.46999998093E+01 0. -1.
</event>
<event>
 5   0  0.4994123E-06  0.1799156E+04  0.7818609E-02  0.8706748E-01
        1   -1    0    0  501    0  0.00000000000E+00  0.00000000000E+00  0.15916144235E+04  0.15916144235E+04  0.50400001928E-02 0.  1.
       -1   -1    0    0    0  501  0.00000000000E+00  0.00000000000E+00 -0.50844014902E+03  0.50844014904E+03  0.50400001928E-02 0. -1.
    10030    2    1    2    0    0  0.00000000000E+00  0.00000000000E+00  0.10831742745E+04  0.21000545726E+04  0.17991561074E+04 0.  0.
        1    1    3    3  502    0  0.25273375408E+03  0.54985798391E+03  0.13185041571E+04  0.14507485534E+04  0.50400001928E-02 0.  1.
       -1    1    3    3    0  502 -0.25273375408E+03 -0.54985798391E+03 -0.23532988255E+03  0.64930601920E+03  0.50400001928E-02 0. -1.
</event>
<event>
 5   0  0.9589963E-06  0.1800425E+04  0.7818609E-02  0.8706073E-01
        2   -1    0    0  501    0  0.00000000000E+00  0.00000000000E+00  0.12702610584E+04  0.12702610584E+04  0.25500000920E-02 0. -1.
       -2   -1    0    0    0  501  0.00000000000E+00  0.00000000000E+00 -0.63796551327E+03  0.63796551328E+03  0.25500000920E-02 0.  1.
    10030    2    1    2    0    0  0.00000000000E+00  0.00000000000E+00  0.63229554511E+03  0.19082265717E+04  0.18004252254E+04 0.  0.
        2    1    3    3  502    0  0.75275300133E+03 -0.39082574012E+03 -0.35780494461E+01  0.84817135215E+03  0.25500000920E-02 0.  1.
       -2    1    3    3    0  502 -0.75275300133E+03  0.39082574012E+03  0.63587359455E+03  0.10600552195E+04  0.25500000920E-02 0. -1.
</event>
<event>
 5   0  0.4981384E-06  0.1803993E+04  0.7818609E-02  0.8704179E-01
       -1   -1    0    0    0  501  0.00000000000E+00  0.00000000000E+00  0.80920388089E+03  0.80920388090E+03  0.50400001928E-02 0. -1.
        1   -1    0    0  501    0  0.00000000000E+00  0.00000000000E+00 -0.10054297046E+04  0.10054297046E+04  0.50400001928E-02 0.  1.
    10030    2    1    2    0    0  0.00000000000E+00  0.00000000000E+00 -0.19622582366E+03  0.18146335855E+04  0.18039929256E+04 0.  0.
        5    1    3    3  502    0 -0.93079100559E+02  0.21855967975E+03  0.77715943334E+03  0.81266901467E+03  0.46999998093E+01 0. -1.
       -5    1    3    3    0  502  0.93079100559E+02 -0.21855967975E+03 -0.97338525701E+03  0.10019645708E+04  0.46999998093E+01 0.  1.
</event>
<event>
 5   0  0.4987456E-06  0.1799980E+04  0.7818609E-02  0.8706310E-01
       -1   -1    0    0    0  501  0.00000000000E+00  0.00000000000E+00  0.74590866274E+03  0.74590866276E+03  0.50400001928E-02 0. -1.
        1   -1    0    0  501    0  0.00000000000E+00  0.00000000000E+00 -0.10859001419E+04  0.10859001419E+04  0.50400001928E-02 0.  1.
    10030    2    1    2    0    0  0.00000000000E+00  0.00000000000E+00 -0.33999147915E+03  0.18318088047E+04  0.17999803585E+04 0.  0.
        3    1    3    3  502    0 -0.32689614109E+03 -0.78776707503E+03 -0.46238123055E+03  0.97017238887E+03  0.10100000352E+00 0.  1.
       -3    1    3    3    0  502  0.32689614109E+03  0.78776707503E+03  0.12238975140E+03  0.86163641579E+03  0.10100000352E+00 0. -1.
</event>
<event>
 5   0  0.1036381E-05  0.1800444E+04  0.7818609E-02  0.8706063E-01
        2   -1    0    0  501    0  0.00000000000E+00  0.00000000000E+00  0.14000393591E+04  0.14000393591E+04  0.25500000920E-02 0. -1.
       -2   -1    0    0    0  501  0.00000000000E+00  0.00000000000E+00 -0.57884092998E+03  0.57884092999E+03  0.25500000920E-02 0.  1.
    10030    2    1    2    0    0  0.00000000000E+00  0.00000000000E+00  0.82119842911E+03  0.19788802891E+04  0.18004444836E+04 0.  0.
        4    1    3    3  502    0 -0.77105362241E+03  0.23518403193E+03  0.85101499227E+03  0.11722044819E+04  0.12699999809E+01 0. -1.
       -4    1    3    3    0  502  0.77105362241E+03 -0.23518403193E+03 -0.29816563159E+02  0.80667580715E+03  0.12699999809E+01 0.  1.
</event>
<event>
 5   0  0.4981384E-06  0.1800195E+04  0.7818609E-02  0.8706196E-01
       -1   -1    0    0    0  501  0.00000000000E+00  0.00000000000E+00  0.52571383395E+03  0.52571383398E+03  0.50400001928E-02 0. -1.
        1   -1    0    0  501    0  0.00000000000E+00  0.00000000000E+00 -0.15410956657E+04  0.15410956657E+04  0.50400001928E-02 0.  1.
    10030    2    1    2    0    0  0.00000000000E+00  0.00000000000E+00 -0.10153818318E+04  0.20668094997E+04  0.18001947794E+04 0.  0.
        5    1    3    3  502    0  0.38464963676E+02 -0.85185199609E+03 -0.17688205069E+03  0.87088502486E+03  0.46999998093E+01 0. -1.
       -5    1    3    3    0  502 -0.38464963676E+02  0.85185199609E+03 -0.83849978107E+03  0.11959244748E+04  0.46999998093E+01 0.  1.
</event>
<event>
 5   0  0.4994123E-06  0.1800173E+04  0.7818609E-02  0.8706208E-01
        1   -1    0    0  501    0  0.00000000000E+00  0.00000000000E+00  0.80339378435E+03  0.80339378437E+03  0.50400001928E-02 0.  1.
       -1   -1    0    0    0  501  0.00000000000E+00  0.00000000000E+00 -0.10084163507E+04  0.10084163507E+04  0.50400001928E-02 0. -1.
    10030    2    1    2    0    0  0.00000000000E+00  0.00000000000E+00 -0.20502256635E+03  0.18118101351E+04  0.18001726897E+04 0.  0.
        1    1    3    3  502    0 -0.99636862668E+02 -0.36250927226E+02 -0.10021092720E+04  0.10077026482E+04  0.50400001928E-02 0. -1.
       -1    1    3    3    0  502  0.99636862668E+02  0.36250927226E+02  0.79708670565E+03  0.80410748689E+03  0.50400001928E-02 0.  1.
</event>
<event>
 5   0  0.4987456E-06  0.1807955E+04  0.7818609E-02  0.8702081E-01
        1   -1    0    0  501    0  0.00000000000E+00  0.00000000000E+00  0.54053329371E+03  0.54053329374E+03  0.50400001928E-02 0. -1.
       -1   -1    0    0    0  501  0.00000000000E+00  0.00000000000E+00 -0.15117944334E+04  0.15117944334E+04  0.50400001928E-02 0.  1.
    10030    2    1    2    0    0  0.00000000000E+00  0.00000000000E+00 -0.97126113971E+03  0.20523277272E+04  0.18079548938E+04 0.  0.
        3    1    3    3  502    0  0.28540040714E+02  0.63935957554E+03  0.23908161126E+03  0.68319486810E+03  0.10100000352E+00 0. -1.
       -3    1    3    3    0  502 -0.28540040714E+02 -0.63935957554E+03 -0.12103427510E+04  0.13691328591E+04  0.10100000352E+00 0.  1.
</event>
<event>
 5   0  0.1000316E-05  0.1799964E+04  0.7818609E-02  0.8706319E-01
        2   -1    0    0  501    0  0.00000000000E+00  0.00000000000E+00  0.22309698152E+04  0.22309698152E+04  0.25500000920E-02 0.  1.
       -2   -1    0    0    0  501  0.00000000000E+00  0.00000000000E+00 -0.36305622118E+03  0.36305622119E+03  0.25500000920E-02 0. -1.
    10030    2    1    2    0    0  0.00000000000E+00  0.00000000000E+00  0.18679135940E+04  0.25940260364E+04  0.17999638560E+04 0.  0.
        5    1    3    3  502    0  0.31931606129E+03  0.68626688017E+03  0.23233445105E+03  0.79178681788E+03  0.46999998093E+01 0. -1.
       -5    1    3    3    0  502 -0.31931606129E+03 -0.68626688017E+03  0.16355791430E+04  0.18022392185E+04  0.46999998093E+01 0.  1.
</event>
<event>
 5   0  0.4983159E-06  0.1800978E+04  0.7818609E-02  0.8705779E-01
       -1   -1    0    0    0  501  0.00000000000E+00  0.00000000000E+00  0.87319516018E+03  0.87319516020E+03  0.50400001928E-02 0. -1.
        1   -1    0    0  501    0  0.00000000000E+00  0.00000000000E+00 -0.92863611083E+03  0.92863611084E+03  0.50400001928E-02 0.  1.
    10030    2    1    2    0    0  0.00000000000E+00  0.00000000000E+00 -0.55440950646E+02  0.18018312710E+04  0.18009781315E+04 0.  0.
        4    1    3    3  502    0 -0.86097960528E+03 -0.24108404384E+03  0.79435573007E+02  0.89761852703E+03  0.12699999809E+01 0. -1.
       -4    1    3    3    0  502  0.86097960528E+03  0.24108404384E+03 -0.13487652365E+03  0.90421274401E+03  0.12699999809E+01 0.  1.
</event>
<event>
 5   0  0.3626125E-06  0.1799839E+04  0.7818609E-02  0.8706385E-01
       -3   -1    0    0    0  501  0.00000000000E+00  0.00000000000E+00  0.10591054337E+04  0.10591054385E+04  0.10100000352E+00 0. -1.
        3   -1    0    0  501    0  0.00000000000E+00  0.00000000000E+00 -0.76465983225E+03  0.76465983892E+03  0.10100000352E+00 0.  1.
    10030    2    1    2    0    0  0.00000000000E+00  0.00000000000E+00  0.29444560146E+03  0.18237652775E+04  0.17998393192E+04 0.  0.
        2    1    3    3  502    0 -0.47772974273E+03  0.10785051947E+03  0.91224115607E+03  0.10353943058E+04  0.25500000920E-02 0. -1.
       -2    1    3    3    0  502  0.47772974273E+03 -0.10785051947E+03 -0.61779555461E+03  0.78837097165E+03  0.25500000920E-02 0.  1.
</event>
<event>
 5   0  0.1000316E-05  0.1808277E+04  0.7818609E-02  0.8701910E-01
       -2   -1    0    0    0  501  0.00000000000E+00  0.00000000000E+00  0.10178385395E+04  0.10178385395E+04  0.25500000920E-02 0. -1.
        2   -1    0    0  501    0  0.00000000000E+00  0.00000000000E+00 -0.80313975361E+03  0.80313975361E+03  0.25500000920E-02 0.  1.
    10030    2    1    2    0    0  0.00000000000E+00  0.00000000000E+00  0.21469878592E+03  0.18209782931E+04  0.18082771843E+04 0.  0.
        5    1    3    3  502    0 -0.67677494396E+03 -0.43442769626E+03 -0.30870231692E+03  0.86143540588E+03  0.46999998093E+01 0. -1.
       -5    1    3    3    0  502  0.67677494396E+03  0.43442769626E+03  0.52340110284E+03  0.95954288726E+03  0.46999998093E+01 0.  1.
</event>
<event>
 5   0  0.4981384E-06  0.1801838E+04  0.7818609E-02  0.8705322E-01
        1   -1    0    0  501    0  0.00000000000E+00  0.00000000000E+00  0.13248571987E+04  0.13248571987E+04  0.50400001928E-02 0.  1.
       -1   -1    0    0    0  501  0.00000000000E+00  0.00000000000E+00 -0.61263617251E+03  0.61263617253E+03  0.50400001928E-02 0. -1.
    10030    2    1    2    0    0  0.00000000000E+00  0.00000000000E+00  0.71222102621E+03  0.19374933713E+04  0.18018384427E+04 0.  0.
        5    1    3    3  502    0 -0.77475266080E+03  0.28259845398E+03  0.74608520769E+03  0.11121010740E+04  0.46999998093E+01 0.  1.
       -5    1    3    3    0  502  0.77475266080E+03 -0.28259845398E+03 -0.33864181477E+02  0.82539229727E+03  0.46999998093E+01 0. -1.
</event>
<event>
 5   0  0.1036381E-05  0.1800534E+04  0.7818609E-02  0.8706016E-01
       -2   -1    0    0    0  501  0.00000000000E+00  0.00000000000E+00  0.52950691645E+03  0.52950691645E+03  0.25500000920E-02 0. -1.
        2   -1    0    0  501    0  0.00000000000E+00  0.00000000000E+00 -0.15306320329E+04  0.15306320329E+04  0.25500000920E-02 0.  1.
    10030    2    1    2    0    0  0.00000000000E+00  0.00000000000E+00 -0.10011251164E+04  0.20601389493E+04  0.18005335298E+04 0.  0.
        4    1    3    3  502    0 -0.42024091072E+03  0.32274843606E+02 -0.14107700157E+04  0.14723850510E+04  0.12699999809E+01 0.  1.
       -4    1    3    3    0  502  0.42024091072E+03 -0.32274843606E+02  0.40964489924E+03  0.58775389828E+03  0.12699999809E+01 0. -1.
</event>
<event>
 5   0  0.4983159E-06  0.1800810E+04  0.7818609E-02  0.8705869E-01
       -1   -1    0    0    0  501  0.00000000000E+00  0.00000000000E+00  0.11240823294E+04  0.11240823295E+04  0.50400001928E-02 0.  1.
        1   -1    0    0  501    0  0.00000000000E+00  0.00000000000E+00 -0.72123651302E+03  0.72123651304E+03  0.50400001928E-02 0. -1.
    10030    2    1    2    0    0  0.00000000000E+00  0.00000000000E+00  0.40284581642E+03  0.18453188425E+04  0.18008100618E+04 0.  0.
        4    1    3    3  502    0 -0.44310531058E+03 -0.39849132902E+03 -0.49023377223E+03  0.77166600282E+03  0.12699999809E+01 0.  1.
       -4    1    3    3    0  502  0.44310531058E+03  0.39849132902E+03  0.89307958865E+03  0.10736528397E+04  0.12699999809E+01 0. -1.
</event>
<event>
 5   0  0.4953155E-06  0.1799757E+04  0.7818609E-02  0.8706429E-01
        1   -1    0    0  501    0  0.00000000000E+00  0.00000000000E+00  0.11605354490E+04  0.11605354490E+04  0.50400001928E-02 0.  1.
       -1   -1    0    0    0  501  0.00000000000E+00  0.00000000000E+00 -0.69776551862E+03  0.69776551864E+03  0.50400001928E-02 0. -1.
    10030    2    1    2    0    0  0.00000000000E+00  0.00000000000E+00  0.46276993036E+03  0.18583009676E+04  0.17997573386E+04 0.  0.
        2    1    3    3  502    0 -0.46225094868E+03 -0.67660692879E+03  0.61538115788E+03  0.10247764854E+04  0.25500000920E-02 0.  1.
       -2    1    3    3    0  502  0.46225094868E+03  0.67660692879E+03 -0.15261122751E+03  0.83352448219E+03  0.25500000920E-02 0. -1.
</event>
<event>
 5   0  0.4987456E-06  0.1799396E+04  0.7818609E-02  0.8706621E-01
        1   -1    0    0  501    0  0.00000000000E+00  0.00000000000E+00  0.11618261959E+04  0.11618261959E+04  0.50400001928E-02 0. -1.
       -1   -1    0    0    0  501  0.00000000000E+00  0.00000000000E+00 -0.69671014436E+03  0.69671014438E+03  0.50400001928E-02 0.  1.
    10030    2    1    2    0    0  0.00000000000E+00  0.00000000000E+00  0.46511605154E+03  0.18585363403E+04  0.17993955615E+04 0.  0.
        3    1    3    3  502    0 -0.49102717029E+03  0.37470574931E+03  0.90823308183E+03  0.10983621542E+04  0.10100000352E+00 0. -1.
       -3    1    3    3    0  502  0.49102717029E+03 -0.37470574931E+03 -0.44311703029E+03  0.76017418614E+03  0.10100000352E+00 0.  1.
</event>
<event>
 5   0  0.1035018E-05  0.1794532E+04  0.7818609E-02  0.8709213E-01
        2   -1    0    0  501    0  0.00000000000E+00  0.00000000000E+00  0.13360616786E+04  0.13360616786E+04  0.25500000920E-02 0. -1.
       -2   -1    0    0    0  501  0.00000000000E+00  0.00000000000E+00 -0.60258182481E+03  0.60258182482E+03  0.25500000920E-02 0.  1.
    10030    2    1    2    0    0  0.00000000000E+00  0.00000000000E+00  0.73347985381E+03  0.19386435034E+04  0.17945322336E+04 0.  0.
        3    1    3    3  502    0  0.18879922715E+03 -0.51836911437E+03 -0.39771269146E+03  0.68009343627E+03  0.10100000352E+00 0.  1.
       -3    1    3    3    0  502 -0.18879922715E+03  0.51836911437E+03  0.11311925453E+04  0.12585500672E+04  0.10100000352E+00 0. -1.
</event>
<event>
 5   0  0.4953155E-06  0.1799489E+04  0.7818609E-02  0.8706571E-01
        1   -1    0    0  501    0  0.00000000000E+00  0.00000000000E+00  0.12676508489E+04  0.12676508489E+04  0.50400001928E-02 0. -1.
       -1   -1    0    0    0  501  0.00000000000E+00  0.00000000000E+00 -0.63861430348E+03  0.63861430350E+03  0.50400001928E-02 0.  1.
    10030    2    1    2    0    0  0.00000000000E+00  0.00000000000E+00  0.62903654545E+03  0.19062651524E+04  0.17994887763E+04 0.  0.
        2    1    3    3  502    0  0.41701969269E+03 -0.61040482618E+03  0.85782548148E+03  0.11324151326E+04  0.25500000920E-02 0. -1.
       -2    1    3    3    0  502 -0.41701969269E+03  0.61040482618E+03 -0.22878893604E+03  0.77385001982E+03  0.25500000920E-02 0.  1.
</event>
<event>
 5   0  0.4953155E-06  0.1799729E+04  0.7818609E-02  0.8706443E-01
        1   -1    0    0  501    0  0.00000000000E+00  0.00000000000E+00  0.66993096037E+03  0.66993096038E+03  0.50400001928E-02 0.  1.
       -1   -1    0    0    0  501  0.00000000000E+00  0.00000000000E+00 -0.12087164088E+04  0.12087164088E+04  0.50400001928E-02 0. -1.
    10030    2    1    2    0    0  0.00000000000E+00  0.00000000000E+00 -0.53878544844E+03  0.18786473692E+04  0.17997294737E+04 0.  0.
        2    1    3    3  502    0 -0.11767870352E+03  0.81704678847E+03 -0.64335157475E+03  0.10465729695E+04  0.25500000920E-02 0. -1.
       -2    1    3    3    0  502  0.11767870352E+03 -0.81704678847E+03  0.10456612631E+03  0.83207439967E+03  0.25500000920E-02 0.  1.
</event>
<event>
 5   0  0.1000316E-05  0.1800184E+04  0.7818609E-02  0.8706202E-01
       -2   -1    0    0    0  501  0.00000000000E+00  0.00000000000E+00  0.37084333687E+03  0.37084333687E+03  0.25500000920E-02 0. -1.
        2   -1    0    0  501    0  0.00000000000E+00  0.00000000000E+00 -0.21846576622E+04  0.21846576622E+04  0.25500000920E-02 0.  1.
    10030    2    1    2    0    0  0.00000000000E+00  0.00000000000E+00 -0.18138143253E+04  0.25555009991E+04  0.18001841432E+04 0.  0.
        5    1    3    3  502    0  0.31440047649E+03  0.21976667516E+03  0.24897996572E+03  0.45733812924E+03  0.46999998093E+01 0. -1.
       -5    1    3    3    0  502 -0.31440047649E+03 -0.21976667516E+03 -0.20627942910E+04  0.20981628698E+04  0.46999998093E+01 0.  1.
</event>
<event>
 5   0  0.1036381E-05  0.1800170E+04  0.7818609E-02  0.8706209E-01
        2   -1    0    0  501    0  0.00000000000E+00  0.00000000000E+00  0.16307836962E+04  0.16307836962E+04  0.25500000920E-02 0.  1.
       -2   -1    0    0    0  501  0.00000000000E+00  0.00000000000E+00 -0.49678731340E+03  0.49678731341E+03  0.25500000920E-02 0. -1.
    10030    2    1    2    0    0  0.00000000000E+00  0.00000000000E+00  0.11339963828E+04  0.21275710096E+04  0.18001696044E+04 0.  0.
        4    1    3    3  502    0 -0.51123372994E+03 -0.22339437841E+02  0.14421363452E+04  0.15302345664E+04  0.12699999809E+01 0.  1.
       -4    1    3    3    0  502  0.51123372994E+03  0.22339437841E+02 -0.30813996238E+03  0.59733644324E+03  0.12699999809E+01 0. -1.
</event>
<event>
 5   0  0.4953155E-06  0.1801051E+04  0.7818609E-02  0.8705741E-01
        1   -1    0    0  501    0  0.00000000000E+00  0.00000000000E+00  0.72420151309E+03  0.72420151311E+03  0.50400001928E-02 0. -1.
       -1   -1    0    0    0  501  0.00000000000E+00  0.00000000000E+00 -0.11197791335E+04  0.11197791335E+04  0.50400001928E-02 0.  1.
    10030    2    1    2    0    0  0.00000000000E+00  0.00000000000E+00 -0.39557762036E+03  0.18439806466E+04  0.18010505188E+04 0.  0.
        2    1    3    3  502    0 -0.72268604330E+03 -0.40644050353E+03  0.16197961574E+03  0.84481145589E+03  0.25500000920E-02 0. -1.
       -2    1    3    3    0  502  0.72268604330E+03  0.40644050353E+03 -0.55755723610E+03  0.99916919068E+03  0.25500000920E-02 0.  1.
</event>
<event>
 5   0  0.4987456E-06  0.1799926E+04  0.7818609E-02  0.8706339E-01
       -1   -1    0    0    0  501  0.00000000000E+00  0.00000000000E+00  0.65630335989E+03  0.65630335991E+03  0.50400001928E-02 0. -1.
        1   -1    0    0  501    0  0.00000000000E+00  0.00000000000E+00 -0.12340836331E+04  0.12340836332E+04  0.50400001928E-02 0.  1.
    10030    2    1    2    0    0  0.00000000000E+00  0.00000000000E+00 -0.57778027326E+03  0.18903869931E+04  0.17999258150E+04 0.  0.
        3    1    3    3  502    0 -0.10924141231E+03  0.88371273437E+03 -0.42603368825E+03  0.98711022524E+03  0.10100000352E+00 0.  1.
       -3    1    3    3    0  502  0.10924141231E+03 -0.88371273437E+03 -0.15174658501E+03  0.90327676783E+03  0.10100000352E+00 0. -1.
</event>
<event>
 5   0  0.4987456E-06  0.1800592E+04  0.7818609E-02  0.8705985E-01
       -1   -1    0    0    0  501  0.00000000000E+00  0.00000000000E+00  0.58724177710E+03  0.58724177712E+03  0.50400001928E-02 0. -1.
        1   -1    0    0  501    0  0.00000000000E+00  0.00000000000E+00 -0.13802364214E+04  0.13802364215E+04  0.50400001928E-02 0.  1.
    10030    2    1    2    0    0  0.00000000000E+00  0.00000000000E+00 -0.79299464435E+03  0.19674781986E+04  0.18005915572E+04 0.  0.
        3    1    3    3  502    0 -0.33297952836E+03  0.11989763887E+02 -0.13103847974E+04  0.13520826336E+04  0.10100000352E+00 0.  1.
       -3    1    3    3    0  502  0.33297952836E+03 -0.11989763887E+02  0.51739015301E+03  0.61539556497E+03  0.10100000352E+00 0. -1.
</event>
<event>
 5   0  0.9589963E-06  0.1800637E+04  0.7818609E-02  0.8705961E-01
        2   -1    0    0  501    0  0.00000000000E+00  0.00000000000E+00  0.13965700268E+04  0.13965700268E+04  0.25500000920E-02 0.  1.
       -2   -1    0    0    0  501  0.00000000000E+00  0.00000000000E+00 -0.58040325803E+03  0.58040325803E+03  0.25500000920E-02 0. -1.
    10030    2    1    2    0    0  0.00000000000E+00  0.00000000000E+00  0.81616676874E+03  0.19769732848E+04  0.18006374356E+04 0.  0.
        2    1    3    3  502    0 -0.11381054073E+03  0.60936346887E+03  0.11249374020E+04  0.12844301596E+04  0.25500000920E-02 0.  1.
       -2    1    3    3    0  502  0.11381054073E+03 -0.60936346887E+03 -0.30877063325E+03  0.69254312525E+03  0.25500000920E-02 0. -1.
</event>
<event>
 5   0  0.4994123E-06  0.1795064E+04  0.7818609E-02  0.8708929E-01
        1   -1    0    0  501    0  0.00000000000E+00  0.00000000000E+00  0.95376617051E+03  0.95376617052E+03  0.50400001928E-02 0.  1.
       -1   -1    0    0    0  501  0.00000000000E+00  0.00000000000E+00 -0.84461311282E+03  0.84461311284E+03  0.50400001928E-02 0. -1.
    10030    2    1    2    0    0  0.00000000000E+00  0.00000000000E+00  0.10915305768E+03  0.17983792834E+04  0.17950636916E+04 0.  0.
        1    1    3    3  502    0 -0.61061289223E+03  0.54279121654E+03  0.42687158488E+03  0.92178617852E+03  0.50400001928E-02 0.  1.
       -1    1    3    3    0  502  0.61061289223E+03 -0.54279121654E+03 -0.31771852720E+03  0.87659310484E+03  0.50400001928E-02 0. -1.
</event>
<event>
 5   0  0.1000316E-05  0.1800356E+04  0.7818609E-02  0.8706110E-01
       -2   -1    0    0    0  501  0.00000000000E+00  0.00000000000E+00  0.14876251032E+04  0.14876251032E+04  0.25500000920E-02 0. -1.
        2   -1    0    0  501    0  0.00000000000E+00  0.00000000000E+00 -0.54470715117E+03  0.54470715118E+03  0.25500000920E-02 0.  1.
    10030    2    1    2    0    0  0.00000000000E+00  0.00000000000E+00  0.94291795201E+03  0.20323322544E+04  0.18003555560E+04 0.  0.
        5    1    3    3  502    0  0.58714197373E+03  0.68015764374E+03  0.53274863781E+03  0.10446019906E+04  0.46999998093E+01 0. -1.
       -5    1    3    3    0  502 -0.58714197373E+03 -0.68015764374E+03  0.41016931420E+03  0.98773026377E+03  0.46999998093E+01 0.  1.
</event>
<event>
 5   0  0.4987456E-06  0.1800031E+04  0.7818609E-02  0.8706283E-01
       -1   -1    0    0    0  501  0.00000000000E+00  0.00000000000E+00  0.42426742625E+03  0.42426742628E+03  0.50400001928E-02 0.  1.
        1   -1    0    0  501    0  0.00000000000E+00  0.00000000000E+00 -0.19092396596E+04  0.19092396596E+04  0.50400001928E-02 0. -1.
    10030    2    1    2    0    0  0.00000000000E+00  0.00000000000E+00 -0.14849722333E+04  0.23335070859E+04  0.18000313292E+04 0.  0.
        3    1    3    3  502    0  0.58683423926E+03  0.50168022262E+03 -0.13421477042E+04  0.15483597580E+04  0.10100000352E+00 0.  1.
       -3    1    3    3    0  502 -0.58683423926E+03 -0.50168022262E+03 -0.14282452913E+03  0.78514732786E+03  0.10100000352E+00 0. -1.
</event>
<event>
 5   0  0.9589963E-06  0.1800203E+04  0.7818609E-02  0.8706191E-01
       -2   -1    0    0    0  501  0.00000000000E+00  0.00000000000E+00  0.62699855175E+03  0.62699855175E+03  0.25500000920E-02 0. -1.
        2   -1    0    0  501    0  0.00000000000E+00  0.00000000000E+00 -0.12921605594E+04  0.12921605594E+04  0.25500000920E-02 0.  1.
    10030    2    1    2    0    0  0.00000000000E+00  0.00000000000E+00 -0.66516200765E+03  0.19191591111E+04  0.18002030990E+04 0.  0.
        2    1    3    3  502    0  0.29351719798E+02 -0.29843865402E+03  0.57217778962E+03  0.64599889830E+03  0.25500000920E-02 0. -1.
       -2    1    3    3    0  502 -0.29351719798E+02  0.29843865402E+03 -0.12373397973E+04  0.12731602128E+04  0.25500000920E-02 0.  1.
</event>
<event>
 5   0  0.3626125E-06  0.1800606E+04  0.7818609E-02  0.8705977E-01
        3   -1    0    0  501    0  0.00000000000E+00  0.00000000000E+00  0.61119593628E+03  0.61119594462E+03  0.10100000352E+00 0.  1.
       -3   -1    0    0    0  501  0.00000000000E+00  0.00000000000E+00 -0.13261633192E+04  0.13261633231E+04  0.10100000352E+00 0. -1.
    10030    2    1    2    0    0  0.00000000000E+00  0.00000000000E+00 -0.71496738297E+03  0.19373592677E+04  0.18006061683E+04 0.  0.
        3    1    3    3  502    0 -0.34871006618E+03 -0.53092267315E+03 -0.10439590191E+04  0.12220180191E+04  0.10100000352E+00 0. -1.
       -3    1    3    3    0  502  0.34871006618E+03  0.53092267315E+03  0.32899163617E+03  0.71534124863E+03  0.10100000352E+00 0.  1.
</event>
<event>
 5   0  0.1000316E-05  0.1799894E+04  0.7818609E-02  0.8706356E-01
       -2   -1    0    0    0  501  0.00000000000E+00  0.00000000000E+00  0.74612895519E+03  0.74612895520E+03  0.25500000920E-02 0.  1.
        2   -1    0    0  501    0  0.00000000000E+00  0.00000000000E+00 -0.10854758503E+04  0.10854758503E+04  0.25500000920E-02 0. -1.
    10030    2    1    2    0    0  0.00000000000E+00  0.00000000000E+00 -0.33934689508E+03  0.18316048055E+04  0.17998943992E+04 0.  0.
        5    1    3    3  502    0 -0.55223739263E+03 -0.64581242677E+03 -0.47127837765E+03  0.97168164932E+03  0.46999998093E+01 0.  1.
       -5    1    3    3    0  502  0.55223739263E+03  0.64581242677E+03  0.13193148257E+03  0.85992315615E+03  0.46999998093E+01 0. -1.
</event>
<event>
 5   0  0.4994123E-06  0.1801444E+04  0.7818609E-02  0.8705532E-01
       -1   -1    0    0    0  501  0.00000000000E+00  0.00000000000E+00  0.75033225424E+03  0.75033225425E+03  0.50400001928E-02 0.  1.
        1   -1    0    0  501    0  0.00000000000E+00  0.00000000000E+00 -0.10812539072E+04  0.10812539073E+04  0.50400001928E-02 0. -1.
    10030    2    1    2    0    0  0.00000000000E+00  0.00000000000E+00 -0.33092165301E+03  0.18315861615E+04  0.18014435119E+04 0.  0.
        1    1    3    3  502    0 -0.51386073756E+03 -0.67263196896E+03 -0.47853034332E+03  0.97235688550E+03  0.50400001928E-02 0. -1.
       -1    1    3    3    0  502  0.51386073756E+03  0.67263196896E+03  0.14760869031E+03  0.85922927601E+03  0.50400001928E-02 0.  1.
</event>
<event>
 5   0  0.4983159E-06  0.1799959E+04  0.7818609E-02  0.8706321E-01
       -1   -1    0    0    0  501  0.00000000000E+00  0.00000000000E+00  0.94126461212E+03  0.94126461214E+03  0.50400001928E-02 0.  1.
        1   -1    0    0  501    0  0.00000000000E+00  0.00000000000E+00 -0.86050519774E+03  0.86050519776E+03  0.50400001928E-02 0. -1.
    10030    2    1    2    0    0  0.00000000000E+00  0.00000000000E+00  0.80759414384E+02  0.18017698099E+04  0.17999589898E+04 0.  0.
        4    1    3    3  502    0 -0.49570217293E+03 -0.23628814549E+03  0.75412490963E+03  0.93287658571E+03  0.12699999809E+01 0.  1.
       -4    1    3    3    0  502  0.49570217293E+03  0.23628814549E+03 -0.67336549525E+03  0.86889322418E+03  0.12699999809E+01 0. -1.
</event>
<event>
 5   0  0.1035018E-05  0.1799992E+04  0.7818609E-02  0.8706304E-01
       -2   -1    0    0    0  501  0.00000000000E+00  0.00000000000E+00  0.10293116808E+04  0.10293116808E+04  0.25500000920E-02 0.  1.
        2   -1    0    0  501    0  0.00000000000E+00  0.00000000000E+00 -0.78692629437E+03  0.78692629437E+03  0.25500000920E-02 0. -1.
    10030    2    1    2    0    0  0.00000000000E+00  0.00000000000E+00  0.24238538641E+03  0.18162379752E+04  0.17999915852E+04 0.  0.
        3    1    3    3  502    0 -0.50113187776E+02  0.36947728972E+02  0.10271360284E+04  0.10290213299E+04  0.10100000352E+00 0.  1.
       -3    1    3    3    0  502  0.50113187776E+02 -0.36947728972E+02 -0.78475064201E+03  0.78721664528E+03  0.10100000352E+00 0. -1.
</event>
<event>
 5   0  0.4981384E-06  0.1799232E+04  0.7818609E-02  0.8706708E-01
        1   -1    0    0  501    0  0.00000000000E+00  0.00000000000E+00  0.11199621279E+04  0.11199621280E+04  0.50400001928E-02 0.  1.
       -1   -1    0    0    0  501  0.00000000000E+00  0.00000000000E+00 -0.72262136289E+03  0.72262136291E+03  0.50400001928E-02 0. -1.
    10030    2    1    2    0    0  0.00000000000E+00  0.00000000000E+00  0.39734076506E+03  0.18425834909E+04  0.17992315685E+04 0.  0.
        5    1    3    3  502    0 -0.44789680877E+03  0.53002345097E+03 -0.38761828913E+03  0.79486252771E+03  0.46999998093E+01 0. -1.
       -5    1    3    3    0  502  0.44789680877E+03 -0.53002345097E+03  0.78495905418E+03  0.10477209632E+04  0.46999998093E+01 0.  1.
</event>
<event>
 5   0  0.9999162E-06  0.1802631E+04  0.7818609E-02  0.8704902E-01
        2   -1    0    0  501    0  0.00000000000E+00  0.00000000000E+00  0.24102023127E+04  0.24102023127E+04  0.25500000920E-02 0. -1.
       -2   -1    0    0    0  501  0.00000000000E+00  0.00000000000E+00 -0.33705441513E+03  0.33705441514E+03  0.25500000920E-02 0.  1.
    10030    2    1    2    0    0  0.00000000000E+00  0.00000000000E+00  0.20731478975E+04  0.27472567278E+04  0.18026306675E+04 0.  0.
        1    1    3    3  502    0 -0.27556225563E+03  0.62173523865E+03  0.13510226229E+03  0.69335552569E+03  0.50400001928E-02 0.  1.
       -1    1    3    3    0  502  0.27556225563E+03 -0.62173523865E+03  0.19380456352E+04  0.20539012021E+04  0.50400001928E-02 0. -1.
</event>
<event>
 5   0  0.4994123E-06  0.1799688E+04  0.7818609E-02  0.8706465E-01
        1   -1    0    0  501    0  0.00000000000E+00  0.00000000000E+00  0.87859708077E+03  0.87859708079E+03  0.50400001928E-02 0. -1.
       -1   -1    0    0    0  501  0.00000000000E+00  0.00000000000E+00 -0.92160498862E+03  0.92160498864E+03  0.50400001928E-02 0.  1.
    10030    2    1    2    0    0  0.00000000000E+00  0.00000000000E+00 -0.43007907850E+02  0.18002020694E+04  0.17996882537E+04 0.  0.
        1    1    3    3  502    0 -0.38279097206E+03  0.64980879317E+02 -0.83350416177E+03  0.91950020701E+03  0.50400001928E-02 0.  1.
       -1    1    3    3    0  502  0.38279097206E+03 -0.64980879317E+02  0.79049625392E+03  0.88070186242E+03  0.50400001928E-02 0. -1.
</event>
<event>
 5   0  0.9589963E-06  0.1799963E+04  0.7818609E-02  0.8706319E-01
       -2   -1    0    0    0  501  0.00000000000E+00  0.00000000000E+00  0.97272883865E+03  0.97272883866E+03  0.25500000920E-02 0.  1.
        2   -1    0    0  501    0  0.00000000000E+00  0.00000000000E+00 -0.83267430565E+03  0.83267430565E+03  0.25500000920E-02 0. -1.
    10030    2    1    2    0    0  0.00000000000E+00  0.00000000000E+00  0.14005453301E+03  0.18054031443E+04  0.17999625666E+04 0.  0.
        2    1    3    3  502    0  0.32490150855E+03 -0.28086614406E+03 -0.72326123221E+03  0.84116204810E+03  0.25500000920E-02 0. -1.
       -2    1    3    3    0  502 -0.32490150855E+03  0.28086614406E+03  0.86331576522E+03  0.96424109621E+03  0.25500000920E-02 0.  1.
</event>
<event>
 5   0  0.4987456E-06  0.1799881E+04  0.7818609E-02  0.8706363E-01
        1   -1    0    0  501    0  0.00000000000E+00  0.00000000000E+00  0.10758581171E+04  0.10758581171E+04  0.50400001928E-02 0.  1.
       -1   -1    0    0    0  501  0.00000000000E+00  0.00000000000E+00 -0.75278804716E+03  0.75278804717E+03  0.50400001928E-02 0. -1.
    10030    2    1    2    0    0  0.00000000000E+00  0.00000000000E+00  0.32307006995E+03  0.18286461643E+04  0.17998812528E+04 0.  0.
        3    1    3    3  502    0 -0.76858302049E+03 -0.13663859397E+03 -0.29339690868E+03  0.83394947148E+03  0.10100000352E+00 0. -1.
       -3    1    3    3    0  502  0.76858302049E+03  0.13663859397E+03  0.61646697863E+03  0.99469669281E+03  0.10100000352E+00 0.  1.
</event>
<event>
 5   0  0.1036381E-05  0.1799526E+04  0.7818609E-02  0.8706552E-01
       -2   -1    0    0    0  501  0.00000000000E+00  0.00000000000E+00  0.92403984329E+03  0.92403984329E+03  0.25500000920E-02 0.  1.
        2   -1    0    0  501    0  0.00000000000E+00  0.00000000000E+00 -0.87612400838E+03  0.87612400838E+03  0.25500000920E-02 0. -1.
    10030    2    1    2    0    0  0.00000000000E+00  0.00000000000E+00  0.47915834912E+02  0.18001638517E+04  0.17995260392E+04 0.  0.
        4    1    3    3  502    0  0.65269719736E+03 -0.55407533330E+03  0.30074854539E+03  0.90744939631E+03  0.12699999809E+01 0.  1.
       -4    1    3    3    0  502 -0.65269719736E+03  0.55407533330E+03 -0.25283271048E+03  0.89271445536E+03  0.12699999809E+01 0. -1.
</event>
<event>
 5   0  0.9999162E-06  0.1799389E+04  0.7818609E-02  0.8706625E-01
       -2   -1    0    0    0  501  0.00000000000E+00  0.00000000000E+00  0.59386766690E+03  0.59386766690E+03  0.25500000920E-02 0.  1.
        2   -1    0    0  501    0  0.00000000000E+00  0.00000000000E+00 -0.13630142437E+04  0.13630142437E+04  0.25500000920E-02 0. -1.
    10030    2    1    2    0    0  0.00000000000E+00  0.00000000000E+00 -0.76914657678E+03  0.19568819106E+04  0.17993888839E+04 0.  0.
        1    1    3    3  502    0 -0.69854950082E+03  0.91745154205E+02 -0.99306465892E+03  0.12176066669E+04  0.50400001928E-02 0. -1.
       -1    1    3    3    0  502  0.69854950082E+03 -0.91745154205E+02  0.22391808213E+03  0.73927524370E+03  0.50400001928E-02 0.  1.
</event>
<event>
 5   0  0.4987456E-06  0.1799588E+04  0.7818609E-02  0.8706518E-01
       -1   -1    0    0    0  501  0.00000000000E+00  0.00000000000E+00  0.51911050698E+03  0.51911050700E+03  0.50400001928E-02 0.  1.
        1   -1    0    0  501    0  0.00000000000E+00  0.00000000000E+00 -0.15596479637E+04  0.15596479637E+04  0.50400001928E-02 0. -1.
    10030    2    1    2    0    0  0.00000000000E+00  0.00000000000E+00 -0.10405374567E+04  0.20787584707E+04  0.17995884476E+04 0.  0.
        3    1    3    3  502    0 -0.53394192526E+03 -0.21008167920E+03 -0.13209007244E+04  0.14401413213E+04  0.10100000352E+00 0. -1.
       -3    1    3    3    0  502  0.53394192526E+03  0.21008167920E+03  0.28036326764E+03  0.63861714942E+03  0.10100000352E+00 0.  1.
</event>
<event>
 5   0  0.4981384E-06  0.1800231E+04  0.7818609E-02  0.8706176E-01
        1   -1    0    0  501    0  0.00000000000E+00  0.00000000000E+00  0.90965332417E+03  0.90965332418E+03  0.50400001928E-02 0.  1.
       -1   -1    0    0    0  501  0.00000000000E+00  0.00000000000E+00 -0.89067809106E+03  0.89067809108E+03  0.50400001928E-02 0. -1.
    10030    2    1    2    0    0  0.00000000000E+00  0.00000000000E+00  0.18975233108E+02  0.18003314153E+04  0.18002314144E+04 0.  0.
        5    1    3    3  502    0 -0.64085675261E+03 -0.38958263159E+03 -0.48824897382E+03  0.89491963585E+03  0.46999998093E+01 0. -1.
       -5    1    3    3    0  502  0.64085675261E+03  0.38958263159E+03  0.50722420693E+03  0.90541177941E+03  0.46999998093E+01 0.  1.
</event>
<event>
 5   0  0.4987456E-06  0.1801633E+04  0.7818609E-02  0.8705432E-01
       -1   -1    0    0    0  501  0.00000000000E+00  0.00000000000E+00  0.46300820464E+03  0.46300820467E+03  0.50400001928E-02 0. -1.
        1   -1    0    0  501    0  0.00000000000E+00  0.00000000000E+00 -0.17526038471E+04  0.17526038471E+04  0.50400001928E-02 0.  1.
    10030    2    1    2    0    0  0.00000000000E+00  0.00000000000E+00 -0.12895956424E+04  0.22156120517E+04  0.18016325493E+04 0.  0.
        3    1    3    3  502    0  0.44430157854E+03 -0.72068361682E+03 -0.26639066974E+03  0.88755437431E+03  0.10100000352E+00 0.  1.
       -3    1    3    3    0  502 -0.44430157854E+03  0.72068361682E+03 -0.10232049727E+04  0.13280576774E+04  0.10100000352E+00 0. -1.
</event>
<event>
 5   0  0.4981384E-06  0.1800639E+04  0.7818609E-02  0.8705960E-01
       -1   -1    0    0    0  501  0.00000000000E+00  0.00000000000E+00  0.13431499416E+04  0.13431499416E+04  0.50400001928E-02 0. -1.
        1   -1    0    0  501    0  0.00000000000E+00  0.00000000000E+00 -0.60348841505E+03  0.60348841507E+03  0.50400001928E-02 0.  1.
    10030    2    1    2    0    0  0.00000000000E+00  0.00000000000E+00  0.73966152650E+03  0.19466383566E+04  0.18006392525E+04 0.  0.
        5    1    3    3  502    0 -0.46265066232E+03  0.46912988173E+03 -0.29345047210E+03  0.72129311022E+03  0.46999998093E+01 0.  1.
       -5    1    3    3    0  502  0.46265066232E+03 -0.46912988173E+03  0.10331119986E+04  0.12253452464E+04  0.46999998093E+01 0. -1.
</event>
<event>
 5   0  0.9589963E-06  0.1799005E+04  0.7818609E-02  0.8706829E-01
        2   -1    0    0  501    0  0.00000000000E+00  0.00000000000E+00  0.14204448211E+04  0.14204448211E+04  0.25500000920E-02 0.  1.
       -2   -1    0    0    0  501  0.00000000000E+00  0.00000000000E+00 -0.56961350342E+03  0.56961350343E+03  0.25500000920E-02 0. -1.
    10030    2    1    2    0    0  0.00000000000E+00  0.00000000000E+00  0.85083131767E+03  0.19900583245E+04  0.17990047815E+04 0.  0.
        2    1    3    3  502    0  0.48939833495E+03 -0.55707908030E+03  0.98866215339E+03  0.12358400728E+04  0.25500000920E-02 0.  1.
       -2    1    3    3    0  502 -0.48939833495E+03  0.55707908030E+03 -0.13783083571E+03  0.75421825173E+03  0.25500000920E-02 0. -1.
</event>
<event>
 5   0  0.4987456E-06  0.1799918E+04  0.7818609E-02  0.8706343E-01
        1   -1    0    0  501    0  0.00000000000E+00  0.00000000000E+00  0.15289386586E+04  0.15289386586E+04  0.50400001928E-02 0. -1.
       -1   -1    0    0    0  501  0.00000000000E+00  0.00000000000E+00 -0.52973118101E+03  0.52973118104E+03  0.50400001928E-02 0.  1.
    10030    2    1    2    0    0  0.00000000000E+00  0.00000000000E+00  0.99920747754E+03  0.20586698396E+04  0.17999183107E+04 0.  0.
        3    1    3    3  502    0  0.47035824576E+03  0.59060936715E+03  0.10597765498E+04  0.13012235203E+04  0.10100000352E+00 0. -1.
       -3    1    3    3    0  502 -0.47035824576E+03 -0.59060936715E+03 -0.60569072309E+02  0.75744631932E+03  0.10100000352E+00 0.  1.
</event>
<event>
 5   0  0.9999162E-06  0.1798391E+04  0.7818609E-02  0.8707155E-01
       -2   -1    0    0    0  501  0.00000000000E+00  0.00000000000E+00  0.61286139756E+03  0.61286139757E+03  0.25500000920E-02 0. -1.
        2   -1    0    0  501    0  0.00000000000E+00  0.00000000000E+00 -0.13193080156E+04  0.13193080156E+04  0.25500000920E-02 0.  1.
    10030    2    1    2    0    0  0.00000000000E+00  0.00000000000E+00 -0.70644661809E+03  0.19321694132E+04  0.17983914527E+04 0.  0.
        1    1    3    3  502    0  0.74517654982E+03  0.25436840395E+03  0.11331528483E+03  0.79550721501E+03  0.50400001928E-02 0. -1.
       -1    1    3    3    0  502 -0.74517654982E+03 -0.25436840395E+03 -0.81976190291E+03  0.11366621982E+04  0.50400001928E-02 0.  1.
</event>
<event>
 5   0  0.1036381E-05  0.1799920E+04  0.7818609E-02  0.8706342E-01
        2   -1    0    0  501    0  0.00000000000E+00  0.00000000000E+00  0.14853257276E+04  0.14853257276E+04  0.25500000920E-02 0. -1.
       -2   -1    0    0    0  501  0.00000000000E+00  0.00000000000E+00 -0.54528649773E+03  0.54528649774E+03  0.25500000920E-02 0.  1.
    10030    2    1    2    0    0  0.00000000000E+00  0.00000000000E+00  0.94003922991E+03  0.20306122254E+04  0.17999200694E+04 0.  0.
        4    1    3    3  502    0 -0.34235721021E+03  0.40309785218E+03 -0.35147736574E+03  0.63500731440E+03  0.12699999809E+01 0.  1.
       -4    1    3    3    0  502  0.34235721021E+03 -0.40309785218E+03  0.12915165957E+04  0.13956049110E+04  0.12699999809E+01 0. -1.
</event>
<event>
 5   0  0.4981384E-06  0.1799664E+04  0.7818609E-02  0.8706478E-01
        1   -1    0    0  501    0  0.00000000000E+00  0.00000000000E+00  0.90872922410E+03  0.90872922411E+03  0.50400001928E-02 0. -1.
       -1   -1    0    0    0  501  0.00000000000E+00  0.00000000000E+00 -0.89102210956E+03  0.89102210958E+03  0.50400001928E-02 0.  1.
    10030    2    1    2    0    0  0.00000000000E+00  0.00000000000E+00  0.17707114535E+02  0.17997513337E+04  0.17996642246E+04 0.  0.
        5    1    3    3  502    0  0.36008357626E+03  0.82045422878E+03 -0.74038432699E+02  0.89906012198E+03  0.46999998093E+01 0.  1.
       -5    1    3    3    0  502 -0.36008357626E+03 -0.82045422878E+03  0.91745547234E+02  0.90069121171E+03  0.46999998093E+01 0. -1.
</event>
<event>
 5   0  0.1035018E-05  0.1799374E+04  0.7818609E-02  0.8706632E-01
       -2   -1    0    0    0  501  0.00000000000E+00  0.00000000000E+00  0.56315030816E+03  0.56315030817E+03  0.25500000920E-02 0. -1.
        2   -1    0    0  501    0  0.00000000000E+00  0.00000000000E+00 -0.14373371077E+04  0.14373371077E+04  0.25500000920E-02 0.  1.
    10030    2    1    2    0    0  0.00000000000E+00  0.00000000000E+00 -0.87418679952E+03  0.20004874159E+04  0.17993741525E+04 0.  0.
        3    1    3    3  502    0  0.86490263993E+03 -0.11261689776E+03 -0.68243347492E+03  0.11074541075E+04  0.10100000352E+00 0. -1.
       -3    1    3    3    0  502 -0.86490263993E+03  0.11261689776E+03 -0.19175332460E+03  0.89303330840E+03  0.10100000352E+00 0.  1.
</event>
<event>
 5   0  0.1035018E-05  0.1800891E+04  0.7818609E-02  0.8705826E-01
       -2   -1    0    0    0  501  0.00000000000E+00  0.00000000000E+00  0.42645440433E+03  0.42645440433E+03  0.25500000920E-02 0. -1.
        2   -1    0    0  501    0  0.00000000000E+00  0.00000000000E+00 -0.19012635247E+04  0.19012635247E+04  0.25500000920E-02 0.  1.
    10030    2    1    2    0    0  0.00000000000E+00  0.00000000000E+00 -0.14748091204E+04  0.23277179291E+04  0.18008911171E+04 0.  0.
        3    1    3    3  502    0 -0.60795490181E+02  0.16412937013E+02  0.42360480443E+03  0.42825987048E+03  0.10100000352E+00 0. -1.
       -3    1    3    3    0  502  0.60795490181E+02 -0.16412937013E+02 -0.18984139248E+04  0.18994580586E+04  0.10100000352E+00 0.  1.
</event>
<event>
 5   0  0.4953155E-06  0.1799995E+04  0.7818609E-02  0.8706302E-01
       -1   -1    0    0    0  501  0.00000000000E+00  0.00000000000E+00  0.11755528908E+04  0.11755528908E+04  0.50400001928E-02 0.  1.
        1   -1    0    0  501    0  0.00000000000E+00  0.00000000000E+00 -0.68903361931E+03  0.68903361933E+03  0.50400001928E-02 0. -1.
    10030    2    1    2    0    0  0.00000000000E+00  0.00000000000E+00  0.48651927149E+03  0.18645865101E+04  0.17999949590E+04 0.  0.
        2    1    3    3  502    0  0.22603977950E+03  0.42689854378E+03  0.10298902229E+04  0.11375457001E+04  0.25500000920E-02 0.  1.
       -2    1    3    3    0  502 -0.22603977950E+03 -0.42689854378E+03 -0.54337095142E+03  0.72704081003E+03  0.25500000920E-02 0. -1.
</event>
<event>
 5   0  0.4981384E-06  0.1798217E+04  0.7818609E-02  0.8707248E-01
       -1   -1    0    0    0  501  0.00000000000E+00  0.00000000000E+00  0.47429142488E+03  0.47429142491E+03  0.50400001928E-02 0.  1.
        1   -1    0    0  501    0  0.00000000000E+00  0.00000000000E+00 -0.17044295360E+04  0.17044295360E+04  0.50400001928E-02 0. -1.
    10030    2    1    2    0    0  0.00000000000E+00  0.00000000000E+00 -0.12301381111E+04  0.21787209609E+04  0.17982172430E+04 0.  0.
        5    1    3    3  502    0  0.47715148322E+03  0.40958704075E+03 -0.13936476853E+04  0.15289575019E+04  0.46999998093E+01 0. -1.
       -5    1    3    3    0  502 -0.47715148322E+03 -0.40958704075E+03  0.16350957414E+03  0.64976345905E+03  0.46999998093E+01 0.  1.
</event>
<event>
 5   0  0.4994123E-06  0.1800349E+04  0.7818609E-02  0.8706114E-01
       -1   -1    0    0    0  501  0.00000000000E+00  0.00000000000E+00  0.48447285980E+03  0.48447285982E+03  0.50400001928E-02 0.  1.
        1   -1    0    0  501    0  0.00000000000E+00  0.00000000000E+00 -0.16725691519E+04  0.16725691519E+04  0.50400001928E-02 0. -1.
    10030    2    1    2    0    0  0.00000000000E+00  0.00000000000E+00 -0.11880962921E+04  0.21570420117E+04  0.18003492553E+04 0.  0.
        1    1    3    3  502    0  0.18164022879E+03 -0.86171806978E+03 -0.37065932433E+03  0.95547869638E+03  0.50400001928E-02 0. -1.
       -1    1    3    3    0  502 -0.18164022879E+03  0.86171806978E+03 -0.81743696780E+03  0.12015633154E+04  0.50400001928E-02 0.  1.
</event>
<event>
 5   0  0.1000316E-05  0.1800163E+04  0.7818609E-02  0.8706213E-01
       -2   -1    0    0    0  501  0.00000000000E+00  0.00000000000E+00  0.34714471090E+03  0.34714471090E+03  0.25500000920E-02 0.  1.
        2   -1    0    0  501    0  0.00000000000E+00  0.00000000000E+00 -0.23337432470E+04  0.23337432470E+04  0.25500000920E-02 0. -1.
    10030    2    1    2    0    0  0.00000000000E+00  0.00000000000E+00 -0.19865985361E+04  0.26808879579E+04  0.18001629091E+04 0.  0.
        5    1    3    3  502    0  0.63194843224E+03 -0.27107920054E+02 -0.19469187930E+04  0.20470975885E+04  0.46999998093E+01 0. -1.
       -5    1    3    3    0  502 -0.63194843224E+03  0.27107920054E+02 -0.39679743109E+02  0.63379036940E+03  0.46999998093E+01 0.  1.
</event>
<event>
 5   0  0.1035018E-05  0.1795204E+04  0.7818609E-02  0.8708854E-01
        2   -1    0    0  501    0  0.00000000000E+00  0.00000000000E+00  0.17585428957E+04  0.17585428957E+04  0.25500000920E-02 0.  1.
       -2   -1    0    0    0  501  0.00000000000E+00  0.00000000000E+00 -0.45815748041E+03  0.45815748042E+03  0.25500000920E-02 0. -1.
    10030    2    1    2    0    0  0.00000000000E+00  0.00000000000E+00  0.13003854153E+04  0.22167003762E+04  0.17952042584E+04 0.  0.
        3    1    3    3  502    0 -0.31341428821E+01 -0.59746063678E+03  0.14773366595E+04  0.15935785676E+04  0.10100000352E+00 0.  1.
       -3    1    3    3    0  502  0.31341428821E+01  0.59746063678E+03 -0.17695124415E+03  0.62312180860E+03  0.10100000352E+00 0. -1.
</event>
<event>
 5   0  0.1036381E-05  0.1799910E+04  0.7818609E-02  0.8706347E-01
        2   -1    0    0  501    0  0.00000000000E+00  0.00000000000E+00  0.11383031406E+04  0.11383031406E+04  0.25500000920E-02 0.  1.
       -2   -1    0    0    0  501  0.00000000000E+00  0.00000000000E+00 -0.71151431796E+03  0.71151431796E+03  0.25500000920E-02 0. -1.
    10030    2    1    2    0    0  0.00000000000E+00  0.00000000000E+00  0.42678882262E+03  0.18498174585E+04  0.17999099785E+04 0.  0.
        4    1    3    3  502    0  0.83184083928E+03 -0.29919411194E+02 -0.13823722790E+03  0.84378047923E+03  0.12699999809E+01 0. -1.
       -4    1    3    3    0  502 -0.83184083928E+03  0.29919411194E+02  0.56502605052E+03  0.10060369793E+04  0.12699999809E+01 0.  1.
</event>
<event>
 5   0  0.1035018E-05  0.1801059E+04  0.7818609E-02  0.8705737E-01
       -2   -1    0    0    0  501  0.00000000000E+00  0.00000000000E+00  0.10168083795E+04  0.10168083795E+04  0.25500000920E-02 0. -1.
        2   -1    0    0  501    0  0.00000000000E+00  0.00000000000E+00 -0.79754780675E+03  0.79754780676E+03  0.25500000920E-02 0.  1.
    10030    2    1    2    0    0  0.00000000000E+00  0.00000000000E+00  0.21926057274E+03  0.18143561862E+04  0.18010589029E+04 0.  0.
        3    1    3    3  502    0 -0.26112553443E+03 -0.74208967451E+03  0.55112347661E+03  0.96053148122E+03  0.10100000352E+00 0. -1.
       -3    1    3    3    0  502  0.26112553443E+03  0.74208967451E+03 -0.33186290387E+03  0.85382470503E+03  0.10100000352E+00 0.  1.
</event>
<event>
 5   0  0.4981384E-06  0.1799872E+04  0.7818609E-02  0.8706368E-01
        1   -1    0    0  501    0  0.00000000000E+00  0.00000000000E+00  0.10966857692E+04  0.10966857692E+04  0.50400001928E-02 0.  1.
       -1   -1    0    0    0  501  0.00000000000E+00  0.00000000000E+00 -0.73848391061E+03  0.73848391063E+03  0.50400001928E-02 0. -1.
    10030    2    1    2    0    0  0.00000000000E+00  0.00000000000E+00  0.35820185858E+03  0.18351696798E+04  0.17998719905E+04 0.  0.
        5    1    3    3  502    0  0.90937677878E+01 -0.89950941557E+03  0.15285073639E+03  0.91246113502E+03  0.46999998093E+01 0. -1.
       -5    1    3    3    0  502 -0.90937677878E+01  0.89950941557E+03  0.20535112219E+03  0.92270854482E+03  0.46999998093E+01 0.  1.
</event>
<event>
 5   0  0.4983159E-06  0.1799741E+04  0.7818609E-02  0.8706437E-01
       -1   -1    0    0    0  501  0.00000000000E+00  0.00000000000E+00  0.11562476367E+04  0.11562476367E+04  0.50400001928E-02 0. -1.
        1   -1    0    0  501    0  0.00000000000E+00  0.00000000000E+00 -0.70034003079E+03  0.70034003081E+03  0.50400001928E-02 0.  1.
    10030    2    1    2    0    0  0.00000000000E+00  0.00000000000E+00  0.45590760591E+03  0.18565876675E+04  0.17997405430E+04 0.  0.
        4    1    3    3  502    0  0.14605666643E+03 -0.87534878827E+03  0.38164576448E+03  0.96603475785E+03  0.12699999809E+01 0. -1.
       -4    1    3    3    0  502 -0.14605666643E+03  0.87534878827E+03  0.74261841426E+02  0.89055290967E+03  0.12699999809E+01 0.  1.
</event>
<event>
 5   0  0.4981384E-06  0.1799456E+04  0.7818609E-02  0.8706589E-01
       -1   -1    0    0    0  501  0.00000000000E+00  0.00000000000E+00  0.12009582073E+04  0.12009582073E+04  0.50400001928E-02 0.  1.
        1   -1    0    0  501    0  0.00000000000E+00  0.00000000000E+00 -0.67405412472E+03  0.67405412474E+03  0.50400001928E-02 0. -1.
    10030    2    1    2    0    0  0.00000000000E+00  0.00000000000E+00  0.52690408261E+03  0.18750123321E+04  0.17994563994E+04 0.  0.
        5    1    3    3  502    0  0.21459420127E+02  0.38416070295E+03  0.11108958550E+04  0.11756494559E+04  0.46999998093E+01 0.  1.
       -5    1    3    3    0  502 -0.21459420127E+02 -0.38416070295E+03 -0.58399177240E+03  0.69936287622E+03  0.46999998093E+01 0. -1.
</event>
<event>
 5   0  0.4983159E-06  0.1799536E+04  0.7818609E-02  0.8706546E-01
        1   -1    0    0  501    0  0.00000000000E+00  0.00000000000E+00  0.14220953323E+04  0.14220953323E+04  0.50400001928E-02 0.  1.
       -1   -1    0    0    0  501  0.00000000000E+00  0.00000000000E+00 -0.56928858913E+03  0.56928858915E+03  0.50400001928E-02 0. -1.
    10030    2    1    2    0    0  0.00000000000E+00  0.00000000000E+00  0.85280674320E+03  0.19913839215E+04  0.17995362129E+04 0.  0.
        4    1    3    3  502    0  0.97907828125E+02 -0.76786492949E+03 -0.81165668543E+02  0.77832639130E+03  0.12699999809E+01 0. -1.
       -4    1    3    3    0  502 -0.97907828125E+02  0.76786492949E+03  0.93397241174E+03  0.12130575302E+04  0.12699999809E+01 0.  1.
</event>
<event>
 5   0  0.1035018E-05  0.1799667E+04  0.7818609E-02  0.8706477E-01
        2   -1    0    0  501    0  0.00000000000E+00  0.00000000000E+00  0.10680506599E+04  0.10680506599E+04  0.25500000920E-02 0.  1.
       -2   -1    0    0    0  501  0.00000000000E+00  0.00000000000E+00 -0.75811040343E+03  0.75811040344E+03  0.25500000920E-02 0. -1.
    10030    2    1    2    0    0  0.00000000000E+00  0.00000000000E+00  0.30994025644E+03  0.18261610633E+04  0.17996669877E+04 0.  0.
        3    1    3    3  502    0 -0.47163926725E+03  0.30050348396E+03 -0.56035780256E+03  0.79167342975E+03  0.10100000352E+00 0. -1.
       -3    1    3    3    0  502  0.47163926725E+03 -0.30050348396E+03  0.87029805900E+03  0.10344876336E+04  0.10100000352E+00 0.  1.
</event>
<event>
 5   0  0.4987456E-06  0.1800868E+04  0.7818609E-02  0.8705838E-01
        1   -1    0    0  501    0  0.00000000000E+00  0.00000000000E+00  0.93301125244E+03  0.93301125246E+03  0.50400001928E-02 0.  1.
       -1   -1    0    0    0  501  0.00000000000E+00  0.00000000000E+00 -0.86899427286E+03  0.86899427288E+03  0.50400001928E-02 0. -1.
    10030    2    1    2    0    0  0.00000000000E+00  0.00000000000E+00  0.64016979579E+02  0.18020055253E+04  0.18008680517E+04 0.  0.
        3    1    3    3  502    0 -0.78514426884E+03  0.43601621919E+03  0.97009187686E+02  0.90331193891E+03  0.10100000352E+00 0.  1.
       -3    1    3    3    0  502  0.78514426884E+03 -0.43601621919E+03 -0.32992208107E+02  0.89869358642E+03  0.10100000352E+00 0. -1.
</event>
<event>
 5   0  0.3626125E-06  0.1799637E+04  0.7818609E-02  0.8706492E-01
       -4   -1    0    0    0  501  0.00000000000E+00  0.00000000000E+00  0.10459890649E+04  0.10459898358E+04  0.12699999809E+01 0. -1.
        4   -1    0    0  501    0  0.00000000000E+00  0.00000000000E+00 -0.77407322290E+03  0.77407426472E+03  0.12699999809E+01 0.  1.
    10030    2    1    2    0    0  0.00000000000E+00  0.00000000000E+00  0.27191584196E+03  0.18200641006E+04  0.17996374927E+04 0.  0.
        2    1    3    3  502    0 -0.75461543956E+03  0.20712709829E+03 -0.31329990987E+03  0.84291335854E+03  0.25500000920E-02 0.  1.
       -2    1    3    3    0  502  0.75461543956E+03 -0.20712709829E+03  0.58521575182E+03  0.97715074204E+03  0.25500000920E-02 0. -1.
</event>
<event>
 5   0  0.1035018E-05  0.1800416E+04  0.7818609E-02  0.8706078E-01
        2   -1    0    0  501    0  0.00000000000E+00  0.00000000000E+00  0.61263454021E+03  0.61263454022E+03  0.25500000920E-02 0.  1.
       -2   -1    0    0    0  501  0.00000000000E+00  0.00000000000E+00 -0.13227693449E+04  0.13227693449E+04  0.25500000920E-02 0. -1.
    10030    2    1    2    0    0  0.00000000000E+00  0.00000000000E+00 -0.71013480473E+03  0.19354038852E+04  0.18004157181E+04 0.  0.
        3    1    3    3  502    0  0.11780776398E+03  0.45147177348E+03 -0.11826375689E+04  0.12713524535E+04  0.10100000352E+00 0. -1.
       -3    1    3    3    0  502 -0.11780776398E+03 -0.45147177348E+03  0.47250276418E+03  0.66405143164E+03  0.10100000352E+00 0.  1.
</event>
<event>
 5   0  0.4987456E-06  0.1801466E+04  0.7818609E-02  0.8705520E-01
        1   -1    0    0  501    0  0.00000000000E+00  0.00000000000E+00  0.88120221067E+03  0.88120221069E+03  0.50400001928E-02 0.  1.
       -1   -1    0    0    0  501  0.00000000000E+00  0.00000000000E+00 -0.92069642979E+03  0.92069642981E+03  0.50400001928E-02 0. -1.
    10030    2    1    2    0    0  0.00000000000E+00  0.00000000000E+00 -0.39494219122E+02  0.18018986405E+04  0.18014657691E+04 0.  0.
        3    1    3    3  502    0  0.44321976074E+03 -0.74650155642E+03  0.22033429140E+03  0.89568718882E+03  0.10100000352E+00 0.  1.
       -3    1    3    3    0  502 -0.44321976074E+03  0.74650155642E+03 -0.25982851052E+03  0.90621145167E+03  0.10100000352E+00 0. -1.
</event>
<event>
 5   0  0.1036381E-05  0.1800102E+04  0.7818609E-02  0.8706245E-01
        2   -1    0    0  501    0  0.00000000000E+00  0.00000000000E+00  0.76095904999E+03  0.76095904999E+03  0.25500000920E-02 0.  1.
       -2   -1    0    0    0  501  0.00000000000E+00  0.00000000000E+00 -0.10645668210E+04  0.10645668210E+04  0.25500000920E-02 0. -1.
    10030    2    1    2    0    0  0.00000000000E+00  0.00000000000E+00 -0.30360777103E+03  0.18255258710E+04  0.18001019491E+04 0.  0.
        4    1    3    3  502    0 -0.46307344503E+03  0.33999933078E+03  0.55084077101E+03  0.79590434622E+03  0.12699999809E+01 0.  1.
       -4    1    3    3    0  502  0.46307344503E+03 -0.33999933078E+03 -0.85444854205E+03  0.10296215248E+04  0.12699999809E+01 0. -1.
</event>
<event>
 5   0  0.3626125E-06  0.1797316E+04  0.7818609E-02  0.8707728E-01
       -4   -1    0    0    0  501  0.00000000000E+00  0.00000000000E+00  0.81447925770E+03  0.81448024784E+03  0.12699999809E+01 0. -1.
        4   -1    0    0  501    0  0.00000000000E+00  0.00000000000E+00 -0.99153496238E+03  0.99153577572E+03  0.12699999809E+01 0.  1.
    10030    2    1    2    0    0  0.00000000000E+00  0.00000000000E+00 -0.17705570469E+03  0.18060160236E+04  0.17973160976E+04 0.  0.
        4    1    3    3  502    0 -0.50132204389E+03 -0.36812256198E+03 -0.74031752575E+03  0.96690726761E+03  0.12699999809E+01 0.  1.
       -4    1    3    3    0  502  0.50132204389E+03  0.36812256198E+03  0.56326182106E+03  0.83910875594E+03  0.12699999809E+01 0. -1.
</event>
<event>
 5   0  0.4953155E-06  0.1800480E+04  0.7818609E-02  0.8706044E-01
       -1   -1    0    0    0  501  0.00000000000E+00  0.00000000000E+00  0.83016872915E+03  0.83016872917E+03  0.50400001928E-02 0. -1.
        1   -1    0    0  501    0  0.00000000000E+00  0.00000000000E+00 -0.97622544344E+03  0.97622544345E+03  0.50400001928E-02 0.  1.
    10030    2    1    2    0    0  0.00000000000E+00  0.00000000000E+00 -0.14605671429E+03  0.18063941726E+04  0.18004797536E+04 0.  0.
        2    1    3    3  502    0 -0.32868748100E+03  0.44227431556E+03 -0.78725856838E+03  0.96094645213E+03  0.25500000920E-02 0.  1.
       -2    1    3    3    0  502  0.32868748100E+03 -0.44227431556E+03  0.64120185410E+03  0.84544772048E+03  0.25500000920E-02 0. -1.
</event>
<event>
 5   0  0.4983159E-06  0.1799837E+04  0.7818609E-02  0.8706386E-01
       -1   -1    0    0    0  501  0.00000000000E+00  0.00000000000E+00  0.24075818107E+04  0.24075818107E+04  0.50400001928E-02 0. -1.
        1   -1    0    0  501    0  0.00000000000E+00  0.00000000000E+00 -0.33637632675E+03  0.33637632679E+03  0.50400001928E-02 0.  1.
    10030    2    1    2    0    0  0.00000000000E+00  0.00000000000E+00  0.20712054840E+04  0.27439581375E+04  0.17998372436E+04 0.  0.
        4    1    3    3  502    0  0.25331923721E+03  0.84681710955E+03  0.77785729013E+03  0.11774266133E+04  0.12699999809E+01 0.  1.
       -4    1    3    3    0  502 -0.25331923721E+03 -0.84681710955E+03  0.12933481939E+04  0.15665315242E+04  0.12699999809E+01 0. -1.
</event>
<event>
 5   0  0.4987456E-06  0.1800674E+04  0.7818609E-02  0.8705941E-01
       -1   -1    0    0    0  501  0.00000000000E+00  0.00000000000E+00  0.54932717215E+03  0.54932717217E+03  0.50400001928E-02 0. -1.
        1   -1    0    0  501    0  0.00000000000E+00  0.00000000000E+00 -0.14756358298E+04  0.14756358299E+04  0.50400001928E-02 0.  1.
    10030    2    1    2    0    0  0.00000000000E+00  0.00000000000E+00 -0.92630865770E+03  0.20249630020E+04  0.18006741599E+04 0.  0.
        3    1    3    3  502    0  0.11227908750E+03  0.88886099112E+03 -0.36303458195E+03  0.96668225023E+03  0.10100000352E+00 0.  1.
       -3    1    3    3    0  502 -0.11227908750E+03 -0.88886099112E+03 -0.56327407575E+03  0.10582807518E+04  0.10100000352E+00 0. -1.
</event>
<event>
 5   0  0.4981384E-06  0.1800196E+04  0.7818609E-02  0.8706195E-01
       -1   -1    0    0    0  501  0.00000000000E+00  0.00000000000E+00  0.15845417022E+04  0.15845417022E+04  0.50400001928E-02 0.  1.
        1   -1    0    0  501    0  0.00000000000E+00  0.00000000000E+00 -0.51130023888E+03  0.51130023891E+03  0.50400001928E-02 0. -1.
    10030    2    1    2    0    0  0.00000000000E+00  0.00000000000E+00  0.10732414633E+04  0.20958419411E+04  0.18001961570E+04 0.  0.
        5    1    3    3  502    0  0.58870932315E+03  0.77402129775E+02 -0.25092257738E+03  0.64463477000E+03  0.46999998093E+01 0. -1.
       -5    1    3    3    0  502 -0.58870932315E+03 -0.77402129775E+02  0.13241640407E+04  0.14512071711E+04  0.46999998093E+01 0.  1.
</event>
<event>
 5   0  0.1035018E-05  0.1800106E+04  0.7818609E-02  0.8706243E-01
       -2   -1    0    0    0  501  0.00000000000E+00  0.00000000000E+00  0.73616490092E+03  0.73616490093E+03  0.25500000920E-02 0.  1.
        2   -1    0    0  501    0  0.00000000000E+00  0.00000000000E+00 -0.11004263405E+04  0.11004263405E+04  0.25500000920E-02 0. -1.
    10030    2    1    2    0    0  0.00000000000E+00  0.00000000000E+00 -0.36426143957E+03  0.18365912414E+04  0.18001058279E+04 0.  0.
        3    1    3    3  502    0  0.76134704561E+02 -0.65313950063E+03 -0.80916646119E+03  0.10426591354E+04  0.10100000352E+00 0. -1.
       -3    1    3    3    0  502 -0.76134704561E+02  0.65313950063E+03  0.44490502162E+03  0.79393210603E+03  0.10100000352E+00 0.  1.
</event>
<event>
 5   0  0.4994123E-06  0.1800263E+04  0.7818609E-02  0.8706160E-01
        1   -1    0    0  501    0  0.00000000000E+00  0.00000000000E+00  0.38778003882E+03  0.38778003885E+03  0.50400001928E-02 0.  1.
       -1   -1    0    0    0  501  0.00000000000E+00  0.00000000000E+00 -0.20894234311E+04  0.20894234311E+04  0.50400001928E-02 0. -1.
    10030    2    1    2    0    0  0.00000000000E+00  0.00000000000E+00 -0.17016433922E+04  0.24772034699E+04  0.18002629800E+04 0.  0.
        1    1    3    3  502    0 -0.80781029173E+03  0.90708541186E+02 -0.31886605228E+03  0.87319016611E+03  0.50400001928E-02 0. -1.
       -1    1    3    3    0  502  0.80781029173E+03 -0.90708541186E+02 -0.13827773400E+04  0.16040133038E+04  0.50400001928E-02 0.  1.
</event>
<event>
 5   0  0.9999162E-06  0.1802165E+04  0.7818609E-02  0.8705149E-01
        2   -1    0    0  501    0  0.00000000000E+00  0.00000000000E+00  0.46839671814E+03  0.46839671814E+03  0.25500000920E-02 0. -1.
       -2   -1    0    0    0  501  0.00000000000E+00  0.00000000000E+00 -0.17334659126E+04  0.17334659126E+04  0.25500000920E-02 0.  1.
    10030    2    1    2    0    0  0.00000000000E+00  0.00000000000E+00 -0.12650691945E+04  0.22018626307E+04  0.18021650806E+04 0.  0.
        1    1    3    3  502    0  0.64559968882E+03 -0.60955739076E+03 -0.82019165418E+03  0.12087487416E+04  0.50400001928E-02 0.  1.
       -1    1    3    3    0  502 -0.64559968882E+03  0.60955739076E+03 -0.44487754029E+03  0.99311388909E+03  0.50400001928E-02 0. -1.
</event>
<event>
 5   0  0.4987456E-06  0.1794619E+04  0.7818609E-02  0.8709166E-01
       -1   -1    0    0    0  501  0.00000000000E+00  0.00000000000E+00  0.95367742220E+03  0.95367742221E+03  0.50400001928E-02 0.  1.
        1   -1    0    0  501    0  0.00000000000E+00  0.00000000000E+00 -0.84427328419E+03  0.84427328421E+03  0.50400001928E-02 0. -1.
    10030    2    1    2    0    0  0.00000000000E+00  0.00000000000E+00  0.10940413801E+03  0.17979507064E+04  0.17946190340E+04 0.  0.
        3    1    3    3  502    0  0.11451801076E+03 -0.78235122236E+03 -0.37032194778E+03  0.87311291659E+03  0.10100000352E+00 0. -1.
       -3    1    3    3    0  502 -0.11451801076E+03  0.78235122236E+03  0.47972608579E+03  0.92483778983E+03  0.10100000352E+00 0.  1.
</event>
<event>
 5   0  0.4953155E-06  0.1799864E+04  0.7818609E-02  0.8706372E-01
       -1   -1    0    0    0  501  0.00000000000E+00  0.00000000000E+00  0.84979192372E+03  0.84979192374E+03  0.50400001928E-02 0.  1.
        1   -1    0    0  501    0  0.00000000000E+00  0.00000000000E+00 -0.95303041965E+03  0.95303041966E+03  0.50400001928E-02 0. -1.
    10030    2    1    2    0    0  0.00000000000E+00  0.00000000000E+00 -0.10323849593E+03  0.18028223434E+04  0.17998639434E+04 0.  0.
        2    1    3    3  502    0  0.30163002946E+03  0.84113792744E+03 -0.15848982229E+03  0.90753110770E+03  0.25500000920E-02 0.  1.
       -2    1    3    3    0  502 -0.30163002946E+03 -0.84113792744E+03  0.55251326362E+02  0.89529123570E+03  0.25500000920E-02 0. -1.
</event>
<event>
 5   0  0.4981384E-06  0.1798757E+04  0.7818609E-02  0.8706961E-01
        1   -1    0    0  501    0  0.00000000000E+00  0.00000000000E+00  0.40630752495E+03  0.40630752498E+03  0.50400001928E-02 0. -1.
       -1   -1    0    0    0  501  0.00000000000E+00  0.00000000000E+00 -0.19908109751E+04  0.19908109751E+04  0.50400001928E-02 0.  1.
    10030    2    1    2    0    0  0.00000000000E+00  0.00000000000E+00 -0.15845034501E+04  0.23971185000E+04  0.17987567706E+04 0.  0.
        5    1    3    3  502    0 -0.55249702765E+03  0.48656615119E+03 -0.10382353756E+03  0.74350588565E+03  0.46999998093E+01 0. -1.
       -5    1    3    3    0  502  0.55249702765E+03 -0.48656615119E+03 -0.14806799125E+04  0.16536126144E+04  0.46999998093E+01 0.  1.
</event>
<event>
 5   0  0.1000316E-05  0.1799890E+04  0.7818609E-02  0.8706358E-01
       -2   -1    0    0    0  501  0.00000000000E+00  0.00000000000E+00  0.82277600687E+03  0.82277600687E+03  0.25500000920E-02 0. -1.
        2   -1    0    0  501    0  0.00000000000E+00  0.00000000000E+00 -0.98435182305E+03  0.98435182305E+03  0.25500000920E-02 0.  1.
    10030    2    1    2    0    0  0.00000000000E+00  0.00000000000E+00 -0.16157581618E+03  0.18071278299E+04  0.17998900659E+04 0.  0.
        5    1    3    3  502    0  0.41988587489E+03  0.37446266215E+03  0.62442715161E+03  0.84051043476E+03  0.46999998093E+01 0. -1.
       -5    1    3    3    0  502 -0.41988587489E+03 -0.37446266215E+03 -0.78600296779E+03  0.96661739517E+03  0.46999998093E+01 0.  1.
</event>
<event>
 5   0  0.1000316E-05  0.1799677E+04  0.7818609E-02  0.8706471E-01
        2   -1    0    0  501    0  0.00000000000E+00  0.00000000000E+00  0.62907113491E+03  0.62907113492E+03  0.25500000920E-02 0. -1.
       -2   -1    0    0    0  501  0.00000000000E+00  0.00000000000E+00 -0.12871505442E+04  0.12871505442E+04  0.25500000920E-02 0.  1.
    10030    2    1    2    0    0  0.00000000000E+00  0.00000000000E+00 -0.65807940927E+03  0.19162216791E+04  0.17996769195E+04 0.  0.
        5    1    3    3  502    0 -0.72816760473E+03 -0.12229443365E+03 -0.87664374861E+03  0.11461720382E+04  0.46999998093E+01 0.  1.
       -5    1    3    3    0  502  0.72816760473E+03  0.12229443365E+03  0.21856433935E+03  0.77004964094E+03  0.46999998093E+01 0. -1.
</event>
<event>
 5   0  0.1000316E-05  0.1800060E+04  0.7818609E-02  0.8706267E-01
        2   -1    0    0  501    0  0.00000000000E+00  0.00000000000E+00  0.14999187723E+04  0.14999187723E+04  0.25500000920E-02 0. -1.
       -2   -1    0    0    0  501  0.00000000000E+00  0.00000000000E+00 -0.54006551893E+03  0.54006551893E+03  0.25500000920E-02 0.  1.
    10030    2    1    2    0    0  0.00000000000E+00  0.00000000000E+00  0.95985325335E+03  0.20399842912E+04  0.18000604547E+04 0.  0.
        5    1    3    3  502    0  0.75820596538E+03 -0.16789440271E+03  0.99550039497E+03  0.12625798758E+04  0.46999998093E+01 0. -1.
       -5    1    3    3    0  502 -0.75820596538E+03  0.16789440271E+03 -0.35647141616E+02  0.77740441541E+03  0.46999998093E+01 0.  1.
</event>
<event>
 5   0  0.4983159E-06  0.1799879E+04  0.7818609E-02  0.8706364E-01
       -1   -1    0    0    0  501  0.00000000000E+00  0.00000000000E+00  0.64112053228E+03  0.64112053230E+03  0.50400001928E-02 0. -1.
        1   -1    0    0  501    0  0.00000000000E+00  0.00000000000E+00 -0.12632427637E+04  0.12632427637E+04  0.50400001928E-02 0.  1.
    10030    2    1    2    0    0  0.00000000000E+00  0.00000000000E+00 -0.62212223138E+03  0.19043632960E+04  0.17998787438E+04 0.  0.
        4    1    3    3  502    0  0.51932510482E+03 -0.31974591201E+03 -0.10112584126E+04  0.11809238768E+04  0.12699999809E+01 0.  1.
       -4    1    3    3    0  502 -0.51932510482E+03  0.31974591201E+03  0.38913618126E+03  0.72343941917E+03  0.12699999809E+01 0. -1.
</event>
<event>
 5   0  0.9589963E-06  0.1800593E+04  0.7818609E-02  0.8705984E-01
        2   -1    0    0  501    0  0.00000000000E+00  0.00000000000E+00  0.20176378934E+04  0.20176378934E+04  0.25500000920E-02 0.  1.
       -2   -1    0    0    0  501  0.00000000000E+00  0.00000000000E+00 -0.40172420754E+03  0.40172420754E+03  0.25500000920E-02 0. -1.
    10030    2    1    2    0    0  0.00000000000E+00  0.00000000000E+00  0.16159136859E+04  0.24193621010E+04  0.18005932176E+04 0.  0.
        2    1    3    3  502    0 -0.10457677796E+03  0.84883295627E+01  0.20093951037E+04  0.20121324601E+04  0.25500000920E-02 0.  1.
       -2    1    3    3    0  502  0.10457677796E+03 -0.84883295627E+01 -0.39348141781E+03  0.40722964086E+03  0.25500000920E-02 0. -1.
</event>
<event>
 5   0  0.1035018E-05  0.1801206E+04  0.7818609E-02  0.8705658E-01
       -2   -1    0    0    0  501  0.00000000000E+00  0.00000000000E+00  0.48486349319E+03  0.48486349320E+03  0.25500000920E-02 0.  1.
        2   -1    0    0  501    0  0.00000000000E+00  0.00000000000E+00 -0.16728131246E+04  0.16728131246E+04  0.25500000920E-02 0. -1.
    10030    2    1    2    0    0  0.00000000000E+00  0.00000000000E+00 -0.11879496314E+04  0.21576766178E+04  0.18012062792E+04 0.  0.
        3    1    3    3  502    0  0.60078311704E+03  0.37032604906E+03 -0.12641649540E+04  0.14478241528E+04  0.10100000352E+00 0. -1.
       -3    1    3    3    0  502 -0.60078311704E+03 -0.37032604906E+03  0.76215322674E+02  0.70985246491E+03  0.10100000352E+00 0.  1.
</event>
<event>
 5   0  0.4994123E-06  0.1799885E+04  0.7818609E-02  0.8706360E-01
       -1   -1    0    0    0  501  0.00000000000E+00  0.00000000000E+00  0.11744936149E+04  0.11744936150E+04  0.50400001928E-02 0. -1.
        1   -1    0    0  501    0  0.00000000000E+00  0.00000000000E+00 -0.68957118078E+03  0.68957118080E+03  0.50400001928E-02 0.  1.
    10030    2    1    2    0    0  0.00000000000E+00  0.00000000000E+00  0.48492243417E+03  0.18640647958E+04  0.17998854951E+04 0.  0.
        1    1    3    3  502    0  0.36512278332E+02 -0.89463665004E+03  0.33618144465E+03  0.95641301007E+03  0.50400001928E-02 0. -1.
       -1    1    3    3    0  502 -0.36512278332E+02  0.89463665004E+03  0.14874098951E+03  0.90765178569E+03  0.50400001928E-02 0.  1.
</event>
<event>
 5   0  0.1035018E-05  0.1799447E+04  0.7818609E-02  0.8706594E-01
        2   -1    0    0  501    0  0.00000000000E+00  0.00000000000E+00  0.52272908141E+03  0.52272908142E+03  0.25500000920E-02 0.  1.
       -2   -1    0    0    0  501  0.00000000000E+00  0.00000000000E+00 -0.15486074548E+04  0.15486074548E+04  0.25500000920E-02 0. -1.
    10030    2    1    2    0    0  0.00000000000E+00  0.00000000000E+00 -0.10258783734E+04  0.20713365363E+04  0.17994467509E+04 0.  0.
        3    1    3    3  502    0 -0.40559617820E+03 -0.21438563050E+03 -0.14038555292E+04  0.14769156426E+04  0.10100000352E+00 0. -1.
       -3    1    3    3    0  502  0.40559617820E+03  0.21438563050E+03  0.37797715576E+03  0.59442089366E+03  0.10100000352E+00 0.  1.
</event>
<event>
 5   0  0.4983159E-06  0.1800127E+04  0.7818609E-02  0.8706232E-01
        1   -1    0    0  501    0  0.00000000000E+00  0.00000000000E+00  0.10910180462E+04  0.10910180462E+04  0.50400001928E-02 0.  1.
       -1   -1    0    0    0  501  0.00000000000E+00  0.00000000000E+00 -0.74253086392E+03  0.74253086394E+03  0.50400001928E-02 0. -1.
    10030    2    1    2    0    0  0.00000000000E+00  0.00000000000E+00  0.34848718226E+03  0.18335489101E+04  0.18001272982E+04 0.  0.
        4    1    3    3  502    0 -0.56888712790E+03  0.58048247518E+03 -0.21961437968E+03  0.84191719126E+03  0.12699999809E+01 0. -1.
       -4    1    3    3    0  502  0.56888712790E+03 -0.58048247518E+03  0.56810156194E+03  0.99163171887E+03  0.12699999809E+01 0.  1.
</event>
<event>
 5   0  0.1000316E-05  0.1799905E+04  0.7818609E-02  0.8706350E-01
        2   -1    0    0  501    0  0.00000000000E+00  0.00000000000E+00  0.92602817702E+03  0.92602817703E+03  0.25500000920E-02 0.  1.
       -2   -1    0    0    0  501  0.00000000000E+00  0.00000000000E+00 -0.87461082052E+03  0.87461082053E+03  0.25500000920E-02 0. -1.
    10030    2    1    2    0    0  0.00000000000E+00  0.00000000000E+00  0.51417356499E+02  0.18006389976E+04  0.17999047350E+04 0.  0.
        5    1    3    3  502    0 -0.34237966559E+03 -0.83224749453E+03  0.20010199829E+02  0.90015677838E+03  0.46999998093E+01 0. -1.
       -5    1    3    3    0  502  0.34237966559E+03  0.83224749453E+03  0.31407156669E+02  0.90048221918E+03  0.46999998093E+01 0.  1.
</event>
<event>
 5   0  0.4987456E-06  0.1801273E+04  0.7818609E-02  0.8705623E-01
        1   -1    0    0  501    0  0.00000000000E+00  0.00000000000E+00  0.14243932071E+04  0.14243932072E+04  0.50400001928E-02 0. -1.
       -1   -1    0    0    0  501  0.00000000000E+00  0.00000000000E+00 -0.56946795348E+03  0.56946795351E+03  0.50400001928E-02 0.  1.
    10030    2    1    2    0    0  0.00000000000E+00  0.00000000000E+00  0.85492525366E+03  0.19938611607E+04  0.18012731993E+04 0.  0.
        3    1    3    3  502    0 -0.88044657122E+03  0.95774229261E+02  0.60863028143E+03  0.10746114170E+04  0.10100000352E+00 0. -1.
       -3    1    3    3    0  502  0.88044657122E+03 -0.95774229261E+02  0.24629497223E+03  0.91924974371E+03  0.10100000352E+00 0.  1.
</event>
<event>
 5   0  0.9589963E-06  0.1801777E+04  0.7818609E-02  0.8705355E-01
        2   -1    0    0  501    0  0.00000000000E+00  0.00000000000E+00  0.11082108870E+04  0.11082108870E+04  0.25500000920E-02 0.  1.
       -2   -1    0    0    0  501  0.00000000000E+00  0.00000000000E+00 -0.73235201199E+03  0.73235201199E+03  0.25500000920E-02 0. -1.
    10030    2    1    2    0    0  0.00000000000E+00  0.00000000000E+00  0.37585887502E+03  0.18405628990E+04  0.18017774256E+04 0.  0.
        2    1    3    3  502    0 -0.18517000043E+03 -0.88151921821E+03  0.20363610273E+03  0.92348888649E+03  0.25500000920E-02 0. -1.
       -2    1    3    3    0  502  0.18517000043E+03  0.88151921821E+03  0.17222277229E+03  0.91707401252E+03  0.25500000920E-02 0.  1.
</event>
<event>
 5   0  0.4981384E-06  0.1798999E+04  0.7818609E-02  0.8706832E-01
       -1   -1    0    0    0  501  0.00000000000E+00  0.00000000000E+00  0.58807235302E+03  0.58807235304E+03  0.50400001928E-02 0. -1.
        1   -1    0    0  501    0  0.00000000000E+00  0.00000000000E+00 -0.13758495846E+04  0.13758495846E+04  0.50400001928E-02 0.  1.
    10030    2    1    2    0    0  0.00000000000E+00  0.00000000000E+00 -0.78777723157E+03  0.19639219376E+04  0.17989987245E+04 0.  0.
        5    1    3    3  502    0  0.14490875755E+03  0.38131329485E+03 -0.12690543346E+04  0.13330113919E+04  0.46999998093E+01 0.  1.
       -5    1    3    3    0  502 -0.14490875755E+03 -0.38131329485E+03  0.48127710301E+03  0.63091054574E+03  0.46999998093E+01 0. -1.
</event>
<event>
 5   0  0.4953155E-06  0.1800036E+04  0.7818609E-02  0.8706280E-01
       -1   -1    0    0    0  501  0.00000000000E+00  0.00000000000E+00  0.97749102525E+03  0.97749102526E+03  0.50400001928E-02 0.  1.
        1   -1    0    0  501    0  0.00000000000E+00  0.00000000000E+00 -0.82868513589E+03  0.82868513591E+03  0.50400001928E-02 0. -1.
    10030    2    1    2    0    0  0.00000000000E+00  0.00000000000E+00  0.14880588936E+03  0.18061761612E+04  0.18000358698E+04 0.  0.
        2    1    3    3  502    0 -0.25965486954E+03 -0.83019587713E+03  0.30624617364E+03  0.92218900696E+03  0.25500000920E-02 0. -1.
       -2    1    3    3    0  502  0.25965486954E+03  0.83019587713E+03 -0.15744028428E+03  0.88398715421E+03  0.25500000920E-02 0.  1.
</event>
<event>
 5   0  0.4981384E-06  0.1800506E+04  0.7818609E-02  0.8706030E-01
        1   -1    0    0  501    0  0.00000000000E+00  0.00000000000E+00  0.21764854935E+04  0.21764854935E+04  0.50400001928E-02 0.  1.
       -1   -1    0    0    0  501  0.00000000000E+00  0.00000000000E+00 -0.37236899577E+03  0.37236899580E+03  0.50400001928E-02 0. -1.
    10030    2    1    2    0    0  0.00000000000E+00  0.00000000000E+00  0.18041164977E+04  0.25488544893E+04  0.18005062816E+04 0.  0.
        5    1    3    3  502    0  0.43272483323E+03  0.65522388910E+03  0.27875477366E+03  0.83324392586E+03  0.46999998093E+01 0. -1.
       -5    1    3    3    0  502 -0.43272483323E+03 -0.65522388910E+03  0.15253617240E+04  0.17156105634E+04  0.46999998093E+01 0.  1.
</event>
<event>
 5   0  0.1000316E-05  0.1799151E+04  0.7818609E-02  0.8706751E-01
        2   -1    0    0  501    0  0.00000000000E+00  0.00000000000E+00  0.11187452226E+04  0.11187452226E+04  0.25500000920E-02 0. -1.
       -2   -1    0    0    0  501  0.00000000000E+00  0.00000000000E+00 -0.72334230041E+03  0.72334230041E+03  0.25500000920E-02 0.  1.
    10030    2    1    2    0    0  0.00000000000E+00  0.00000000000E+00  0.39540292222E+03  0.18420875230E+04  0.17991506251E+04 0.  0.
        5    1    3    3  502    0 -0.94714526576E+02 -0.76116803704E+03 -0.28347813152E+03  0.81775886617E+03  0.46999998093E+01 0.  1.
       -5    1    3    3    0  502  0.94714526576E+02  0.76116803704E+03  0.67888105375E+03  0.10243286569E+04  0.46999998093E+01 0. -1.
</event>
<event>
 5   0  0.4981384E-06  0.1798383E+04  0.7818609E-02  0.8707160E-01
       -1   -1    0    0    0  501  0.00000000000E+00  0.00000000000E+00  0.42186552871E+03  0.42186552874E+03  0.50400001928E-02 0.  1.
        1   -1    0    0  501    0  0.00000000000E+00  0.00000000000E+00 -0.19165940339E+04  0.19165940339E+04  0.50400001928E-02 0. -1.
    10030    2    1    2    0    0  0.00000000000E+00  0.00000000000E+00 -0.14947285052E+04  0.23384595627E+04  0.17983825572E+04 0.  0.
        5    1    3    3  502    0  0.83667551708E+03 -0.26652124717E+03 -0.99904569838E+03  0.13301029635E+04  0.46999998093E+01 0. -1.
       -5    1    3    3    0  502 -0.83667551708E+03  0.26652124717E+03 -0.49568280682E+03  0.10083565991E+04  0.46999998093E+01 0.  1.
</event>
<event>
 5   0  0.9999162E-06  0.1799979E+04  0.7818609E-02  0.8706311E-01
        2   -1    0    0  501    0  0.00000000000E+00  0.00000000000E+00  0.99546066320E+03  0.99546066320E+03  0.25500000920E-02 0.  1.
       -2   -1    0    0    0  501  0.00000000000E+00  0.00000000000E+00 -0.81367473113E+03  0.81367473113E+03  0.25500000920E-02 0. -1.
    10030    2    1    2    0    0  0.00000000000E+00  0.00000000000E+00  0.18178593207E+03  0.18091353943E+04  0.17999790971E+04 0.  0.
        1    1    3    3  502    0  0.62847907126E+03  0.20222120502E+02  0.73805210331E+03  0.96959568088E+03  0.50400001928E-02 0.  1.
       -1    1    3    3    0  502 -0.62847907126E+03 -0.20222120502E+02 -0.55626617124E+03  0.83953971345E+03  0.50400001928E-02 0. -1.
</event>
<event>
 5   0  0.1000316E-05  0.1799921E+04  0.7818609E-02  0.8706341E-01
        2   -1    0    0  501    0  0.00000000000E+00  0.00000000000E+00  0.14034462254E+04  0.14034462254E+04  0.25500000920E-02 0. -1.
       -2   -1    0    0    0  501  0.00000000000E+00  0.00000000000E+00 -0.57710022367E+03  0.57710022368E+03  0.25500000920E-02 0.  1.
    10030    2    1    2    0    0  0.00000000000E+00  0.00000000000E+00  0.82634600173E+03  0.19805464491E+04  0.17999212545E+04 0.  0.
        5    1    3    3  502    0 -0.14750230234E+03  0.20258284099E+03 -0.53792198017E+03  0.59344661378E+03  0.46999998093E+01 0.  1.
       -5    1    3    3    0  502  0.14750230234E+03 -0.20258284099E+03  0.13642679819E+04  0.13870998353E+04  0.46999998093E+01 0. -1.
</event>
<event>
 5   0  0.1000316E-05  0.1799977E+04  0.7818609E-02  0.8706312E-01
       -2   -1    0    0    0  501  0.00000000000E+00  0.00000000000E+00  0.46479395843E+03  0.46479395844E+03  0.25500000920E-02 0.  1.
        2   -1    0    0  501    0  0.00000000000E+00  0.00000000000E+00 -0.17426622913E+04  0.17426622913E+04  0.25500000920E-02 0. -1.
    10030    2    1    2    0    0  0.00000000000E+00  0.00000000000E+00 -0.12778683329E+04  0.22074562497E+04  0.17999765605E+04 0.  0.
        5    1    3    3  502    0 -0.57061590323E+03 -0.74174515345E+02  0.20971093881E+03  0.61245827254E+03  0.46999998093E+01 0.  1.
       -5    1    3    3    0  502  0.57061590323E+03  0.74174515345E+02 -0.14875792717E+04  0.15949979772E+04  0.46999998093E+01 0. -1.
</event>
<event>
 5   0  0.4981384E-06  0.1799842E+04  0.7818609E-02  0.8706384E-01
       -1   -1    0    0    0  501  0.00000000000E+00  0.00000000000E+00  0.16021864145E+04  0.16021864145E+04  0.50400001928E-02 0.  1.
        1   -1    0    0  501    0  0.00000000000E+00  0.00000000000E+00 -0.50547036504E+03  0.50547036506E+03  0.50400001928E-02 0. -1.
    10030    2    1    2    0    0  0.00000000000E+00  0.00000000000E+00  0.10967160494E+04  0.21076567796E+04  0.17998419395E+04 0.  0.
        5    1    3    3  502    0 -0.84816707366E+03 -0.24471579099E+03  0.75307773893E+03  0.11603539865E+04  0.46999998093E+01 0.  1.
       -5    1    3    3    0  502  0.84816707366E+03  0.24471579099E+03  0.34363831052E+03  0.94730279302E+03  0.46999998093E+01 0. -1.
</event>
<event>
 5   0  0.4981384E-06  0.1800233E+04  0.7818609E-02  0.8706175E-01
       -1   -1    0    0    0  501  0.00000000000E+00  0.00000000000E+00  0.46279479252E+03  0.46279479254E+03  0.50400001928E-02 0. -1.
        1   -1    0    0  501    0  0.00000000000E+00  0.00000000000E+00 -0.17506898058E+04  0.17506898058E+04  0.50400001928E-02 0.  1.
    10030    2    1    2    0    0  0.00000000000E+00  0.00000000000E+00 -0.12878950133E+04  0.22134845984E+04  0.18002334576E+04 0.  0.
        5    1    3    3  502    0 -0.26027007560E+03  0.85298758764E+03 -0.49406440375E+03  0.10195342378E+04  0.46999998093E+01 0. -1.
       -5    1    3    3    0  502  0.26027007560E+03 -0.85298758764E+03 -0.79383060953E+03  0.11939503606E+04  0.46999998093E+01 0.  1.
</event>
<event>
 5   0  0.1000316E-05  0.1797710E+04  0.7818609E-02  0.8707518E-01
        2   -1    0    0  501    0  0.00000000000E+00  0.00000000000E+00  0.19390054389E+04  0.19390054389E+04  0.25500000920E-02 0.  1.
       -2   -1    0    0    0  501  0.00000000000E+00  0.00000000000E+00 -0.41667779460E+03  0.41667779461E+03  0.25500000920E-02 0. -1.
    10030    2    1    2    0    0  0.00000000000E+00  0.00000000000E+00  0.15223276443E+04  0.23556832335E+04  0.17977102214E+04 0.  0.
        5    1    3    3  502    0 -0.66840236749E+03  0.40893453327E+03  0.13382210084E+04  0.15507568265E+04  0.46999998093E+01 0.  1.
       -5    1    3    3    0  502  0.66840236749E+03 -0.40893453327E+03  0.18410663582E+03  0.80492640702E+03  0.46999998093E+01 0. -1.
</event>
<event>
 5   0  0.4983159E-06  0.1800220E+04  0.7818609E-02  0.8706183E-01
       -1   -1    0    0    0  501  0.00000000000E+00  0.00000000000E+00  0.49431754130E+03  0.49431754133E+03  0.50400001928E-02 0.  1.
        1   -1    0    0  501    0  0.00000000000E+00  0.00000000000E+00 -0.16390231977E+04  0.16390231977E+04  0.50400001928E-02 0. -1.
    10030    2    1    2    0    0  0.00000000000E+00  0.00000000000E+00 -0.11447056564E+04  0.21333407391E+04  0.18002198946E+04 0.  0.
        4    1    3    3  502    0  0.37229379589E+03  0.39028800203E+03 -0.14262996574E+04  0.15248802315E+04  0.12699999809E+01 0. -1.
       -4    1    3    3    0  502 -0.37229379589E+03 -0.39028800203E+03  0.28159400093E+03  0.60846050755E+03  0.12699999809E+01 0.  1.
</event>
<event>
 5   0  0.9999162E-06  0.1798641E+04  0.7818609E-02  0.8707022E-01
       -2   -1    0    0    0  501  0.00000000000E+00  0.00000000000E+00  0.66386067244E+03  0.66386067244E+03  0.25500000920E-02 0.  1.
        2   -1    0    0  501    0  0.00000000000E+00  0.00000000000E+00 -0.12182939627E+04  0.12182939627E+04  0.25500000920E-02 0. -1.
    10030    2    1    2    0    0  0.00000000000E+00  0.00000000000E+00 -0.55443329028E+03  0.18821546352E+04  0.17986410974E+04 0.  0.
        1    1    3    3  502    0 -0.17300207690E+03  0.33200217980E+02 -0.12000632865E+04  0.12129236846E+04  0.50400001928E-02 0. -1.
       -1    1    3    3    0  502  0.17300207690E+03 -0.33200217980E+02  0.64562999624E+03  0.66923095053E+03  0.50400001928E-02 0.  1.
</event>
<event>
 5   0  0.4981384E-06  0.1799906E+04  0.7818609E-02  0.8706349E-01
       -1   -1    0    0    0  501  0.00000000000E+00  0.00000000000E+00  0.70684352932E+03  0.70684352934E+03  0.50400001928E-02 0.  1.
        1   -1    0    0  501    0  0.00000000000E+00  0.00000000000E+00 -0.11458204139E+04  0.11458204139E+04  0.50400001928E-02 0. -1.
    10030    2    1    2    0    0  0.00000000000E+00  0.00000000000E+00 -0.43897688453E+03  0.18526639432E+04  0.17999063813E+04 0.  0.
        5    1    3    3  502    0  0.32449774465E+03 -0.13931562908E+03  0.63253389507E+03  0.72445072241E+03  0.46999998093E+01 0.  1.
       -5    1    3    3    0  502 -0.32449774465E+03  0.13931562908E+03 -0.10715107796E+04  0.11282132208E+04  0.46999998093E+01 0. -1.
</event>
<event>
 5   0  0.4994123E-06  0.1800879E+04  0.7818609E-02  0.8705832E-01
       -1   -1    0    0    0  501  0.00000000000E+00  0.00000000000E+00  0.65328554742E+03  0.65328554744E+03  0.50400001928E-02 0. -1.
        1   -1    0    0  501    0  0.00000000000E+00  0.00000000000E+00 -0.12410981548E+04  0.12410981548E+04  0.50400001928E-02 0.  1.
    10030    2    1    2    0    0  0.00000000000E+00  0.00000000000E+00 -0.58781260740E+03  0.18943837023E+04  0.18008792158E+04 0.  0.
        1    1    3    3  502    0  0.17462591283E+02 -0.49155365483E+03  0.49948356970E+03  0.70100911128E+03  0.50400001928E-02 0. -1.
       -1    1    3    3    0  502 -0.17462591283E+02  0.49155365483E+03 -0.10872961771E+04  0.11933745910E+04  0.50400001928E-02 0.  1.
</event>
<event>
 5   0  0.4994123E-06  0.1800111E+04  0.7818609E-02  0.8706240E-01
       -1   -1    0    0    0  501  0.00000000000E+00  0.00000000000E+00  0.60653634374E+03  0.60653634376E+03  0.50400001928E-02 0. -1.
        1   -1    0    0  501    0  0.00000000000E+00  0.00000000000E+00 -0.13356170210E+04  0.13356170211E+04  0.50400001928E-02 0.  1.
    10030    2    1    2    0    0  0.00000000000E+00  0.00000000000E+00 -0.72908067730E+03  0.19421533648E+04  0.18001114017E+04 0.  0.
        1    1    3    3  502    0 -0.78615986879E+03  0.13174434733E+03 -0.81548791517E+03  0.11403615445E+04  0.50400001928E-02 0.  1.
       -1    1    3    3    0  502  0.78615986879E+03 -0.13174434733E+03  0.86407237870E+02  0.80179182032E+03  0.50400001928E-02 0. -1.
</event>
<event>
 5   0  0.4983159E-06  0.1800015E+04  0.7818609E-02  0.8706291E-01
        1   -1    0    0  501    0  0.00000000000E+00  0.00000000000E+00  0.75604224952E+03  0.75604224954E+03  0.50400001928E-02 0. -1.
       -1   -1    0    0    0  501  0.00000000000E+00  0.00000000000E+00 -0.10713871049E+04  0.10713871049E+04  0.50400001928E-02 0.  1.
    10030    2    1    2    0    0  0.00000000000E+00  0.00000000000E+00 -0.31534485536E+03  0.18274293544E+04  0.18000154632E+04 0.  0.
        4    1    3    3  502    0  0.16141149535E+02 -0.33676302281E+03  0.68950776127E+03  0.76752357358E+03  0.12699999809E+01 0. -1.
       -4    1    3    3    0  502 -0.16141149535E+02  0.33676302281E+03 -0.10048526166E+04  0.10599057809E+04  0.12699999809E+01 0.  1.
</event>
<event>
 5   0  0.1036381E-05  0.1789567E+04  0.7818609E-02  0.8711868E-01
       -2   -1    0    0    0  501  0.00000000000E+00  0.00000000000E+00  0.15318263049E+04  0.15318263049E+04  0.25500000920E-02 0. -1.
        2   -1    0    0  501    0  0.00000000000E+00  0.00000000000E+00 -0.52266833851E+03  0.52266833852E+03  0.25500000920E-02 0.  1.
    10030    2    1    2    0    0  0.00000000000E+00  0.00000000000E+00  0.10091579664E+04  0.20544946434E+04  0.17895665505E+04 0.  0.
        4    1    3    3  502    0 -0.79958855093E+03  0.16930515474E+03  0.92267601031E+03  0.12326145866E+04  0.12699999809E+01 0. -1.
       -4    1    3    3    0  502  0.79958855093E+03 -0.16930515474E+03  0.86481956098E+02  0.82188005684E+03  0.12699999809E+01 0.  1.
</event>
<event>
 5   0  0.1035018E-05  0.1799620E+04  0.7818609E-02  0.8706502E-01
       -2   -1    0    0    0  501  0.00000000000E+00  0.00000000000E+00  0.88379515489E+03  0.88379515489E+03  0.25500000920E-02 0. -1.
        2   -1    0    0  501    0  0.00000000000E+00  0.00000000000E+00 -0.91611503019E+03  0.91611503020E+03  0.25500000920E-02 0.  1.
    10030    2    1    2    0    0  0.00000000000E+00  0.00000000000E+00 -0.32319875302E+02  0.17999101851E+04  0.17996199877E+04 0.  0.
        3    1    3    3  502    0  0.70497772151E+03 -0.12521622596E+03  0.52889153891E+03  0.89016793989E+03  0.10100000352E+00 0. -1.
       -3    1    3    3    0  502 -0.70497772151E+03  0.12521622596E+03 -0.56121141421E+03  0.90974224521E+03  0.10100000352E+00 0.  1.
</event>
<event>
 5   0  0.4983159E-06  0.1801087E+04  0.7818609E-02  0.8705722E-01
        1   -1    0    0  501    0  0.00000000000E+00  0.00000000000E+00  0.20058860640E+04  0.20058860640E+04  0.50400001928E-02 0.  1.
       -1   -1    0    0    0  501  0.00000000000E+00  0.00000000000E+00 -0.40429928613E+03  0.40429928616E+03  0.50400001928E-02 0. -1.
    10030    2    1    2    0    0  0.00000000000E+00  0.00000000000E+00  0.16015867779E+04  0.24101853502E+04  0.18010866762E+04 0.  0.
        4    1    3    3  502    0 -0.31144730951E+02  0.58278420538E+03  0.17185664326E+04  0.18149599501E+04  0.12699999809E+01 0.  1.
       -4    1    3    3    0  502  0.31144730951E+02 -0.58278420538E+03 -0.11697965477E+03  0.59522540003E+03  0.12699999809E+01 0. -1.
</event>
<event>
 5   0  0.1000316E-05  0.1798598E+04  0.7818609E-02  0.8707045E-01
       -2   -1    0    0    0  501  0.00000000000E+00  0.00000000000E+00  0.40218901401E+03  0.40218901402E+03  0.25500000920E-02 0. -1.
        2   -1    0    0  501    0  0.00000000000E+00  0.00000000000E+00 -0.20108432020E+04  0.20108432020E+04  0.25500000920E-02 0.  1.
    10030    2    1    2    0    0  0.00000000000E+00  0.00000000000E+00 -0.16086541880E+04  0.24130322160E+04  0.17985983929E+04 0.  0.
        5    1    3    3  502    0 -0.43619823705E+03  0.45404954664E+03  0.57120321331E+02  0.63222995336E+03  0.46999998093E+01 0. -1.
       -5    1    3    3    0  502  0.43619823705E+03 -0.45404954664E+03 -0.16657745093E+04  0.17808022627E+04  0.46999998093E+01 0.  1.
</event>
<event>
 5   0  0.1035018E-05  0.1799320E+04  0.7818609E-02  0.8706661E-01
        2   -1    0    0  501    0  0.00000000000E+00  0.00000000000E+00  0.98220118985E+03  0.98220118985E+03  0.25500000920E-02 0.  1.
       -2   -1    0    0    0  501  0.00000000000E+00  0.00000000000E+00 -0.82405560308E+03  0.82405560309E+03  0.25500000920E-02 0. -1.
    10030    2    1    2    0    0  0.00000000000E+00  0.00000000000E+00  0.15814558677E+03  0.18062567929E+04  0.17993203093E+04 0.  0.
        3    1    3    3  502    0 -0.76672986624E+03 -0.37921667724E+03 -0.20076412919E+03  0.87862746477E+03  0.10100000352E+00 0. -1.
       -3    1    3    3    0  502  0.76672986624E+03  0.37921667724E+03  0.35890971595E+03  0.92762932817E+03  0.10100000352E+00 0.  1.
</event>
<event>
 5   0  0.9589963E-06  0.1800062E+04  0.7818609E-02  0.8706267E-01
       -2   -1    0    0    0  501  0.00000000000E+00  0.00000000000E+00  0.53165396118E+03  0.53165396118E+03  0.25500000920E-02 0. -1.
        2   -1    0    0  501    0  0.00000000000E+00  0.00000000000E+00 -0.15236522151E+04  0.15236522151E+04  0.25500000920E-02 0.  1.
    10030    2    1    2    0    0  0.00000000000E+00  0.00000000000E+00 -0.99199825397E+03  0.20553061763E+04  0.18000619274E+04 0.  0.
        2    1    3    3  502    0 -0.83917980223E+03 -0.29471910599E+03 -0.33872240398E+03  0.95174311601E+03  0.25500000920E-02 0.  1.
       -2    1    3    3    0  502  0.83917980223E+03  0.29471910599E+03 -0.65327584999E+03  0.11035630603E+04  0.25500000920E-02 0. -1.
</event>
<event>
 5   0  0.9589963E-06  0.1799974E+04  0.7818609E-02  0.8706313E-01
       -2   -1    0    0    0  501  0.00000000000E+00  0.00000000000E+00  0.80434024395E+03  0.80434024395E+03  0.25500000920E-02 0. -1.
        2   -1    0    0  501    0  0.00000000000E+00  0.00000000000E+00 -0.10070071144E+04  0.10070071144E+04  0.25500000920E-02 0.  1.
    10030    2    1    2    0    0  0.00000000000E+00  0.00000000000E+00 -0.20266687049E+03  0.18113473584E+04  0.17999737199E+04 0.  0.
        2    1    3    3  502    0  0.60543771620E+03 -0.38742270066E+03  0.44368380954E+03  0.84469313957E+03  0.25500000920E-02 0. -1.
       -2    1    3    3    0  502 -0.60543771620E+03  0.38742270066E+03 -0.64635068003E+03  0.96665421882E+03  0.25500000920E-02 0.  1.
</event>
<event>
 5   0  0.9589963E-06  0.1798959E+04  0.7818609E-02  0.8706853E-01
       -2   -1    0    0    0  501  0.00000000000E+00  0.00000000000E+00  0.57469311974E+03  0.57469311975E+03  0.25500000920E-02 0.  1.
        2   -1    0    0  501    0  0.00000000000E+00  0.00000000000E+00 -0.14078179850E+04  0.14078179850E+04  0.25500000920E-02 0. -1.
    10030    2    1    2    0    0  0.00000000000E+00  0.00000000000E+00 -0.83312486527E+03  0.19825111048E+04  0.17989589321E+04 0.  0.
        2    1    3    3  502    0 -0.57479020679E+03 -0.51706611491E+03 -0.92316443377E+03  0.12041485460E+04  0.25500000920E-02 0. -1.
       -2    1    3    3    0  502  0.57479020679E+03  0.51706611491E+03  0.90039568501E+02  0.77836255878E+03  0.25500000920E-02 0.  1.
</event>
<event>
 5   0  0.9589963E-06  0.1800309E+04  0.7818609E-02  0.8706135E-01
        2   -1    0    0  501    0  0.00000000000E+00  0.00000000000E+00  0.20369106483E+04  0.20369106483E+04  0.25500000920E-02 0.  1.
       -2   -1    0    0    0  501  0.00000000000E+00  0.00000000000E+00 -0.39779764061E+03  0.39779764062E+03  0.25500000920E-02 0. -1.
    10030    2    1    2    0    0  0.00000000000E+00  0.00000000000E+00  0.16391130077E+04  0.24347082889E+04  0.18003091402E+04 0.  0.
        2    1    3    3  502    0 -0.28991174971E+03  0.27932426049E+03  0.19083783730E+04  0.19503791631E+04  0.25500000920E-02 0.  1.
       -2    1    3    3    0  502  0.28991174971E+03 -0.27932426049E+03 -0.26926536537E+03  0.48432912581E+03  0.25500000920E-02 0. -1.
</event>
<event>
 5   0  0.1035018E-05  0.1800277E+04  0.7818609E-02  0.8706152E-01
        2   -1    0    0  501    0  0.00000000000E+00  0.00000000000E+00  0.13486753519E+04  0.13486753519E+04  0.25500000920E-02 0. -1.
       -2   -1    0    0    0  501  0.00000000000E+00  0.00000000000E+00 -0.60077435386E+03  0.60077435386E+03  0.25500000920E-02 0.  1.
    10030    2    1    2    0    0  0.00000000000E+00  0.00000000000E+00  0.74790099800E+03  0.19494497057E+04  0.18002772710E+04 0.  0.
        3    1    3    3  502    0 -0.83663367335E+02 -0.14395101256E+03 -0.58395487028E+03  0.60722710231E+03  0.10100000352E+00 0.  1.
       -3    1    3    3    0  502  0.83663367335E+02  0.14395101256E+03  0.13318558683E+04  0.13422226034E+04  0.10100000352E+00 0. -1.
</event>
<event>
 5   0  0.1036381E-05  0.1800169E+04  0.7818609E-02  0.8706210E-01
       -2   -1    0    0    0  501  0.00000000000E+00  0.00000000000E+00  0.44007229910E+03  0.44007229910E+03  0.25500000920E-02 0. -1.
        2   -1    0    0  501    0  0.00000000000E+00  0.00000000000E+00 -0.18409513269E+04  0.18409513269E+04  0.25500000920E-02 0.  1.
    10030    2    1    2    0    0  0.00000000000E+00  0.00000000000E+00 -0.14008790278E+04  0.22810236260E+04  0.18001685287E+04 0.  0.
        4    1    3    3  502    0  0.78171378039E+03  0.15593619062E+02 -0.13542696539E+03  0.79351223762E+03  0.12699999809E+01 0. -1.
       -4    1    3    3    0  502 -0.78171378039E+03 -0.15593619062E+02 -0.12654520624E+04  0.14875113884E+04  0.12699999809E+01 0.  1.
</event>
<event>
 5   0  0.9999162E-06  0.1799641E+04  0.7818609E-02  0.8706490E-01
       -2   -1    0    0    0  501  0.00000000000E+00  0.00000000000E+00  0.54584790894E+03  0.54584790894E+03  0.25500000920E-02 0. -1.
        2   -1    0    0  501    0  0.00000000000E+00  0.00000000000E+00 -0.14833382049E+04  0.14833382049E+04  0.25500000920E-02 0.  1.
    10030    2    1    2    0    0  0.00000000000E+00  0.00000000000E+00 -0.93749029596E+03  0.20291861138E+04  0.17996411391E+04 0.  0.
        1    1    3    3  502    0  0.56656742268E+03 -0.56150054889E+03  0.77576253616E+00  0.79767293591E+03  0.50400001928E-02 0. -1.
       -1    1    3    3    0  502 -0.56656742268E+03  0.56150054889E+03 -0.93826605849E+03  0.12315131779E+04  0.50400001928E-02 0.  1.
</event>
<event>
 5   0  0.4994123E-06  0.1799343E+04  0.7818609E-02  0.8706649E-01
        1   -1    0    0  501    0  0.00000000000E+00  0.00000000000E+00  0.10928298768E+04  0.10928298768E+04  0.50400001928E-02 0. -1.
       -1   -1    0    0    0  501  0.00000000000E+00  0.00000000000E+00 -0.74065419164E+03  0.74065419166E+03  0.50400001928E-02 0.  1.
    10030    2    1    2    0    0  0.00000000000E+00  0.00000000000E+00  0.35217568512E+03  0.18334840684E+04  0.17993432457E+04 0.  0.
        1    1    3    3  502    0  0.42667051878E+03 -0.45381030576E+03  0.83757193980E+03  0.10437999232E+04  0.50400001928E-02 0. -1.
       -1    1    3    3    0  502 -0.42667051878E+03  0.45381030576E+03 -0.48539625468E+03  0.78968414527E+03  0.50400001928E-02 0.  1.
</event>
<event>
 5   0  0.4987456E-06  0.1799883E+04  0.7818609E-02  0.8706362E-01
       -1   -1    0    0    0  501  0.00000000000E+00  0.00000000000E+00  0.48385044804E+03  0.48385044807E+03  0.50400001928E-02 0. -1.
        1   -1    0    0  501    0  0.00000000000E+00  0.00000000000E+00 -0.16738532543E+04  0.16738532544E+04  0.50400001928E-02 0.  1.
    10030    2    1    2    0    0  0.00000000000E+00  0.00000000000E+00 -0.11900028063E+04  0.21577037024E+04  0.17998829374E+04 0.  0.
        3    1    3    3  502    0  0.12046374434E+03 -0.28420794646E+03  0.41840064428E+03  0.51994690100E+03  0.10100000352E+00 0. -1.
       -3    1    3    3    0  502 -0.12046374434E+03  0.28420794646E+03 -0.16084034506E+04  0.16377568014E+04  0.10100000352E+00 0.  1.
</event>
<event>
 5   0  0.4994123E-06  0.1800263E+04  0.7818609E-02  0.8706160E-01
        1   -1    0    0  501    0  0.00000000000E+00  0.00000000000E+00  0.98179170219E+03  0.98179170220E+03  0.50400001928E-02 0.  1.
       -1   -1    0    0    0  501  0.00000000000E+00  0.00000000000E+00 -0.82526347116E+03  0.82526347118E+03  0.50400001928E-02 0. -1.
    10030    2    1    2    0    0  0.00000000000E+00  0.00000000000E+00  0.15652823102E+03  0.18070551734E+04  0.18002631231E+04 0.  0.
        1    1    3    3  502    0 -0.55153698343E+03  0.49893978612E+03 -0.43070202670E+03  0.85944062628E+03  0.50400001928E-02 0.  1.
       -1    1    3    3    0  502  0.55153698343E+03 -0.49893978612E+03  0.58723025773E+03  0.94761454710E+03  0.50400001928E-02 0. -1.
</event>
<event>
 5   0  0.1036381E-05  0.1800152E+04  0.7818609E-02  0.8706218E-01
        2   -1    0    0  501    0  0.00000000000E+00  0.00000000000E+00  0.11601887358E+04  0.11601887358E+04  0.25500000920E-02 0. -1.
       -2   -1    0    0    0  501  0.00000000000E+00  0.00000000000E+00 -0.69828055466E+03  0.69828055466E+03  0.25500000920E-02 0.  1.
    10030    2    1    2    0    0  0.00000000000E+00  0.00000000000E+00  0.46190818119E+03  0.18584692905E+04  0.18001524757E+04 0.  0.
        4    1    3    3  502    0  0.61359824364E+03 -0.52650059486E+03  0.63927915251E+03  0.10307206841E+04  0.12699999809E+01 0. -1.
       -4    1    3    3    0  502 -0.61359824364E+03  0.52650059486E+03 -0.17737097132E+03  0.82774860637E+03  0.12699999809E+01 0.  1.
</event>
<event>
 5   0  0.9589963E-06  0.1798493E+04  0.7818609E-02  0.8707101E-01
        2   -1    0    0  501    0  0.00000000000E+00  0.00000000000E+00  0.23465127320E+04  0.23465127320E+04  0.25500000920E-02 0. -1.
       -2   -1    0    0    0  501  0.00000000000E+00  0.00000000000E+00 -0.34461529615E+03  0.34461529616E+03  0.25500000920E-02 0.  1.
    10030    2    1    2    0    0  0.00000000000E+00  0.00000000000E+00  0.20018974358E+04  0.26911280281E+04  0.17984929025E+04 0.  0.
        2    1    3    3  502    0  0.14656207868E+03 -0.81110990424E+03  0.15389275651E+04  0.17457599406E+04  0.25500000920E-02 0. -1.
       -2    1    3    3    0  502 -0.14656207868E+03  0.81110990424E+03  0.46296987070E+03  0.94536808750E+03  0.25500000920E-02 0.  1.
</event>
<event>
 5   0  0.9589963E-06  0.1800198E+04  0.7818609E-02  0.8706194E-01
       -2   -1    0    0    0  501  0.00000000000E+00  0.00000000000E+00  0.47926988834E+03  0.47926988835E+03  0.25500000920E-02 0.  1.
        2   -1    0    0  501    0  0.00000000000E+00  0.00000000000E+00 -0.16904423081E+04  0.16904423081E+04  0.25500000920E-02 0. -1.
    10030    2    1    2    0    0  0.00000000000E+00  0.00000000000E+00 -0.12111724198E+04  0.21697121965E+04  0.18001978739E+04 0.  0.
        2    1    3    3  502    0  0.66980624625E+03  0.31845643080E+03 -0.12202978286E+04  0.14279991934E+04  0.25500000920E-02 0. -1.
       -2    1    3    3    0  502 -0.66980624625E+03 -0.31845643080E+03  0.91254088203E+01  0.74171300307E+03  0.25500000920E-02 0.  1.
</event>
<event>
 5   0  0.9999162E-06  0.1800581E+04  0.7818609E-02  0.8705991E-01
        2   -1    0    0  501    0  0.00000000000E+00  0.00000000000E+00  0.57566709769E+03  0.57566709769E+03  0.25500000920E-02 0. -1.
       -2   -1    0    0    0  501  0.00000000000E+00  0.00000000000E+00 -0.14079709503E+04  0.14079709503E+04  0.25500000920E-02 0.  1.
    10030    2    1    2    0    0  0.00000000000E+00  0.00000000000E+00 -0.83230385260E+03  0.19836380480E+04  0.18005805182E+04 0.  0.
        1    1    3    3  502    0  0.49157776224E+03 -0.75406350278E+03 -0.43398694020E+03  0.99930232005E+03  0.50400001928E-02 0.  1.
       -1    1    3    3    0  502 -0.49157776224E+03  0.75406350278E+03 -0.39831691240E+03  0.98433572794E+03  0.50400001928E-02 0. -1.
</event>
<event>
 5   0  0.1000316E-05  0.1800105E+04  0.7818609E-02  0.8706244E-01
       -2   -1    0    0    0  501  0.00000000000E+00  0.00000000000E+00  0.85543136904E+03  0.85543136905E+03  0.25500000920E-02 0. -1.
        2   -1    0    0  501    0  0.00000000000E+00  0.00000000000E+00 -0.94700090223E+03  0.94700090224E+03  0.25500000920E-02 0.  1.
    10030    2    1    2    0    0  0.00000000000E+00  0.00000000000E+00 -0.91569533193E+02  0.18024322713E+04  0.18001047506E+04 0.  0.
        5    1    3    3  502    0 -0.77043481501E+03 -0.58816758663E+01  0.42007780332E+03  0.87754877308E+03  0.46999998093E+01 0. -1.
       -5    1    3    3    0  502  0.77043481501E+03  0.58816758663E+01 -0.51164733652E+03  0.92488349820E+03  0.46999998093E+01 0.  1.
</event>
<event>
 5   0  0.4953155E-06  0.1800486E+04  0.7818609E-02  0.8706041E-01
        1   -1    0    0  501    0  0.00000000000E+00  0.00000000000E+00  0.19389980315E+04  0.19389980315E+04  0.50400001928E-02 0. -1.
       -1   -1    0    0    0  501  0.00000000000E+00  0.00000000000E+00 -0.41796699895E+03  0.41796699898E+03  0.50400001928E-02 0.  1.
    10030    2    1    2    0    0  0.00000000000E+00  0.00000000000E+00  0.15210310326E+04  0.23569650305E+04  0.18004856992E+04 0.  0.
        2    1    3    3  502    0  0.58210183756E+01  0.13322750269E+03 -0.40496553883E+03  0.42635729075E+03  0.25500000920E-02 0.  1.
       -2    1    3    3    0  502 -0.58210183756E+01 -0.13322750269E+03  0.19259965714E+04  0.19306077398E+04  0.25500000920E-02 0. -1.
</event>
<event>
 5   0  0.4987456E-06  0.1799806E+04  0.7818609E-02  0.8706403E-01
        1   -1    0    0  501    0  0.00000000000E+00  0.00000000000E+00  0.13850691828E+04  0.13850691828E+04  0.50400001928E-02 0.  1.
       -1   -1    0    0    0  501  0.00000000000E+00  0.00000000000E+00 -0.58468221603E+03  0.58468221605E+03  0.50400001928E-02 0. -1.
    10030    2    1    2    0    0  0.00000000000E+00  0.00000000000E+00  0.80038696675E+03  0.19697513988E+04  0.17998058997E+04 0.  0.
        3    1    3    3  502    0  0.10652886397E+03  0.28936855108E+03  0.13254467486E+04  0.13608422579E+04  0.10100000352E+00 0.  1.
       -3    1    3    3    0  502 -0.10652886397E+03 -0.28936855108E+03 -0.52505978186E+03  0.60890914096E+03  0.10100000352E+00 0. -1.
</event>
<event>
 5   0  0.4994123E-06  0.1799857E+04  0.7818609E-02  0.8706375E-01
        1   -1    0    0  501    0  0.00000000000E+00  0.00000000000E+00  0.10633676583E+04  0.10633676584E+04  0.50400001928E-02 0. -1.
       -1   -1    0    0    0  501  0.00000000000E+00  0.00000000000E+00 -0.76161017336E+03  0.76161017338E+03  0.50400001928E-02 0.  1.
    10030    2    1    2    0    0  0.00000000000E+00  0.00000000000E+00  0.30175748498E+03  0.18249778317E+04  0.17998573573E+04 0.  0.
        1    1    3    3  502    0  0.11661511369E+03  0.52539949116E+03  0.88221369923E+03  0.10334141092E+04  0.50400001928E-02 0. -1.
       -1    1    3    3    0  502 -0.11661511369E+03 -0.52539949116E+03 -0.58045621426E+03  0.79156372248E+03  0.50400001928E-02 0.  1.
</event>
<event>
 5   0  0.4953155E-06  0.1801030E+04  0.7818609E-02  0.8705752E-01
       -1   -1    0    0    0  501  0.00000000000E+00  0.00000000000E+00  0.64957246773E+03  0.64957246775E+03  0.50400001928E-02 0. -1.
        1   -1    0    0  501    0  0.00000000000E+00  0.00000000000E+00 -0.12484019957E+04  0.12484019957E+04  0.50400001928E-02 0.  1.
    10030    2    1    2    0    0  0.00000000000E+00  0.00000000000E+00 -0.59882952794E+03  0.18979744634E+04  0.18010303330E+04 0.  0.
        2    1    3    3  502    0 -0.68652631909E+03 -0.45937220997E+03  0.78476431736E+02  0.82975885921E+03  0.25500000920E-02 0. -1.
       -2    1    3    3    0  502  0.68652631909E+03  0.45937220997E+03 -0.67730595967E+03  0.10682156042E+04  0.25500000920E-02 0.  1.
</event>
<event>
 5   0  0.1035018E-05  0.1800196E+04  0.7818609E-02  0.8706195E-01
       -2   -1    0    0    0  501  0.00000000000E+00  0.00000000000E+00  0.72201016112E+03  0.72201016113E+03  0.25500000920E-02 0. -1.
        2   -1    0    0  501    0  0.00000000000E+00  0.00000000000E+00 -0.11221127468E+04  0.11221127468E+04  0.25500000920E-02 0.  1.
    10030    2    1    2    0    0  0.00000000000E+00  0.00000000000E+00 -0.40010258567E+03  0.18441229079E+04  0.18001964394E+04 0.  0.
        3    1    3    3  502    0 -0.24993849114E+00  0.84602827657E+03 -0.51481569090E+03  0.99035302444E+03  0.10100000352E+00 0.  1.
       -3    1    3    3    0  502  0.24993849114E+00 -0.84602827657E+03  0.11471310523E+03  0.85376988348E+03  0.10100000352E+00 0. -1.
</event>
<event>
 5   0  0.4953155E-06  0.1799631E+04  0.7818609E-02  0.8706496E-01
       -1   -1    0    0    0  501  0.00000000000E+00  0.00000000000E+00  0.73140742779E+03  0.73140742781E+03  0.50400001928E-02 0. -1.
        1   -1    0    0  501    0  0.00000000000E+00  0.00000000000E+00 -0.11069999516E+04  0.11069999516E+04  0.50400001928E-02 0.  1.
    10030    2    1    2    0    0  0.00000000000E+00  0.00000000000E+00 -0.37559252381E+03  0.18384073794E+04  0.17996310591E+04 0.  0.
        2    1    3    3  502    0  0.54443491876E+03  0.57571550801E+03 -0.62337579897E+03  0.10081939861E+04  0.25500000920E-02 0.  1.
       -2    1    3    3    0  502 -0.54443491876E+03 -0.57571550801E+03  0.24778327516E+03  0.83021339328E+03  0.25500000920E-02 0. -1.
</event>
<event>
 5   0  0.1000316E-05  0.1800159E+04  0.7818609E-02  0.8706215E-01
       -2   -1    0    0    0  501  0.00000000000E+00  0.00000000000E+00  0.52488035763E+03  0.52488035764E+03  0.25500000920E-02 0. -1.
        2   -1    0    0  501    0  0.00000000000E+00  0.00000000000E+00 -0.15434815094E+04  0.15434815094E+04  0.25500000920E-02 0.  1.
    10030    2    1    2    0    0  0.00000000000E+00  0.00000000000E+00 -0.10186011518E+04  0.20683618670E+04  0.18001590226E+04 0.  0.
        5    1    3    3  502    0  0.26046708966E+03 -0.77383451918E+03 -0.94448980783E+03  0.12484975190E+04  0.46999998093E+01 0.  1.
       -5    1    3    3    0  502 -0.26046708966E+03  0.77383451918E+03 -0.74111343930E+02  0.81986434802E+03  0.46999998093E+01 0. -1.
</event>
<event>
 5   0  0.9999162E-06  0.1800144E+04  0.7818609E-02  0.8706223E-01
       -2   -1    0    0    0  501  0.00000000000E+00  0.00000000000E+00  0.60083629699E+03  0.60083629700E+03  0.25500000920E-02 0.  1.
        2   -1    0    0  501    0  0.00000000000E+00  0.00000000000E+00 -0.13483369521E+04  0.13483369521E+04  0.25500000920E-02 0. -1.
    10030    2    1    2    0    0  0.00000000000E+00  0.00000000000E+00 -0.74750065509E+03  0.19491732491E+04  0.18001441958E+04 0.  0.
        1    1    3    3  502    0 -0.34676580649E+03 -0.75493962898E+03  0.12591227435E+01  0.83077190213E+03  0.50400001928E-02 0.  1.
       -1    1    3    3    0  502  0.34676580649E+03  0.75493962898E+03 -0.74875977783E+03  0.11184013470E+04  0.50400001928E-02 0. -1.
</event>
<event>
 5   0  0.4981384E-06  0.1799760E+04  0.7818609E-02  0.8706427E-01
        1   -1    0    0  501    0  0.00000000000E+00  0.00000000000E+00  0.15594983224E+04  0.15594983224E+04  0.50400001928E-02 0. -1.
       -1   -1    0    0    0  501  0.00000000000E+00  0.00000000000E+00 -0.51925901983E+03  0.51925901985E+03  0.50400001928E-02 0.  1.
    10030    2    1    2    0    0  0.00000000000E+00  0.00000000000E+00  0.10402393026E+04  0.20787573423E+04  0.17997595065E+04 0.  0.
        5    1    3    3  502    0  0.41123539069E+03 -0.12147014951E+03  0.14338940752E+04  0.14966441971E+04  0.46999998093E+01 0. -1.
       -5    1    3    3    0  502 -0.41123539069E+03  0.12147014951E+03 -0.39365477263E+03  0.58211314518E+03  0.46999998093E+01 0.  1.
</event>
<event>
 5   0  0.4987456E-06  0.1800842E+04  0.7818609E-02  0.8705852E-01
       -1   -1    0    0    0  501  0.00000000000E+00  0.00000000000E+00  0.27263804355E+04  0.27263804355E+04  0.50400001928E-02 0.  1.
        1   -1    0    0  501    0  0.00000000000E+00  0.00000000000E+00 -0.29737520051E+03  0.29737520055E+03  0.50400001928E-02 0. -1.
    10030    2    1    2    0    0  0.00000000000E+00  0.00000000000E+00  0.24290052350E+04  0.30237556361E+04  0.18008419461E+04 0.  0.
        3    1    3    3  502    0 -0.22428923481E+03 -0.47393896424E+03 -0.14594707565E+02  0.52453485906E+03  0.10100000352E+00 0. -1.
       -3    1    3    3    0  502  0.22428923481E+03  0.47393896424E+03  0.24435999426E+04  0.24992207770E+04  0.10100000352E+00 0.  1.
</event>
<event>
 5   0  0.4994123E-06  0.1795335E+04  0.7818609E-02  0.8708784E-01
       -1   -1    0    0    0  501  0.00000000000E+00  0.00000000000E+00  0.57744986509E+03  0.57744986511E+03  0.50400001928E-02 0. -1.
        1   -1    0    0  501    0  0.00000000000E+00  0.00000000000E+00 -0.13954580370E+04  0.13954580370E+04  0.50400001928E-02 0.  1.
    10030    2    1    2    0    0  0.00000000000E+00  0.00000000000E+00 -0.81800817187E+03  0.19729079021E+04  0.17953351277E+04 0.  0.
        1    1    3    3  502    0 -0.25819721313E+03  0.11684739800E+03 -0.13450052364E+04  0.13745392687E+04  0.50400001928E-02 0.  1.
       -1    1    3    3    0  502  0.25819721313E+03 -0.11684739800E+03  0.52699706455E+03  0.59836863334E+03  0.50400001928E-02 0. -1.
</event>
<event>
 5   0  0.4981384E-06  0.1801260E+04  0.7818609E-02  0.8705630E-01
        1   -1    0    0  501    0  0.00000000000E+00  0.00000000000E+00  0.62711379825E+03  0.62711379827E+03  0.50400001928E-02 0. -1.
       -1   -1    0    0    0  501  0.00000000000E+00  0.00000000000E+00 -0.12934401338E+04  0.12934401338E+04  0.50400001928E-02 0.  1.
    10030    2    1    2    0    0  0.00000000000E+00  0.00000000000E+00 -0.66632633554E+03  0.19205539321E+04  0.18012597316E+04 0.  0.
        5    1    3    3  502    0  0.75028230056E+03  0.35285141300E+03 -0.70814278095E+03  0.10903742194E+04  0.46999998093E+01 0.  1.
       -5    1    3    3    0  502 -0.75028230056E+03 -0.35285141300E+03  0.41816445403E+02  0.83017971265E+03  0.46999998093E+01 0. -1.
</event>
<event>
 5   0  0.9589963E-06  0.1801115E+04  0.7818609E-02  0.8705707E-01
       -2   -1    0    0    0  501  0.00000000000E+00  0.00000000000E+00  0.70150023565E+03  0.70150023565E+03  0.25500000920E-02 0.  1.
        2   -1    0    0  501    0  0.00000000000E+00  0.00000000000E+00 -0.11560989489E+04  0.11560989489E+04  0.25500000920E-02 0. -1.
    10030    2    1    2    0    0  0.00000000000E+00  0.00000000000E+00 -0.45459871323E+03  0.18575991845E+04  0.18011148604E+04 0.  0.
        2    1    3    3  502    0 -0.20757248350E+03  0.79029739875E+03  0.16318664354E+03  0.83323837826E+03  0.25500000920E-02 0. -1.
       -2    1    3    3    0  502  0.20757248350E+03 -0.79029739875E+03 -0.61778535677E+03  0.10243608063E+04  0.25500000920E-02 0.  1.
</event>
<event>
 5   0  0.4953155E-06  0.1799909E+04  0.7818609E-02  0.8706348E-01
        1   -1    0    0  501    0  0.00000000000E+00  0.00000000000E+00  0.74215403997E+03  0.74215403998E+03  0.50400001928E-02 0.  1.
       -1   -1    0    0    0  501  0.00000000000E+00  0.00000000000E+00 -0.10913068750E+04  0.10913068750E+04  0.50400001928E-02 0. -1.
    10030    2    1    2    0    0  0.00000000000E+00  0.00000000000E+00 -0.34915283504E+03  0.18334609150E+04  0.17999086712E+04 0.  0.
        2    1    3    3  502    0 -0.28262938798E+03  0.85420876318E+03 -0.15509334937E+03  0.91302022380E+03  0.25500000920E-02 0.  1.
       -2    1    3    3    0  502  0.28262938798E+03 -0.85420876318E+03 -0.19405948567E+03  0.92044069120E+03  0.25500000920E-02 0. -1.
</event>
<event>
 5   0  0.1000316E-05  0.1799904E+04  0.7818609E-02  0.8706351E-01
       -2   -1    0    0    0  501  0.00000000000E+00  0.00000000000E+00  0.48091939668E+03  0.48091939669E+03  0.25500000920E-02 0.  1.
        2   -1    0    0  501    0  0.00000000000E+00  0.00000000000E+00 -0.16840939185E+04  0.16840939185E+04  0.25500000920E-02 0. -1.
    10030    2    1    2    0    0  0.00000000000E+00  0.00000000000E+00 -0.12031745218E+04  0.21650133152E+04  0.17999038099E+04 0.  0.
        5    1    3    3  502    0  0.41012207094E+03  0.43378291506E+03  0.20846161982E+03  0.63233382592E+03  0.46999998093E+01 0.  1.
       -5    1    3    3    0  502 -0.41012207094E+03 -0.43378291506E+03 -0.14116361417E+04  0.15326794893E+04  0.46999998093E+01 0. -1.
</event>
<event>
 5   0  0.4994123E-06  0.1799879E+04  0.7818609E-02  0.8706364E-01
        1   -1    0    0  501    0  0.00000000000E+00  0.00000000000E+00  0.23528920748E+04  0.23528920749E+04  0.50400001928E-02 0.  1.
       -1   -1    0    0    0  501  0.00000000000E+00  0.00000000000E+00 -0.34421099075E+03  0.34421099078E+03  0.50400001928E-02 0. -1.
    10030    2    1    2    0    0  0.00000000000E+00  0.00000000000E+00  0.20086810841E+04  0.26971030656E+04  0.17998792318E+04 0.  0.
        1    1    3    3  502    0  0.38701564621E+03 -0.73016241129E+03  0.15383020628E+04  0.17462220631E+04  0.50400001928E-02 0.  1.
       -1    1    3    3    0  502 -0.38701564621E+03  0.73016241129E+03  0.47037902134E+03  0.95088100255E+03  0.50400001928E-02 0. -1.
</event>
<event>
 5   0  0.1035018E-05  0.1800276E+04  0.7818609E-02  0.8706153E-01
       -2   -1    0    0    0  501  0.00000000000E+00  0.00000000000E+00  0.28815615485E+03  0.28815615487E+03  0.25500000920E-02 0.  1.
        2   -1    0    0  501    0  0.00000000000E+00  0.00000000000E+00 -0.28118373509E+04  0.28118373509E+04  0.25500000920E-02 0. -1.
    10030    2    1    2    0    0  0.00000000000E+00  0.00000000000E+00 -0.25236811960E+04  0.30999935057E+04  0.18002758001E+04 0.  0.
        3    1    3    3  502    0  0.51576532317E+02  0.86424729171E+03 -0.16859616205E+04  0.18952704598E+04  0.10100000352E+00 0.  1.
       -3    1    3    3    0  502 -0.51576532317E+02 -0.86424729171E+03 -0.83771957551E+03  0.12047230459E+04  0.10100000352E+00 0. -1.
</event>
<event>
 5   0  0.1000316E-05  0.1800792E+04  0.7818609E-02  0.8705878E-01
        2   -1    0    0  501    0  0.00000000000E+00  0.00000000000E+00  0.11092950945E+04  0.11092950945E+04  0.25500000920E-02 0.  1.
       -2   -1    0    0    0  501  0.00000000000E+00  0.00000000000E+00 -0.73083638103E+03  0.73083638104E+03  0.25500000920E-02 0. -1.
    10030    2    1    2    0    0  0.00000000000E+00  0.00000000000E+00  0.37845871347E+03  0.18401314755E+04  0.18007922838E+04 0.  0.
        5    1    3    3  502    0  0.50524296911E+03 -0.11349553058E+03  0.94189290919E+03  0.10748655896E+04  0.46999998093E+01 0.  1.
       -5    1    3    3    0  502 -0.50524296911E+03  0.11349553058E+03 -0.56343419572E+03  0.76526588596E+03  0.46999998093E+01 0. -1.
</event>
<event>
 5   0  0.1000316E-05  0.1791913E+04  0.7818609E-02  0.8710612E-01
        2   -1    0    0  501    0  0.00000000000E+00  0.00000000000E+00  0.12948408773E+04  0.12948408773E+04  0.25500000920E-02 0. -1.
       -2   -1    0    0    0  501  0.00000000000E+00  0.00000000000E+00 -0.61995109037E+03  0.61995109037E+03  0.25500000920E-02 0.  1.
    10030    2    1    2    0    0  0.00000000000E+00  0.00000000000E+00  0.67488978696E+03  0.19147919677E+04  0.17919129597E+04 0.  0.
        5    1    3    3  502    0  0.15724526261E+02 -0.62511879483E+03 -0.34818945238E+03  0.71573651096E+03  0.46999998093E+01 0.  1.
       -5    1    3    3    0  502 -0.15724526261E+02  0.62511879483E+03  0.10230792393E+04  0.11990554567E+04  0.46999998093E+01 0. -1.
</event>
<event>
 5   0  0.1035018E-05  0.1799999E+04  0.7818609E-02  0.8706300E-01
        2   -1    0    0  501    0  0.00000000000E+00  0.00000000000E+00  0.44905900606E+03  0.44905900607E+03  0.25500000920E-02 0.  1.
       -2   -1    0    0    0  501  0.00000000000E+00  0.00000000000E+00 -0.18037689684E+04  0.18037689684E+04  0.25500000920E-02 0. -1.
    10030    2    1    2    0    0  0.00000000000E+00  0.00000000000E+00 -0.13547099624E+04  0.22528279745E+04  0.17999985557E+04 0.  0.
        3    1    3    3  502    0 -0.88719501790E+03 -0.14927205862E+03 -0.64665846482E+03  0.11079550206E+04  0.10100000352E+00 0.  1.
       -3    1    3    3    0  502  0.88719501790E+03  0.14927205862E+03 -0.70805149754E+03  0.11448729539E+04  0.10100000352E+00 0. -1.
</event>
<event>
 5   0  0.4994123E-06  0.1800127E+04  0.7818609E-02  0.8706232E-01
        1   -1    0    0  501    0  0.00000000000E+00  0.00000000000E+00  0.13791832234E+04  0.13791832234E+04  0.50400001928E-02 0.  1.
       -1   -1    0    0    0  501  0.00000000000E+00  0.00000000000E+00 -0.58738705853E+03  0.58738705855E+03  0.50400001928E-02 0. -1.
    10030    2    1    2    0    0  0.00000000000E+00  0.00000000000E+00  0.79179616484E+03  0.19665702819E+04  0.18001270808E+04 0.  0.
        1    1    3    3  502    0  0.69084726770E+03 -0.26251172780E+03  0.95714290696E+03  0.12092579952E+04  0.50400001928E-02 0.  1.
       -1    1    3    3    0  502 -0.69084726770E+03  0.26251172780E+03 -0.16534674212E+03  0.75731228676E+03  0.50400001928E-02 0. -1.
</event>
<event>
 5   0  0.4983159E-06  0.1800634E+04  0.7818609E-02  0.8705963E-01
       -1   -1    0    0    0  501  0.00000000000E+00  0.00000000000E+00  0.14009796750E+04  0.14009796750E+04  0.50400001928E-02 0.  1.
        1   -1    0    0  501    0  0.00000000000E+00  0.00000000000E+00 -0.57857403462E+03  0.57857403465E+03  0.50400001928E-02 0. -1.
    10030    2    1    2    0    0  0.00000000000E+00  0.00000000000E+00  0.82240564039E+03  0.19795537097E+04  0.18006337362E+04 0.  0.
        4    1    3    3  502    0  0.46007821610E+03 -0.65065914399E+03  0.87180863255E+03  0.11811355516E+04  0.12699999809E+01 0.  1.
       -4    1    3    3    0  502 -0.46007821610E+03  0.65065914399E+03 -0.49402992165E+02  0.79841815806E+03  0.12699999809E+01 0. -1.
</event>
<event>
 5   0  0.4981384E-06  0.1799655E+04  0.7818609E-02  0.8706483E-01
       -1   -1    0    0    0  501  0.00000000000E+00  0.00000000000E+00  0.39020098778E+03  0.39020098781E+03  0.50400001928E-02 0. -1.
        1   -1    0    0  501    0  0.00000000000E+00  0.00000000000E+00 -0.20750579702E+04  0.20750579702E+04  0.50400001928E-02 0.  1.
    10030    2    1    2    0    0  0.00000000000E+00  0.00000000000E+00 -0.16848569824E+04  0.24652589581E+04  0.17996551556E+04 0.  0.
        5    1    3    3  502    0  0.21862119771E+03 -0.53043394060E+03  0.10713816013E+03  0.58365749269E+03  0.46999998093E+01 0. -1.
       -5    1    3    3    0  502 -0.21862119771E+03  0.53043394060E+03 -0.17919951426E+04  0.18816014654E+04  0.46999998093E+01 0.  1.
</event>
<event>
 5   0  0.9589963E-06  0.1787202E+04  0.7818609E-02  0.8713135E-01
        2   -1    0    0  501    0  0.00000000000E+00  0.00000000000E+00  0.10141431861E+04  0.10141431861E+04  0.25500000920E-02 0. -1.
       -2   -1    0    0    0  501  0.00000000000E+00  0.00000000000E+00 -0.78738624361E+03  0.78738624362E+03  0.25500000920E-02 0.  1.
    10030    2    1    2    0    0  0.00000000000E+00  0.00000000000E+00  0.22675694245E+03  0.18015294297E+04  0.17872016045E+04 0.  0.
        2    1    3    3  502    0  0.79244509975E+03  0.38660489167E+03  0.25976604213E+03  0.91919039107E+03  0.25500000920E-02 0. -1.
       -2    1    3    3    0  502 -0.79244509975E+03 -0.38660489167E+03 -0.33009099682E+02  0.88233903861E+03  0.25500000920E-02 0.  1.
</event>
<event>
 5   0  0.4987456E-06  0.1809930E+04  0.7818609E-02  0.8701036E-01
       -1   -1    0    0    0  501  0.00000000000E+00  0.00000000000E+00  0.50258404437E+03  0.50258404440E+03  0.50400001928E-02 0.  1.
        1   -1    0    0  501    0  0.00000000000E+00  0.00000000000E+00 -0.16295026388E+04  0.16295026388E+04  0.50400001928E-02 0. -1.
    10030    2    1    2    0    0  0.00000000000E+00  0.00000000000E+00 -0.11269185944E+04  0.21320866832E+04  0.18099304147E+04 0.  0.
        3    1    3    3  502    0 -0.77125861066E+03 -0.31303751664E+03 -0.98182072361E+03  0.12871690933E+04  0.10100000352E+00 0. -1.
       -3    1    3    3    0  502  0.77125861066E+03  0.31303751664E+03 -0.14509787080E+03  0.84491758986E+03  0.10100000352E+00 0.  1.
</event>
<event>
 5   0  0.4983159E-06  0.1799681E+04  0.7818609E-02  0.8706469E-01
        1   -1    0    0  501    0  0.00000000000E+00  0.00000000000E+00  0.13817761932E+04  0.13817761932E+04  0.50400001928E-02 0. -1.
       -1   -1    0    0    0  501  0.00000000000E+00  0.00000000000E+00 -0.58599409341E+03  0.58599409343E+03  0.50400001928E-02 0.  1.
    10030    2    1    2    0    0  0.00000000000E+00  0.00000000000E+00  0.79578209982E+03  0.19677702867E+04  0.17996807358E+04 0.  0.
        4    1    3    3  502    0  0.76205867756E+03 -0.12171365887E+03  0.90389229962E+03  0.11885161105E+04  0.12699999809E+01 0. -1.
       -4    1    3    3    0  502 -0.76205867756E+03  0.12171365887E+03 -0.10811019980E+03  0.77925417612E+03  0.12699999809E+01 0.  1.
</event>
<event>
 5   0  0.1036381E-05  0.1799750E+04  0.7818609E-02  0.8706432E-01
        2   -1    0    0  501    0  0.00000000000E+00  0.00000000000E+00  0.13760997412E+04  0.13760997412E+04  0.25500000920E-02 0.  1.
       -2   -1    0    0    0  501  0.00000000000E+00  0.00000000000E+00 -0.58845693698E+03  0.58845693699E+03  0.25500000920E-02 0. -1.
    10030    2    1    2    0    0  0.00000000000E+00  0.00000000000E+00  0.78764280423E+03  0.19645566782E+04  0.17997504702E+04 0.  0.
        4    1    3    3  502    0  0.10043519236E+03 -0.43163458152E+03  0.12487235940E+04  0.13250312702E+04  0.12699999809E+01 0.  1.
       -4    1    3    3    0  502 -0.10043519236E+03  0.43163458152E+03 -0.46108078981E+03  0.63952540799E+03  0.12699999809E+01 0. -1.
</event>
<event>
 5   0  0.4983159E-06  0.1799972E+04  0.7818609E-02  0.8706315E-01
        1   -1    0    0  501    0  0.00000000000E+00  0.00000000000E+00  0.15616240232E+04  0.15616240233E+04  0.50400001928E-02 0.  1.
       -1   -1    0    0    0  501  0.00000000000E+00  0.00000000000E+00 -0.51867445352E+03  0.51867445354E+03  0.50400001928E-02 0. -1.
    10030    2    1    2    0    0  0.00000000000E+00  0.00000000000E+00  0.10429495697E+04  0.20802984768E+04  0.17999716519E+04 0.  0.
        4    1    3    3  502    0 -0.29102816271E+03 -0.29407954339E+03  0.14451939610E+04  0.15032522633E+04  0.12699999809E+01 0.  1.
       -4    1    3    3    0  502  0.29102816271E+03  0.29407954339E+03 -0.40224439125E+03  0.57704621351E+03  0.12699999809E+01 0. -1.
</event>
<event>
 5   0  0.4983159E-06  0.1798500E+04  0.7818609E-02  0.8707098E-01
       -1   -1    0    0    0  501  0.00000000000E+00  0.00000000000E+00  0.85062975647E+03  0.85062975648E+03  0.50400001928E-02 0. -1.
        1   -1    0    0  501    0  0.00000000000E+00  0.00000000000E+00 -0.95064894071E+03  0.95064894072E+03  0.50400001928E-02 0.  1.
    10030    2    1    2    0    0  0.00000000000E+00  0.00000000000E+00 -0.10001918424E+03  0.18012786972E+04  0.17984996825E+04 0.  0.
        4    1    3    3  502    0  0.37259068141E+03 -0.18732172865E+03 -0.84794348722E+03  0.94494603884E+03  0.12699999809E+01 0.  1.
       -4    1    3    3    0  502 -0.37259068141E+03  0.18732172865E+03  0.74792430298E+03  0.85633265836E+03  0.12699999809E+01 0. -1.
</event>
<event>
 5   0  0.4994123E-06  0.1800190E+04  0.7818609E-02  0.8706198E-01
       -1   -1    0    0    0  501  0.00000000000E+00  0.00000000000E+00  0.87624056451E+03  0.87624056452E+03  0.50400001928E-02 0. -1.
        1   -1    0    0  501    0  0.00000000000E+00  0.00000000000E+00 -0.92459888416E+03  0.92459888418E+03  0.50400001928E-02 0.  1.
    10030    2    1    2    0    0  0.00000000000E+00  0.00000000000E+00 -0.48358319653E+02  0.18008394487E+04  0.18001900436E+04 0.  0.
        1    1    3    3  502    0 -0.51206584544E+03 -0.18858978719E+02 -0.76444878396E+03  0.92029833992E+03  0.50400001928E-02 0.  1.
       -1    1    3    3    0  502  0.51206584544E+03  0.18858978719E+02  0.71609046431E+03  0.88054110877E+03  0.50400001928E-02 0. -1.
</event>
<event>
 5   0  0.9999162E-06  0.1799176E+04  0.7818609E-02  0.8706738E-01
       -2   -1    0    0    0  501  0.00000000000E+00  0.00000000000E+00  0.14838555551E+04  0.14838555551E+04  0.25500000920E-02 0.  1.
        2   -1    0    0  501    0  0.00000000000E+00  0.00000000000E+00 -0.54537530288E+03  0.54537530289E+03  0.25500000920E-02 0. -1.
    10030    2    1    2    0    0  0.00000000000E+00  0.00000000000E+00  0.93848025224E+03  0.20292308580E+04  0.17991755588E+04 0.  0.
        1    1    3    3  502    0 -0.69017725718E+03  0.37405674874E+03  0.96472571616E+03  0.12437679868E+04  0.50400001928E-02 0.  1.
       -1    1    3    3    0  502  0.69017725718E+03 -0.37405674874E+03 -0.26245463922E+02  0.78546287118E+03  0.50400001928E-02 0. -1.
</event>
<event>
 5   0  0.4987456E-06  0.1799037E+04  0.7818609E-02  0.8706812E-01
       -1   -1    0    0    0  501  0.00000000000E+00  0.00000000000E+00  0.67660176884E+03  0.67660176886E+03  0.50400001928E-02 0.  1.
        1   -1    0    0  501    0  0.00000000000E+00  0.00000000000E+00 -0.11958788823E+04  0.11958788824E+04  0.50400001928E-02 0. -1.
    10030    2    1    2    0    0  0.00000000000E+00  0.00000000000E+00 -0.51927711350E+03  0.18724806512E+04  0.17990372616E+04 0.  0.
        3    1    3    3  502    0 -0.19930923980E+03 -0.14396879870E+02  0.65320734716E+03  0.68308951962E+03  0.10100000352E+00 0.  1.
       -3    1    3    3    0  502  0.19930923980E+03  0.14396879870E+02 -0.11724844607E+04  0.11893911316E+04  0.10100000352E+00 0. -1.
</event>
<event>
 5   0  0.9589963E-06  0.1800449E+04  0.7818609E-02  0.8706061E-01
        2   -1    0    0  501    0  0.00000000000E+00  0.00000000000E+00  0.55756290864E+03  0.55756290865E+03  0.25500000920E-02 0. -1.
       -2   -1    0    0    0  501  0.00000000000E+00  0.00000000000E+00 -0.14534755470E+04  0.14534755470E+04  0.25500000920E-02 0.  1.
    10030    2    1    2    0    0  0.00000000000E+00  0.00000000000E+00 -0.89591263839E+03  0.20110384557E+04  0.18004488925E+04 0.  0.
        2    1    3    3  502    0  0.86831244550E+03  0.19388786274E+03 -0.60129022330E+03  0.10738291014E+04  0.25500000920E-02 0. -1.
       -2    1    3    3    0  502 -0.86831244550E+03 -0.19388786274E+03 -0.29462241510E+03  0.93720935431E+03  0.25500000920E-02 0.  1.
</event>
<event>
 5   0  0.1035018E-05  0.1800056E+04  0.7818609E-02  0.8706269E-01
        2   -1    0    0  501    0  0.00000000000E+00  0.00000000000E+00  0.20861587160E+04  0.20861587160E+04  0.25500000920E-02 0. -1.
       -2   -1    0    0    0  501  0.00000000000E+00  0.00000000000E+00 -0.38829777165E+03  0.38829777166E+03  0.25500000920E-02 0.  1.
    10030    2    1    2    0    0  0.00000000000E+00  0.00000000000E+00  0.16978609444E+04  0.24744564877E+04  0.18000564222E+04 0.  0.
        3    1    3    3  502    0  0.82717417050E+03  0.34881095707E+03  0.93764182989E+03  0.12980979946E+04  0.10100000352E+00 0.  1.
       -3    1    3    3    0  502 -0.82717417050E+03 -0.34881095707E+03  0.76021911449E+03  0.11763584931E+04  0.10100000352E+00 0. -1.
</event>
<event>
 5   0  0.3626125E-06  0.1801032E+04  0.7818609E-02  0.8705751E-01
       -3   -1    0    0    0  501  0.00000000000E+00  0.00000000000E+00  0.80237005531E+03  0.80237006167E+03  0.10100000352E+00 0.  1.
        3   -1    0    0  501    0  0.00000000000E+00  0.00000000000E+00 -0.10106672154E+04  0.10106672204E+04  0.10100000352E+00 0. -1.
    10030    2    1    2    0    0  0.00000000000E+00  0.00000000000E+00 -0.20829716006E+03  0.18130372821E+04  0.18010320595E+04 0.  0.
        5    1    3    3  502    0 -0.25027823415E+03 -0.80320090716E+03  0.21914026805E+03  0.86937646554E+03  0.46999998093E+01 0.  1.
       -5    1    3    3    0  502  0.25027823415E+03  0.80320090716E+03 -0.42743742810E+03  0.94366081655E+03  0.46999998093E+01 0. -1.
</event>
<event>
 5   0  0.4981384E-06  0.1800424E+04  0.7818609E-02  0.8706074E-01
       -1   -1    0    0    0  501  0.00000000000E+00  0.00000000000E+00  0.70172865686E+03  0.70172865688E+03  0.50400001928E-02 0.  1.
        1   -1    0    0  501    0  0.00000000000E+00  0.00000000000E+00 -0.11548361098E+04  0.11548361098E+04  0.50400001928E-02 0. -1.
    10030    2    1    2    0    0  0.00000000000E+00  0.00000000000E+00 -0.45310745293E+03  0.18565647667E+04  0.18004239415E+04 0.  0.
        5    1    3    3  502    0  0.10753248376E+02  0.35108867530E+03 -0.10812416452E+04  0.11368748725E+04  0.46999998093E+01 0. -1.
       -5    1    3    3    0  502 -0.10753248376E+02 -0.35108867530E+03  0.62813419230E+03  0.71968989420E+03  0.46999998093E+01 0.  1.
</event>
<event>
 5   0  0.1036381E-05  0.1800347E+04  0.7818609E-02  0.8706115E-01
        2   -1    0    0  501    0  0.00000000000E+00  0.00000000000E+00  0.15480854882E+04  0.15480854882E+04  0.25500000920E-02 0.  1.
       -2   -1    0    0    0  501  0.00000000000E+00  0.00000000000E+00 -0.52342875994E+03  0.52342875995E+03  0.25500000920E-02 0. -1.
    10030    2    1    2    0    0  0.00000000000E+00  0.00000000000E+00  0.10246567283E+04  0.20715142482E+04  0.18003471525E+04 0.  0.
        4    1    3    3  502    0 -0.67866651747E+03  0.31214825372E+03 -0.65605726842E+02  0.74988699051E+03  0.12699999809E+01 0. -1.
       -4    1    3    3    0  502  0.67866651747E+03 -0.31214825372E+03  0.10902624551E+04  0.13216272576E+04  0.12699999809E+01 0.  1.
</event>
<event>
 5   0  0.1036381E-05  0.1799926E+04  0.7818609E-02  0.8706339E-01
        2   -1    0    0  501    0  0.00000000000E+00  0.00000000000E+00  0.62844005947E+03  0.62844005948E+03  0.25500000920E-02 0.  1.
       -2   -1    0    0    0  501  0.00000000000E+00  0.00000000000E+00 -0.12887998243E+04  0.12887998243E+04  0.25500000920E-02 0. -1.
    10030    2    1    2    0    0  0.00000000000E+00  0.00000000000E+00 -0.66035976484E+03  0.19172398838E+04  0.17999260410E+04 0.  0.
        4    1    3    3  502    0  0.75102457758E+03  0.49457385626E+03 -0.29191333378E+03  0.94543969811E+03  0.12699999809E+01 0.  1.
       -4    1    3    3    0  502 -0.75102457758E+03 -0.49457385626E+03 -0.36844643105E+03  0.97180018568E+03  0.12699999809E+01 0. -1.
</event>
<event>
 5   0  0.9589963E-06  0.1797131E+04  0.7818609E-02  0.8707827E-01
        2   -1    0    0  501    0  0.00000000000E+00  0.00000000000E+00  0.11639766988E+04  0.11639766988E+04  0.25500000920E-02 0. -1.
       -2   -1    0    0    0  501  0.00000000000E+00  0.00000000000E+00 -0.69367340086E+03  0.69367340086E+03  0.25500000920E-02 0.  1.
    10030    2    1    2    0    0  0.00000000000E+00  0.00000000000E+00  0.47030329792E+03  0.18576500996E+04  0.17971306855E+04 0.  0.
        2    1    3    3  502    0 -0.62810247091E+03 -0.35348004255E+03  0.78984051506E+03  0.10692562339E+04  0.25500000920E-02 0. -1.
       -2    1    3    3    0  502  0.62810247091E+03  0.35348004255E+03 -0.31953721714E+03  0.78839386577E+03  0.25500000920E-02 0.  1.
</event>
<event>
 5   0  0.4981384E-06  0.1801083E+04  0.7818609E-02  0.8705724E-01
        1   -1    0    0  501    0  0.00000000000E+00  0.00000000000E+00  0.90790627494E+03  0.90790627495E+03  0.50400001928E-02 0. -1.
       -1   -1    0    0    0  501  0.00000000000E+00  0.00000000000E+00 -0.89323622563E+03  0.89323622564E+03  0.50400001928E-02 0.  1.
    10030    2    1    2    0    0  0.00000000000E+00  0.00000000000E+00  0.14670049307E+02  0.18011425006E+04  0.18010827569E+04 0.  0.
        5    1    3    3  502    0  0.27634629223E+03  0.32910025380E+03  0.79873883009E+03  0.90701712165E+03  0.46999998093E+01 0. -1.
       -5    1    3    3    0  502 -0.27634629223E+03 -0.32910025380E+03 -0.78406878078E+03  0.89412537894E+03  0.46999998093E+01 0.  1.
</event>
<event>
 5   0  0.1035018E-05  0.1800058E+04  0.7818609E-02  0.8706269E-01
        2   -1    0    0  501    0  0.00000000000E+00  0.00000000000E+00  0.14299791814E+04  0.14299791814E+04  0.25500000920E-02 0.  1.
       -2   -1    0    0    0  501  0.00000000000E+00  0.00000000000E+00 -0.56647836556E+03  0.56647836557E+03  0.25500000920E-02 0. -1.
    10030    2    1    2    0    0  0.00000000000E+00  0.00000000000E+00  0.86350081582E+03  0.19964575469E+04  0.18000580762E+04 0.  0.
        3    1    3    3  502    0  0.42311844819E+03 -0.14749209602E+03  0.12974717936E+04  0.13726675508E+04  0.10100000352E+00 0.  1.
       -3    1    3    3    0  502 -0.42311844819E+03  0.14749209602E+03 -0.43397097777E+03  0.62378999618E+03  0.10100000352E+00 0. -1.
</event>
<event>
 5   0  0.3626125E-06  0.1800326E+04  0.7818609E-02  0.8706126E-01
       -3   -1    0    0    0  501  0.00000000000E+00  0.00000000000E+00  0.37094238195E+03  0.37094239570E+03  0.10100000352E+00 0.  1.
        3   -1    0    0  501    0  0.00000000000E+00  0.00000000000E+00 -0.21844173854E+04  0.21844173877E+04  0.10100000352E+00 0. -1.
    10030    2    1    2    0    0  0.00000000000E+00  0.00000000000E+00 -0.18134750034E+04  0.25553597834E+04  0.18003255358E+04 0.  0.
        4    1    3    3  502    0  0.43555496836E+03 -0.72657007213E+03 -0.13388453375E+04  0.15843360284E+04  0.12699999809E+01 0.  1.
       -4    1    3    3    0  502 -0.43555496836E+03  0.72657007213E+03 -0.47462966595E+03  0.97102375506E+03  0.12699999809E+01 0. -1.
</event>
<event>
 5   0  0.4987456E-06  0.1800187E+04  0.7818609E-02  0.8706200E-01
        1   -1    0    0  501    0  0.00000000000E+00  0.00000000000E+00  0.51838437734E+03  0.51838437736E+03  0.50400001928E-02 0.  1.
       -1   -1    0    0    0  501  0.00000000000E+00  0.00000000000E+00 -0.15628716343E+04  0.15628716343E+04  0.50400001928E-02 0. -1.
    10030    2    1    2    0    0  0.00000000000E+00  0.00000000000E+00 -0.10444872570E+04  0.20812560117E+04  0.18001869226E+04 0.  0.
        3    1    3    3  502    0 -0.43379535519E+03 -0.78593770032E+03 -0.59798359421E+03  0.10786384325E+04  0.10100000352E+00 0.  1.
       -3    1    3    3    0  502  0.43379535519E+03  0.78593770032E+03 -0.44650366277E+03  0.10026175792E+04  0.10100000352E+00 0. -1.
</event>
<event>
 5   0  0.3626125E-06  0.1800159E+04  0.7818609E-02  0.8706215E-01
       -3   -1    0    0    0  501  0.00000000000E+00  0.00000000000E+00  0.10743873768E+04  0.10743873816E+04  0.10100000352E+00 0. -1.
        3   -1    0    0  501    0  0.00000000000E+00  0.00000000000E+00 -0.75405150814E+03  0.75405151490E+03  0.10100000352E+00 0.  1.
    10030    2    1    2    0    0  0.00000000000E+00  0.00000000000E+00  0.32033586869E+03  0.18284388965E+04  0.18001593622E+04 0.  0.
        1    1    3    3  502    0 -0.26050366436E+03  0.61206043913E+03  0.77604585350E+03  0.10221190278E+04  0.50400001928E-02 0. -1.
       -1    1    3    3    0  502  0.26050366436E+03 -0.61206043913E+03 -0.45570998481E+03  0.80631986864E+03  0.50400001928E-02 0.  1.
</event>
<event>
 5   0  0.1036381E-05  0.1799724E+04  0.7818609E-02  0.8706446E-01
        2   -1    0    0  501    0  0.00000000000E+00  0.00000000000E+00  0.83553300216E+03  0.83553300216E+03  0.25500000920E-02 0.  1.
       -2   -1    0    0    0  501  0.00000000000E+00  0.00000000000E+00 -0.96914424947E+03  0.96914424947E+03  0.25500000920E-02 0. -1.
    10030    2    1    2    0    0  0.00000000000E+00  0.00000000000E+00 -0.13361124731E+03  0.18046772516E+04  0.17997244281E+04 0.  0.
        4    1    3    3  502    0 -0.41059057610E+03  0.12226356001E+03 -0.86032236743E+03  0.96108750282E+03  0.12699999809E+01 0. -1.
       -4    1    3    3    0  502  0.41059057610E+03 -0.12226356001E+03  0.72671112012E+03  0.84358974880E+03  0.12699999809E+01 0.  1.
</event>
<event>
 5   0  0.4983159E-06  0.1799685E+04  0.7818609E-02  0.8706467E-01
        1   -1    0    0  501    0  0.00000000000E+00  0.00000000000E+00  0.97197650416E+03  0.97197650417E+03  0.50400001928E-02 0. -1.
       -1   -1    0    0    0  501  0.00000000000E+00  0.00000000000E+00 -0.83306164175E+03  0.83306164177E+03  0.50400001928E-02 0.  1.
    10030    2    1    2    0    0  0.00000000000E+00  0.00000000000E+00  0.13891486241E+03  0.18050381459E+04  0.17996847972E+04 0.  0.
        4    1    3    3  502    0 -0.42258067400E+03  0.78617577944E+03 -0.45197733385E+02  0.89369526698E+03  0.12699999809E+01 0.  1.
       -4    1    3    3    0  502  0.42258067400E+03 -0.78617577944E+03  0.18411259579E+03  0.91134287896E+03  0.12699999809E+01 0. -1.
</event>
<event>
 5   0  0.4987456E-06  0.1801098E+04  0.7818609E-02  0.8705716E-01
        1   -1    0    0  501    0  0.00000000000E+00  0.00000000000E+00  0.10822222716E+04  0.10822222716E+04  0.50400001928E-02 0.  1.
       -1   -1    0    0    0  501  0.00000000000E+00  0.00000000000E+00 -0.74937368371E+03  0.74937368373E+03  0.50400001928E-02 0. -1.
    10030    2    1    2    0    0  0.00000000000E+00  0.00000000000E+00  0.33284858790E+03  0.18315959554E+04  0.18010984318E+04 0.  0.
        3    1    3    3  502    0  0.25004736534E+03 -0.21712826975E+03 -0.68520481549E+03  0.76103483482E+03  0.10100000352E+00 0. -1.
       -3    1    3    3    0  502 -0.25004736534E+03  0.21712826975E+03  0.10180534034E+04  0.10705611205E+04  0.10100000352E+00 0.  1.
</event>
<event>
 5   0  0.9589963E-06  0.1796644E+04  0.7818609E-02  0.8708086E-01
       -2   -1    0    0    0  501  0.00000000000E+00  0.00000000000E+00  0.59714620572E+03  0.59714620572E+03  0.25500000920E-02 0. -1.
        2   -1    0    0  501    0  0.00000000000E+00  0.00000000000E+00 -0.13513986633E+04  0.13513986633E+04  0.25500000920E-02 0.  1.
    10030    2    1    2    0    0  0.00000000000E+00  0.00000000000E+00 -0.75425245760E+03  0.19485448690E+04  0.17966441876E+04 0.  0.
        2    1    3    3  502    0 -0.70061577223E+03 -0.53117133387E+03 -0.57703954851E+03  0.10516558785E+04  0.25500000920E-02 0.  1.
       -2    1    3    3    0  502  0.70061577223E+03  0.53117133387E+03 -0.17721290909E+03  0.89688899055E+03  0.25500000920E-02 0. -1.
</event>
<event>
 5   0  0.4987456E-06  0.1799033E+04  0.7818609E-02  0.8706814E-01
        1   -1    0    0  501    0  0.00000000000E+00  0.00000000000E+00  0.12961941945E+04  0.12961941945E+04  0.50400001928E-02 0. -1.
       -1   -1    0    0    0  501  0.00000000000E+00  0.00000000000E+00 -0.62423491851E+03  0.62423491854E+03  0.50400001928E-02 0.  1.
    10030    2    1    2    0    0  0.00000000000E+00  0.00000000000E+00  0.67195927601E+03  0.19204291131E+04  0.17990327150E+04 0.  0.
        3    1    3    3  502    0 -0.64039289974E+03  0.41039381839E+03 -0.17663639043E+03  0.78084990673E+03  0.10100000352E+00 0.  1.
       -3    1    3    3    0  502  0.64039289974E+03 -0.41039381839E+03  0.84859566644E+03  0.11395792063E+04  0.10100000352E+00 0. -1.
</event>
<event>
 5   0  0.1036381E-05  0.1799871E+04  0.7818609E-02  0.8706368E-01
       -2   -1    0    0    0  501  0.00000000000E+00  0.00000000000E+00  0.66152477282E+03  0.66152477283E+03  0.25500000920E-02 0.  1.
        2   -1    0    0  501    0  0.00000000000E+00  0.00000000000E+00 -0.12242682349E+04  0.12242682349E+04  0.25500000920E-02 0. -1.
    10030    2    1    2    0    0  0.00000000000E+00  0.00000000000E+00 -0.56274346207E+03  0.18857930077E+04  0.17998708464E+04 0.  0.
        4    1    3    3  502    0 -0.82274448200E+03 -0.33631126835E+03 -0.42905596648E+03  0.98696726752E+03  0.12699999809E+01 0.  1.
       -4    1    3    3    0  502  0.82274448200E+03  0.33631126835E+03 -0.13368749559E+03  0.89882574021E+03  0.12699999809E+01 0. -1.
</event>
<event>
 5   0  0.9999162E-06  0.1801287E+04  0.7818609E-02  0.8705616E-01
        2   -1    0    0  501    0  0.00000000000E+00  0.00000000000E+00  0.13625189484E+04  0.13625189484E+04  0.25500000920E-02 0.  1.
       -2   -1    0    0    0  501  0.00000000000E+00  0.00000000000E+00 -0.59533726482E+03  0.59533726482E+03  0.25500000920E-02 0. -1.
    10030    2    1    2    0    0  0.00000000000E+00  0.00000000000E+00  0.76718168359E+03  0.19578562132E+04  0.18012865447E+04 0.  0.
        1    1    3    3  502    0  0.35061187276E+03  0.55162775323E+03  0.10570754206E+04  0.12428315687E+04  0.50400001928E-02 0.  1.
       -1    1    3    3    0  502 -0.35061187276E+03 -0.55162775323E+03 -0.28989373698E+03  0.71502464449E+03  0.50400001928E-02 0. -1.
</event>
<event>
 5   0  0.9999162E-06  0.1800035E+04  0.7818609E-02  0.8706281E-01
        2   -1    0    0  501    0  0.00000000000E+00  0.00000000000E+00  0.65107905262E+03  0.65107905262E+03  0.25500000920E-02 0. -1.
       -2   -1    0    0    0  501  0.00000000000E+00  0.00000000000E+00 -0.12441363316E+04  0.12441363316E+04  0.25500000920E-02 0.  1.
    10030    2    1    2    0    0  0.00000000000E+00  0.00000000000E+00 -0.59305727902E+03  0.18952153843E+04  0.18000345598E+04 0.  0.
        1    1    3    3  502    0  0.10250218677E+02  0.70644746828E+03  0.29049928669E+03  0.76391290604E+03  0.50400001928E-02 0. -1.
       -1    1    3    3    0  502 -0.10250218677E+02 -0.70644746828E+03 -0.88355656571E+03  0.11313024782E+04  0.50400001928E-02 0.  1.
</event>
<event>
 5   0  0.1035018E-05  0.1799581E+04  0.7818609E-02  0.8706522E-01
       -2   -1    0    0    0  501  0.00000000000E+00  0.00000000000E+00  0.72163716937E+03  0.72163716937E+03  0.25500000920E-02 0.  1.
        2   -1    0    0  501    0  0.00000000000E+00  0.00000000000E+00 -0.11219255969E+04  0.11219255969E+04  0.25500000920E-02 0. -1.
    10030    2    1    2    0    0  0.00000000000E+00  0.00000000000E+00 -0.40028842757E+03  0.18435627663E+04  0.17995812980E+04 0.  0.
        3    1    3    3  502    0 -0.30123821060E+03  0.33841757798E+03  0.59625631816E+03  0.74886081735E+03  0.10100000352E+00 0.  1.
       -3    1    3    3    0  502  0.30123821060E+03 -0.33841757798E+03 -0.99654474574E+03  0.10947019490E+04  0.10100000352E+00 0. -1.
</event>
<event>
 5   0  0.1000316E-05  0.1800200E+04  0.7818609E-02  0.8706193E-01
        2   -1    0    0  501    0  0.00000000000E+00  0.00000000000E+00  0.92755265373E+03  0.92755265373E+03  0.25500000920E-02 0. -1.
       -2   -1    0    0    0  501  0.00000000000E+00  0.00000000000E+00 -0.87345994429E+03  0.87345994430E+03  0.25500000920E-02 0.  1.
    10030    2    1    2    0    0  0.00000000000E+00  0.00000000000E+00  0.54092709434E+02  0.18010125980E+04  0.18002000881E+04 0.  0.
        5    1    3    3  502    0  0.30931764525E+03 -0.83428148751E+03 -0.10886411605E+03  0.89642428115E+03  0.46999998093E+01 0. -1.
       -5    1    3    3    0  502 -0.30931764525E+03  0.83428148751E+03  0.16295682549E+03  0.90458831688E+03  0.46999998093E+01 0.  1.
</event>
<event>
 5   0  0.4987456E-06  0.1800256E+04  0.7818609E-02  0.8706164E-01
       -1   -1    0    0    0  501  0.00000000000E+00  0.00000000000E+00  0.40523566330E+03  0.40523566333E+03  0.50400001928E-02 0.  1.
        1   -1    0    0  501    0  0.00000000000E+00  0.00000000000E+00 -0.19994048206E+04  0.19994048206E+04  0.50400001928E-02 0. -1.
    10030    2    1    2    0    0  0.00000000000E+00  0.00000000000E+00 -0.15941691573E+04  0.24046404839E+04  0.18002556915E+04 0.  0.
        3    1    3    3  502    0 -0.44309744473E+03 -0.10571042592E+03  0.23990357549E+03  0.51484344747E+03  0.10100000352E+00 0.  1.
       -3    1    3    3    0  502  0.44309744473E+03  0.10571042592E+03 -0.18340727328E+04  0.18897970364E+04  0.10100000352E+00 0. -1.
</event>
<event>
 5   0  0.4983159E-06  0.1802336E+04  0.7818609E-02  0.8705058E-01
        1   -1    0    0  501    0  0.00000000000E+00  0.00000000000E+00  0.17988480280E+04  0.17988480280E+04  0.50400001928E-02 0. -1.
       -1   -1    0    0    0  501  0.00000000000E+00  0.00000000000E+00 -0.45145764140E+03  0.45145764142E+03  0.50400001928E-02 0.  1.
    10030    2    1    2    0    0  0.00000000000E+00  0.00000000000E+00  0.13473903866E+04  0.22503056694E+04  0.18023359154E+04 0.  0.
        4    1    3    3  502    0  0.50795023828E+03  0.31213126695E+03  0.15174253047E+04  0.16303436878E+04  0.12699999809E+01 0. -1.
       -4    1    3    3    0  502 -0.50795023828E+03 -0.31213126695E+03 -0.17003491804E+03  0.61996198160E+03  0.12699999809E+01 0.  1.
</event>
<event>
 5   0  0.1036381E-05  0.1799483E+04  0.7818609E-02  0.8706575E-01
       -2   -1    0    0    0  501  0.00000000000E+00  0.00000000000E+00  0.28487235608E+03  0.28487235609E+03  0.25500000920E-02 0. -1.
        2   -1    0    0  501    0  0.00000000000E+00  0.00000000000E+00 -0.28417441456E+04  0.28417441456E+04  0.25500000920E-02 0.  1.
    10030    2    1    2    0    0  0.00000000000E+00  0.00000000000E+00 -0.25568717895E+04  0.31266165017E+04  0.17994825369E+04 0.  0.
        4    1    3    3  502    0  0.69747257165E+03  0.44313383713E+03 -0.65997762003E+03  0.10575479458E+04  0.12699999809E+01 0. -1.
       -4    1    3    3    0  502 -0.69747257165E+03 -0.44313383713E+03 -0.18968941695E+04  0.20690685559E+04  0.12699999809E+01 0.  1.
</event>
<event>
 5   0  0.4987456E-06  0.1798702E+04  0.7818609E-02  0.8706990E-01
        1   -1    0    0  501    0  0.00000000000E+00  0.00000000000E+00  0.15600928799E+04  0.15600928799E+04  0.50400001928E-02 0.  1.
       -1   -1    0    0    0  501  0.00000000000E+00  0.00000000000E+00 -0.51845117316E+03  0.51845117318E+03  0.50400001928E-02 0. -1.
    10030    2    1    2    0    0  0.00000000000E+00  0.00000000000E+00  0.10416417068E+04  0.20785440531E+04  0.17987017361E+04 0.  0.
        3    1    3    3  502    0  0.11883669901E+03  0.52858246766E+03 -0.30871379035E+03  0.62355897933E+03  0.10100000352E+00 0. -1.
       -3    1    3    3    0  502 -0.11883669901E+03 -0.52858246766E+03  0.13503554971E+04  0.14549850738E+04  0.10100000352E+00 0.  1.
</event>
<event>
 5   0  0.4953155E-06  0.1799848E+04  0.7818609E-02  0.8706381E-01
        1   -1    0    0  501    0  0.00000000000E+00  0.00000000000E+00  0.84294368904E+03  0.84294368906E+03  0.50400001928E-02 0.  1.
       -1   -1    0    0    0  501  0.00000000000E+00  0.00000000000E+00 -0.96075546931E+03  0.96075546932E+03  0.50400001928E-02 0. -1.
    10030    2    1    2    0    0  0.00000000000E+00  0.00000000000E+00 -0.11781178027E+03  0.18036991584E+04  0.17998475042E+04 0.  0.
        2    1    3    3  502    0  0.82533653923E+03  0.30175010937E+03 -0.25330355655E+03  0.91454700440E+03  0.25500000920E-02 0. -1.
       -2    1    3    3    0  502 -0.82533653923E+03 -0.30175010937E+03  0.13549177628E+03  0.88915215398E+03  0.25500000920E-02 0.  1.
</event>
<event>
 5   0  0.4987456E-06  0.1801307E+04  0.7818609E-02  0.8705605E-01
       -1   -1    0    0    0  501  0.00000000000E+00  0.00000000000E+00  0.51793644570E+03  0.51793644572E+03  0.50400001928E-02 0.  1.
        1   -1    0    0  501    0  0.00000000000E+00  0.00000000000E+00 -0.15661708100E+04  0.15661708100E+04  0.50400001928E-02 0. -1.
    10030    2    1    2    0    0  0.00000000000E+00  0.00000000000E+00 -0.10482343643E+04  0.20841072557E+04  0.18013072395E+04 0.  0.
        3    1    3    3  502    0  0.55622967559E+02 -0.71360129904E+03 -0.11566213754E+04  0.13601815117E+04  0.10100000352E+00 0. -1.
       -3    1    3    3    0  502 -0.55622967559E+02  0.71360129904E+03  0.10838701110E+03  0.72392574404E+03  0.10100000352E+00 0.  1.
</event>
<event>
 5   0  0.4987456E-06  0.1799894E+04  0.7818609E-02  0.8706356E-01
        1   -1    0    0  501    0  0.00000000000E+00  0.00000000000E+00  0.11923769146E+04  0.11923769146E+04  0.50400001928E-02 0.  1.
       -1   -1    0    0    0  501  0.00000000000E+00  0.00000000000E+00 -0.67923518753E+03  0.67923518755E+03  0.50400001928E-02 0. -1.
    10030    2    1    2    0    0  0.00000000000E+00  0.00000000000E+00  0.51314172708E+03  0.18716121022E+04  0.17998937271E+04 0.  0.
        3    1    3    3  502    0  0.34504310995E+03 -0.42329761110E+03  0.10003832741E+04  0.11397378297E+04  0.10100000352E+00 0.  1.
       -3    1    3    3    0  502 -0.34504310995E+03  0.42329761110E+03 -0.48724154701E+03  0.73187427241E+03  0.10100000352E+00 0. -1.
</event>
<event>
 5   0  0.4981384E-06  0.1799569E+04  0.7818609E-02  0.8706529E-01
       -1   -1    0    0    0  501  0.00000000000E+00  0.00000000000E+00  0.80224579742E+03  0.80224579743E+03  0.50400001928E-02 0.  1.
        1   -1    0    0  501    0  0.00000000000E+00  0.00000000000E+00 -0.10091819569E+04  0.10091819569E+04  0.50400001928E-02 0. -1.
    10030    2    1    2    0    0  0.00000000000E+00  0.00000000000E+00 -0.20693615945E+03  0.18114277543E+04  0.17995688192E+04 0.  0.
        5    1    3    3  502    0  0.61133826025E+03  0.50676216724E+03  0.32246044546E+03  0.85705611921E+03  0.46999998093E+01 0.  1.
       -5    1    3    3    0  502 -0.61133826025E+03 -0.50676216724E+03 -0.52939660490E+03  0.95437163510E+03  0.46999998093E+01 0. -1.
</event>
<event>
 5   0  0.4953155E-06  0.1798452E+04  0.7818609E-02  0.8707123E-01
        1   -1    0    0  501    0  0.00000000000E+00  0.00000000000E+00  0.97921306228E+03  0.97921306229E+03  0.50400001928E-02 0.  1.
       -1   -1    0    0    0  501  0.00000000000E+00  0.00000000000E+00 -0.82577266910E+03  0.82577266912E+03  0.50400001928E-02 0. -1.
    10030    2    1    2    0    0  0.00000000000E+00  0.00000000000E+00  0.15344039317E+03  0.18049857314E+04  0.17984519833E+04 0.  0.
        2    1    3    3  502    0  0.47211313805E+03 -0.62594603283E+03  0.51866999319E+03  0.94006266439E+03  0.25500000920E-02 0.  1.
       -2    1    3    3    0  502 -0.47211313805E+03  0.62594603283E+03 -0.36522960001E+03  0.86492306702E+03  0.25500000920E-02 0. -1.
</event>
<event>
 5   0  0.4953155E-06  0.1800269E+04  0.7818609E-02  0.8706156E-01
       -1   -1    0    0    0  501  0.00000000000E+00  0.00000000000E+00  0.61366496901E+03  0.61366496903E+03  0.50400001928E-02 0. -1.
        1   -1    0    0  501    0  0.00000000000E+00  0.00000000000E+00 -0.13203331429E+04  0.13203331429E+04  0.50400001928E-02 0.  1.
    10030    2    1    2    0    0  0.00000000000E+00  0.00000000000E+00 -0.70666817387E+03  0.19339981119E+04  0.18002690879E+04 0.  0.
        2    1    3    3  502    0 -0.50275279627E+03 -0.51396721849E+03 -0.93515470218E+03  0.11795918755E+04  0.25500000920E-02 0.  1.
       -2    1    3    3    0  502  0.50275279627E+03  0.51396721849E+03  0.22848652831E+03  0.75440623637E+03  0.25500000920E-02 0. -1.
</event>
<event>
 5   0  0.1000316E-05  0.1799997E+04  0.7818609E-02  0.8706301E-01
       -2   -1    0    0    0  501  0.00000000000E+00  0.00000000000E+00  0.82307992411E+03  0.82307992411E+03  0.25500000920E-02 0.  1.
        2   -1    0    0  501    0  0.00000000000E+00  0.00000000000E+00 -0.98410475638E+03  0.98410475638E+03  0.25500000920E-02 0. -1.
    10030    2    1    2    0    0  0.00000000000E+00  0.00000000000E+00 -0.16102483227E+03  0.18071846805E+04  0.17999965202E+04 0.  0.
        5    1    3    3  502    0  0.49533925512E+03  0.70397589071E+03  0.18327574437E+03  0.88008813243E+03  0.46999998093E+01 0.  1.
       -5    1    3    3    0  502 -0.49533925512E+03 -0.70397589071E+03 -0.34430057663E+03  0.92709654807E+03  0.46999998093E+01 0. -1.
</event>
<event>
 5   0  0.4987456E-06  0.1800026E+04  0.7818609E-02  0.8706285E-01
        1   -1    0    0  501    0  0.00000000000E+00  0.00000000000E+00  0.19984428937E+04  0.19984428937E+04  0.50400001928E-02 0.  1.
       -1   -1    0    0    0  501  0.00000000000E+00  0.00000000000E+00 -0.40532743039E+03  0.40532743042E+03  0.50400001928E-02 0. -1.
    10030    2    1    2    0    0  0.00000000000E+00  0.00000000000E+00  0.15931154633E+04  0.24037703241E+04  0.18000263586E+04 0.  0.
        3    1    3    3  502    0  0.22354280230E+03 -0.49802645539E+02 -0.36576322708E+03  0.43154888072E+03  0.10100000352E+00 0. -1.
       -3    1    3    3    0  502 -0.22354280230E+03  0.49802645539E+02  0.19588786904E+04  0.19722214434E+04  0.10100000352E+00 0.  1.
</event>
<event>
 5   0  0.1000316E-05  0.1798735E+04  0.7818609E-02  0.8706972E-01
        2   -1    0    0  501    0  0.00000000000E+00  0.00000000000E+00  0.88992774656E+03  0.88992774657E+03  0.25500000920E-02 0. -1.
       -2   -1    0    0    0  501  0.00000000000E+00  0.00000000000E+00 -0.90890747247E+03  0.90890747248E+03  0.25500000920E-02 0.  1.
    10030    2    1    2    0    0  0.00000000000E+00  0.00000000000E+00 -0.18979725909E+02  0.17988352190E+04  0.17987350876E+04 0.  0.
        5    1    3    3  502    0  0.15746970607E+03  0.83793279309E+03  0.27672847101E+03  0.89639768559E+03  0.46999998093E+01 0.  1.
       -5    1    3    3    0  502 -0.15746970607E+03 -0.83793279309E+03 -0.29570819692E+03  0.90243753345E+03  0.46999998093E+01 0. -1.
</event>
<event>
 5   0  0.4987456E-06  0.1800000E+04  0.7818609E-02  0.8706300E-01
        1   -1    0    0  501    0  0.00000000000E+00  0.00000000000E+00  0.11526355273E+04  0.11526355274E+04  0.50400001928E-02 0. -1.
       -1   -1    0    0    0  501  0.00000000000E+00  0.00000000000E+00 -0.70273724610E+03  0.70273724612E+03  0.50400001928E-02 0.  1.
    10030    2    1    2    0    0  0.00000000000E+00  0.00000000000E+00  0.44989828124E+03  0.18553727735E+04  0.17999999070E+04 0.  0.
        3    1    3    3  502    0 -0.86586405171E+03 -0.11803570757E+03  0.30430900619E+01  0.87387771164E+03  0.10100000352E+00 0. -1.
       -3    1    3    3    0  502  0.86586405171E+03  0.11803570757E+03  0.44685519118E+03  0.98149506183E+03  0.10100000352E+00 0.  1.
</event>
<event>
 5   0  0.1036381E-05  0.1800130E+04  0.7818609E-02  0.8706230E-01
       -2   -1    0    0    0  501  0.00000000000E+00  0.00000000000E+00  0.10757392379E+04  0.10757392379E+04  0.25500000920E-02 0. -1.
        2   -1    0    0  501    0  0.00000000000E+00  0.00000000000E+00 -0.75307929300E+03  0.75307929301E+03  0.25500000920E-02 0.  1.
    10030    2    1    2    0    0  0.00000000000E+00  0.00000000000E+00  0.32265994491E+03  0.18288185309E+04  0.18001299339E+04 0.  0.
        4    1    3    3  502    0  0.85777470891E+03 -0.23989420309E+03  0.29296597113E+03  0.93763391207E+03  0.12699999809E+01 0. -1.
       -4    1    3    3    0  502 -0.85777470891E+03  0.23989420309E+03  0.29693973784E+02  0.89118461886E+03  0.12699999809E+01 0.  1.
</event>
<event>
 5   0  0.4983159E-06  0.1799734E+04  0.7818609E-02  0.8706441E-01
       -1   -1    0    0    0  501  0.00000000000E+00  0.00000000000E+00  0.52305223566E+03  0.52305223569E+03  0.50400001928E-02 0.  1.
        1   -1    0    0  501    0  0.00000000000E+00  0.00000000000E+00 -0.15481456072E+04  0.15481456072E+04  0.50400001928E-02 0. -1.
    10030    2    1    2    0    0  0.00000000000E+00  0.00000000000E+00 -0.10250933715E+04  0.20711978429E+04  0.17997344482E+04 0.  0.
        4    1    3    3  502    0 -0.46044793034E+03 -0.68832596637E+03 -0.91772319809E+03  0.12361320373E+04  0.12699999809E+01 0. -1.
       -4    1    3    3    0  502  0.46044793034E+03  0.68832596637E+03 -0.10737017343E+03  0.83506580554E+03  0.12699999809E+01 0.  1.
</event>
<event>
 5   0  0.1036381E-05  0.1801383E+04  0.7818609E-02  0.8705564E-01
       -2   -1    0    0    0  501  0.00000000000E+00  0.00000000000E+00  0.45765112162E+03  0.45765112162E+03  0.25500000920E-02 0. -1.
        2   -1    0    0  501    0  0.00000000000E+00  0.00000000000E+00 -0.17726276138E+04  0.17726276138E+04  0.25500000920E-02 0.  1.
    10030    2    1    2    0    0  0.00000000000E+00  0.00000000000E+00 -0.13149764921E+04  0.22302787354E+04  0.18013828196E+04 0.  0.
        4    1    3    3  502    0 -0.81754798471E+03 -0.15768294844E+01 -0.18953475908E+03  0.83923312107E+03  0.12699999809E+01 0. -1.
       -4    1    3    3    0  502  0.81754798471E+03  0.15768294844E+01 -0.11254417330E+04  0.13910456143E+04  0.12699999809E+01 0.  1.
</event>
<event>
 5   0  0.9589963E-06  0.1801033E+04  0.7818609E-02  0.8705750E-01
        2   -1    0    0  501    0  0.00000000000E+00  0.00000000000E+00  0.13896712733E+04  0.13896712733E+04  0.25500000920E-02 0.  1.
       -2   -1    0    0    0  501  0.00000000000E+00  0.00000000000E+00 -0.58354105109E+03  0.58354105110E+03  0.25500000920E-02 0. -1.
    10030    2    1    2    0    0  0.00000000000E+00  0.00000000000E+00  0.80613022225E+03  0.19732123244E+04  0.18010332984E+04 0.  0.
        2    1    3    3  502    0 -0.39782100294E+03  0.17676782372E+03 -0.46059990214E+03  0.63376705795E+03  0.25500000920E-02 0. -1.
       -2    1    3    3    0  502  0.39782100294E+03 -0.17676782372E+03  0.12667301244E+04  0.13394452665E+04  0.25500000920E-02 0.  1.
</event>
<event>
 5   0  0.4994123E-06  0.1800453E+04  0.7818609E-02  0.8706059E-01
       -1   -1    0    0    0  501  0.00000000000E+00  0.00000000000E+00  0.72233890871E+03  0.72233890873E+03  0.50400001928E-02 0. -1.
        1   -1    0    0  501    0  0.00000000000E+00  0.00000000000E+00 -0.11219216431E+04  0.11219216431E+04  0.50400001928E-02 0.  1.
    10030    2    1    2    0    0  0.00000000000E+00  0.00000000000E+00 -0.39958273434E+03  0.18442605518E+04  0.18004528934E+04 0.  0.
        1    1    3    3  502    0 -0.40635926721E+03 -0.26358306556E+02 -0.10221866774E+04  0.11003127819E+04  0.50400001928E-02 0.  1.
       -1    1    3    3    0  502  0.40635926721E+03  0.26358306556E+02  0.62260394311E+03  0.74394776992E+03  0.50400001928E-02 0. -1.
</event>
<event>
 5   0  0.3626125E-06  0.1801000E+04  0.7818609E-02  0.8705768E-01
       -3   -1    0    0    0  501  0.00000000000E+00  0.00000000000E+00  0.74103961040E+03  0.74103961728E+03  0.10100000352E+00 0. -1.
        3   -1    0    0  501    0  0.00000000000E+00  0.00000000000E+00 -0.10942733271E+04  0.10942733317E+04  0.10100000352E+00 0.  1.
    10030    2    1    2    0    0  0.00000000000E+00  0.00000000000E+00 -0.35323371668E+03  0.18353129490E+04  0.18009996008E+04 0.  0.
        3    1    3    3  502    0  0.41263123214E+03  0.79997746967E+03 -0.20302181414E+03  0.92273850735E+03  0.10100000352E+00 0.  1.
       -3    1    3    3    0  502 -0.41263123214E+03 -0.79997746967E+03 -0.15021190254E+03  0.91257444167E+03  0.10100000352E+00 0. -1.
</event>
<event>
 5   0  0.4994123E-06  0.1800288E+04  0.7818609E-02  0.8706146E-01
       -1   -1    0    0    0  501  0.00000000000E+00  0.00000000000E+00  0.59506287860E+03  0.59506287862E+03  0.50400001928E-02 0. -1.
        1   -1    0    0  501    0  0.00000000000E+00  0.00000000000E+00 -0.13616363552E+04  0.13616363552E+04  0.50400001928E-02 0.  1.
    10030    2    1    2    0    0  0.00000000000E+00  0.00000000000E+00 -0.76657347656E+03  0.19566992338E+04  0.18002880316E+04 0.  0.
        1    1    3    3  502    0  0.81635951898E+03  0.43793020842E+02  0.26135161353E+02  0.81795093959E+03  0.50400001928E-02 0. -1.
       -1    1    3    3    0  502 -0.81635951898E+03 -0.43793020842E+02 -0.79270863792E+03  0.11387482942E+04  0.50400001928E-02 0.  1.
</event>
<event>
 5   0  0.1000316E-05  0.1799724E+04  0.7818609E-02  0.8706446E-01
       -2   -1    0    0    0  501  0.00000000000E+00  0.00000000000E+00  0.33429283180E+03  0.33429283181E+03  0.25500000920E-02 0. -1.
        2   -1    0    0  501    0  0.00000000000E+00  0.00000000000E+00 -0.24222817891E+04  0.24222817891E+04  0.25500000920E-02 0.  1.
    10030    2    1    2    0    0  0.00000000000E+00  0.00000000000E+00 -0.20879889573E+04  0.27565746209E+04  0.17997237996E+04 0.  0.
        5    1    3    3  502    0  0.33554590916E+03 -0.53016882745E+03 -0.56029582549E+02  0.62994559041E+03  0.46999998093E+01 0. -1.
       -5    1    3    3    0  502 -0.33554590916E+03  0.53016882745E+03 -0.20319593748E+04  0.21266290305E+04  0.46999998093E+01 0.  1.
</event>
<event>
 5   0  0.1035018E-05  0.1799705E+04  0.7818609E-02  0.8706456E-01
        2   -1    0    0  501    0  0.00000000000E+00  0.00000000000E+00  0.16323366668E+04  0.16323366668E+04  0.25500000920E-02 0.  1.
       -2   -1    0    0    0  501  0.00000000000E+00  0.00000000000E+00 -0.49605839107E+03  0.49605839107E+03  0.25500000920E-02 0. -1.
    10030    2    1    2    0    0  0.00000000000E+00  0.00000000000E+00  0.11362782757E+04  0.21283950578E+04  0.17997047542E+04 0.  0.
        3    1    3    3  502    0  0.66040111962E+03  0.41400087487E+03  0.36337015057E+02  0.78028632697E+03  0.10100000352E+00 0. -1.
       -3    1    3    3    0  502 -0.66040111962E+03 -0.41400087487E+03  0.10999412606E+04  0.13481087309E+04  0.10100000352E+00 0.  1.
</event>
<event>
 5   0  0.1000316E-05  0.1800414E+04  0.7818609E-02  0.8706079E-01
       -2   -1    0    0    0  501  0.00000000000E+00  0.00000000000E+00  0.64263228032E+03  0.64263228032E+03  0.25500000920E-02 0. -1.
        2   -1    0    0  501    0  0.00000000000E+00  0.00000000000E+00 -0.12610208162E+04  0.12610208163E+04  0.25500000920E-02 0.  1.
    10030    2    1    2    0    0  0.00000000000E+00  0.00000000000E+00 -0.61838853593E+03  0.19036530966E+04  0.18004140442E+04 0.  0.
        5    1    3    3  502    0 -0.26307611606E+03 -0.86089335797E+03 -0.30703355232E+03  0.95112465476E+03  0.46999998093E+01 0. -1.
       -5    1    3    3    0  502  0.26307611606E+03  0.86089335797E+03 -0.31135498361E+03  0.95252844181E+03  0.46999998093E+01 0.  1.
</event>
<event>
 5   0  0.4953155E-06  0.1799869E+04  0.7818609E-02  0.8706369E-01
        1   -1    0    0  501    0  0.00000000000E+00  0.00000000000E+00  0.57161631466E+03  0.57161631468E+03  0.50400001928E-02 0. -1.
       -1   -1    0    0    0  501  0.00000000000E+00  0.00000000000E+00 -0.14168275392E+04  0.14168275392E+04  0.50400001928E-02 0.  1.
    10030    2    1    2    0    0  0.00000000000E+00  0.00000000000E+00 -0.84521122458E+03  0.19884438539E+04  0.17998685913E+04 0.  0.
        2    1    3    3  502    0 -0.29965679434E+03  0.79189985567E+03 -0.85727844020E+02  0.85102810709E+03  0.25500000920E-02 0.  1.
       -2    1    3    3    0  502  0.29965679434E+03 -0.79189985567E+03 -0.75948338056E+03  0.11374157468E+04  0.25500000920E-02 0. -1.
</event>
<event>
 5   0  0.1036381E-05  0.1799135E+04  0.7818609E-02  0.8706759E-01
        2   -1    0    0  501    0  0.00000000000E+00  0.00000000000E+00  0.14626698266E+04  0.14626698266E+04  0.25500000920E-02 0.  1.
       -2   -1    0    0    0  501  0.00000000000E+00  0.00000000000E+00 -0.55324996718E+03  0.55324996719E+03  0.25500000920E-02 0. -1.
    10030    2    1    2    0    0  0.00000000000E+00  0.00000000000E+00  0.90941985938E+03  0.20159197938E+04  0.17991353852E+04 0.  0.
        4    1    3    3  502    0  0.62637727041E+02  0.86008010815E+03  0.74160695078E+03  0.11373846138E+04  0.12699999809E+01 0.  1.
       -4    1    3    3    0  502 -0.62637727041E+02 -0.86008010815E+03  0.16781290860E+03  0.87853517999E+03  0.12699999809E+01 0. -1.
</event>
<event>
 5   0  0.4994123E-06  0.1799600E+04  0.7818609E-02  0.8706512E-01
        1   -1    0    0  501    0  0.00000000000E+00  0.00000000000E+00  0.76217553008E+03  0.76217553010E+03  0.50400001928E-02 0. -1.
       -1   -1    0    0    0  501  0.00000000000E+00  0.00000000000E+00 -0.10622747456E+04  0.10622747456E+04  0.50400001928E-02 0.  1.
    10030    2    1    2    0    0  0.00000000000E+00  0.00000000000E+00 -0.30009921554E+03  0.18244502757E+04  0.17995997526E+04 0.  0.
        1    1    3    3  502    0 -0.66694932612E+03  0.40628251779E+03  0.30305938876E+03  0.83769438401E+03  0.50400001928E-02 0.  1.
       -1    1    3    3    0  502  0.66694932612E+03 -0.40628251779E+03 -0.60315860431E+03  0.98675589172E+03  0.50400001928E-02 0. -1.
</event>
<event>
 5   0  0.1035018E-05  0.1799570E+04  0.7818609E-02  0.8706528E-01
        2   -1    0    0  501    0  0.00000000000E+00  0.00000000000E+00  0.50630898345E+03  0.50630898345E+03  0.25500000920E-02 0. -1.
       -2   -1    0    0    0  501  0.00000000000E+00  0.00000000000E+00 -0.15990494340E+04  0.15990494340E+04  0.25500000920E-02 0.  1.
    10030    2    1    2    0    0  0.00000000000E+00  0.00000000000E+00 -0.10927404506E+04  0.21053584174E+04  0.17995700524E+04 0.  0.
        3    1    3    3  502    0 -0.39522634129E+03 -0.33030140364E+03  0.31676834151E+03  0.60468592714E+03  0.10100000352E+00 0. -1.
       -3    1    3    3    0  502  0.39522634129E+03  0.33030140364E+03 -0.14095087921E+04  0.15006724903E+04  0.10100000352E+00 0.  1.
</event>
<event>
 5   0  0.4994123E-06  0.1799455E+04  0.7818609E-02  0.8706590E-01
        1   -1    0    0  501    0  0.00000000000E+00  0.00000000000E+00  0.17040086613E+04  0.17040086613E+04  0.50400001928E-02 0.  1.
       -1   -1    0    0    0  501  0.00000000000E+00  0.00000000000E+00 -0.47506166144E+03  0.47506166147E+03  0.50400001928E-02 0. -1.
    10030    2    1    2    0    0  0.00000000000E+00  0.00000000000E+00  0.12289469999E+04  0.21790703228E+04  0.17994545683E+04 0.  0.
        1    1    3    3  502    0  0.64976231679E+03 -0.46243096411E+03  0.11188440381E+04  0.13739888815E+04  0.50400001928E-02 0.  1.
       -1    1    3    3    0  502 -0.64976231679E+03  0.46243096411E+03  0.11010296179E+03  0.80508144129E+03  0.50400001928E-02 0. -1.
</event>
<event>
 5   0  0.1000316E-05  0.1800494E+04  0.7818609E-02  0.8706037E-01
        2   -1    0    0  501    0  0.00000000000E+00  0.00000000000E+00  0.17857883585E+04  0.17857883585E+04  0.25500000920E-02 0. -1.
       -2   -1    0    0    0  501  0.00000000000E+00  0.00000000000E+00 -0.45383029400E+03  0.45383029400E+03  0.25500000920E-02 0.  1.
    10030    2    1    2    0    0  0.00000000000E+00  0.00000000000E+00  0.13319580645E+04  0.22396186525E+04  0.18004942164E+04 0.  0.
        5    1    3    3  502    0 -0.73117546467E+03  0.17534326934E+03  0.12817490086E+04  0.14860233623E+04  0.46999998093E+01 0. -1.
       -5    1    3    3    0  502  0.73117546467E+03 -0.17534326934E+03  0.50209055980E+02  0.75359529028E+03  0.46999998093E+01 0.  1.
</event>
<event>
 5   0  0.3626125E-06  0.1799455E+04  0.7818609E-02  0.8706589E-01
        3   -1    0    0  501    0  0.00000000000E+00  0.00000000000E+00  0.13917519564E+04  0.13917519601E+04  0.10100000352E+00 0. -1.
       -3   -1    0    0    0  501  0.00000000000E+00  0.00000000000E+00 -0.58164799470E+03  0.58164800346E+03  0.10100000352E+00 0.  1.
    10030    2    1    2    0    0  0.00000000000E+00  0.00000000000E+00  0.81010396175E+03  0.19733999636E+04  0.17994551918E+04 0.  0.
        5    1    3    3  502    0  0.41194851597E+02 -0.29771458878E+02 -0.58005885082E+03  0.58230036577E+03  0.46999998093E+01 0.  1.
       -5    1    3    3    0  502 -0.41194851597E+02  0.29771458878E+02  0.13901628126E+04  0.13910995978E+04  0.46999998093E+01 0. -1.
</event>
<event>
 5   0  0.4983159E-06  0.1799259E+04  0.7818609E-02  0.8706693E-01
        1   -1    0    0  501    0  0.00000000000E+00  0.00000000000E+00  0.61633841863E+03  0.61633841865E+03  0.50400001928E-02 0. -1.
       -1   -1    0    0    0  501  0.00000000000E+00  0.00000000000E+00 -0.13131316585E+04  0.13131316585E+04  0.50400001928E-02 0.  1.
    10030    2    1    2    0    0  0.00000000000E+00  0.00000000000E+00 -0.69679323987E+03  0.19294700772E+04  0.17992592808E+04 0.  0.
        4    1    3    3  502    0 -0.27368461238E+02 -0.41314709673E+03 -0.12048781132E+04  0.12740378475E+04  0.12699999809E+01 0.  1.
       -4    1    3    3    0  502  0.27368461238E+02  0.41314709673E+03  0.50808487338E+03  0.65543222965E+03  0.12699999809E+01 0. -1.
</event>
<event>
 5   0  0.9589963E-06  0.1800030E+04  0.7818609E-02  0.8706284E-01
       -2   -1    0    0    0  501  0.00000000000E+00  0.00000000000E+00  0.43039140941E+03  0.43039140942E+03  0.25500000920E-02 0.  1.
        2   -1    0    0  501    0  0.00000000000E+00  0.00000000000E+00 -0.18820704664E+04  0.18820704664E+04  0.25500000920E-02 0. -1.
    10030    2    1    2    0    0  0.00000000000E+00  0.00000000000E+00 -0.14516790570E+04  0.23124618758E+04  0.18000299560E+04 0.  0.
        2    1    3    3  502    0 -0.36411432845E+03  0.36753125435E+02  0.33048977811E+03  0.49310600266E+03  0.25500000920E-02 0.  1.
       -2    1    3    3    0  502  0.36411432845E+03 -0.36753125435E+02 -0.17821688351E+04  0.18193558732E+04  0.25500000920E-02 0. -1.
</event>
<event>
 5   0  0.1035018E-05  0.1800993E+04  0.7818609E-02  0.8705771E-01
        2   -1    0    0  501    0  0.00000000000E+00  0.00000000000E+00  0.87294121779E+03  0.87294121780E+03  0.25500000920E-02 0. -1.
       -2   -1    0    0    0  501  0.00000000000E+00  0.00000000000E+00 -0.92892179761E+03  0.92892179762E+03  0.25500000920E-02 0.  1.
    10030    2    1    2    0    0  0.00000000000E+00  0.00000000000E+00 -0.55980579819E+02  0.18018630154E+04  0.18009931985E+04 0.  0.
        3    1    3    3  502    0 -0.63143346123E+03  0.50467612332E+03 -0.42502941734E+03  0.91326678535E+03  0.10100000352E+00 0.  1.
       -3    1    3    3    0  502  0.63143346123E+03 -0.50467612332E+03  0.36904883752E+03  0.88859623007E+03  0.10100000352E+00 0. -1.
</event>
<event>
 5   0  0.4981384E-06  0.1799616E+04  0.7818609E-02  0.8706504E-01
       -1   -1    0    0    0  501  0.00000000000E+00  0.00000000000E+00  0.13080081589E+04  0.13080081589E+04  0.50400001928E-02 0.  1.
        1   -1    0    0  501    0  0.00000000000E+00  0.00000000000E+00 -0.61899768132E+03  0.61899768134E+03  0.50400001928E-02 0. -1.
    10030    2    1    2    0    0  0.00000000000E+00  0.00000000000E+00  0.68901047760E+03  0.19270058403E+04  0.17996155340E+04 0.  0.
        5    1    3    3  502    0 -0.16528196081E+02 -0.66964276362E+03 -0.29880311275E+03  0.73348483441E+03  0.46999998093E+01 0.  1.
       -5    1    3    3    0  502  0.16528196081E+02  0.66964276362E+03  0.98781359034E+03  0.11935210058E+04  0.46999998093E+01 0. -1.
</event>
<event>
 5   0  0.3626125E-06  0.1795628E+04  0.7818609E-02  0.8708628E-01
       -4   -1    0    0    0  501  0.00000000000E+00  0.00000000000E+00  0.71132738254E+03  0.71132851626E+03  0.12699999809E+01 0. -1.
        4   -1    0    0  501    0  0.00000000000E+00  0.00000000000E+00 -0.11331883775E+04  0.11331890892E+04  0.12699999809E+01 0.  1.
    10030    2    1    2    0    0  0.00000000000E+00  0.00000000000E+00 -0.42186099497E+03  0.18445176054E+04  0.17956276055E+04 0.  0.
        3    1    3    3  502    0  0.22852917906E+03 -0.82426291837E+03 -0.49118601066E+03  0.98635624981E+03  0.10100000352E+00 0.  1.
       -3    1    3    3    0  502 -0.22852917906E+03  0.82426291837E+03  0.69325015686E+02  0.85816135562E+03  0.10100000352E+00 0. -1.
</event>
<event>
 5   0  0.1036381E-05  0.1800062E+04  0.7818609E-02  0.8706267E-01
       -2   -1    0    0    0  501  0.00000000000E+00  0.00000000000E+00  0.65486540376E+03  0.65486540377E+03  0.25500000920E-02 0.  1.
        2   -1    0    0  501    0  0.00000000000E+00  0.00000000000E+00 -0.12369799314E+04  0.12369799314E+04  0.25500000920E-02 0. -1.
    10030    2    1    2    0    0  0.00000000000E+00  0.00000000000E+00 -0.58211452759E+03  0.18918453351E+04  0.18000615125E+04 0.  0.
        4    1    3    3  502    0  0.26130918006E+03  0.17351728533E+03  0.59555856355E+03  0.67311392157E+03  0.12699999809E+01 0.  1.
       -4    1    3    3    0  502 -0.26130918006E+03 -0.17351728533E+03 -0.11776730911E+04  0.12187314136E+04  0.12699999809E+01 0. -1.
</event>
<event>
 5   0  0.9589963E-06  0.1800352E+04  0.7818609E-02  0.8706112E-01
       -2   -1    0    0    0  501  0.00000000000E+00  0.00000000000E+00  0.31154305691E+03  0.31154305692E+03  0.25500000920E-02 0.  1.
        2   -1    0    0  501    0  0.00000000000E+00  0.00000000000E+00 -0.26009781162E+04  0.26009781162E+04  0.25500000920E-02 0. -1.
    10030    2    1    2    0    0  0.00000000000E+00  0.00000000000E+00 -0.22894350593E+04  0.29125211731E+04  0.18003518248E+04 0.  0.
        2    1    3    3  502    0 -0.51205753970E+03  0.71051945778E+03 -0.80817922031E+03  0.11917191263E+04  0.25500000920E-02 0.  1.
       -2    1    3    3    0  502  0.51205753970E+03 -0.71051945778E+03 -0.14812558390E+04  0.17208020468E+04  0.25500000920E-02 0. -1.
</event>
<event>
 5   0  0.4953155E-06  0.1800457E+04  0.7818609E-02  0.8706057E-01
        1   -1    0    0  501    0  0.00000000000E+00  0.00000000000E+00  0.10038265451E+04  0.10038265451E+04  0.50400001928E-02 0. -1.
       -1   -1    0    0    0  501  0.00000000000E+00  0.00000000000E+00 -0.80732205792E+03  0.80732205793E+03  0.50400001928E-02 0.  1.
    10030    2    1    2    0    0  0.00000000000E+00  0.00000000000E+00  0.19650448717E+03  0.18111486030E+04  0.18004569556E+04 0.  0.
        2    1    3    3  502    0 -0.79727851338E+03  0.41639433361E+03  0.60964033158E+02  0.90152863643E+03  0.25500000920E-02 0.  1.
       -2    1    3    3    0  502  0.79727851338E+03 -0.41639433361E+03  0.13554045401E+03  0.90961996660E+03  0.25500000920E-02 0. -1.
</event>
<event>
 5   0  0.9589963E-06  0.1801494E+04  0.7818609E-02  0.8705505E-01
        2   -1    0    0  501    0  0.00000000000E+00  0.00000000000E+00  0.13176056226E+04  0.13176056226E+04  0.25500000920E-02 0.  1.
       -2   -1    0    0    0  501  0.00000000000E+00  0.00000000000E+00 -0.61577245373E+03  0.61577245374E+03  0.25500000920E-02 0. -1.
    10030    2    1    2    0    0  0.00000000000E+00  0.00000000000E+00  0.70183316890E+03  0.19333780764E+04  0.18014940991E+04 0.  0.
        2    1    3    3  502    0  0.46806470957E+03  0.18667133462E+03 -0.45034269438E+03  0.67582490476E+03  0.25500000920E-02 0. -1.
       -2    1    3    3    0  502 -0.46806470957E+03 -0.18667133462E+03  0.11521758633E+04  0.12575531716E+04  0.25500000920E-02 0.  1.
</event>
<event>
 5   0  0.1000316E-05  0.1799957E+04  0.7818609E-02  0.8706322E-01
        2   -1    0    0  501    0  0.00000000000E+00  0.00000000000E+00  0.13046574601E+04  0.13046574601E+04  0.25500000920E-02 0. -1.
       -2   -1    0    0    0  501  0.00000000000E+00  0.00000000000E+00 -0.62082306965E+03  0.62082306966E+03  0.25500000920E-02 0.  1.
    10030    2    1    2    0    0  0.00000000000E+00  0.00000000000E+00  0.68383439041E+03  0.19254805297E+04  0.17999571653E+04 0.  0.
        5    1    3    3  502    0 -0.76179271059E+03  0.12739285013E+02 -0.17049562316E+03  0.78075685767E+03  0.46999998093E+01 0.  1.
       -5    1    3    3    0  502  0.76179271059E+03 -0.12739285013E+02  0.85433001358E+03  0.11447236721E+04  0.46999998093E+01 0. -1.
</event>
<event>
 5   0  0.1036381E-05  0.1800786E+04  0.7818609E-02  0.8705882E-01
       -2   -1    0    0    0  501  0.00000000000E+00  0.00000000000E+00  0.47262696364E+03  0.47262696365E+03  0.25500000920E-02 0. -1.
        2   -1    0    0  501    0  0.00000000000E+00  0.00000000000E+00 -0.17153225456E+04  0.17153225456E+04  0.25500000920E-02 0.  1.
    10030    2    1    2    0    0  0.00000000000E+00  0.00000000000E+00 -0.12426955820E+04  0.21879495092E+04  0.18007861465E+04 0.  0.
        4    1    3    3  502    0  0.67328176166E+03 -0.59320620308E+03 -0.71148830494E+03  0.11451721054E+04  0.12699999809E+01 0.  1.
       -4    1    3    3    0  502 -0.67328176166E+03  0.59320620308E+03 -0.53120727703E+03  0.10427774039E+04  0.12699999809E+01 0. -1.
</event>
<event>
 5   0  0.9589963E-06  0.1797993E+04  0.7818609E-02  0.8707367E-01
       -2   -1    0    0    0  501  0.00000000000E+00  0.00000000000E+00  0.94828093649E+03  0.94828093649E+03  0.25500000920E-02 0. -1.
        2   -1    0    0  501    0  0.00000000000E+00  0.00000000000E+00 -0.85227356383E+03  0.85227356384E+03  0.25500000920E-02 0.  1.
    10030    2    1    2    0    0  0.00000000000E+00  0.00000000000E+00  0.96007372654E+02  0.18005545003E+04  0.17979930737E+04 0.  0.
        2    1    3    3  502    0  0.28904915147E+03 -0.48534768811E+02 -0.80308335733E+03  0.85489643500E+03  0.25500000920E-02 0.  1.
       -2    1    3    3    0  502 -0.28904915147E+03  0.48534768811E+02  0.89909072999E+03  0.94565806532E+03  0.25500000920E-02 0. -1.
</event>
<event>
 5   0  0.1000316E-05  0.1799957E+04  0.7818609E-02  0.8706322E-01
       -2   -1    0    0    0  501  0.00000000000E+00  0.00000000000E+00  0.62968133476E+03  0.62968133476E+03  0.25500000920E-02 0. -1.
        2   -1    0    0  501    0  0.00000000000E+00  0.00000000000E+00 -0.12863032662E+04  0.12863032662E+04  0.25500000920E-02 0.  1.
    10030    2    1    2    0    0  0.00000000000E+00  0.00000000000E+00 -0.65662193146E+03  0.19159846010E+04  0.17999568412E+04 0.  0.
        5    1    3    3  502    0 -0.88866357512E+03 -0.12794057820E+03 -0.39433612124E+03  0.98061960403E+03  0.46999998093E+01 0.  1.
       -5    1    3    3    0  502  0.88866357512E+03  0.12794057820E+03 -0.26228581022E+03  0.93536499696E+03  0.46999998093E+01 0. -1.
</event>
<event>
 5   0  0.4994123E-06  0.1800252E+04  0.7818609E-02  0.8706166E-01
       -1   -1    0    0    0  501  0.00000000000E+00  0.00000000000E+00  0.73268535655E+03  0.73268535657E+03  0.50400001928E-02 0.  1.
        1   -1    0    0  501    0  0.00000000000E+00  0.00000000000E+00 -0.11058316606E+04  0.11058316606E+04  0.50400001928E-02 0. -1.
    10030    2    1    2    0    0  0.00000000000E+00  0.00000000000E+00 -0.37314630401E+03  0.18385170171E+04  0.18002518319E+04 0.  0.
        1    1    3    3  502    0  0.78607666218E+03 -0.29784027287E+03  0.14213996289E+03  0.85254273561E+03  0.50400001928E-02 0.  1.
       -1    1    3    3    0  502 -0.78607666218E+03  0.29784027287E+03 -0.51528626690E+03  0.98597428153E+03  0.50400001928E-02 0. -1.
</event>
<event>
 5   0  0.1035018E-05  0.1813185E+04  0.7818609E-02  0.8699319E-01
        2   -1    0    0  501    0  0.00000000000E+00  0.00000000000E+00  0.99633621132E+03  0.99633621132E+03  0.25500000920E-02 0. -1.
       -2   -1    0    0    0  501  0.00000000000E+00  0.00000000000E+00 -0.82493258891E+03  0.82493258891E+03  0.25500000920E-02 0.  1.
    10030    2    1    2    0    0  0.00000000000E+00  0.00000000000E+00  0.17140362241E+03  0.18212688002E+04  0.18131852748E+04 0.  0.
        3    1    3    3  502    0  0.86912155988E+03 -0.25587021889E+03  0.11853308097E+03  0.91372422330E+03  0.10100000352E+00 0. -1.
       -3    1    3    3    0  502 -0.86912155988E+03  0.25587021889E+03  0.52870541442E+02  0.90754457693E+03  0.10100000352E+00 0.  1.
</event>
<event>
 5   0  0.4994123E-06  0.1798309E+04  0.7818609E-02  0.8707199E-01
        1   -1    0    0  501    0  0.00000000000E+00  0.00000000000E+00  0.13207667669E+04  0.13207667669E+04  0.50400001928E-02 0.  1.
       -1   -1    0    0    0  501  0.00000000000E+00  0.00000000000E+00 -0.61212805799E+03  0.61212805802E+03  0.50400001928E-02 0. -1.
    10030    2    1    2    0    0  0.00000000000E+00  0.00000000000E+00  0.70863870886E+03  0.19328948249E+04  0.17983085342E+04 0.  0.
        1    1    3    3  502    0 -0.40695867852E+03 -0.79563761346E+03  0.46085235852E+03  0.10055045869E+04  0.50400001928E-02 0. -1.
       -1    1    3    3    0  502  0.40695867852E+03  0.79563761346E+03  0.24778635034E+03  0.92739023794E+03  0.50400001928E-02 0.  1.
</event>
<event>
 5   0  0.9589963E-06  0.1800057E+04  0.7818609E-02  0.8706269E-01
       -2   -1    0    0    0  501  0.00000000000E+00  0.00000000000E+00  0.20281744644E+04  0.20281744644E+04  0.25500000920E-02 0.  1.
        2   -1    0    0  501    0  0.00000000000E+00  0.00000000000E+00 -0.39939902151E+03  0.39939902152E+03  0.25500000920E-02 0. -1.
    10030    2    1    2    0    0  0.00000000000E+00  0.00000000000E+00  0.16287754429E+04  0.24275734859E+04  0.18000565508E+04 0.  0.
        2    1    3    3  502    0  0.27114435031E+03  0.84837032930E+03  0.63959094925E+03  0.10965072078E+04  0.25500000920E-02 0.  1.
       -2    1    3    3    0  502 -0.27114435031E+03 -0.84837032930E+03  0.98918449365E+03  0.13310662782E+04  0.25500000920E-02 0. -1.
</event>
<event>
 5   0  0.1000316E-05  0.1799777E+04  0.7818609E-02  0.8706418E-01
       -2   -1    0    0    0  501  0.00000000000E+00  0.00000000000E+00  0.52246143121E+03  0.52246143122E+03  0.25500000920E-02 0.  1.
        2   -1    0    0  501    0  0.00000000000E+00  0.00000000000E+00 -0.15499688728E+04  0.15499688728E+04  0.25500000920E-02 0. -1.
    10030    2    1    2    0    0  0.00000000000E+00  0.00000000000E+00 -0.10275074416E+04  0.20724303040E+04  0.17997766035E+04 0.  0.
        5    1    3    3  502    0  0.43315637743E+03  0.21198165761E+03  0.36109021583E+03  0.60246900703E+03  0.46999998093E+01 0.  1.
       -5    1    3    3    0  502 -0.43315637743E+03 -0.21198165761E+03 -0.13885976574E+04  0.14699612970E+04  0.46999998093E+01 0. -1.
</event>
<event>
 5   0  0.4987456E-06  0.1794766E+04  0.7818609E-02  0.8709088E-01
        1   -1    0    0  501    0  0.00000000000E+00  0.00000000000E+00  0.13255088909E+04  0.13255088909E+04  0.50400001928E-02 0.  1.
       -1   -1    0    0    0  501  0.00000000000E+00  0.00000000000E+00 -0.60753722233E+03  0.60753722235E+03  0.50400001928E-02 0. -1.
    10030    2    1    2    0    0  0.00000000000E+00  0.00000000000E+00  0.71797166858E+03  0.19330461133E+04  0.17947657115E+04 0.  0.
        3    1    3    3  502    0 -0.54483041333E+03  0.19074867091E+03  0.10989965253E+04  0.12413777054E+04  0.10100000352E+00 0.  1.
       -3    1    3    3    0  502  0.54483041333E+03 -0.19074867091E+03 -0.38102485672E+03  0.69166840782E+03  0.10100000352E+00 0. -1.
</event>
<event>
 5   0  0.4983159E-06  0.1800399E+04  0.7818609E-02  0.8706087E-01
       -1   -1    0    0    0  501  0.00000000000E+00  0.00000000000E+00  0.11734626993E+04  0.11734626993E+04  0.50400001928E-02 0. -1.
        1   -1    0    0  501    0  0.00000000000E+00  0.00000000000E+00 -0.69057071523E+03  0.69057071525E+03  0.50400001928E-02 0.  1.
    10030    2    1    2    0    0  0.00000000000E+00  0.00000000000E+00  0.48289198408E+03  0.18640334146E+04  0.18003988176E+04 0.  0.
        4    1    3    3  502    0 -0.79702571087E+03 -0.41767554429E+03  0.26793379701E+03  0.93887857392E+03  0.12699999809E+01 0. -1.
       -4    1    3    3    0  502  0.79702571087E+03  0.41767554429E+03  0.21495818707E+03  0.92515484065E+03  0.12699999809E+01 0.  1.
</event>
<event>
 5   0  0.4981384E-06  0.1800641E+04  0.7818609E-02  0.8705959E-01
        1   -1    0    0  501    0  0.00000000000E+00  0.00000000000E+00  0.65338683075E+03  0.65338683077E+03  0.50400001928E-02 0.  1.
       -1   -1    0    0    0  501  0.00000000000E+00  0.00000000000E+00 -0.12405768618E+04  0.12405768618E+04  0.50400001928E-02 0. -1.
    10030    2    1    2    0    0  0.00000000000E+00  0.00000000000E+00 -0.58719003104E+03  0.18939636926E+04  0.18006405350E+04 0.  0.
        5    1    3    3  502    0 -0.17108620882E+03 -0.68521948450E+03 -0.88088637606E+03  0.11290611721E+04  0.46999998093E+01 0. -1.
       -5    1    3    3    0  502  0.17108620882E+03  0.68521948450E+03  0.29369634502E+03  0.76490252049E+03  0.46999998093E+01 0.  1.
</event>
<event>
 5   0  0.3626125E-06  0.1800406E+04  0.7818609E-02  0.8706084E-01
        3   -1    0    0  501    0  0.00000000000E+00  0.00000000000E+00  0.18813377586E+04  0.18813377613E+04  0.10100000352E+00 0. -1.
       -3   -1    0    0    0  501  0.00000000000E+00  0.00000000000E+00 -0.43073879486E+03  0.43073880670E+03  0.10100000352E+00 0.  1.
    10030    2    1    2    0    0  0.00000000000E+00  0.00000000000E+00  0.14505989638E+04  0.23120765680E+04  0.18004057050E+04 0.  0.
        5    1    3    3  502    0  0.74871606260E+02  0.27348415355E+03 -0.37187709602E+03  0.46766869065E+03  0.46999998093E+01 0.  1.
       -5    1    3    3    0  502 -0.74871606260E+02 -0.27348415355E+03  0.18224760598E+04  0.18444078774E+04  0.46999998093E+01 0. -1.
</event>
<event>
 5   0  0.3626125E-06  0.1799815E+04  0.7818609E-02  0.8706398E-01
        3   -1    0    0  501    0  0.00000000000E+00  0.00000000000E+00  0.13274202420E+04  0.13274202458E+04  0.10100000352E+00 0.  1.
       -3   -1    0    0    0  501  0.00000000000E+00  0.00000000000E+00 -0.61008061805E+03  0.61008062641E+03  0.10100000352E+00 0. -1.
    10030    2    1    2    0    0  0.00000000000E+00  0.00000000000E+00  0.71733962394E+03  0.19375008722E+04  0.17998148499E+04 0.  0.
        4    1    3    3  502    0  0.40884406076E+03 -0.12770407420E+03 -0.49331045877E+03  0.65331356806E+03  0.12699999809E+01 0. -1.
       -4    1    3    3    0  502 -0.40884406076E+03  0.12770407420E+03  0.12106500827E+04  0.12841873042E+04  0.12699999809E+01 0.  1.
</event>
<event>
 5   0  0.4987456E-06  0.1800427E+04  0.7818609E-02  0.8706073E-01
        1   -1    0    0  501    0  0.00000000000E+00  0.00000000000E+00  0.75857220628E+03  0.75857220630E+03  0.50400001928E-02 0. -1.
       -1   -1    0    0    0  501  0.00000000000E+00  0.00000000000E+00 -0.10683015938E+04  0.10683015938E+04  0.50400001928E-02 0.  1.
    10030    2    1    2    0    0  0.00000000000E+00  0.00000000000E+00 -0.30972938750E+03  0.18268738001E+04  0.18004265017E+04 0.  0.
        3    1    3    3  502    0 -0.30508052382E+03  0.36214635362E+03 -0.93172182722E+03  0.10451457702E+04  0.10100000352E+00 0.  1.
       -3    1    3    3    0  502  0.30508052382E+03 -0.36214635362E+03  0.62199243972E+03  0.78172802989E+03  0.10100000352E+00 0. -1.
</event>
<event>
 5   0  0.1000316E-05  0.1799750E+04  0.7818609E-02  0.8706432E-01
        2   -1    0    0  501    0  0.00000000000E+00  0.00000000000E+00  0.18870385993E+04  0.18870385993E+04  0.25500000920E-02 0.  1.
       -2   -1    0    0    0  501  0.00000000000E+00  0.00000000000E+00 -0.42912479447E+03  0.42912479448E+03  0.25500000920E-02 0. -1.
    10030    2    1    2    0    0  0.00000000000E+00  0.00000000000E+00  0.14579138048E+04  0.23161633938E+04  0.17997500394E+04 0.  0.
        5    1    3    3  502    0  0.30276462733E+03  0.66790140298E+03  0.57780205986E+02  0.73560814695E+03  0.46999998093E+01 0. -1.
       -5    1    3    3    0  502 -0.30276462733E+03 -0.66790140298E+03  0.14001335988E+04  0.15805552468E+04  0.46999998093E+01 0.  1.
</event>
<event>
 5   0  0.3626125E-06  0.1800014E+04  0.7818609E-02  0.8706292E-01
       -3   -1    0    0    0  501  0.00000000000E+00  0.00000000000E+00  0.10475061597E+04  0.10475061645E+04  0.10100000352E+00 0.  1.
        3   -1    0    0  501    0  0.00000000000E+00  0.00000000000E+00 -0.77327726935E+03  0.77327727595E+03  0.10100000352E+00 0. -1.
    10030    2    1    2    0    0  0.00000000000E+00  0.00000000000E+00  0.27422889032E+03  0.18207834405E+04  0.18000141257E+04 0.  0.
        4    1    3    3  502    0  0.26251170928E+03  0.36471280089E+03 -0.65168012283E+03  0.79159106869E+03  0.12699999809E+01 0. -1.
       -4    1    3    3    0  502 -0.26251170928E+03 -0.36471280089E+03  0.92590901315E+03  0.10291923718E+04  0.12699999809E+01 0.  1.
</event>
<event>
 5   0  0.1000316E-05  0.1800053E+04  0.7818609E-02  0.8706271E-01
       -2   -1    0    0    0  501  0.00000000000E+00  0.00000000000E+00  0.99349711703E+03  0.99349711703E+03  0.25500000920E-02 0.  1.
        2   -1    0    0  501    0  0.00000000000E+00  0.00000000000E+00 -0.81534976840E+03  0.81534976840E+03  0.25500000920E-02 0. -1.
    10030    2    1    2    0    0  0.00000000000E+00  0.00000000000E+00  0.17814734863E+03  0.18088468854E+04  0.18000529373E+04 0.  0.
        5    1    3    3  502    0  0.65179705994E+02  0.74391579449E+03  0.59388877681E+03  0.95414101294E+03  0.46999998093E+01 0.  1.
       -5    1    3    3    0  502 -0.65179705994E+02 -0.74391579449E+03 -0.41574142818E+03  0.85470587249E+03  0.46999998093E+01 0. -1.
</event>
<event>
 5   0  0.4994123E-06  0.1799786E+04  0.7818609E-02  0.8706413E-01
       -1   -1    0    0    0  501  0.00000000000E+00  0.00000000000E+00  0.72919164667E+03  0.72919164669E+03  0.50400001928E-02 0. -1.
        1   -1    0    0  501    0  0.00000000000E+00  0.00000000000E+00 -0.11105552737E+04  0.11105552737E+04  0.50400001928E-02 0.  1.
    10030    2    1    2    0    0  0.00000000000E+00  0.00000000000E+00 -0.38136362702E+03  0.18397469204E+04  0.17997862415E+04 0.  0.
        1    1    3    3  502    0 -0.66079048555E+03 -0.31464472931E+02 -0.81428727427E+03  0.10491414795E+04  0.50400001928E-02 0.  1.
       -1    1    3    3    0  502  0.66079048555E+03  0.31464472931E+02  0.43292364726E+03  0.79060544093E+03  0.50400001928E-02 0. -1.
</event>
<event>
 5   0  0.4981384E-06  0.1799575E+04  0.7818609E-02  0.8706525E-01
       -1   -1    0    0    0  501  0.00000000000E+00  0.00000000000E+00  0.10457952611E+04  0.10457952611E+04  0.50400001928E-02 0. -1.
        1   -1    0    0  501    0  0.00000000000E+00  0.00000000000E+00 -0.77416488084E+03  0.77416488085E+03  0.50400001928E-02 0.  1.
    10030    2    1    2    0    0  0.00000000000E+00  0.00000000000E+00  0.27163038022E+03  0.18199601419E+04  0.17995754651E+04 0.  0.
        5    1    3    3  502    0  0.17902497879E+02  0.16820199043E+03 -0.75792797337E+03  0.77658825115E+03  0.46999998093E+01 0.  1.
       -5    1    3    3    0  502 -0.17902497879E+02 -0.16820199043E+03  0.10295583536E+04  0.10433718908E+04  0.46999998093E+01 0. -1.
</event>
<event>
 5   0  0.1035018E-05  0.1799945E+04  0.7818609E-02  0.8706328E-01
        2   -1    0    0  501    0  0.00000000000E+00  0.00000000000E+00  0.11868528281E+04  0.11868528281E+04  0.25500000920E-02 0. -1.
       -2   -1    0    0    0  501  0.00000000000E+00  0.00000000000E+00 -0.68243583843E+03  0.68243583844E+03  0.25500000920E-02 0.  1.
    10030    2    1    2    0    0  0.00000000000E+00  0.00000000000E+00  0.50441698971E+03  0.18692886666E+04  0.17999454490E+04 0.  0.
        3    1    3    3  502    0  0.15178848475E+02 -0.26601244561E+03 -0.64053536301E+03  0.69374244509E+03  0.10100000352E+00 0.  1.
       -3    1    3    3    0  502 -0.15178848475E+02  0.26601244561E+03  0.11449523527E+04  0.11755462215E+04  0.10100000352E+00 0. -1.
</event>
<event>
 5   0  0.1000316E-05  0.1800940E+04  0.7818609E-02  0.8705800E-01
        2   -1    0    0  501    0  0.00000000000E+00  0.00000000000E+00  0.12487970117E+04  0.12487970117E+04  0.25500000920E-02 0. -1.
       -2   -1    0    0    0  501  0.00000000000E+00  0.00000000000E+00 -0.64930189092E+03  0.64930189093E+03  0.25500000920E-02 0.  1.
    10030    2    1    2    0    0  0.00000000000E+00  0.00000000000E+00  0.59949512081E+03  0.18980989027E+04  0.18009400446E+04 0.  0.
        5    1    3    3  502    0 -0.34607070587E+03 -0.58297501090E+03 -0.32484448651E+03  0.75177844290E+03  0.46999998093E+01 0.  1.
       -5    1    3    3    0  502  0.34607070587E+03  0.58297501090E+03  0.92433960732E+03  0.11463204598E+04  0.46999998093E+01 0. -1.
</event>
<event>
 5   0  0.3626125E-06  0.1799895E+04  0.7818609E-02  0.8706355E-01
        3   -1    0    0  501    0  0.00000000000E+00  0.00000000000E+00  0.81139612607E+03  0.81139613236E+03  0.10100000352E+00 0.  1.
       -3   -1    0    0    0  501  0.00000000000E+00  0.00000000000E+00 -0.99816335067E+03  0.99816335578E+03  0.10100000352E+00 0. -1.
    10030    2    1    2    0    0  0.00000000000E+00  0.00000000000E+00 -0.18676722460E+03  0.18095594881E+04  0.17998954261E+04 0.  0.
        3    1    3    3  502    0  0.39216806175E+03 -0.75495026923E+03  0.20172296300E+03  0.87432137207E+03  0.10100000352E+00 0.  1.
       -3    1    3    3    0  502 -0.39216806175E+03  0.75495026923E+03 -0.38849018760E+03  0.93523811606E+03  0.10100000352E+00 0. -1.
</event>
<event>
 5   0  0.1036381E-05  0.1800164E+04  0.7818609E-02  0.8706212E-01
       -2   -1    0    0    0  501  0.00000000000E+00  0.00000000000E+00  0.49191282198E+03  0.49191282198E+03  0.25500000920E-02 0.  1.
        2   -1    0    0  501    0  0.00000000000E+00  0.00000000000E+00 -0.16469324995E+04  0.16469324995E+04  0.25500000920E-02 0. -1.
    10030    2    1    2    0    0  0.00000000000E+00  0.00000000000E+00 -0.11550196775E+04  0.21388453215E+04  0.18001635631E+04 0.  0.
        4    1    3    3  502    0  0.67855089848E+03 -0.54245740692E+03 -0.85730151585E+03  0.12205158181E+04  0.12699999809E+01 0.  1.
       -4    1    3    3    0  502 -0.67855089848E+03  0.54245740692E+03 -0.29771816166E+03  0.91832950341E+03  0.12699999809E+01 0. -1.
</event>
<event>
 5   0  0.4987456E-06  0.1799707E+04  0.7818609E-02  0.8706455E-01
        1   -1    0    0  501    0  0.00000000000E+00  0.00000000000E+00  0.44820849959E+03  0.44820849962E+03  0.50400001928E-02 0. -1.
       -1   -1    0    0    0  501  0.00000000000E+00  0.00000000000E+00 -0.18066061898E+04  0.18066061898E+04  0.50400001928E-02 0.  1.
    10030    2    1    2    0    0  0.00000000000E+00  0.00000000000E+00 -0.13583976902E+04  0.22548146894E+04  0.17997069203E+04 0.  0.
        3    1    3    3  502    0  0.75658700954E+03  0.22106230587E+03 -0.13532272853E+03  0.79975289755E+03  0.10100000352E+00 0. -1.
       -3    1    3    3    0  502 -0.75658700954E+03 -0.22106230587E+03 -0.12230749617E+04  0.14550617919E+04  0.10100000352E+00 0.  1.
</event>
<event>
 5   0  0.4983159E-06  0.1801465E+04  0.7818609E-02  0.8705521E-01
       -1   -1    0    0    0  501  0.00000000000E+00  0.00000000000E+00  0.94385510932E+03  0.94385510933E+03  0.50400001928E-02 0. -1.
        1   -1    0    0  501    0  0.00000000000E+00  0.00000000000E+00 -0.85958043681E+03  0.85958043683E+03  0.50400001928E-02 0.  1.
    10030    2    1    2    0    0  0.00000000000E+00  0.00000000000E+00  0.84274672504E+02  0.18034355462E+04  0.18014653893E+04 0.  0.
        4    1    3    3  502    0 -0.52907908161E+02  0.82186850201E+03  0.40729739913E+03  0.91878172902E+03  0.12699999809E+01 0. -1.
       -4    1    3    3    0  502  0.52907908161E+02 -0.82186850201E+03 -0.32302272663E+03  0.88465381713E+03  0.12699999809E+01 0.  1.
</event>
<event>
 5   0  0.4983159E-06  0.1800311E+04  0.7818609E-02  0.8706134E-01
        1   -1    0    0  501    0  0.00000000000E+00  0.00000000000E+00  0.16423375139E+04  0.16423375139E+04  0.50400001928E-02 0. -1.
       -1   -1    0    0    0  501  0.00000000000E+00  0.00000000000E+00 -0.49337001614E+03  0.49337001617E+03  0.50400001928E-02 0.  1.
    10030    2    1    2    0    0  0.00000000000E+00  0.00000000000E+00  0.11489674978E+04  0.21357075301E+04  0.18003111795E+04 0.  0.
        4    1    3    3  502    0 -0.46754328916E+03  0.16869689876E+02 -0.33780814831E+03  0.57705915783E+03  0.12699999809E+01 0.  1.
       -4    1    3    3    0  502  0.46754328916E+03 -0.16869689876E+02  0.14867756461E+04  0.15586483723E+04  0.12699999809E+01 0. -1.
</event>
<event>
 5   0  0.4983159E-06  0.1800845E+04  0.7818609E-02  0.8705850E-01
        1   -1    0    0  501    0  0.00000000000E+00  0.00000000000E+00  0.20166248636E+04  0.20166248636E+04  0.50400001928E-02 0. -1.
       -1   -1    0    0    0  501  0.00000000000E+00  0.00000000000E+00 -0.40203843079E+03  0.40203843082E+03  0.50400001928E-02 0.  1.
    10030    2    1    2    0    0  0.00000000000E+00  0.00000000000E+00  0.16145864328E+04  0.24186632944E+04  0.18008450191E+04 0.  0.
        4    1    3    3  502    0 -0.85840884764E+03 -0.27183133055E+03  0.80867652698E+03  0.12102550806E+04  0.12699999809E+01 0. -1.
       -4    1    3    3    0  502  0.85840884764E+03  0.27183133055E+03  0.80590990582E+03  0.12084082138E+04  0.12699999809E+01 0.  1.
</event>
<event>
 5   0  0.4994123E-06  0.1798379E+04  0.7818609E-02  0.8707162E-01
       -1   -1    0    0    0  501  0.00000000000E+00  0.00000000000E+00  0.50731681200E+03  0.50731681203E+03  0.50400001928E-02 0. -1.
        1   -1    0    0  501    0  0.00000000000E+00  0.00000000000E+00 -0.15937609353E+04  0.15937609353E+04  0.50400001928E-02 0.  1.
    10030    2    1    2    0    0  0.00000000000E+00  0.00000000000E+00 -0.10864441233E+04  0.21010777473E+04  0.17983789554E+04 0.  0.
        1    1    3    3  502    0  0.11474831435E+03  0.55662595028E+03  0.27087156393E+03  0.62958004125E+03  0.50400001928E-02 0. -1.
       -1    1    3    3    0  502 -0.11474831435E+03 -0.55662595028E+03 -0.13573156872E+04  0.14714977061E+04  0.50400001928E-02 0.  1.
</event>
<event>
 5   0  0.4981384E-06  0.1799108E+04  0.7818609E-02  0.8706774E-01
        1   -1    0    0  501    0  0.00000000000E+00  0.00000000000E+00  0.67244181735E+03  0.67244181737E+03  0.50400001928E-02 0. -1.
       -1   -1    0    0    0  501  0.00000000000E+00  0.00000000000E+00 -0.12033722429E+04  0.12033722429E+04  0.50400001928E-02 0.  1.
    10030    2    1    2    0    0  0.00000000000E+00  0.00000000000E+00 -0.53093042556E+03  0.18758140603E+04  0.17991084659E+04 0.  0.
        5    1    3    3  502    0  0.56288444631E+03  0.45937281047E+02 -0.99547868240E+03  0.11445300480E+04  0.46999998093E+01 0.  1.
       -5    1    3    3    0  502 -0.56288444631E+03 -0.45937281047E+02  0.46454825684E+03  0.73128401228E+03  0.46999998093E+01 0. -1.
</event>
<event>
 5   0  0.1036381E-05  0.1800233E+04  0.7818609E-02  0.8706175E-01
        2   -1    0    0  501    0  0.00000000000E+00  0.00000000000E+00  0.10662462935E+04  0.10662462935E+04  0.25500000920E-02 0. -1.
       -2   -1    0    0    0  501  0.00000000000E+00  0.00000000000E+00 -0.75987140443E+03  0.75987140443E+03  0.25500000920E-02 0.  1.
    10030    2    1    2    0    0  0.00000000000E+00  0.00000000000E+00  0.30637488907E+03  0.18261176979E+04  0.18002333943E+04 0.  0.
        4    1    3    3  502    0 -0.20527915922E+03 -0.76878249582E+02 -0.73238204497E+03  0.76448340149E+03  0.12699999809E+01 0.  1.
       -4    1    3    3    0  502  0.20527915922E+03  0.76878249582E+02  0.10387569340E+04  0.10616342964E+04  0.12699999809E+01 0. -1.
</event>
<event>
 5   0  0.4981384E-06  0.1800018E+04  0.7818609E-02  0.8706290E-01
        1   -1    0    0  501    0  0.00000000000E+00  0.00000000000E+00  0.15288841590E+04  0.15288841590E+04  0.50400001928E-02 0. -1.
       -1   -1    0    0    0  501  0.00000000000E+00  0.00000000000E+00 -0.52980847508E+03  0.52980847510E+03  0.50400001928E-02 0.  1.
    10030    2    1    2    0    0  0.00000000000E+00  0.00000000000E+00  0.99907568390E+03  0.20586926341E+04  0.18000175387E+04 0.  0.
        5    1    3    3  502    0  0.56402796947E+03  0.58846696679E+03  0.63167875578E+02  0.81757763659E+03  0.46999998093E+01 0.  1.
       -5    1    3    3    0  502 -0.56402796947E+03 -0.58846696679E+03  0.93590780832E+03  0.12411149975E+04  0.46999998093E+01 0. -1.
</event>
<event>
 5   0  0.1036381E-05  0.1799879E+04  0.7818609E-02  0.8706364E-01
        2   -1    0    0  501    0  0.00000000000E+00  0.00000000000E+00  0.12249117011E+04  0.12249117011E+04  0.25500000920E-02 0. -1.
       -2   -1    0    0    0  501  0.00000000000E+00  0.00000000000E+00 -0.66118338470E+03  0.66118338470E+03  0.25500000920E-02 0.  1.
    10030    2    1    2    0    0  0.00000000000E+00  0.00000000000E+00  0.56372831642E+03  0.18860950858E+04  0.17998791787E+04 0.  0.
        4    1    3    3  502    0  0.73793869870E+03 -0.28731859203E+03  0.72987601045E+03  0.10769522273E+04  0.12699999809E+01 0. -1.
       -4    1    3    3    0  502 -0.73793869870E+03  0.28731859203E+03 -0.16614769403E+03  0.80914285852E+03  0.12699999809E+01 0.  1.
</event>
<event>
 5   0  0.4994123E-06  0.1799995E+04  0.7818609E-02  0.8706302E-01
       -1   -1    0    0    0  501  0.00000000000E+00  0.00000000000E+00  0.39323304334E+03  0.39323304337E+03  0.50400001928E-02 0. -1.
        1   -1    0    0  501    0  0.00000000000E+00  0.00000000000E+00 -0.20598363761E+04  0.20598363761E+04  0.50400001928E-02 0.  1.
    10030    2    1    2    0    0  0.00000000000E+00  0.00000000000E+00 -0.16666033327E+04  0.24530694194E+04  0.17999952522E+04 0.  0.
        1    1    3    3  502    0  0.10866228852E+03 -0.33148925005E+03  0.29734874528E+03  0.45837636522E+03  0.50400001928E-02 0. -1.
       -1    1    3    3    0  502 -0.10866228852E+03  0.33148925005E+03 -0.19639520780E+04  0.19946930542E+04  0.50400001928E-02 0.  1.
</event>
<event>
 5   0  0.9999162E-06  0.1799466E+04  0.7818609E-02  0.8706583E-01
       -2   -1    0    0    0  501  0.00000000000E+00  0.00000000000E+00  0.90834012232E+03  0.90834012232E+03  0.25500000920E-02 0. -1.
        2   -1    0    0  501    0  0.00000000000E+00  0.00000000000E+00 -0.89120784104E+03  0.89120784104E+03  0.25500000920E-02 0.  1.
    10030    2    1    2    0    0  0.00000000000E+00  0.00000000000E+00  0.17132281284E+02  0.17995479634E+04  0.17994664091E+04 0.  0.
        1    1    3    3  502    0  0.22674476015E+03 -0.10209468010E+03 -0.85615988705E+03  0.89154150895E+03  0.50400001928E-02 0.  1.
       -1    1    3    3    0  502 -0.22674476015E+03  0.10209468010E+03  0.87329216833E+03  0.90800645442E+03  0.50400001928E-02 0. -1.
</event>
<event>
 5   0  0.4987456E-06  0.1793033E+04  0.7818609E-02  0.8710013E-01
       -1   -1    0    0    0  501  0.00000000000E+00  0.00000000000E+00  0.49304544718E+03  0.49304544721E+03  0.50400001928E-02 0. -1.
        1   -1    0    0  501    0  0.00000000000E+00  0.00000000000E+00 -0.16301580056E+04  0.16301580056E+04  0.50400001928E-02 0.  1.
    10030    2    1    2    0    0  0.00000000000E+00  0.00000000000E+00 -0.11371125584E+04  0.21232034528E+04  0.17930331652E+04 0.  0.
        3    1    3    3  502    0  0.55713267926E+03  0.34804586588E+03 -0.12909880814E+04  0.14485106087E+04  0.10100000352E+00 0.  1.
       -3    1    3    3    0  502 -0.55713267926E+03 -0.34804586588E+03  0.15387552300E+03  0.67469284407E+03  0.10100000352E+00 0. -1.
</event>
<event>
 5   0  0.9589963E-06  0.1799874E+04  0.7818609E-02  0.8706367E-01
        2   -1    0    0  501    0  0.00000000000E+00  0.00000000000E+00  0.10569601271E+04  0.10569601271E+04  0.25500000920E-02 0.  1.
       -2   -1    0    0    0  501  0.00000000000E+00  0.00000000000E+00 -0.76624115303E+03  0.76624115304E+03  0.25500000920E-02 0. -1.
    10030    2    1    2    0    0  0.00000000000E+00  0.00000000000E+00  0.29071897409E+03  0.18232012802E+04  0.17998737139E+04 0.  0.
        2    1    3    3  502    0 -0.66578347635E+03 -0.30240669116E+03 -0.38600467303E+03  0.82687184729E+03  0.25500000920E-02 0. -1.
       -2    1    3    3    0  502  0.66578347635E+03  0.30240669116E+03  0.67672364712E+03  0.99632943288E+03  0.25500000920E-02 0.  1.
</event>
<event>
 5   0  0.4994123E-06  0.1802492E+04  0.7818609E-02  0.8704976E-01
       -1   -1    0    0    0  501  0.00000000000E+00  0.00000000000E+00  0.54869954188E+03  0.54869954190E+03  0.50400001928E-02 0. -1.
        1   -1    0    0  501    0  0.00000000000E+00  0.00000000000E+00 -0.14803076618E+04  0.14803076618E+04  0.50400001928E-02 0.  1.
    10030    2    1    2    0    0  0.00000000000E+00  0.00000000000E+00 -0.93160811994E+03  0.20290072037E+04  0.18024917597E+04 0.  0.
        1    1    3    3  502    0 -0.44225535963E+03 -0.62627710196E+03  0.67471937933E+02  0.76965269699E+03  0.50400001928E-02 0. -1.
       -1    1    3    3    0  502  0.44225535963E+03  0.62627710196E+03 -0.99908005787E+03  0.12593545067E+04  0.50400001928E-02 0.  1.
</event>
<event>
 5   0  0.4987456E-06  0.1797976E+04  0.7818609E-02  0.8707377E-01
        1   -1    0    0  501    0  0.00000000000E+00  0.00000000000E+00  0.77001099232E+03  0.77001099233E+03  0.50400001928E-02 0.  1.
       -1   -1    0    0    0  501  0.00000000000E+00  0.00000000000E+00 -0.10495685832E+04  0.10495685833E+04  0.50400001928E-02 0. -1.
    10030    2    1    2    0    0  0.00000000000E+00  0.00000000000E+00 -0.27955759093E+03  0.18195795756E+04  0.17979759134E+04 0.  0.
        3    1    3    3  502    0  0.64531461246E+03  0.45870155189E+03 -0.57073735843E+03  0.97600164204E+03  0.10100000352E+00 0. -1.
       -3    1    3    3    0  502 -0.64531461246E+03 -0.45870155189E+03  0.29117976750E+03  0.84357793354E+03  0.10100000352E+00 0.  1.
</event>
<event>
 5   0  0.4994123E-06  0.1801221E+04  0.7818609E-02  0.8705650E-01
       -1   -1    0    0    0  501  0.00000000000E+00  0.00000000000E+00  0.65467034946E+03  0.65467034948E+03  0.50400001928E-02 0.  1.
        1   -1    0    0  501    0  0.00000000000E+00  0.00000000000E+00 -0.12389432794E+04  0.12389432794E+04  0.50400001928E-02 0. -1.
    10030    2    1    2    0    0  0.00000000000E+00  0.00000000000E+00 -0.58427292995E+03  0.18936136289E+04  0.18012211743E+04 0.  0.
        1    1    3    3  502    0  0.55337923839E+03 -0.47855467778E+03  0.26002456959E+03  0.77643798073E+03  0.50400001928E-02 0.  1.
       -1    1    3    3    0  502 -0.55337923839E+03  0.47855467778E+03 -0.84429749954E+03  0.11171756482E+04  0.50400001928E-02 0. -1.
</event>
<event>
 5   0  0.1000316E-05  0.1800074E+04  0.7818609E-02  0.8706260E-01
       -2   -1    0    0    0  501  0.00000000000E+00  0.00000000000E+00  0.67576620186E+03  0.67576620187E+03  0.25500000920E-02 0. -1.
        2   -1    0    0  501    0  0.00000000000E+00  0.00000000000E+00 -0.11987374921E+04  0.11987374921E+04  0.25500000920E-02 0.  1.
    10030    2    1    2    0    0  0.00000000000E+00  0.00000000000E+00 -0.52297129023E+03  0.18745036940E+04  0.18000736452E+04 0.  0.
        5    1    3    3  502    0  0.29439541526E+03 -0.53091593387E+03 -0.95341738281E+03  0.11302951761E+04  0.46999998093E+01 0.  1.
       -5    1    3    3    0  502 -0.29439541526E+03  0.53091593387E+03  0.43044609259E+03  0.74420851781E+03  0.46999998093E+01 0. -1.
</event>
<event>
 5   0  0.1035018E-05  0.1802385E+04  0.7818609E-02  0.8705032E-01
       -2   -1    0    0    0  501  0.00000000000E+00  0.00000000000E+00  0.87987822944E+03  0.87987822944E+03  0.25500000920E-02 0. -1.
        2   -1    0    0  501    0  0.00000000000E+00  0.00000000000E+00 -0.92302277271E+03  0.92302277271E+03  0.25500000920E-02 0.  1.
    10030    2    1    2    0    0  0.00000000000E+00  0.00000000000E+00 -0.43144543268E+02  0.18029010022E+04  0.18023846903E+04 0.  0.
        3    1    3    3  502    0 -0.15076611966E+03 -0.54770514547E+02  0.86548354402E+03  0.88022270323E+03  0.10100000352E+00 0. -1.
       -3    1    3    3    0  502  0.15076611966E+03  0.54770514547E+02 -0.90862808729E+03  0.92267829893E+03  0.10100000352E+00 0.  1.
</event>
<event>
 5   0  0.9999162E-06  0.1800483E+04  0.7818609E-02  0.8706043E-01
       -2   -1    0    0    0  501  0.00000000000E+00  0.00000000000E+00  0.40206233209E+03  0.40206233210E+03  0.25500000920E-02 0. -1.
        2   -1    0    0  501    0  0.00000000000E+00  0.00000000000E+00 -0.20156944140E+04  0.20156944140E+04  0.25500000920E-02 0.  1.
    10030    2    1    2    0    0  0.00000000000E+00  0.00000000000E+00 -0.16136320819E+04  0.24177567461E+04  0.18004830429E+04 0.  0.
        1    1    3    3  502    0  0.26997810203E+03  0.23952599096E+03 -0.19142900850E+04  0.19480162744E+04  0.50400001928E-02 0.  1.
       -1    1    3    3    0  502 -0.26997810203E+03 -0.23952599096E+03  0.30065800306E+03  0.46974047170E+03  0.50400001928E-02 0. -1.
</event>
<event>
 5   0  0.4953155E-06  0.1801628E+04  0.7818609E-02  0.8705434E-01
        1   -1    0    0  501    0  0.00000000000E+00  0.00000000000E+00  0.17898483510E+04  0.17898483510E+04  0.50400001928E-02 0. -1.
       -1   -1    0    0    0  501  0.00000000000E+00  0.00000000000E+00 -0.45337113826E+03  0.45337113829E+03  0.50400001928E-02 0.  1.
    10030    2    1    2    0    0  0.00000000000E+00  0.00000000000E+00  0.13364772127E+04  0.22432194893E+04  0.18016276910E+04 0.  0.
        2    1    3    3  502    0 -0.82838850235E+03 -0.33907861469E+03  0.54209649307E+03  0.10464561269E+04  0.25500000920E-02 0.  1.
       -2    1    3    3    0  502  0.82838850235E+03  0.33907861469E+03  0.79438071968E+03  0.11967633624E+04  0.25500000920E-02 0. -1.
</event>
<event>
 5   0  0.4994123E-06  0.1798116E+04  0.7818609E-02  0.8707302E-01
       -1   -1    0    0    0  501  0.00000000000E+00  0.00000000000E+00  0.87539328198E+03  0.87539328199E+03  0.50400001928E-02 0. -1.
        1   -1    0    0  501    0  0.00000000000E+00  0.00000000000E+00 -0.92336243646E+03  0.92336243647E+03  0.50400001928E-02 0.  1.
    10030    2    1    2    0    0  0.00000000000E+00  0.00000000000E+00 -0.47969154484E+02  0.17987557185E+04  0.17981159848E+04 0.  0.
        1    1    3    3  502    0 -0.19847055223E+03 -0.39627798693E+03  0.75852033413E+03  0.87851004567E+03  0.50400001928E-02 0. -1.
       -1    1    3    3    0  502  0.19847055223E+03  0.39627798693E+03 -0.80648948861E+03  0.92024567279E+03  0.50400001928E-02 0.  1.
</event>
<event>
 5   0  0.1000316E-05  0.1801860E+04  0.7818609E-02  0.8705311E-01
       -2   -1    0    0    0  501  0.00000000000E+00  0.00000000000E+00  0.81869795883E+03  0.81869795883E+03  0.25500000920E-02 0. -1.
        2   -1    0    0  501    0  0.00000000000E+00  0.00000000000E+00 -0.99142156105E+03  0.99142156105E+03  0.25500000920E-02 0.  1.
    10030    2    1    2    0    0  0.00000000000E+00  0.00000000000E+00 -0.17272360222E+03  0.18101195199E+04  0.18018599373E+04 0.  0.
        5    1    3    3  502    0 -0.45530069473E+03 -0.52616685365E+03  0.48853976413E+03  0.85020201813E+03  0.46999998093E+01 0. -1.
       -5    1    3    3    0  502  0.45530069473E+03  0.52616685365E+03 -0.66126336635E+03  0.95991750175E+03  0.46999998093E+01 0.  1.
</event>
<event>
 5   0  0.4981384E-06  0.1799846E+04  0.7818609E-02  0.8706381E-01
        1   -1    0    0  501    0  0.00000000000E+00  0.00000000000E+00  0.99347440265E+03  0.99347440266E+03  0.50400001928E-02 0.  1.
       -1   -1    0    0    0  501  0.00000000000E+00  0.00000000000E+00 -0.81518125789E+03  0.81518125790E+03  0.50400001928E-02 0. -1.
    10030    2    1    2    0    0  0.00000000000E+00  0.00000000000E+00  0.17829314476E+03  0.18086556606E+04  0.17998463415E+04 0.  0.
        5    1    3    3  502    0  0.68943728273E+03 -0.40452307968E+03  0.50454245199E+03  0.94527660749E+03  0.46999998093E+01 0.  1.
       -5    1    3    3    0  502 -0.68943728273E+03  0.40452307968E+03 -0.32624930723E+03  0.86337905307E+03  0.46999998093E+01 0. -1.
</event>
<event>
 5   0  0.4983159E-06  0.1800526E+04  0.7818609E-02  0.8706020E-01
       -1   -1    0    0    0  501  0.00000000000E+00  0.00000000000E+00  0.90405158909E+03  0.90405158911E+03  0.50400001928E-02 0. -1.
        1   -1    0    0  501    0  0.00000000000E+00  0.00000000000E+00 -0.89649048990E+03  0.89649048992E+03  0.50400001928E-02 0.  1.
    10030    2    1    2    0    0  0.00000000000E+00  0.00000000000E+00  0.75610991892E+01  0.18005420790E+04  0.18005262031E+04 0.  0.
        4    1    3    3  502    0 -0.23673567896E+03 -0.84508675042E+03 -0.19686179794E+03  0.89942847287E+03  0.12699999809E+01 0.  1.
       -4    1    3    3    0  502  0.23673567896E+03  0.84508675042E+03  0.20442289713E+03  0.90111360615E+03  0.12699999809E+01 0. -1.
</event>
<event>
 5   0  0.1000316E-05  0.1798538E+04  0.7818609E-02  0.8707078E-01
       -2   -1    0    0    0  501  0.00000000000E+00  0.00000000000E+00  0.87993130588E+03  0.87993130589E+03  0.25500000920E-02 0. -1.
        2   -1    0    0  501    0  0.00000000000E+00  0.00000000000E+00 -0.91903117734E+03  0.91903117735E+03  0.25500000920E-02 0.  1.
    10030    2    1    2    0    0  0.00000000000E+00  0.00000000000E+00 -0.39099871460E+02  0.17989624832E+04  0.17985375215E+04 0.  0.
        5    1    3    3  502    0 -0.56564633018E+02  0.17865214213E+03  0.86017255541E+03  0.88036075598E+03  0.46999998093E+01 0. -1.
       -5    1    3    3    0  502  0.56564633018E+02 -0.17865214213E+03 -0.89927242687E+03  0.91860172726E+03  0.46999998093E+01 0.  1.
</event>
<event>
 5   0  0.3626125E-06  0.1799720E+04  0.7818609E-02  0.8706449E-01
        3   -1    0    0  501    0  0.00000000000E+00  0.00000000000E+00  0.43798894818E+03  0.43798895983E+03  0.10100000352E+00 0.  1.
       -3   -1    0    0    0  501  0.00000000000E+00  0.00000000000E+00 -0.18487854431E+04  0.18487854459E+04  0.10100000352E+00 0. -1.
    10030    2    1    2    0    0  0.00000000000E+00  0.00000000000E+00 -0.14107964950E+04  0.22867744057E+04  0.17997195427E+04 0.  0.
        2    1    3    3  502    0 -0.25298043825E+03  0.50404854764E+03  0.18556817508E+03  0.59371675749E+03  0.25500000920E-02 0.  1.
       -2    1    3    3    0  502  0.25298043825E+03 -0.50404854764E+03 -0.15963646700E+04  0.16930576482E+04  0.25500000920E-02 0. -1.
</event>
<event>
 5   0  0.1000316E-05  0.1799959E+04  0.7818609E-02  0.8706321E-01
       -2   -1    0    0    0  501  0.00000000000E+00  0.00000000000E+00  0.50693483019E+03  0.50693483019E+03  0.25500000920E-02 0. -1.
        2   -1    0    0  501    0  0.00000000000E+00  0.00000000000E+00 -0.15977662880E+04  0.15977662880E+04  0.25500000920E-02 0.  1.
    10030    2    1    2    0    0  0.00000000000E+00  0.00000000000E+00 -0.10908314578E+04  0.21047011181E+04  0.17999593127E+04 0.  0.
        5    1    3    3  502    0 -0.82737810624E+03  0.63542458888E+02 -0.13808605074E+03  0.84123838606E+03  0.46999998093E+01 0. -1.
       -5    1    3    3    0  502  0.82737810624E+03 -0.63542458888E+02 -0.95274540702E+03  0.12634627321E+04  0.46999998093E+01 0.  1.
</event>
<event>
 5   0  0.1036381E-05  0.1800438E+04  0.7818609E-02  0.8706066E-01
       -2   -1    0    0    0  501  0.00000000000E+00  0.00000000000E+00  0.71091720673E+03  0.71091720674E+03  0.25500000920E-02 0.  1.
        2   -1    0    0  501    0  0.00000000000E+00  0.00000000000E+00 -0.11399282578E+04  0.11399282578E+04  0.25500000920E-02 0. -1.
    10030    2    1    2    0    0  0.00000000000E+00  0.00000000000E+00 -0.42901105107E+03  0.18508454645E+04  0.18004384054E+04 0.  0.
        4    1    3    3  502    0  0.18519526538E+03 -0.78435549272E+03  0.19782534868E+03  0.82984776120E+03  0.12699999809E+01 0.  1.
       -4    1    3    3    0  502 -0.18519526538E+03  0.78435549272E+03 -0.62683639975E+03  0.10209977033E+04  0.12699999809E+01 0. -1.
</event>
<event>
 5   0  0.9999162E-06  0.1800052E+04  0.7818609E-02  0.8706272E-01
       -2   -1    0    0    0  501  0.00000000000E+00  0.00000000000E+00  0.10644676274E+04  0.10644676274E+04  0.25500000920E-02 0.  1.
        2   -1    0    0  501    0  0.00000000000E+00  0.00000000000E+00 -0.76098810269E+03  0.76098810269E+03  0.25500000920E-02 0. -1.
    10030    2    1    2    0    0  0.00000000000E+00  0.00000000000E+00  0.30347952470E+03  0.18254557301E+04  0.18000524438E+04 0.  0.
        1    1    3    3  502    0 -0.43505215756E+03  0.42771593951E+03  0.82276959543E+03  0.10242856593E+04  0.50400001928E-02 0.  1.
       -1    1    3    3    0  502  0.43505215756E+03 -0.42771593951E+03 -0.51929007073E+03  0.80117007076E+03  0.50400001928E-02 0. -1.
</event>
<event>
 5   0  0.9999162E-06  0.1799958E+04  0.7818609E-02  0.8706322E-01
       -2   -1    0    0    0  501  0.00000000000E+00  0.00000000000E+00  0.14936261512E+04  0.14936261512E+04  0.25500000920E-02 0.  1.
        2   -1    0    0  501    0  0.00000000000E+00  0.00000000000E+00 -0.54227917337E+03  0.54227917337E+03  0.25500000920E-02 0. -1.
    10030    2    1    2    0    0  0.00000000000E+00  0.00000000000E+00  0.95134697784E+03  0.20359053246E+04  0.17999581713E+04 0.  0.
        1    1    3    3  502    0 -0.17192716740E+03 -0.53413467327E+03  0.12715454188E+04  0.13898512698E+04  0.50400001928E-02 0.  1.
       -1    1    3    3    0  502  0.17192716740E+03  0.53413467327E+03 -0.32019844096E+03  0.64605405478E+03  0.50400001928E-02 0. -1.
</event>
<event>
 5   0  0.4953155E-06  0.1803046E+04  0.7818609E-02  0.8704681E-01
       -1   -1    0    0    0  501  0.00000000000E+00  0.00000000000E+00  0.82389581224E+03  0.82389581225E+03  0.50400001928E-02 0. -1.
        1   -1    0    0  501    0  0.00000000000E+00  0.00000000000E+00 -0.98646465069E+03  0.98646465070E+03  0.50400001928E-02 0.  1.
    10030    2    1    2    0    0  0.00000000000E+00  0.00000000000E+00 -0.16256883845E+03  0.18103604630E+04  0.18030464161E+04 0.  0.
        2    1    3    3  502    0  0.66606240954E+03  0.39314697583E+03  0.38377956639E+03  0.86341787890E+03  0.25500000920E-02 0. -1.
       -2    1    3    3    0  502 -0.66606240954E+03 -0.39314697583E+03 -0.54634840484E+03  0.94694258406E+03  0.25500000920E-02 0.  1.
</event>
<event>
 5   0  0.9999162E-06  0.1799508E+04  0.7818609E-02  0.8706561E-01
       -2   -1    0    0    0  501  0.00000000000E+00  0.00000000000E+00  0.49131607661E+03  0.49131607662E+03  0.25500000920E-02 0. -1.
        2   -1    0    0  501    0  0.00000000000E+00  0.00000000000E+00 -0.16477327006E+04  0.16477327006E+04  0.25500000920E-02 0.  1.
    10030    2    1    2    0    0  0.00000000000E+00  0.00000000000E+00 -0.11564166240E+04  0.21390487772E+04  0.17995083393E+04 0.  0.
        1    1    3    3  502    0 -0.23733255771E+02 -0.28600247126E+03 -0.15918695260E+04  0.16175318448E+04  0.50400001928E-02 0.  1.
       -1    1    3    3    0  502  0.23733255771E+02  0.28600247126E+03  0.43545290198E+03  0.52151693248E+03  0.50400001928E-02 0. -1.
</event>
<event>
 5   0  0.4981384E-06  0.1802975E+04  0.7818609E-02  0.8704719E-01
        1   -1    0    0  501    0  0.00000000000E+00  0.00000000000E+00  0.10863161191E+04  0.10863161191E+04  0.50400001928E-02 0. -1.
       -1   -1    0    0    0  501  0.00000000000E+00  0.00000000000E+00 -0.74810588025E+03  0.74810588027E+03  0.50400001928E-02 0.  1.
    10030    2    1    2    0    0  0.00000000000E+00  0.00000000000E+00  0.33821023886E+03  0.18344219994E+04  0.18029747381E+04 0.  0.
        5    1    3    3  502    0 -0.48190670477E+02 -0.72022730057E+03  0.71853096868E+03  0.10185080010E+04  0.46999998093E+01 0. -1.
       -5    1    3    3    0  502  0.48190670477E+02  0.72022730057E+03 -0.38032072982E+03  0.81591399837E+03  0.46999998093E+01 0.  1.
</event>
<event>
 5   0  0.4987456E-06  0.1799613E+04  0.7818609E-02  0.8706505E-01
        1   -1    0    0  501    0  0.00000000000E+00  0.00000000000E+00  0.21987289225E+04  0.21987289225E+04  0.50400001928E-02 0. -1.
       -1   -1    0    0    0  501  0.00000000000E+00  0.00000000000E+00 -0.36823637932E+03  0.36823637935E+03  0.50400001928E-02 0.  1.
    10030    2    1    2    0    0  0.00000000000E+00  0.00000000000E+00  0.18304925432E+04  0.25669653019E+04  0.17996132669E+04 0.  0.
        3    1    3    3  502    0 -0.20049640607E+03 -0.80484074932E+03  0.14128212019E+04  0.16383013152E+04  0.10100000352E+00 0. -1.
       -3    1    3    3    0  502  0.20049640607E+03  0.80484074932E+03  0.41767134128E+03  0.92866398667E+03  0.10100000352E+00 0.  1.
</event>
<event>
 5   0  0.1036381E-05  0.1800987E+04  0.7818609E-02  0.8705775E-01
       -2   -1    0    0    0  501  0.00000000000E+00  0.00000000000E+00  0.59999064079E+03  0.59999064079E+03  0.25500000920E-02 0.  1.
        2   -1    0    0  501    0  0.00000000000E+00  0.00000000000E+00 -0.13515018974E+04  0.13515018974E+04  0.25500000920E-02 0. -1.
    10030    2    1    2    0    0  0.00000000000E+00  0.00000000000E+00 -0.75151125665E+03  0.19514925382E+04  0.18009869400E+04 0.  0.
        4    1    3    3  502    0 -0.27782726158E+03  0.39498263647E+03  0.44781880602E+03  0.65859135001E+03  0.12699999809E+01 0.  1.
       -4    1    3    3    0  502  0.27782726158E+03 -0.39498263647E+03 -0.11993300627E+04  0.12929011882E+04  0.12699999809E+01 0. -1.
</event>
<event>
 5   0  0.4983159E-06  0.1800247E+04  0.7818609E-02  0.8706168E-01
        1   -1    0    0  501    0  0.00000000000E+00  0.00000000000E+00  0.28147203562E+04  0.28147203562E+04  0.50400001928E-02 0. -1.
       -1   -1    0    0    0  501  0.00000000000E+00  0.00000000000E+00 -0.28785186650E+03  0.28785186655E+03  0.50400001928E-02 0.  1.
    10030    2    1    2    0    0  0.00000000000E+00  0.00000000000E+00  0.25268684897E+04  0.31025722227E+04  0.18002472144E+04 0.  0.
        4    1    3    3  502    0 -0.67474456475E+03  0.53905336947E+03  0.82620926627E+03  0.11951912514E+04  0.12699999809E+01 0.  1.
       -4    1    3    3    0  502  0.67474456475E+03 -0.53905336947E+03  0.17006592234E+04  0.19073809713E+04  0.12699999809E+01 0. -1.
</event>
<event>
 5   0  0.1035018E-05  0.1796931E+04  0.7818609E-02  0.8707933E-01
       -2   -1    0    0    0  501  0.00000000000E+00  0.00000000000E+00  0.62867466789E+03  0.62867466789E+03  0.25500000920E-02 0.  1.
        2   -1    0    0  501    0  0.00000000000E+00  0.00000000000E+00 -0.12840349085E+04  0.12840349086E+04  0.25500000920E-02 0. -1.
    10030    2    1    2    0    0  0.00000000000E+00  0.00000000000E+00 -0.65536024066E+03  0.19127095764E+04  0.17969309610E+04 0.  0.
        3    1    3    3  502    0  0.86318914691E+03  0.13165251064E+03 -0.55300874581E+03  0.10335601434E+04  0.10100000352E+00 0. -1.
       -3    1    3    3    0  502 -0.86318914691E+03 -0.13165251064E+03 -0.10235149486E+03  0.87914943303E+03  0.10100000352E+00 0.  1.
</event>
<event>
 5   0  0.1035018E-05  0.1800083E+04  0.7818609E-02  0.8706255E-01
        2   -1    0    0  501    0  0.00000000000E+00  0.00000000000E+00  0.18259351284E+04  0.18259351284E+04  0.25500000920E-02 0. -1.
       -2   -1    0    0    0  501  0.00000000000E+00  0.00000000000E+00 -0.44364940316E+03  0.44364940317E+03  0.25500000920E-02 0.  1.
    10030    2    1    2    0    0  0.00000000000E+00  0.00000000000E+00  0.13822857252E+04  0.22695845316E+04  0.18000833647E+04 0.  0.
        3    1    3    3  502    0 -0.47366853785E+03 -0.75763842943E+03  0.82750496995E+03  0.12178433228E+04  0.10100000352E+00 0.  1.
       -3    1    3    3    0  502  0.47366853785E+03  0.75763842943E+03  0.55478075529E+03  0.10517412087E+04  0.10100000352E+00 0. -1.
</event>
<event>
 5   0  0.1035018E-05  0.1800220E+04  0.7818609E-02  0.8706182E-01
        2   -1    0    0  501    0  0.00000000000E+00  0.00000000000E+00  0.15255410765E+04  0.15255410765E+04  0.25500000920E-02 0. -1.
       -2   -1    0    0    0  501  0.00000000000E+00  0.00000000000E+00 -0.53108924697E+03  0.53108924698E+03  0.25500000920E-02 0.  1.
    10030    2    1    2    0    0  0.00000000000E+00  0.00000000000E+00  0.99445182949E+03  0.20566303234E+04  0.18002204993E+04 0.  0.
        3    1    3    3  502    0 -0.81409454585E+03 -0.34051214573E+03  0.69998756227E+03  0.11263574248E+04  0.10100000352E+00 0. -1.
       -3    1    3    3    0  502  0.81409454585E+03  0.34051214573E+03  0.29446426722E+03  0.93027289859E+03  0.10100000352E+00 0.  1.
</event>
<event>
 5   0  0.4953155E-06  0.1802799E+04  0.7818609E-02  0.8704813E-01
       -1   -1    0    0    0  501  0.00000000000E+00  0.00000000000E+00  0.50466935737E+03  0.50466935740E+03  0.50400001928E-02 0. -1.
        1   -1    0    0  501    0  0.00000000000E+00  0.00000000000E+00 -0.16100060694E+04  0.16100060694E+04  0.50400001928E-02 0.  1.
    10030    2    1    2    0    0  0.00000000000E+00  0.00000000000E+00 -0.11053367120E+04  0.21146754268E+04  0.18027986337E+04 0.  0.
        2    1    3    3  502    0 -0.56660800386E+03  0.69818242752E+03 -0.62701627816E+03  0.10961992270E+04  0.25500000920E-02 0. -1.
       -2    1    3    3    0  502  0.56660800386E+03 -0.69818242752E+03 -0.47832043385E+03  0.10184761998E+04  0.25500000920E-02 0.  1.
</event>
<event>
 5   0  0.1000316E-05  0.1801254E+04  0.7818609E-02  0.8705633E-01
        2   -1    0    0  501    0  0.00000000000E+00  0.00000000000E+00  0.77349027923E+03  0.77349027924E+03  0.25500000920E-02 0.  1.
       -2   -1    0    0    0  501  0.00000000000E+00  0.00000000000E+00 -0.10486613528E+04  0.10486613528E+04  0.25500000920E-02 0. -1.
    10030    2    1    2    0    0  0.00000000000E+00  0.00000000000E+00 -0.27517107355E+03  0.18221516320E+04  0.18012544102E+04 0.  0.
        5    1    3    3  502    0  0.49218570302E+03 -0.75413115606E+03 -0.12533280039E+03  0.90922547679E+03  0.46999998093E+01 0. -1.
       -5    1    3    3    0  502 -0.49218570302E+03  0.75413115606E+03 -0.14983827316E+03  0.91292615523E+03  0.46999998093E+01 0.  1.
</event>
<event>
 5   0  0.1000316E-05  0.1796998E+04  0.7818609E-02  0.8707898E-01
        2   -1    0    0  501    0  0.00000000000E+00  0.00000000000E+00  0.11368660302E+04  0.11368660302E+04  0.25500000920E-02 0. -1.
       -2   -1    0    0    0  501  0.00000000000E+00  0.00000000000E+00 -0.71011016849E+03  0.71011016850E+03  0.25500000920E-02 0.  1.
    10030    2    1    2    0    0  0.00000000000E+00  0.00000000000E+00  0.42675586166E+03  0.18469761987E+04  0.17969976385E+04 0.  0.
        5    1    3    3  502    0  0.48823632981E+03  0.16064161722E+03  0.97082577247E+03  0.10985013489E+04  0.46999998093E+01 0. -1.
       -5    1    3    3    0  502 -0.48823632981E+03 -0.16064161722E+03 -0.54406991081E+03  0.74847484980E+03  0.46999998093E+01 0.  1.
</event>
<event>
 5   0  0.1036381E-05  0.1799834E+04  0.7818609E-02  0.8706388E-01
       -2   -1    0    0    0  501  0.00000000000E+00  0.00000000000E+00  0.77328054177E+03  0.77328054177E+03  0.25500000920E-02 0.  1.
        2   -1    0    0  501    0  0.00000000000E+00  0.00000000000E+00 -0.10472917338E+04  0.10472917338E+04  0.25500000920E-02 0. -1.
    10030    2    1    2    0    0  0.00000000000E+00  0.00000000000E+00 -0.27401119205E+03  0.18205722756E+04  0.17998336805E+04 0.  0.
        4    1    3    3  502    0  0.19171593427E+03 -0.53955748523E+03  0.56523542762E+03  0.80459305295E+03  0.12699999809E+01 0.  1.
       -4    1    3    3    0  502 -0.19171593427E+03  0.53955748523E+03 -0.83924661967E+03  0.10159792226E+04  0.12699999809E+01 0. -1.
</event>
<event>
 5   0  0.1036381E-05  0.1799531E+04  0.7818609E-02  0.8706549E-01
        2   -1    0    0  501    0  0.00000000000E+00  0.00000000000E+00  0.30641766564E+04  0.30641766564E+04  0.25500000920E-02 0.  1.
       -2   -1    0    0    0  501  0.00000000000E+00  0.00000000000E+00 -0.26420740683E+03  0.26420740684E+03  0.25500000920E-02 0. -1.
    10030    2    1    2    0    0  0.00000000000E+00  0.00000000000E+00  0.27999692495E+04  0.33283840632E+04  0.17995312373E+04 0.  0.
        4    1    3    3  502    0  0.12540006546E+03 -0.67388876154E+03  0.32193686886E+03  0.75729531874E+03  0.12699999809E+01 0. -1.
       -4    1    3    3    0  502 -0.12540006546E+03  0.67388876154E+03  0.24780323807E+04  0.25710887445E+04  0.12699999809E+01 0.  1.
</event>
<event>
 5   0  0.4953155E-06  0.1799726E+04  0.7818609E-02  0.8706445E-01
        1   -1    0    0  501    0  0.00000000000E+00  0.00000000000E+00  0.59913511268E+03  0.59913511270E+03  0.50400001928E-02 0. -1.
       -1   -1    0    0    0  501  0.00000000000E+00  0.00000000000E+00 -0.13515374622E+04  0.13515374622E+04  0.50400001928E-02 0.  1.
    10030    2    1    2    0    0  0.00000000000E+00  0.00000000000E+00 -0.75240234948E+03  0.19506725749E+04  0.17997261455E+04 0.  0.
        2    1    3    3  502    0 -0.85824837910E+03 -0.18134176955E+02 -0.83687422652E+02  0.86250954390E+03  0.25500000920E-02 0. -1.
       -2    1    3    3    0  502  0.85824837910E+03  0.18134176955E+02 -0.66871492683E+03  0.10881630310E+04  0.25500000920E-02 0.  1.
</event>
<event>
 5   0  0.1035018E-05  0.1809648E+04  0.7818609E-02  0.8701186E-01
       -2   -1    0    0    0  501  0.00000000000E+00  0.00000000000E+00  0.68024190825E+03  0.68024190826E+03  0.25500000920E-02 0. -1.
        2   -1    0    0  501    0  0.00000000000E+00  0.00000000000E+00 -0.12035513324E+04  0.12035513324E+04  0.25500000920E-02 0.  1.
    10030    2    1    2    0    0  0.00000000000E+00  0.00000000000E+00 -0.52330942418E+03  0.18837932407E+04  0.18096475403E+04 0.  0.
        3    1    3    3  502    0 -0.27873462533E+03  0.18669169112E+03  0.61310861651E+03  0.69889123956E+03  0.10100000352E+00 0. -1.
       -3    1    3    3    0  502  0.27873462533E+03 -0.18669169112E+03 -0.11364180407E+04  0.11849020011E+04  0.10100000352E+00 0.  1.
</event>
<event>
 5   0  0.4983159E-06  0.1801120E+04  0.7818609E-02  0.8705704E-01
        1   -1    0    0  501    0  0.00000000000E+00  0.00000000000E+00  0.18931247153E+04  0.18931247153E+04  0.50400001928E-02 0.  1.
       -1   -1    0    0    0  501  0.00000000000E+00  0.00000000000E+00 -0.42839663596E+03  0.42839663599E+03  0.50400001928E-02 0. -1.
    10030    2    1    2    0    0  0.00000000000E+00  0.00000000000E+00  0.14647280793E+04  0.23215213513E+04  0.18011199399E+04 0.  0.
        4    1    3    3  502    0  0.31452211793E+02  0.12004524448E+03  0.18820499827E+04  0.18861372836E+04  0.12699999809E+01 0.  1.
       -4    1    3    3    0  502 -0.31452211793E+02 -0.12004524448E+03 -0.41732190343E+03  0.43538406761E+03  0.12699999809E+01 0. -1.
</event>
<event>
 5   0  0.9999162E-06  0.1800021E+04  0.7818609E-02  0.8706288E-01
        2   -1    0    0  501    0  0.00000000000E+00  0.00000000000E+00  0.91710052428E+03  0.91710052428E+03  0.25500000920E-02 0. -1.
       -2   -1    0    0    0  501  0.00000000000E+00  0.00000000000E+00 -0.88323932398E+03  0.88323932399E+03  0.25500000920E-02 0.  1.
    10030    2    1    2    0    0  0.00000000000E+00  0.00000000000E+00  0.33861200299E+02  0.18003398483E+04  0.18000213855E+04 0.  0.
        1    1    3    3  502    0  0.45801005341E+03 -0.12595178536E+03  0.78151479029E+03  0.91455039704E+03  0.50400001928E-02 0. -1.
       -1    1    3    3    0  502 -0.45801005341E+03  0.12595178536E+03 -0.74765358999E+03  0.88578945123E+03  0.50400001928E-02 0.  1.
</event>
<event>
 5   0  0.9589963E-06  0.1799856E+04  0.7818609E-02  0.8706376E-01
        2   -1    0    0  501    0  0.00000000000E+00  0.00000000000E+00  0.15203988032E+04  0.15203988032E+04  0.25500000920E-02 0.  1.
       -2   -1    0    0    0  501  0.00000000000E+00  0.00000000000E+00 -0.53266957508E+03  0.53266957509E+03  0.25500000920E-02 0. -1.
    10030    2    1    2    0    0  0.00000000000E+00  0.00000000000E+00  0.98772922812E+03  0.20530683783E+04  0.17998557547E+04 0.  0.
        2    1    3    3  502    0  0.65831692916E+03  0.56243602564E+03  0.77363424897E+03  0.11611310922E+04  0.25500000920E-02 0.  1.
       -2    1    3    3    0  502 -0.65831692916E+03 -0.56243602564E+03  0.21409497914E+03  0.89193728606E+03  0.25500000920E-02 0. -1.
</event>
<event>
 5   0  0.4983159E-06  0.1798889E+04  0.7818609E-02  0.8706890E-01
       -1   -1    0    0    0  501  0.00000000000E+00  0.00000000000E+00  0.62274548423E+03  0.62274548425E+03  0.50400001928E-02 0. -1.
        1   -1    0    0  501    0  0.00000000000E+00  0.00000000000E+00 -0.12990871677E+04  0.12990871677E+04  0.50400001928E-02 0.  1.
    10030    2    1    2    0    0  0.00000000000E+00  0.00000000000E+00 -0.67634168343E+03  0.19218326519E+04  0.17988892877E+04 0.  0.
        4    1    3    3  502    0  0.72595792653E+03 -0.61265364121E+02  0.22535476491E+03  0.76259736356E+03  0.12699999809E+01 0.  1.
       -4    1    3    3    0  502 -0.72595792653E+03  0.61265364121E+02 -0.90169644834E+03  0.11592352884E+04  0.12699999809E+01 0. -1.
</event>
<event>
 5   0  0.4953155E-06  0.1800108E+04  0.7818609E-02  0.8706242E-01
       -1   -1    0    0    0  501  0.00000000000E+00  0.00000000000E+00  0.62892480472E+03  0.62892480474E+03  0.50400001928E-02 0.  1.
        1   -1    0    0  501    0  0.00000000000E+00  0.00000000000E+00 -0.12880665184E+04  0.12880665184E+04  0.50400001928E-02 0. -1.
    10030    2    1    2    0    0  0.00000000000E+00  0.00000000000E+00 -0.65914171369E+03  0.19169913231E+04  0.18001077563E+04 0.  0.
        2    1    3    3  502    0 -0.12350792686E+03 -0.25553549836E+03 -0.12391646820E+04  0.12712520238E+04  0.25500000920E-02 0. -1.
       -2    1    3    3    0  502  0.12350792686E+03  0.25553549836E+03  0.58002296832E+03  0.64573929933E+03  0.25500000920E-02 0.  1.
</event>
<event>
 5   0  0.1036381E-05  0.1800426E+04  0.7818609E-02  0.8706073E-01
       -2   -1    0    0    0  501  0.00000000000E+00  0.00000000000E+00  0.41262996641E+03  0.41262996642E+03  0.25500000920E-02 0.  1.
        2   -1    0    0  501    0  0.00000000000E+00  0.00000000000E+00 -0.19639479205E+04  0.19639479205E+04  0.25500000920E-02 0. -1.
    10030    2    1    2    0    0  0.00000000000E+00  0.00000000000E+00 -0.15513179541E+04  0.23765778870E+04  0.18004263545E+04 0.  0.
        4    1    3    3  502    0  0.42299479813E+03  0.55703942995E+03 -0.27591898078E+02  0.69998603665E+03  0.12699999809E+01 0.  1.
       -4    1    3    3    0  502 -0.42299479813E+03 -0.55703942995E+03 -0.15237260561E+04  0.16765918503E+04  0.12699999809E+01 0. -1.
</event>
<event>
 5   0  0.1036381E-05  0.1799733E+04  0.7818609E-02  0.8706441E-01
        2   -1    0    0  501    0  0.00000000000E+00  0.00000000000E+00  0.99700295553E+03  0.99700295553E+03  0.25500000920E-02 0.  1.
       -2   -1    0    0    0  501  0.00000000000E+00  0.00000000000E+00 -0.81219396176E+03  0.81219396177E+03  0.25500000920E-02 0. -1.
    10030    2    1    2    0    0  0.00000000000E+00  0.00000000000E+00  0.18480899377E+03  0.18091969173E+04  0.17997330695E+04 0.  0.
        4    1    3    3  502    0 -0.33881622992E+03  0.73513600506E+03 -0.30277433866E+03  0.86423104355E+03  0.12699999809E+01 0. -1.
       -4    1    3    3    0  502  0.33881622992E+03 -0.73513600506E+03  0.48758333243E+03  0.94496587375E+03  0.12699999809E+01 0.  1.
</event>
<event>
 5   0  0.4983159E-06  0.1800559E+04  0.7818609E-02  0.8706002E-01
        1   -1    0    0  501    0  0.00000000000E+00  0.00000000000E+00  0.84826935522E+03  0.84826935523E+03  0.50400001928E-02 0.  1.
       -1   -1    0    0    0  501  0.00000000000E+00  0.00000000000E+00 -0.95547899295E+03  0.95547899296E+03  0.50400001928E-02 0. -1.
    10030    2    1    2    0    0  0.00000000000E+00  0.00000000000E+00 -0.10720963773E+03  0.18037483482E+04  0.18005594123E+04 0.  0.
        4    1    3    3  502    0  0.27101943988E+03  0.30531886790E+03  0.75020695046E+03  0.85409790382E+03  0.12699999809E+01 0.  1.
       -4    1    3    3    0  502 -0.27101943988E+03 -0.30531886790E+03 -0.85741658819E+03  0.94965044437E+03  0.12699999809E+01 0. -1.
</event>
<event>
 5   0  0.4953155E-06  0.1800466E+04  0.7818609E-02  0.8706052E-01
       -1   -1    0    0    0  501  0.00000000000E+00  0.00000000000E+00  0.92718150428E+03  0.92718150430E+03  0.50400001928E-02 0.  1.
        1   -1    0    0  501    0  0.00000000000E+00  0.00000000000E+00 -0.87406756566E+03  0.87406756567E+03  0.50400001928E-02 0. -1.
    10030    2    1    2    0    0  0.00000000000E+00  0.00000000000E+00  0.53113938624E+02  0.18012490700E+04  0.18004658068E+04 0.  0.
        2    1    3    3  502    0  0.33387249317E+03 -0.64200278545E+03 -0.50919524494E+03  0.88482665856E+03  0.25500000920E-02 0. -1.
       -2    1    3    3    0  502 -0.33387249317E+03  0.64200278545E+03  0.56230918356E+03  0.91642241142E+03  0.25500000920E-02 0.  1.
</event>
<event>
 5   0  0.1000316E-05  0.1799436E+04  0.7818609E-02  0.8706599E-01
        2   -1    0    0  501    0  0.00000000000E+00  0.00000000000E+00  0.22907977272E+04  0.22907977272E+04  0.25500000920E-02 0.  1.
       -2   -1    0    0    0  501  0.00000000000E+00  0.00000000000E+00 -0.35336705400E+03  0.35336705401E+03  0.25500000920E-02 0. -1.
    10030    2    1    2    0    0  0.00000000000E+00  0.00000000000E+00  0.19374306732E+04  0.26441647812E+04  0.17994359607E+04 0.  0.
        5    1    3    3  502    0 -0.33808649520E+03  0.72954671143E+03  0.37558253006E+03  0.88748251210E+03  0.46999998093E+01 0. -1.
       -5    1    3    3    0  502  0.33808649520E+03 -0.72954671143E+03  0.15618481431E+04  0.17566822691E+04  0.46999998093E+01 0.  1.
</event>
<event>
 5   0  0.1000316E-05  0.1790936E+04  0.7818609E-02  0.8711135E-01
        2   -1    0    0  501    0  0.00000000000E+00  0.00000000000E+00  0.11495800866E+04  0.11495800866E+04  0.25500000920E-02 0.  1.
       -2   -1    0    0    0  501  0.00000000000E+00  0.00000000000E+00 -0.69752675292E+03  0.69752675293E+03  0.25500000920E-02 0. -1.
    10030    2    1    2    0    0  0.00000000000E+00  0.00000000000E+00  0.45205333372E+03  0.18471068396E+04  0.17909359174E+04 0.  0.
        5    1    3    3  502    0  0.67042102098E+03  0.47008600256E+03 -0.14782760547E+03  0.83205786224E+03  0.46999998093E+01 0. -1.
       -5    1    3    3    0  502 -0.67042102098E+03 -0.47008600256E+03  0.59988093919E+03  0.10150489773E+04  0.46999998093E+01 0.  1.
</event>
<event>
 5   0  0.4981384E-06  0.1803154E+04  0.7818609E-02  0.8704624E-01
       -1   -1    0    0    0  501  0.00000000000E+00  0.00000000000E+00  0.63902318964E+03  0.63902318966E+03  0.50400001928E-02 0. -1.
        1   -1    0    0  501    0  0.00000000000E+00  0.00000000000E+00 -0.12720050709E+04  0.12720050709E+04  0.50400001928E-02 0.  1.
    10030    2    1    2    0    0  0.00000000000E+00  0.00000000000E+00 -0.63298188128E+03  0.19110282606E+04  0.18031536126E+04 0.  0.
        5    1    3    3  502    0  0.31250865126E+03 -0.62892968979E+03 -0.91564814041E+03  0.11539704584E+04  0.46999998093E+01 0.  1.
       -5    1    3    3    0  502 -0.31250865126E+03  0.62892968979E+03  0.28266625914E+03  0.75705780220E+03  0.46999998093E+01 0. -1.
</event>
<event>
 5   0  0.9589963E-06  0.1799703E+04  0.7818609E-02  0.8706458E-01
        2   -1    0    0  501    0  0.00000000000E+00  0.00000000000E+00  0.11932968929E+04  0.11932968929E+04  0.25500000920E-02 0. -1.
       -2   -1    0    0    0  501  0.00000000000E+00  0.00000000000E+00 -0.67856757073E+03  0.67856757074E+03  0.25500000920E-02 0.  1.
    10030    2    1    2    0    0  0.00000000000E+00  0.00000000000E+00  0.51472932219E+03  0.18718644637E+04  0.17997028352E+04 0.  0.
        2    1    3    3  502    0  0.11349254536E+03 -0.90382735501E+02 -0.66632234070E+03  0.68193479047E+03  0.25500000920E-02 0.  1.
       -2    1    3    3    0  502 -0.11349254536E+03  0.90382735501E+02  0.11810516629E+04  0.11899296732E+04  0.25500000920E-02 0. -1.
</event>
<event>
 5   0  0.4983159E-06  0.1799946E+04  0.7818609E-02  0.8706328E-01
        1   -1    0    0  501    0  0.00000000000E+00  0.00000000000E+00  0.74222251678E+03  0.74222251680E+03  0.50400001928E-02 0. -1.
       -1   -1    0    0    0  501  0.00000000000E+00  0.00000000000E+00 -0.10912518957E+04  0.10912518957E+04  0.50400001928E-02 0.  1.
    10030    2    1    2    0    0  0.00000000000E+00  0.00000000000E+00 -0.34902937894E+03  0.18334744125E+04  0.17999463642E+04 0.  0.
        4    1    3    3  502    0 -0.23150761238E+03 -0.66919204459E+03  0.39129249429E+03  0.80902731482E+03  0.12699999809E+01 0. -1.
       -4    1    3    3    0  502  0.23150761238E+03  0.66919204459E+03 -0.74032187322E+03  0.10244470977E+04  0.12699999809E+01 0.  1.
</event>
<event>
 5   0  0.1035018E-05  0.1799619E+04  0.7818609E-02  0.8706502E-01
       -2   -1    0    0    0  501  0.00000000000E+00  0.00000000000E+00  0.95110104420E+03  0.95110104421E+03  0.25500000920E-02 0. -1.
        2   -1    0    0  501    0  0.00000000000E+00  0.00000000000E+00 -0.85128359940E+03  0.85128359940E+03  0.25500000920E-02 0.  1.
    10030    2    1    2    0    0  0.00000000000E+00  0.00000000000E+00  0.99817444805E+02  0.18023846436E+04  0.17996185377E+04 0.  0.
        3    1    3    3  502    0  0.80674111927E+03 -0.32043795088E+03 -0.18740483458E+03  0.88804971489E+03  0.10100000352E+00 0.  1.
       -3    1    3    3    0  502 -0.80674111927E+03  0.32043795088E+03  0.28722227938E+03  0.91433492872E+03  0.10100000352E+00 0. -1.
</event>
<event>
 5   0  0.3626125E-06  0.1799787E+04  0.7818609E-02  0.8706413E-01
       -4   -1    0    0    0  501  0.00000000000E+00  0.00000000000E+00  0.78996744831E+03  0.78996846917E+03  0.12699999809E+01 0.  1.
        4   -1    0    0  501    0  0.00000000000E+00  0.00000000000E+00 -0.10251144207E+04  0.10251152074E+04  0.12699999809E+01 0. -1.
    10030    2    1    2    0    0  0.00000000000E+00  0.00000000000E+00 -0.23514697240E+03  0.18150836766E+04  0.17997873914E+04 0.  0.
        1    1    3    3  502    0  0.20198940945E+03 -0.40962365238E+03  0.66439854267E+03  0.80623612028E+03  0.50400001928E-02 0.  1.
       -1    1    3    3    0  502 -0.20198940945E+03  0.40962365238E+03 -0.89954551507E+03  0.10088475563E+04  0.50400001928E-02 0. -1.
</event>
<event>
 5   0  0.9589963E-06  0.1798290E+04  0.7818609E-02  0.8707210E-01
       -2   -1    0    0    0  501  0.00000000000E+00  0.00000000000E+00  0.83798466812E+03  0.83798466812E+03  0.25500000920E-02 0.  1.
        2   -1    0    0  501    0  0.00000000000E+00  0.00000000000E+00 -0.96476859189E+03  0.96476859190E+03  0.25500000920E-02 0. -1.
    10030    2    1    2    0    0  0.00000000000E+00  0.00000000000E+00 -0.12678392377E+03  0.18027532600E+04  0.17982895076E+04 0.  0.
        2    1    3    3  502    0 -0.39997676503E+03  0.44342805587E+03  0.61047553956E+03  0.85398491655E+03  0.25500000920E-02 0.  1.
       -2    1    3    3    0  502  0.39997676503E+03 -0.44342805587E+03 -0.73725946333E+03  0.94876834347E+03  0.25500000920E-02 0. -1.
</event>
<event>
 5   0  0.4987456E-06  0.1796906E+04  0.7818609E-02  0.8707947E-01
       -1   -1    0    0    0  501  0.00000000000E+00  0.00000000000E+00  0.92115768879E+03  0.92115768880E+03  0.50400001928E-02 0. -1.
        1   -1    0    0  501    0  0.00000000000E+00  0.00000000000E+00 -0.87630762241E+03  0.87630762243E+03  0.50400001928E-02 0.  1.
    10030    2    1    2    0    0  0.00000000000E+00  0.00000000000E+00  0.44850066378E+02  0.17974653112E+04  0.17969056783E+04 0.  0.
        3    1    3    3  502    0 -0.46751327638E+03  0.99088653689E+02  0.78347093851E+03  0.91772215108E+03  0.10100000352E+00 0. -1.
       -3    1    3    3    0  502  0.46751327638E+03 -0.99088653689E+02 -0.73862087213E+03  0.87974316015E+03  0.10100000352E+00 0.  1.
</event>
<event>
 5   0  0.9589963E-06  0.1800100E+04  0.7818609E-02  0.8706246E-01
       -2   -1    0    0    0  501  0.00000000000E+00  0.00000000000E+00  0.52610482479E+03  0.52610482480E+03  0.25500000920E-02 0.  1.
        2   -1    0    0  501    0  0.00000000000E+00  0.00000000000E+00 -0.15397882410E+04  0.15397882410E+04  0.25500000920E-02 0. -1.
    10030    2    1    2    0    0  0.00000000000E+00  0.00000000000E+00 -0.10136834162E+04  0.20658930658E+04  0.18001000225E+04 0.  0.
        2    1    3    3  502    0 -0.12912026957E+03 -0.72278589722E+03  0.90598798541E+02  0.73979702590E+03  0.25500000920E-02 0.  1.
       -2    1    3    3    0  502  0.12912026957E+03  0.72278589722E+03 -0.11042822148E+04  0.13260960399E+04  0.25500000920E-02 0. -1.
</event>
<event>
 5   0  0.4981384E-06  0.1809380E+04  0.7818609E-02  0.8701327E-01
        1   -1    0    0  501    0  0.00000000000E+00  0.00000000000E+00  0.16320723957E+04  0.16320723957E+04  0.50400001928E-02 0. -1.
       -1   -1    0    0    0  501  0.00000000000E+00  0.00000000000E+00 -0.50148769997E+03  0.50148770000E+03  0.50400001928E-02 0.  1.
    10030    2    1    2    0    0  0.00000000000E+00  0.00000000000E+00  0.11305846958E+04  0.21335600957E+04  0.18093802607E+04 0.  0.
        5    1    3    3  502    0 -0.42485886476E+03  0.23445698061E+03 -0.33502790926E+03  0.58969561700E+03  0.46999998093E+01 0.  1.
       -5    1    3    3    0  502  0.42485886476E+03 -0.23445698061E+03  0.14656126050E+04  0.15438644787E+04  0.46999998093E+01 0. -1.
</event>
<event>
 5   0  0.4983159E-06  0.1798811E+04  0.7818609E-02  0.8706932E-01
       -1   -1    0    0    0  501  0.00000000000E+00  0.00000000000E+00  0.53742819830E+03  0.53742819832E+03  0.50400001928E-02 0.  1.
        1   -1    0    0  501    0  0.00000000000E+00  0.00000000000E+00 -0.15051878920E+04  0.15051878920E+04  0.50400001928E-02 0. -1.
    10030    2    1    2    0    0  0.00000000000E+00  0.00000000000E+00 -0.96775969369E+03  0.20426160903E+04  0.17988111818E+04 0.  0.
        4    1    3    3  502    0 -0.83487335863E+03  0.32908340169E+03 -0.41556437222E+03  0.98894123717E+03  0.12699999809E+01 0.  1.
       -4    1    3    3    0  502  0.83487335863E+03 -0.32908340169E+03 -0.55219532147E+03  0.10536748532E+04  0.12699999809E+01 0. -1.
</event>
<event>
 5   0  0.1035018E-05  0.1799259E+04  0.7818609E-02  0.8706693E-01
        2   -1    0    0  501    0  0.00000000000E+00  0.00000000000E+00  0.22926037660E+04  0.22926037660E+04  0.25500000920E-02 0. -1.
       -2   -1    0    0    0  501  0.00000000000E+00  0.00000000000E+00 -0.35301933471E+03  0.35301933472E+03  0.25500000920E-02 0.  1.
    10030    2    1    2    0    0  0.00000000000E+00  0.00000000000E+00  0.19395844312E+04  0.26456231007E+04  0.17992592434E+04 0.  0.
        3    1    3    3  502    0  0.81910934990E+03  0.37073231470E+03  0.92445083402E+03  0.12895704444E+04  0.10100000352E+00 0. -1.
       -3    1    3    3    0  502 -0.81910934990E+03 -0.37073231470E+03  0.10151335972E+04  0.13560526563E+04  0.10100000352E+00 0.  1.
</event>
<event>
 5   0  0.4987456E-06  0.1799953E+04  0.7818609E-02  0.8706324E-01
       -1   -1    0    0    0  501  0.00000000000E+00  0.00000000000E+00  0.53297995484E+03  0.53297995486E+03  0.50400001928E-02 0.  1.
        1   -1    0    0  501    0  0.00000000000E+00  0.00000000000E+00 -0.15196776447E+04  0.15196776447E+04  0.50400001928E-02 0. -1.
    10030    2    1    2    0    0  0.00000000000E+00  0.00000000000E+00 -0.98669768985E+03  0.20526575996E+04  0.17999530244E+04 0.  0.
        3    1    3    3  502    0  0.23237237013E+03  0.59439809625E+03 -0.12169847502E+04  0.13741753555E+04  0.10100000352E+00 0. -1.
       -3    1    3    3    0  502 -0.23237237013E+03 -0.59439809625E+03  0.23028706030E+03  0.67848224411E+03  0.10100000352E+00 0.  1.
</event>
<event>
 5   0  0.4953155E-06  0.1798796E+04  0.7818609E-02  0.8706940E-01
        1   -1    0    0  501    0  0.00000000000E+00  0.00000000000E+00  0.79704447044E+03  0.79704447046E+03  0.50400001928E-02 0.  1.
       -1   -1    0    0    0  501  0.00000000000E+00  0.00000000000E+00 -0.10148955249E+04  0.10148955249E+04  0.50400001928E-02 0. -1.
    10030    2    1    2    0    0  0.00000000000E+00  0.00000000000E+00 -0.21785105446E+03  0.18119399954E+04  0.17987961154E+04 0.  0.
        2    1    3    3  502    0  0.17212542353E+03  0.34397829731E+03 -0.92786592727E+03  0.10044318839E+04  0.25500000920E-02 0. -1.
       -2    1    3    3    0  502 -0.17212542353E+03 -0.34397829731E+03  0.71001487281E+03  0.80750811145E+03  0.25500000920E-02 0.  1.
</event>
<event>
 5   0  0.4953155E-06  0.1799540E+04  0.7818609E-02  0.8706544E-01
        1   -1    0    0  501    0  0.00000000000E+00  0.00000000000E+00  0.66845695210E+03  0.66845695212E+03  0.50400001928E-02 0.  1.
       -1   -1    0    0    0  501  0.00000000000E+00  0.00000000000E+00 -0.12111267764E+04  0.12111267764E+04  0.50400001928E-02 0. -1.
    10030    2    1    2    0    0  0.00000000000E+00  0.00000000000E+00 -0.54266982431E+03  0.18795837285E+04  0.17995400675E+04 0.  0.
        2    1    3    3  502    0  0.23673743243E+03  0.86186785521E+03 -0.16316538845E+03  0.90856136598E+03  0.25500000920E-02 0. -1.
       -2    1    3    3    0  502 -0.23673743243E+03 -0.86186785521E+03 -0.37950443586E+03  0.97102236256E+03  0.25500000920E-02 0.  1.
</event>
<event>
 5   0  0.1036381E-05  0.1804487E+04  0.7818609E-02  0.8703917E-01
       -2   -1    0    0    0  501  0.00000000000E+00  0.00000000000E+00  0.69125970878E+03  0.69125970879E+03  0.25500000920E-02 0. -1.
        2   -1    0    0  501    0  0.00000000000E+00  0.00000000000E+00 -0.11776227343E+04  0.11776227343E+04  0.25500000920E-02 0.  1.
    10030    2    1    2    0    0  0.00000000000E+00  0.00000000000E+00 -0.48636302552E+03  0.18688824431E+04  0.18044867951E+04 0.  0.
        4    1    3    3  502    0  0.35366044257E+03  0.29684655401E+03  0.55962440986E+03  0.72551683528E+03  0.12699999809E+01 0. -1.
       -4    1    3    3    0  502 -0.35366044257E+03 -0.29684655401E+03 -0.10459874354E+04  0.11433656078E+04  0.12699999809E+01 0.  1.
</event>
<event>
 5   0  0.4994123E-06  0.1795933E+04  0.7818609E-02  0.8708465E-01
        1   -1    0    0  501    0  0.00000000000E+00  0.00000000000E+00  0.15683177937E+04  0.15683177938E+04  0.50400001928E-02 0. -1.
       -1   -1    0    0    0  501  0.00000000000E+00  0.00000000000E+00 -0.51414573509E+03  0.51414573512E+03  0.50400001928E-02 0.  1.
    10030    2    1    2    0    0  0.00000000000E+00  0.00000000000E+00  0.10541720587E+04  0.20824635289E+04  0.17959330778E+04 0.  0.
        1    1    3    3  502    0  0.38624445290E+03  0.73998709357E+03  0.91092528907E+03  0.12355365467E+04  0.50400001928E-02 0. -1.
       -1    1    3    3    0  502 -0.38624445290E+03 -0.73998709357E+03  0.14324676958E+03  0.84692698213E+03  0.50400001928E-02 0.  1.
</event>
<event>
 5   0  0.4994123E-06  0.1799500E+04  0.7818609E-02  0.8706566E-01
        1   -1    0    0  501    0  0.00000000000E+00  0.00000000000E+00  0.12024743867E+04  0.12024743867E+04  0.50400001928E-02 0.  1.
       -1   -1    0    0    0  501  0.00000000000E+00  0.00000000000E+00 -0.67323653879E+03  0.67323653881E+03  0.50400001928E-02 0. -1.
    10030    2    1    2    0    0  0.00000000000E+00  0.00000000000E+00  0.52923784791E+03  0.18757109255E+04  0.17994995906E+04 0.  0.
        1    1    3    3  502    0 -0.62396842920E+03 -0.64782598101E+03  0.24051846579E+03  0.93105544127E+03  0.50400001928E-02 0. -1.
       -1    1    3    3    0  502  0.62396842920E+03  0.64782598101E+03  0.28871938212E+03  0.94465548426E+03  0.50400001928E-02 0.  1.
</event>
<event>
 5   0  0.1000316E-05  0.1800305E+04  0.7818609E-02  0.8706137E-01
        2   -1    0    0  501    0  0.00000000000E+00  0.00000000000E+00  0.16325819628E+04  0.16325819628E+04  0.25500000920E-02 0. -1.
       -2   -1    0    0    0  501  0.00000000000E+00  0.00000000000E+00 -0.49631457318E+03  0.49631457318E+03  0.25500000920E-02 0.  1.
    10030    2    1    2    0    0  0.00000000000E+00  0.00000000000E+00  0.11362673896E+04  0.21288965360E+04  0.18003046632E+04 0.  0.
        5    1    3    3  502    0 -0.28414466551E+03 -0.83454939120E+03  0.78308337410E+03  0.11791745155E+04  0.46999998093E+01 0. -1.
       -5    1    3    3    0  502  0.28414466551E+03  0.83454939120E+03  0.35318401550E+03  0.94972202043E+03  0.46999998093E+01 0.  1.
</event>
<event>
 5   0  0.9999162E-06  0.1802160E+04  0.7818609E-02  0.8705152E-01
       -2   -1    0    0    0  501  0.00000000000E+00  0.00000000000E+00  0.10685692517E+04  0.10685692517E+04  0.25500000920E-02 0.  1.
        2   -1    0    0  501    0  0.00000000000E+00  0.00000000000E+00 -0.75984288072E+03  0.75984288073E+03  0.25500000920E-02 0. -1.
    10030    2    1    2    0    0  0.00000000000E+00  0.00000000000E+00  0.30872637095E+03  0.18284121324E+04  0.18021595251E+04 0.  0.
        1    1    3    3  502    0 -0.46205714801E+03 -0.76726063864E+03  0.25459012612E+03  0.93112932935E+03  0.50400001928E-02 0. -1.
       -1    1    3    3    0  502  0.46205714801E+03  0.76726063864E+03  0.54136244836E+02  0.89728280306E+03  0.50400001928E-02 0.  1.
</event>
<event>
 5   0  0.9999162E-06  0.1799584E+04  0.7818609E-02  0.8706521E-01
       -2   -1    0    0    0  501  0.00000000000E+00  0.00000000000E+00  0.67990645945E+03  0.67990645945E+03  0.25500000920E-02 0.  1.
        2   -1    0    0  501    0  0.00000000000E+00  0.00000000000E+00 -0.11907899616E+04  0.11907899616E+04  0.25500000920E-02 0. -1.
    10030    2    1    2    0    0  0.00000000000E+00  0.00000000000E+00 -0.51088350216E+03  0.18706964211E+04  0.17995841595E+04 0.  0.
        1    1    3    3  502    0 -0.18461109545E+03 -0.69996290651E+03 -0.81097181059E+03  0.10870623739E+04  0.50400001928E-02 0. -1.
       -1    1    3    3    0  502  0.18461109545E+03  0.69996290651E+03  0.30008830843E+03  0.78363404721E+03  0.50400001928E-02 0.  1.
</event>
<event>
 5   0  0.4987456E-06  0.1799653E+04  0.7818609E-02  0.8706484E-01
       -1   -1    0    0    0  501  0.00000000000E+00  0.00000000000E+00  0.88053196395E+03  0.88053196397E+03  0.50400001928E-02 0. -1.
        1   -1    0    0  501    0  0.00000000000E+00  0.00000000000E+00 -0.91954411167E+03  0.91954411169E+03  0.50400001928E-02 0.  1.
    10030    2    1    2    0    0  0.00000000000E+00  0.00000000000E+00 -0.39012147720E+02  0.18000760757E+04  0.17996532806E+04 0.  0.
        3    1    3    3  502    0 -0.59002350989E+03  0.12909939170E+03 -0.68666620511E+03  0.91449706539E+03  0.10100000352E+00 0.  1.
       -3    1    3    3    0  502  0.59002350989E+03 -0.12909939170E+03  0.64765405739E+03  0.88557901026E+03  0.10100000352E+00 0. -1.
</event>
<event>
 5   0  0.1000316E-05  0.1800143E+04  0.7818609E-02  0.8706223E-01
       -2   -1    0    0    0  501  0.00000000000E+00  0.00000000000E+00  0.75505674116E+03  0.75505674116E+03  0.25500000920E-02 0.  1.
        2   -1    0    0  501    0  0.00000000000E+00  0.00000000000E+00 -0.10729375469E+04  0.10729375469E+04  0.25500000920E-02 0. -1.
    10030    2    1    2    0    0  0.00000000000E+00  0.00000000000E+00 -0.31788080571E+03  0.18279942880E+04  0.18001430250E+04 0.  0.
        5    1    3    3  502    0 -0.35326854855E+03 -0.79021503375E+03  0.91591448152E+02  0.87043066945E+03  0.46999998093E+01 0.  1.
       -5    1    3    3    0  502  0.35326854855E+03  0.79021503375E+03 -0.40947225386E+03  0.95756361858E+03  0.46999998093E+01 0. -1.
</event>
<event>
 5   0  0.9589963E-06  0.1800116E+04  0.7818609E-02  0.8706238E-01
        2   -1    0    0  501    0  0.00000000000E+00  0.00000000000E+00  0.15203178828E+04  0.15203178828E+04  0.25500000920E-02 0. -1.
       -2   -1    0    0    0  501  0.00000000000E+00  0.00000000000E+00 -0.53285226365E+03  0.53285226366E+03  0.25500000920E-02 0.  1.
    10030    2    1    2    0    0  0.00000000000E+00  0.00000000000E+00  0.98746561916E+03  0.20531701465E+04  0.18001164688E+04 0.  0.
        2    1    3    3  502    0 -0.41872138273E+03 -0.23266421627E+03  0.13628523780E+04  0.14445853516E+04  0.25500000920E-02 0. -1.
       -2    1    3    3    0  502  0.41872138273E+03  0.23266421627E+03 -0.37538675880E+03  0.60858479489E+03  0.25500000920E-02 0.  1.
</event>
<event>
 5   0  0.4981384E-06  0.1800558E+04  0.7818609E-02  0.8706003E-01
        1   -1    0    0  501    0  0.00000000000E+00  0.00000000000E+00  0.11129244952E+04  0.11129244952E+04  0.50400001928E-02 0. -1.
       -1   -1    0    0    0  501  0.00000000000E+00  0.00000000000E+00 -0.72826383123E+03  0.72826383124E+03  0.50400001928E-02 0.  1.
    10030    2    1    2    0    0  0.00000000000E+00  0.00000000000E+00  0.38466066396E+03  0.18411883264E+04  0.18005584209E+04 0.  0.
        5    1    3    3  502    0 -0.12502082348E+03  0.55783488360E+03 -0.51882724541E+03  0.77201927712E+03  0.46999998093E+01 0.  1.
       -5    1    3    3    0  502  0.12502082348E+03 -0.55783488360E+03  0.90348790937E+03  0.10691690493E+04  0.46999998093E+01 0. -1.
</event>
<event>
 5   0  0.9999162E-06  0.1800035E+04  0.7818609E-02  0.8706281E-01
        2   -1    0    0  501    0  0.00000000000E+00  0.00000000000E+00  0.17419055529E+04  0.17419055530E+04  0.25500000920E-02 0. -1.
       -2   -1    0    0    0  501  0.00000000000E+00  0.00000000000E+00 -0.46502592244E+03  0.46502592245E+03  0.25500000920E-02 0.  1.
    10030    2    1    2    0    0  0.00000000000E+00  0.00000000000E+00  0.12768796305E+04  0.22069314754E+04  0.18000347070E+04 0.  0.
        1    1    3    3  502    0  0.48855196833E+03  0.45246694643E+03  0.13808042470E+04  0.15329806691E+04  0.50400001928E-02 0. -1.
       -1    1    3    3    0  502 -0.48855196833E+03 -0.45246694643E+03 -0.10392461646E+03  0.67395080630E+03  0.50400001928E-02 0.  1.
</event>
<event>
 5   0  0.1036381E-05  0.1798884E+04  0.7818609E-02  0.8706893E-01
       -2   -1    0    0    0  501  0.00000000000E+00  0.00000000000E+00  0.74457513396E+03  0.74457513397E+03  0.25500000920E-02 0.  1.
        2   -1    0    0  501    0  0.00000000000E+00  0.00000000000E+00 -0.10865205912E+04  0.10865205912E+04  0.25500000920E-02 0. -1.
    10030    2    1    2    0    0  0.00000000000E+00  0.00000000000E+00 -0.34194545724E+03  0.18310957252E+04  0.17988843373E+04 0.  0.
        4    1    3    3  502    0 -0.66449282548E+03  0.48950796898E+03  0.19295665973E+03  0.84758636861E+03  0.12699999809E+01 0.  1.
       -4    1    3    3    0  502  0.66449282548E+03 -0.48950796898E+03 -0.53490211697E+03  0.98350935657E+03  0.12699999809E+01 0. -1.
</event>
<event>
 5   0  0.9999162E-06  0.1799906E+04  0.7818609E-02  0.8706349E-01
       -2   -1    0    0    0  501  0.00000000000E+00  0.00000000000E+00  0.45498681121E+03  0.45498681122E+03  0.25500000920E-02 0. -1.
        2   -1    0    0  501    0  0.00000000000E+00  0.00000000000E+00 -0.17800859482E+04  0.17800859482E+04  0.25500000920E-02 0.  1.
    10030    2    1    2    0    0  0.00000000000E+00  0.00000000000E+00 -0.13250991370E+04  0.22350727594E+04  0.17999062523E+04 0.  0.
        1    1    3    3  502    0 -0.72679841226E+03  0.13337556740E+03 -0.24647830158E+02  0.73934598775E+03  0.50400001928E-02 0. -1.
       -1    1    3    3    0  502  0.72679841226E+03 -0.13337556740E+03 -0.13004513068E+04  0.14957267717E+04  0.50400001928E-02 0.  1.
</event>
<event>
 5   0  0.9589963E-06  0.1800022E+04  0.7818609E-02  0.8706288E-01
        2   -1    0    0  501    0  0.00000000000E+00  0.00000000000E+00  0.54793055624E+03  0.54793055624E+03  0.25500000920E-02 0.  1.
       -2   -1    0    0    0  501  0.00000000000E+00  0.00000000000E+00 -0.14783256110E+04  0.14783256110E+04  0.25500000920E-02 0. -1.
    10030    2    1    2    0    0  0.00000000000E+00  0.00000000000E+00 -0.93039505479E+03  0.20262561673E+04  0.18000219714E+04 0.  0.
        2    1    3    3  502    0 -0.31144512755E+03  0.81755107178E+03 -0.22738239608E+03  0.90393062593E+03  0.25500000920E-02 0. -1.
       -2    1    3    3    0  502  0.31144512755E+03 -0.81755107178E+03 -0.70301265871E+03  0.11223255413E+04  0.25500000920E-02 0.  1.
</event>
<event>
 5   0  0.4953155E-06  0.1800116E+04  0.7818609E-02  0.8706238E-01
       -1   -1    0    0    0  501  0.00000000000E+00  0.00000000000E+00  0.22049177830E+04  0.22049177830E+04  0.50400001928E-02 0. -1.
        1   -1    0    0  501    0  0.00000000000E+00  0.00000000000E+00 -0.36740780004E+03  0.36740780007E+03  0.50400001928E-02 0.  1.
    10030    2    1    2    0    0  0.00000000000E+00  0.00000000000E+00  0.18375099830E+04  0.25723255831E+04  0.18001155429E+04 0.  0.
        2    1    3    3  502    0 -0.23624443399E+03  0.69893353388E+03  0.18205551782E+03  0.75991034270E+03  0.25500000920E-02 0.  1.
       -2    1    3    3    0  502  0.23624443399E+03 -0.69893353388E+03  0.16554544651E+04  0.18124152404E+04  0.25500000920E-02 0. -1.
</event>
<event>
 5   0  0.4953155E-06  0.1802014E+04  0.7818609E-02  0.8705229E-01
       -1   -1    0    0    0  501  0.00000000000E+00  0.00000000000E+00  0.61709399918E+03  0.61709399920E+03  0.50400001928E-02 0. -1.
        1   -1    0    0  501    0  0.00000000000E+00  0.00000000000E+00 -0.13155432134E+04  0.13155432134E+04  0.50400001928E-02 0.  1.
    10030    2    1    2    0    0  0.00000000000E+00  0.00000000000E+00 -0.69844921425E+03  0.19326372126E+04  0.18020142316E+04 0.  0.
        2    1    3    3  502    0 -0.16839028041E+03 -0.85001117059E+03 -0.84471096042E+02  0.87063749215E+03  0.25500000920E-02 0.  1.
       -2    1    3    3    0  502  0.16839028041E+03  0.85001117059E+03 -0.61397811820E+03  0.10619997205E+04  0.25500000920E-02 0. -1.
</event>
<event>
 5   0  0.9999162E-06  0.1799710E+04  0.7818609E-02  0.8706454E-01
       -2   -1    0    0    0  501  0.00000000000E+00  0.00000000000E+00  0.14726805943E+04  0.14726805943E+04  0.25500000920E-02 0. -1.
        2   -1    0    0  501    0  0.00000000000E+00  0.00000000000E+00 -0.54984036199E+03  0.54984036199E+03  0.25500000920E-02 0.  1.
    10030    2    1    2    0    0  0.00000000000E+00  0.00000000000E+00  0.92284023227E+03  0.20225209562E+04  0.17997102334E+04 0.  0.
        1    1    3    3  502    0  0.55960096627E+03 -0.68164057024E+03  0.66230178183E+03  0.11029191986E+04  0.50400001928E-02 0. -1.
       -1    1    3    3    0  502 -0.55960096627E+03  0.68164057024E+03  0.26053845044E+03  0.91960175763E+03  0.50400001928E-02 0.  1.
</event>
<event>
 5   0  0.4994123E-06  0.1800386E+04  0.7818609E-02  0.8706094E-01
        1   -1    0    0  501    0  0.00000000000E+00  0.00000000000E+00  0.10089496679E+04  0.10089496679E+04  0.50400001928E-02 0.  1.
       -1   -1    0    0    0  501  0.00000000000E+00  0.00000000000E+00 -0.80315944010E+03  0.80315944012E+03  0.50400001928E-02 0. -1.
    10030    2    1    2    0    0  0.00000000000E+00  0.00000000000E+00  0.20579022781E+03  0.18121091080E+04  0.18003860146E+04 0.  0.
        1    1    3    3  502    0 -0.17968541831E+03 -0.86609546539E+03 -0.65343642966E+02  0.88694869999E+03  0.50400001928E-02 0. -1.
       -1    1    3    3    0  502  0.17968541831E+03  0.86609546539E+03  0.27113387078E+03  0.92516040805E+03  0.50400001928E-02 0.  1.
</event>
<event>
 5   0  0.4981384E-06  0.1801444E+04  0.7818609E-02  0.8705532E-01
        1   -1    0    0  501    0  0.00000000000E+00  0.00000000000E+00  0.54190536060E+03  0.54190536062E+03  0.50400001928E-02 0.  1.
       -1   -1    0    0    0  501  0.00000000000E+00  0.00000000000E+00 -0.14971248229E+04  0.14971248229E+04  0.50400001928E-02 0. -1.
    10030    2    1    2    0    0  0.00000000000E+00  0.00000000000E+00 -0.95521946230E+03  0.20390301835E+04  0.18014438288E+04 0.  0.
        5    1    3    3  502    0 -0.56476369195E+03 -0.41570325692E+03  0.16219227894E+03  0.71978861543E+03  0.46999998093E+01 0.  1.
       -5    1    3    3    0  502  0.56476369195E+03  0.41570325692E+03 -0.11174117412E+04  0.13192415681E+04  0.46999998093E+01 0. -1.
</event>
<event>
 5   0  0.9999162E-06  0.1799792E+04  0.7818609E-02  0.8706410E-01
        2   -1    0    0  501    0  0.00000000000E+00  0.00000000000E+00  0.12411985359E+04  0.12411985359E+04  0.25500000920E-02 0. -1.
       -2   -1    0    0    0  501  0.00000000000E+00  0.00000000000E+00 -0.65244407631E+03  0.65244407631E+03  0.25500000920E-02 0.  1.
    10030    2    1    2    0    0  0.00000000000E+00  0.00000000000E+00  0.58875445955E+03  0.18936426122E+04  0.17997918016E+04 0.  0.
        1    1    3    3  502    0 -0.15479178766E+03 -0.54354208574E+02  0.12253313373E+04  0.12362652481E+04  0.50400001928E-02 0. -1.
       -1    1    3    3    0  502  0.15479178766E+03  0.54354208574E+02 -0.63657687772E+03  0.65737736407E+03  0.50400001928E-02 0.  1.
</event>
<event>
 5   0  0.4983159E-06  0.1799513E+04  0.7818609E-02  0.8706559E-01
       -1   -1    0    0    0  501  0.00000000000E+00  0.00000000000E+00  0.79629498198E+03  0.79629498200E+03  0.50400001928E-02 0. -1.
        1   -1    0    0  501    0  0.00000000000E+00  0.00000000000E+00 -0.10166602348E+04  0.10166602348E+04  0.50400001928E-02 0.  1.
    10030    2    1    2    0    0  0.00000000000E+00  0.00000000000E+00 -0.22036525283E+03  0.18129552168E+04  0.17995126489E+04 0.  0.
        4    1    3    3  502    0  0.84349301274E+03 -0.15476652493E+02  0.20494758603E+03  0.86817343614E+03  0.12699999809E+01 0. -1.
       -4    1    3    3    0  502 -0.84349301274E+03  0.15476652493E+02 -0.42531283886E+03  0.94478178068E+03  0.12699999809E+01 0.  1.
</event>
<event>
 5   0  0.9589963E-06  0.1801899E+04  0.7818609E-02  0.8705290E-01
        2   -1    0    0  501    0  0.00000000000E+00  0.00000000000E+00  0.13365592417E+04  0.13365592418E+04  0.25500000920E-02 0. -1.
       -2   -1    0    0    0  501  0.00000000000E+00  0.00000000000E+00 -0.60731348530E+03  0.60731348530E+03  0.25500000920E-02 0.  1.
    10030    2    1    2    0    0  0.00000000000E+00  0.00000000000E+00  0.72924575645E+03  0.19438727271E+04  0.18018994993E+04 0.  0.
        2    1    3    3  502    0  0.21127364929E+03 -0.62022745049E+03  0.10317238155E+04  0.12221999332E+04  0.25500000920E-02 0. -1.
       -2    1    3    3    0  502 -0.21127364929E+03  0.62022745049E+03 -0.30247805903E+03  0.72167279388E+03  0.25500000920E-02 0.  1.
</event>
<event>
 5   0  0.4983159E-06  0.1799914E+04  0.7818609E-02  0.8706345E-01
        1   -1    0    0  501    0  0.00000000000E+00  0.00000000000E+00  0.65574172771E+03  0.65574172773E+03  0.50400001928E-02 0.  1.
       -1   -1    0    0    0  501  0.00000000000E+00  0.00000000000E+00 -0.12351244656E+04  0.12351244656E+04  0.50400001928E-02 0. -1.
    10030    2    1    2    0    0  0.00000000000E+00  0.00000000000E+00 -0.57938273788E+03  0.18908661933E+04  0.17999140547E+04 0.  0.
        4    1    3    3  502    0  0.57585681995E+03 -0.49058627771E+03  0.22241985170E+03  0.78851644008E+03  0.12699999809E+01 0.  1.
       -4    1    3    3    0  502 -0.57585681995E+03  0.49058627771E+03 -0.80180258958E+03  0.11023497533E+04  0.12699999809E+01 0. -1.
</event>
<event>
 5   0  0.4994123E-06  0.1799644E+04  0.7818609E-02  0.8706489E-01
        1   -1    0    0  501    0  0.00000000000E+00  0.00000000000E+00  0.12768174973E+04  0.12768174974E+04  0.50400001928E-02 0. -1.
       -1   -1    0    0    0  501  0.00000000000E+00  0.00000000000E+00 -0.63413883459E+03  0.63413883461E+03  0.50400001928E-02 0.  1.
    10030    2    1    2    0    0  0.00000000000E+00  0.00000000000E+00  0.64267866276E+03  0.19109563320E+04  0.17996439201E+04 0.  0.
        1    1    3    3  502    0 -0.10065849270E+03 -0.58738616702E+03 -0.39454528200E+03  0.71471716149E+03  0.50400001928E-02 0.  1.
       -1    1    3    3    0  502  0.10065849270E+03  0.58738616702E+03  0.10372239448E+04  0.11962391705E+04  0.50400001928E-02 0. -1.
</event>
<event>
 5   0  0.1000316E-05  0.1804498E+04  0.7818609E-02  0.8703911E-01
       -2   -1    0    0    0  501  0.00000000000E+00  0.00000000000E+00  0.50454281504E+03  0.50454281504E+03  0.25500000920E-02 0. -1.
        2   -1    0    0  501    0  0.00000000000E+00  0.00000000000E+00 -0.16134481774E+04  0.16134481774E+04  0.25500000920E-02 0.  1.
    10030    2    1    2    0    0  0.00000000000E+00  0.00000000000E+00 -0.11089053623E+04  0.21179909924E+04  0.18044984736E+04 0.  0.
        5    1    3    3  502    0 -0.27478022534E+03  0.19477028527E+03 -0.15368793968E+04  0.15733594652E+04  0.46999998093E+01 0.  1.
       -5    1    3    3    0  502  0.27478022534E+03 -0.19477028527E+03  0.42797403449E+03  0.54463152724E+03  0.46999998093E+01 0. -1.
</event>
<event>
 5   0  0.4987456E-06  0.1805737E+04  0.7818609E-02  0.8703254E-01
        1   -1    0    0  501    0  0.00000000000E+00  0.00000000000E+00  0.42801813438E+03  0.42801813441E+03  0.50400001928E-02 0. -1.
       -1   -1    0    0    0  501  0.00000000000E+00  0.00000000000E+00 -0.19045264389E+04  0.19045264389E+04  0.50400001928E-02 0.  1.
    10030    2    1    2    0    0  0.00000000000E+00  0.00000000000E+00 -0.14765083045E+04  0.23325445733E+04  0.18057373600E+04 0.  0.
        3    1    3    3  502    0  0.41911982041E+03  0.10001676297E+03  0.28663211235E+03  0.51751594639E+03  0.10100000352E+00 0. -1.
       -3    1    3    3    0  502 -0.41911982041E+03 -0.10001676297E+03 -0.17631404169E+04  0.18150286269E+04  0.10100000352E+00 0.  1.
</event>
<event>
 5   0  0.4987456E-06  0.1799443E+04  0.7818609E-02  0.8706596E-01
       -1   -1    0    0    0  501  0.00000000000E+00  0.00000000000E+00  0.71803425598E+03  0.71803425599E+03  0.50400001928E-02 0. -1.
        1   -1    0    0  501    0  0.00000000000E+00  0.00000000000E+00 -0.11273821006E+04  0.11273821006E+04  0.50400001928E-02 0.  1.
    10030    2    1    2    0    0  0.00000000000E+00  0.00000000000E+00 -0.40934784462E+03  0.18454163566E+04  0.17994432115E+04 0.  0.
        3    1    3    3  502    0  0.54839524546E+03 -0.44196004805E+03 -0.77882810153E+03  0.10500663080E+04  0.10100000352E+00 0.  1.
       -3    1    3    3    0  502 -0.54839524546E+03  0.44196004805E+03  0.36948025691E+03  0.79535004857E+03  0.10100000352E+00 0. -1.
</event>
<event>
 5   0  0.9589963E-06  0.1799658E+04  0.7818609E-02  0.8706482E-01
        2   -1    0    0  501    0  0.00000000000E+00  0.00000000000E+00  0.16875451983E+04  0.16875451983E+04  0.25500000920E-02 0. -1.
       -2   -1    0    0    0  501  0.00000000000E+00  0.00000000000E+00 -0.47980458727E+03  0.47980458727E+03  0.25500000920E-02 0.  1.
    10030    2    1    2    0    0  0.00000000000E+00  0.00000000000E+00  0.12077406111E+04  0.21673497856E+04  0.17996576645E+04 0.  0.
        2    1    3    3  502    0 -0.46821682538E+03  0.50859431313E+03 -0.89835253749E+02  0.69711228919E+03  0.25500000920E-02 0.  1.
       -2    1    3    3    0  502  0.46821682538E+03 -0.50859431313E+03  0.12975758648E+04  0.14702374964E+04  0.25500000920E-02 0. -1.
</event>
<event>
 5   0  0.1036381E-05  0.1799666E+04  0.7818609E-02  0.8706477E-01
       -2   -1    0    0    0  501  0.00000000000E+00  0.00000000000E+00  0.16030554790E+04  0.16030554790E+04  0.25500000920E-02 0.  1.
        2   -1    0    0  501    0  0.00000000000E+00  0.00000000000E+00 -0.50509752552E+03  0.50509752552E+03  0.25500000920E-02 0. -1.
    10030    2    1    2    0    0  0.00000000000E+00  0.00000000000E+00  0.10979579535E+04  0.21081530045E+04  0.17996659198E+04 0.  0.
        4    1    3    3  502    0 -0.22612883611E+03  0.47690420246E+03 -0.30472826328E+03  0.60945286626E+03  0.12699999809E+01 0. -1.
       -4    1    3    3    0  502  0.22612883611E+03 -0.47690420246E+03  0.14026862168E+04  0.14987001383E+04  0.12699999809E+01 0.  1.
</event>
<event>
 5   0  0.4987456E-06  0.1801708E+04  0.7818609E-02  0.8705392E-01
       -1   -1    0    0    0  501  0.00000000000E+00  0.00000000000E+00  0.11406887986E+04  0.11406887986E+04  0.50400001928E-02 0.  1.
        1   -1    0    0  501    0  0.00000000000E+00  0.00000000000E+00 -0.71144575755E+03  0.71144575757E+03  0.50400001928E-02 0. -1.
    10030    2    1    2    0    0  0.00000000000E+00  0.00000000000E+00  0.42924304103E+03  0.18521345562E+04  0.18017083077E+04 0.  0.
        3    1    3    3  502    0 -0.39931873446E+03 -0.13865859203E+02  0.10446163250E+04  0.11184234396E+04  0.10100000352E+00 0.  1.
       -3    1    3    3    0  502  0.39931873446E+03  0.13865859203E+02 -0.61537328393E+03  0.73371111653E+03  0.10100000352E+00 0. -1.
</event>
<event>
 5   0  0.9589963E-06  0.1799881E+04  0.7818609E-02  0.8706363E-01
        2   -1    0    0  501    0  0.00000000000E+00  0.00000000000E+00  0.13183840345E+04  0.13183840345E+04  0.25500000920E-02 0.  1.
       -2   -1    0    0    0  501  0.00000000000E+00  0.00000000000E+00 -0.61430701105E+03  0.61430701105E+03  0.25500000920E-02 0. -1.
    10030    2    1    2    0    0  0.00000000000E+00  0.00000000000E+00  0.70407702348E+03  0.19326910456E+04  0.17998806135E+04 0.  0.
        2    1    3    3  502    0 -0.50755050095E+03 -0.67890246465E+03  0.67662913273E+03  0.10845934956E+04  0.25500000920E-02 0.  1.
       -2    1    3    3    0  502  0.50755050095E+03  0.67890246465E+03  0.27447890753E+02  0.84809754995E+03  0.25500000920E-02 0. -1.
</event>
<event>
 5   0  0.1036381E-05  0.1800176E+04  0.7818609E-02  0.8706206E-01
        2   -1    0    0  501    0  0.00000000000E+00  0.00000000000E+00  0.15727795764E+04  0.15727795764E+04  0.25500000920E-02 0. -1.
       -2   -1    0    0    0  501  0.00000000000E+00  0.00000000000E+00 -0.51511273599E+03  0.51511273600E+03  0.25500000920E-02 0.  1.
    10030    2    1    2    0    0  0.00000000000E+00  0.00000000000E+00  0.10576668404E+04  0.20878923124E+04  0.18001764255E+04 0.  0.
        4    1    3    3  502    0 -0.40277104650E+03  0.44564766443E+03  0.13062899757E+04  0.14377835269E+04  0.12699999809E+01 0. -1.
       -4    1    3    3    0  502  0.40277104650E+03 -0.44564766443E+03 -0.24862313527E+03  0.65010878551E+03  0.12699999809E+01 0.  1.
</event>
<event>
 5   0  0.1035018E-05  0.1799014E+04  0.7818609E-02  0.8706824E-01
       -2   -1    0    0    0  501  0.00000000000E+00  0.00000000000E+00  0.95423101632E+03  0.95423101632E+03  0.25500000920E-02 0. -1.
        2   -1    0    0  501    0  0.00000000000E+00  0.00000000000E+00 -0.84792108899E+03  0.84792108900E+03  0.25500000920E-02 0.  1.
    10030    2    1    2    0    0  0.00000000000E+00  0.00000000000E+00  0.10630992732E+03  0.18021521053E+04  0.17990137326E+04 0.  0.
        3    1    3    3  502    0 -0.36903466813E+03 -0.76669947275E+03 -0.23906941847E+03  0.88383757832E+03  0.10100000352E+00 0.  1.
       -3    1    3    3    0  502  0.36903466813E+03  0.76669947275E+03  0.34537934579E+03  0.91831452700E+03  0.10100000352E+00 0. -1.
</event>
<event>
 5   0  0.4987456E-06  0.1798508E+04  0.7818609E-02  0.8707093E-01
       -1   -1    0    0    0  501  0.00000000000E+00  0.00000000000E+00  0.77099139517E+03  0.77099139519E+03  0.50400001928E-02 0. -1.
        1   -1    0    0  501    0  0.00000000000E+00  0.00000000000E+00 -0.10488543272E+04  0.10488543272E+04  0.50400001928E-02 0.  1.
    10030    2    1    2    0    0  0.00000000000E+00  0.00000000000E+00 -0.27786293201E+03  0.18198457224E+04  0.17985078939E+04 0.  0.
        3    1    3    3  502    0 -0.13960080968E+03 -0.50155861274E+03  0.60298528245E+03  0.79664338893E+03  0.10100000352E+00 0. -1.
       -3    1    3    3    0  502  0.13960080968E+03  0.50155861274E+03 -0.88084821445E+03  0.10232023335E+04  0.10100000352E+00 0.  1.
</event>
<event>
 5   0  0.9589963E-06  0.1797941E+04  0.7818609E-02  0.8707395E-01
       -2   -1    0    0    0  501  0.00000000000E+00  0.00000000000E+00  0.75475838365E+03  0.75475838366E+03  0.25500000920E-02 0. -1.
        2   -1    0    0  501    0  0.00000000000E+00  0.00000000000E+00 -0.10707373869E+04  0.10707373869E+04  0.25500000920E-02 0.  1.
    10030    2    1    2    0    0  0.00000000000E+00  0.00000000000E+00 -0.31597900320E+03  0.18254957705E+04  0.17979410662E+04 0.  0.
        2    1    3    3  502    0  0.39239970690E+03 -0.58824778303E+03 -0.72159590583E+03  0.10103037343E+04  0.25500000920E-02 0.  1.
       -2    1    3    3    0  502 -0.39239970690E+03  0.58824778303E+03  0.40561690263E+03  0.81519203622E+03  0.25500000920E-02 0. -1.
</event>
<event>
 5   0  0.3626125E-06  0.1799654E+04  0.7818609E-02  0.8706483E-01
        3   -1    0    0  501    0  0.00000000000E+00  0.00000000000E+00  0.84317275882E+03  0.84317276487E+03  0.10100000352E+00 0. -1.
       -3   -1    0    0    0  501  0.00000000000E+00  0.00000000000E+00 -0.96028844795E+03  0.96028845326E+03  0.10100000352E+00 0.  1.
    10030    2    1    2    0    0  0.00000000000E+00  0.00000000000E+00 -0.11711568913E+03  0.18034612181E+04  0.17996544892E+04 0.  0.
        4    1    3    3  502    0 -0.51649109825E+03  0.70021933211E+03 -0.28842764048E+03  0.91665821565E+03  0.12699999809E+01 0.  1.
       -4    1    3    3    0  502  0.51649109825E+03 -0.70021933211E+03  0.17131195134E+03  0.88680300248E+03  0.12699999809E+01 0. -1.
</event>
<event>
 5   0  0.4983159E-06  0.1799411E+04  0.7818609E-02  0.8706613E-01
        1   -1    0    0  501    0  0.00000000000E+00  0.00000000000E+00  0.21496149289E+04  0.21496149289E+04  0.50400001928E-02 0.  1.
       -1   -1    0    0    0  501  0.00000000000E+00  0.00000000000E+00 -0.37656492318E+03  0.37656492322E+03  0.50400001928E-02 0. -1.
    10030    2    1    2    0    0  0.00000000000E+00  0.00000000000E+00  0.17730500057E+04  0.25261798521E+04  0.17994105486E+04 0.  0.
        4    1    3    3  502    0  0.32690781200E+02 -0.87443408838E+03  0.59283171173E+03  0.10569553980E+04  0.12699999809E+01 0.  1.
       -4    1    3    3    0  502 -0.32690781200E+02  0.87443408838E+03  0.11802182939E+04  0.14692244540E+04  0.12699999809E+01 0. -1.
</event>
<event>
 5   0  0.9589963E-06  0.1798876E+04  0.7818609E-02  0.8706897E-01
       -2   -1    0    0    0  501  0.00000000000E+00  0.00000000000E+00  0.40351565424E+03  0.40351565425E+03  0.25500000920E-02 0.  1.
        2   -1    0    0  501    0  0.00000000000E+00  0.00000000000E+00 -0.20048510346E+04  0.20048510346E+04  0.25500000920E-02 0. -1.
    10030    2    1    2    0    0  0.00000000000E+00  0.00000000000E+00 -0.16013353803E+04  0.24083666888E+04  0.17988760678E+04 0.  0.
        2    1    3    3  502    0  0.27829410802E+03 -0.75508678764E+03 -0.26282769024E+03  0.84657076621E+03  0.25500000920E-02 0.  1.
       -2    1    3    3    0  502 -0.27829410802E+03  0.75508678764E+03 -0.13385076901E+04  0.15617959226E+04  0.25500000920E-02 0. -1.
</event>
<event>
 5   0  0.4981384E-06  0.1800249E+04  0.7818609E-02  0.8706167E-01
       -1   -1    0    0    0  501  0.00000000000E+00  0.00000000000E+00  0.84946080865E+03  0.84946080867E+03  0.50400001928E-02 0. -1.
        1   -1    0    0  501    0  0.00000000000E+00  0.00000000000E+00 -0.95381031052E+03  0.95381031053E+03  0.50400001928E-02 0.  1.
    10030    2    1    2    0    0  0.00000000000E+00  0.00000000000E+00 -0.10434950186E+03  0.18032711192E+04  0.18002494024E+04 0.  0.
        5    1    3    3  502    0  0.55821026970E+02 -0.57562735317E+03  0.63872173045E+03  0.86165560157E+03  0.46999998093E+01 0. -1.
       -5    1    3    3    0  502 -0.55821026970E+02  0.57562735317E+03 -0.74307123231E+03  0.94161551764E+03  0.46999998093E+01 0.  1.
</event>
<event>
 5   0  0.4981384E-06  0.1800467E+04  0.7818609E-02  0.8706051E-01
        1   -1    0    0  501    0  0.00000000000E+00  0.00000000000E+00  0.12747412370E+04  0.12747412370E+04  0.50400001928E-02 0.  1.
       -1   -1    0    0    0  501  0.00000000000E+00  0.00000000000E+00 -0.63575275134E+03  0.63575275136E+03  0.50400001928E-02 0. -1.
    10030    2    1    2    0    0  0.00000000000E+00  0.00000000000E+00  0.63898848566E+03  0.19104939884E+04  0.18004668825E+04 0.  0.
        5    1    3    3  502    0  0.68794168550E+03 -0.80891609152E+01 -0.29656137114E+03  0.74919952885E+03  0.46999998093E+01 0. -1.
       -5    1    3    3    0  502 -0.68794168550E+03  0.80891609152E+01  0.93554985680E+03  0.11612944595E+04  0.46999998093E+01 0.  1.
</event>
<event>
 5   0  0.4987456E-06  0.1800227E+04  0.7818609E-02  0.8706179E-01
       -1   -1    0    0    0  501  0.00000000000E+00  0.00000000000E+00  0.74422521999E+03  0.74422522001E+03  0.50400001928E-02 0. -1.
        1   -1    0    0  501    0  0.00000000000E+00  0.00000000000E+00 -0.10886547742E+04  0.10886547742E+04  0.50400001928E-02 0.  1.
    10030    2    1    2    0    0  0.00000000000E+00  0.00000000000E+00 -0.34442955418E+03  0.18328799942E+04  0.18002270288E+04 0.  0.
        3    1    3    3  502    0  0.18197347492E+03 -0.78695678037E+02  0.72171812714E+03  0.74845468838E+03  0.10100000352E+00 0. -1.
       -3    1    3    3    0  502 -0.18197347492E+03  0.78695678037E+02 -0.10661476813E+04  0.10844253058E+04  0.10100000352E+00 0.  1.
</event>
<event>
 5   0  0.4953155E-06  0.1796972E+04  0.7818609E-02  0.8707911E-01
       -1   -1    0    0    0  501  0.00000000000E+00  0.00000000000E+00  0.41212071338E+03  0.41212071341E+03  0.50400001928E-02 0. -1.
        1   -1    0    0  501    0  0.00000000000E+00  0.00000000000E+00 -0.19588373001E+04  0.19588373002E+04  0.50400001928E-02 0.  1.
    10030    2    1    2    0    0  0.00000000000E+00  0.00000000000E+00 -0.15467165868E+04  0.23709580136E+04  0.17969723710E+04 0.  0.
        2    1    3    3  502    0 -0.68576341661E+03 -0.13589053360E+03 -0.28687597639E+02  0.69968612888E+03  0.25500000920E-02 0. -1.
       -2    1    3    3    0  502  0.68576341661E+03  0.13589053360E+03 -0.15180289891E+04  0.16712718847E+04  0.25500000920E-02 0.  1.
</event>
<event>
 5   0  0.1000316E-05  0.1800194E+04  0.7818609E-02  0.8706196E-01
        2   -1    0    0  501    0  0.00000000000E+00  0.00000000000E+00  0.10556320098E+04  0.10556320099E+04  0.25500000920E-02 0.  1.
       -2   -1    0    0    0  501  0.00000000000E+00  0.00000000000E+00 -0.76747823138E+03  0.76747823138E+03  0.25500000920E-02 0. -1.
    10030    2    1    2    0    0  0.00000000000E+00  0.00000000000E+00  0.28815377847E+03  0.18231102412E+04  0.18001939761E+04 0.  0.
        5    1    3    3  502    0 -0.58691216393E+03 -0.13176559280E+03 -0.53401700380E+03  0.80437821325E+03  0.46999998093E+01 0. -1.
       -5    1    3    3    0  502  0.58691216393E+03  0.13176559280E+03  0.82217078227E+03  0.10187320280E+04  0.46999998093E+01 0.  1.
</event>
<event>
 5   0  0.4983159E-06  0.1799772E+04  0.7818609E-02  0.8706421E-01
        1   -1    0    0  501    0  0.00000000000E+00  0.00000000000E+00  0.14481092581E+04  0.14481092581E+04  0.50400001928E-02 0. -1.
       -1   -1    0    0    0  501  0.00000000000E+00  0.00000000000E+00 -0.55920854043E+03  0.55920854045E+03  0.50400001928E-02 0.  1.
    10030    2    1    2    0    0  0.00000000000E+00  0.00000000000E+00  0.88890071768E+03  0.20073177986E+04  0.17997722796E+04 0.  0.
        4    1    3    3  502    0  0.40170364792E+03 -0.10093330162E+03 -0.44657614070E+03  0.60908555595E+03  0.12699999809E+01 0.  1.
       -4    1    3    3    0  502 -0.40170364792E+03  0.10093330162E+03  0.13354768584E+04  0.13982322426E+04  0.12699999809E+01 0. -1.
</event>
<event>
 5   0  0.4981384E-06  0.1799638E+04  0.7818609E-02  0.8706492E-01
        1   -1    0    0  501    0  0.00000000000E+00  0.00000000000E+00  0.93099702083E+03  0.93099702084E+03  0.50400001928E-02 0.  1.
       -1   -1    0    0    0  501  0.00000000000E+00  0.00000000000E+00 -0.86968537196E+03  0.86968537197E+03  0.50400001928E-02 0. -1.
    10030    2    1    2    0    0  0.00000000000E+00  0.00000000000E+00  0.61311648868E+02  0.18006823928E+04  0.17996382863E+04 0.  0.
        5    1    3    3  502    0  0.32006189689E+03  0.69995822934E+03 -0.43573826203E+03  0.88446088871E+03  0.46999998093E+01 0. -1.
       -5    1    3    3    0  502 -0.32006189689E+03 -0.69995822934E+03  0.49704991089E+03  0.91622150411E+03  0.46999998093E+01 0.  1.
</event>
<event>
 5   0  0.9589963E-06  0.1800371E+04  0.7818609E-02  0.8706102E-01
        2   -1    0    0  501    0  0.00000000000E+00  0.00000000000E+00  0.11070800885E+04  0.11070800885E+04  0.25500000920E-02 0.  1.
       -2   -1    0    0    0  501  0.00000000000E+00  0.00000000000E+00 -0.73195604051E+03  0.73195604052E+03  0.25500000920E-02 0. -1.
    10030    2    1    2    0    0  0.00000000000E+00  0.00000000000E+00  0.37512404795E+03  0.18390361290E+04  0.18003710263E+04 0.  0.
        2    1    3    3  502    0 -0.20154094280E+03 -0.32059935784E+02  0.10831394084E+04  0.11021967016E+04  0.25500000920E-02 0.  1.
       -2    1    3    3    0  502  0.20154094280E+03  0.32059935784E+02 -0.70801536042E+03  0.73683942735E+03  0.25500000920E-02 0. -1.
</event>
<event>
 5   0  0.4953155E-06  0.1800783E+04  0.7818609E-02  0.8705883E-01
       -1   -1    0    0    0  501  0.00000000000E+00  0.00000000000E+00  0.15285365901E+04  0.15285365901E+04  0.50400001928E-02 0.  1.
        1   -1    0    0  501    0  0.00000000000E+00  0.00000000000E+00 -0.53037946867E+03  0.53037946869E+03  0.50400001928E-02 0. -1.
    10030    2    1    2    0    0  0.00000000000E+00  0.00000000000E+00  0.99815712143E+03  0.20589160588E+04  0.18007825238E+04 0.  0.
        2    1    3    3  502    0  0.50738258092E+03 -0.66870697190E+03  0.12665972225E+03  0.84891035035E+03  0.25500000920E-02 0. -1.
       -2    1    3    3    0  502 -0.50738258092E+03  0.66870697190E+03  0.87149739918E+03  0.12100057084E+04  0.25500000920E-02 0.  1.
</event>
<event>
 5   0  0.1000316E-05  0.1799488E+04  0.7818609E-02  0.8706572E-01
       -2   -1    0    0    0  501  0.00000000000E+00  0.00000000000E+00  0.77239213525E+03  0.77239213525E+03  0.25500000920E-02 0. -1.
        2   -1    0    0  501    0  0.00000000000E+00  0.00000000000E+00 -0.10480940499E+04  0.10480940499E+04  0.25500000920E-02 0.  1.
    10030    2    1    2    0    0  0.00000000000E+00  0.00000000000E+00 -0.27570191461E+03  0.18204861851E+04  0.17994883730E+04 0.  0.
        5    1    3    3  502    0 -0.21392355020E+03 -0.68218351401E+02 -0.10192812587E+04  0.10437305223E+04  0.46999998093E+01 0.  1.
       -5    1    3    3    0  502  0.21392355020E+03  0.68218351401E+02  0.74357934409E+03  0.77675566284E+03  0.46999998093E+01 0. -1.
</event>
<event>
 5   0  0.4994123E-06  0.1799182E+04  0.7818609E-02  0.8706735E-01
       -1   -1    0    0    0  501  0.00000000000E+00  0.00000000000E+00  0.40276846411E+03  0.40276846414E+03  0.50400001928E-02 0.  1.
        1   -1    0    0  501    0  0.00000000000E+00  0.00000000000E+00 -0.20092527913E+04  0.20092527913E+04  0.50400001928E-02 0. -1.
    10030    2    1    2    0    0  0.00000000000E+00  0.00000000000E+00 -0.16064843272E+04  0.24120212554E+04  0.17991816593E+04 0.  0.
        1    1    3    3  502    0  0.37670878976E+03  0.90794700209E+02 -0.18916338627E+04  0.19309147729E+04  0.50400001928E-02 0. -1.
       -1    1    3    3    0  502 -0.37670878976E+03 -0.90794700209E+02  0.28514953551E+03  0.48110648249E+03  0.50400001928E-02 0.  1.
</event>
<event>
 5   0  0.1035018E-05  0.1800233E+04  0.7818609E-02  0.8706176E-01
        2   -1    0    0  501    0  0.00000000000E+00  0.00000000000E+00  0.58172242099E+03  0.58172242099E+03  0.25500000920E-02 0.  1.
       -2   -1    0    0    0  501  0.00000000000E+00  0.00000000000E+00 -0.13927765226E+04  0.13927765226E+04  0.25500000920E-02 0. -1.
    10030    2    1    2    0    0  0.00000000000E+00  0.00000000000E+00 -0.81105410157E+03  0.19744989435E+04  0.18002325745E+04 0.  0.
        3    1    3    3  502    0 -0.47760489175E+03 -0.56218373700E+03  0.16020635784E+03  0.75486626237E+03  0.10100000352E+00 0.  1.
       -3    1    3    3    0  502  0.47760489175E+03  0.56218373700E+03 -0.97126045940E+03  0.12196326812E+04  0.10100000352E+00 0. -1.
</event>
<event>
 5   0  0.1000316E-05  0.1800155E+04  0.7818609E-02  0.8706217E-01
       -2   -1    0    0    0  501  0.00000000000E+00  0.00000000000E+00  0.10039614894E+04  0.10039614894E+04  0.25500000920E-02 0. -1.
        2   -1    0    0  501    0  0.00000000000E+00  0.00000000000E+00 -0.80694290756E+03  0.80694290757E+03  0.25500000920E-02 0.  1.
    10030    2    1    2    0    0  0.00000000000E+00  0.00000000000E+00  0.19701858182E+03  0.18109043970E+04  0.18001551081E+04 0.  0.
        5    1    3    3  502    0  0.78029320676E+03  0.11363647830E+03  0.53509014981E+03  0.95295031147E+03  0.46999998093E+01 0. -1.
       -5    1    3    3    0  502 -0.78029320676E+03 -0.11363647830E+03 -0.33807156799E+03  0.85795408548E+03  0.46999998093E+01 0.  1.
</event>
<event>
 5   0  0.4994123E-06  0.1799995E+04  0.7818609E-02  0.8706302E-01
        1   -1    0    0  501    0  0.00000000000E+00  0.00000000000E+00  0.29111474736E+03  0.29111474740E+03  0.50400001928E-02 0. -1.
       -1   -1    0    0    0  501  0.00000000000E+00  0.00000000000E+00 -0.27823928339E+04  0.27823928339E+04  0.50400001928E-02 0.  1.
    10030    2    1    2    0    0  0.00000000000E+00  0.00000000000E+00 -0.24912780866E+04  0.30735075813E+04  0.17999950966E+04 0.  0.
        1    1    3    3  502    0 -0.65247201509E+02  0.69259458161E+03 -0.27063632844E+03  0.74645058381E+03  0.50400001928E-02 0. -1.
       -1    1    3    3    0  502  0.65247201509E+02 -0.69259458161E+03 -0.22206417581E+04  0.23270569975E+04  0.50400001928E-02 0.  1.
</event>
<event>
 5   0  0.9589963E-06  0.1799879E+04  0.7818609E-02  0.8706364E-01
        2   -1    0    0  501    0  0.00000000000E+00  0.00000000000E+00  0.18376485907E+04  0.18376485907E+04  0.25500000920E-02 0. -1.
       -2   -1    0    0    0  501  0.00000000000E+00  0.00000000000E+00 -0.44072156656E+03  0.44072156657E+03  0.25500000920E-02 0.  1.
    10030    2    1    2    0    0  0.00000000000E+00  0.00000000000E+00  0.13969270242E+04  0.22783701573E+04  0.17998792912E+04 0.  0.
        2    1    3    3  502    0 -0.16854088245E+02  0.71488327337E+03  0.68095531248E+01  0.71511434390E+03  0.25500000920E-02 0.  1.
       -2    1    3    3    0  502  0.16854088245E+02 -0.71488327337E+03  0.13901174711E+04  0.15632558134E+04  0.25500000920E-02 0. -1.
</event>
<event>
 5   0  0.1000316E-05  0.1794641E+04  0.7818609E-02  0.8709155E-01
       -2   -1    0    0    0  501  0.00000000000E+00  0.00000000000E+00  0.71292242338E+03  0.71292242338E+03  0.25500000920E-02 0. -1.
        2   -1    0    0  501    0  0.00000000000E+00  0.00000000000E+00 -0.11294132654E+04  0.11294132654E+04  0.25500000920E-02 0.  1.
    10030    2    1    2    0    0  0.00000000000E+00  0.00000000000E+00 -0.41649084206E+03  0.18423356888E+04  0.17946409582E+04 0.  0.
        5    1    3    3  502    0  0.12492886702E+03  0.78641740089E+03  0.21639295769E+03  0.82517122610E+03  0.46999998093E+01 0.  1.
       -5    1    3    3    0  502 -0.12492886702E+03 -0.78641740089E+03 -0.63288379975E+03  0.10171644627E+04  0.46999998093E+01 0. -1.
</event>
<event>
 5   0  0.4953155E-06  0.1799872E+04  0.7818609E-02  0.8706368E-01
        1   -1    0    0  501    0  0.00000000000E+00  0.00000000000E+00  0.49681708820E+03  0.49681708823E+03  0.50400001928E-02 0. -1.
       -1   -1    0    0    0  501  0.00000000000E+00  0.00000000000E+00 -0.16301460589E+04  0.16301460589E+04  0.50400001928E-02 0.  1.
    10030    2    1    2    0    0  0.00000000000E+00  0.00000000000E+00 -0.11333289707E+04  0.21269631472E+04  0.17998715714E+04 0.  0.
        2    1    3    3  502    0 -0.85879859546E+02 -0.55273577668E+03 -0.13997570280E+04  0.15073857922E+04  0.25500000920E-02 0.  1.
       -2    1    3    3    0  502  0.85879859546E+02  0.55273577668E+03  0.26642805726E+03  0.61957735497E+03  0.25500000920E-02 0. -1.
</event>
<event>
 5   0  0.1000316E-05  0.1800681E+04  0.7818609E-02  0.8705937E-01
       -2   -1    0    0    0  501  0.00000000000E+00  0.00000000000E+00  0.78946980148E+03  0.78946980149E+03  0.25500000920E-02 0. -1.
        2   -1    0    0  501    0  0.00000000000E+00  0.00000000000E+00 -0.10267816301E+04  0.10267816301E+04  0.25500000920E-02 0.  1.
    10030    2    1    2    0    0  0.00000000000E+00  0.00000000000E+00 -0.23731182863E+03  0.18162514316E+04  0.18006810819E+04 0.  0.
        5    1    3    3  502    0  0.29897669298E+03  0.68882311381E+02 -0.97241411587E+03  0.10196779582E+04  0.46999998093E+01 0.  1.
       -5    1    3    3    0  502 -0.29897669298E+03 -0.68882311381E+02  0.73510228724E+03  0.79657347337E+03  0.46999998093E+01 0. -1.
</event>
<event>
 5   0  0.4983159E-06  0.1799935E+04  0.7818609E-02  0.8706334E-01
       -1   -1    0    0    0  501  0.00000000000E+00  0.00000000000E+00  0.13836172640E+04  0.13836172640E+04  0.50400001928E-02 0.  1.
        1   -1    0    0  501    0  0.00000000000E+00  0.00000000000E+00 -0.58537993207E+03  0.58537993209E+03  0.50400001928E-02 0. -1.
    10030    2    1    2    0    0  0.00000000000E+00  0.00000000000E+00  0.79823733194E+03  0.19689971961E+04  0.17999353100E+04 0.  0.
        4    1    3    3  502    0 -0.26751393191E+03  0.51899636652E+03  0.11482940996E+04  0.12882165518E+04  0.12699999809E+01 0.  1.
       -4    1    3    3    0  502  0.26751393191E+03 -0.51899636652E+03 -0.35005676765E+03  0.68078064434E+03  0.12699999809E+01 0. -1.
</event>
<event>
 5   0  0.4981384E-06  0.1801070E+04  0.7818609E-02  0.8705731E-01
       -1   -1    0    0    0  501  0.00000000000E+00  0.00000000000E+00  0.99159875261E+03  0.99159875262E+03  0.50400001928E-02 0. -1.
        1   -1    0    0  501    0  0.00000000000E+00  0.00000000000E+00 -0.81783408069E+03  0.81783408071E+03  0.50400001928E-02 0.  1.
    10030    2    1    2    0    0  0.00000000000E+00  0.00000000000E+00  0.17376467192E+03  0.18094328333E+04  0.18010699645E+04 0.  0.
        5    1    3    3  502    0  0.38568103761E+03 -0.22312765481E+03 -0.69931464407E+03  0.82921581903E+03  0.46999998093E+01 0.  1.
       -5    1    3    3    0  502 -0.38568103761E+03  0.22312765481E+03  0.87307931599E+03  0.98021701430E+03  0.46999998093E+01 0. -1.
</event>
<event>
 5   0  0.4981384E-06  0.1799934E+04  0.7818609E-02  0.8706334E-01
       -1   -1    0    0    0  501  0.00000000000E+00  0.00000000000E+00  0.11113219821E+04  0.11113219821E+04  0.50400001928E-02 0. -1.
        1   -1    0    0  501    0  0.00000000000E+00  0.00000000000E+00 -0.72880840215E+03  0.72880840217E+03  0.50400001928E-02 0.  1.
    10030    2    1    2    0    0  0.00000000000E+00  0.00000000000E+00  0.38251357993E+03  0.18401303843E+04  0.17999342189E+04 0.  0.
        5    1    3    3  502    0  0.49249744468E+02 -0.11026903698E+03 -0.72047419152E+03  0.73054086025E+03  0.46999998093E+01 0.  1.
       -5    1    3    3    0  502 -0.49249744468E+02  0.11026903698E+03  0.11029877714E+04  0.11095895240E+04  0.46999998093E+01 0. -1.
</event>
<event>
 5   0  0.3626125E-06  0.1811781E+04  0.7818609E-02  0.8700059E-01
        3   -1    0    0  501    0  0.00000000000E+00  0.00000000000E+00  0.16588247560E+04  0.16588247590E+04  0.10100000352E+00 0. -1.
       -3   -1    0    0    0  501  0.00000000000E+00  0.00000000000E+00 -0.49471018769E+03  0.49471019800E+03  0.10100000352E+00 0.  1.
    10030    2    1    2    0    0  0.00000000000E+00  0.00000000000E+00  0.11641145683E+04  0.21535349570E+04  0.18117809148E+04 0.  0.
        1    1    3    3  502    0  0.82223883733E+03  0.33863500548E+02  0.13192295158E+03  0.83344292393E+03  0.50400001928E-02 0.  1.
       -1    1    3    3    0  502 -0.82223883733E+03 -0.33863500548E+02  0.10321916167E+04  0.13200920331E+04  0.50400001928E-02 0. -1.
</event>
<event>
 5   0  0.1035018E-05  0.1799862E+04  0.7818609E-02  0.8706373E-01
        2   -1    0    0  501    0  0.00000000000E+00  0.00000000000E+00  0.70926777289E+03  0.70926777289E+03  0.25500000920E-02 0. -1.
       -2   -1    0    0    0  501  0.00000000000E+00  0.00000000000E+00 -0.11418477419E+04  0.11418477419E+04  0.25500000920E-02 0.  1.
    10030    2    1    2    0    0  0.00000000000E+00  0.00000000000E+00 -0.43257996902E+03  0.18511155148E+04  0.17998620001E+04 0.  0.
        3    1    3    3  502    0  0.67547906081E+03 -0.58150523359E+03 -0.34415030600E+03  0.95543693753E+03  0.10100000352E+00 0.  1.
       -3    1    3    3    0  502 -0.67547906081E+03  0.58150523359E+03 -0.88429663019E+02  0.89567857727E+03  0.10100000352E+00 0. -1.
</event>
<event>
 5   0  0.4981384E-06  0.1796527E+04  0.7818609E-02  0.8708148E-01
       -1   -1    0    0    0  501  0.00000000000E+00  0.00000000000E+00  0.69321935069E+03  0.69321935071E+03  0.50400001928E-02 0.  1.
        1   -1    0    0  501    0  0.00000000000E+00  0.00000000000E+00 -0.11639568397E+04  0.11639568397E+04  0.50400001928E-02 0. -1.
    10030    2    1    2    0    0  0.00000000000E+00  0.00000000000E+00 -0.47073748904E+03  0.18571761905E+04  0.17965270994E+04 0.  0.
        5    1    3    3  502    0 -0.28249399267E+03  0.21689311595E+03  0.61709699077E+03  0.71251404593E+03  0.46999998093E+01 0.  1.
       -5    1    3    3    0  502  0.28249399267E+03 -0.21689311595E+03 -0.10878344798E+04  0.11446621445E+04  0.46999998093E+01 0. -1.
</event>
<event>
 5   0  0.4981384E-06  0.1799944E+04  0.7818609E-02  0.8706329E-01
        1   -1    0    0  501    0  0.00000000000E+00  0.00000000000E+00  0.14067365890E+04  0.14067365890E+04  0.50400001928E-02 0.  1.
       -1   -1    0    0    0  501  0.00000000000E+00  0.00000000000E+00 -0.57576477046E+03  0.57576477048E+03  0.50400001928E-02 0. -1.
    10030    2    1    2    0    0  0.00000000000E+00  0.00000000000E+00  0.83097181856E+03  0.19825013595E+04  0.17999437428E+04 0.  0.
        5    1    3    3  502    0  0.36915790198E+03  0.78741233991E+02 -0.48435095583E+03  0.61408116478E+03  0.46999998093E+01 0. -1.
       -5    1    3    3    0  502 -0.36915790198E+03 -0.78741233991E+02  0.13153227744E+04  0.13684201947E+04  0.46999998093E+01 0.  1.
</event>
<event>
 5   0  0.1035018E-05  0.1799833E+04  0.7818609E-02  0.8706388E-01
       -2   -1    0    0    0  501  0.00000000000E+00  0.00000000000E+00  0.81018759006E+03  0.81018759006E+03  0.25500000920E-02 0. -1.
        2   -1    0    0  501    0  0.00000000000E+00  0.00000000000E+00 -0.99958307527E+03  0.99958307527E+03  0.25500000920E-02 0.  1.
    10030    2    1    2    0    0  0.00000000000E+00  0.00000000000E+00 -0.18939548521E+03  0.18097706653E+04  0.17998331065E+04 0.  0.
        3    1    3    3  502    0  0.74668026222E+03 -0.50132359004E+03 -0.63011265369E+02  0.90156929056E+03  0.10100000352E+00 0.  1.
       -3    1    3    3    0  502 -0.74668026222E+03  0.50132359004E+03 -0.12638421984E+03  0.90820137478E+03  0.10100000352E+00 0. -1.
</event>
<event>
 5   0  0.9999162E-06  0.1800258E+04  0.7818609E-02  0.8706163E-01
        2   -1    0    0  501    0  0.00000000000E+00  0.00000000000E+00  0.18150480021E+04  0.18150480021E+04  0.25500000920E-02 0.  1.
       -2   -1    0    0    0  501  0.00000000000E+00  0.00000000000E+00 -0.44639690271E+03  0.44639690271E+03  0.25500000920E-02 0. -1.
    10030    2    1    2    0    0  0.00000000000E+00  0.00000000000E+00  0.13686510994E+04  0.22614449048E+04  0.18002575442E+04 0.  0.
        1    1    3    3  502    0  0.64823276146E+03 -0.12577601263E+03  0.14527603568E+04  0.15957875713E+04  0.50400001928E-02 0.  1.
       -1    1    3    3    0  502 -0.64823276146E+03  0.12577601263E+03 -0.84109257457E+02  0.66565733347E+03  0.50400001928E-02 0. -1.
</event>
<event>
 5   0  0.1036381E-05  0.1799469E+04  0.7818609E-02  0.8706582E-01
        2   -1    0    0  501    0  0.00000000000E+00  0.00000000000E+00  0.16489876919E+04  0.16489876919E+04  0.25500000920E-02 0. -1.
       -2   -1    0    0    0  501  0.00000000000E+00  0.00000000000E+00 -0.49092091728E+03  0.49092091729E+03  0.25500000920E-02 0.  1.
    10030    2    1    2    0    0  0.00000000000E+00  0.00000000000E+00  0.11580667746E+04  0.21399086092E+04  0.17994694221E+04 0.  0.
        4    1    3    3  502    0 -0.68896093647E+03 -0.37600058510E+03  0.55956184840E+02  0.78687757593E+03  0.12699999809E+01 0.  1.
       -4    1    3    3    0  502  0.68896093647E+03  0.37600058510E+03  0.11021105898E+04  0.13530310333E+04  0.12699999809E+01 0. -1.
</event>
<event>
 5   0  0.4953155E-06  0.1798726E+04  0.7818609E-02  0.8706978E-01
        1   -1    0    0  501    0  0.00000000000E+00  0.00000000000E+00  0.52503318969E+03  0.52503318971E+03  0.50400001928E-02 0. -1.
       -1   -1    0    0    0  501  0.00000000000E+00  0.00000000000E+00 -0.15405757484E+04  0.15405757484E+04  0.50400001928E-02 0.  1.
    10030    2    1    2    0    0  0.00000000000E+00  0.00000000000E+00 -0.10155425587E+04  0.20656089381E+04  0.17987255479E+04 0.  0.
        2    1    3    3  502    0  0.24581579265E+02 -0.11433796554E+03  0.51626378092E+03  0.52934460977E+03  0.25500000920E-02 0. -1.
       -2    1    3    3    0  502 -0.24581579265E+02  0.11433796554E+03 -0.15318063396E+04  0.15362643283E+04  0.25500000920E-02 0.  1.
</event>
<event>
 5   0  0.1000316E-05  0.1800217E+04  0.7818609E-02  0.8706184E-01
        2   -1    0    0  501    0  0.00000000000E+00  0.00000000000E+00  0.15044679283E+04  0.15044679283E+04  0.25500000920E-02 0.  1.
       -2   -1    0    0    0  501  0.00000000000E+00  0.00000000000E+00 -0.53852608485E+03  0.53852608486E+03  0.25500000920E-02 0. -1.
    10030    2    1    2    0    0  0.00000000000E+00  0.00000000000E+00  0.96594184346E+03  0.20429940132E+04  0.18002169016E+04 0.  0.
        5    1    3    3  502    0 -0.28240255800E+03  0.18319822340E+03  0.14303311169E+04  0.14694155259E+04  0.46999998093E+01 0.  1.
       -5    1    3    3    0  502  0.28240255800E+03 -0.18319822340E+03 -0.46438927341E+03  0.57357848729E+03  0.46999998093E+01 0. -1.
</event>
<event>
 5   0  0.4983159E-06  0.1806119E+04  0.7818609E-02  0.8703052E-01
       -1   -1    0    0    0  501  0.00000000000E+00  0.00000000000E+00  0.69097613687E+03  0.69097613689E+03  0.50400001928E-02 0. -1.
        1   -1    0    0  501    0  0.00000000000E+00  0.00000000000E+00 -0.11802382192E+04  0.11802382192E+04  0.50400001928E-02 0.  1.
    10030    2    1    2    0    0  0.00000000000E+00  0.00000000000E+00 -0.48926208228E+03  0.18712143561E+04  0.18061189831E+04 0.  0.
        4    1    3    3  502    0  0.65373990384E+03 -0.30398207922E+03 -0.80804514423E+03  0.10829217582E+04  0.12699999809E+01 0.  1.
       -4    1    3    3    0  502 -0.65373990384E+03  0.30398207922E+03  0.31878306195E+03  0.78829259786E+03  0.12699999809E+01 0. -1.
</event>
<event>
 5   0  0.9999162E-06  0.1800496E+04  0.7818609E-02  0.8706036E-01
        2   -1    0    0  501    0  0.00000000000E+00  0.00000000000E+00  0.12225657962E+04  0.12225657962E+04  0.25500000920E-02 0.  1.
       -2   -1    0    0    0  501  0.00000000000E+00  0.00000000000E+00 -0.66290608247E+03  0.66290608248E+03  0.25500000920E-02 0. -1.
    10030    2    1    2    0    0  0.00000000000E+00  0.00000000000E+00  0.55965971377E+03  0.18854718787E+04  0.18004958234E+04 0.  0.
        1    1    3    3  502    0 -0.55409987914E+03  0.13476862706E+03  0.10093106559E+04  0.11592658276E+04  0.50400001928E-02 0.  1.
       -1    1    3    3    0  502  0.55409987914E+03 -0.13476862706E+03 -0.44965094213E+03  0.72620605112E+03  0.50400001928E-02 0. -1.
</event>
<event>
 5   0  0.1000316E-05  0.1798412E+04  0.7818609E-02  0.8707145E-01
        2   -1    0    0  501    0  0.00000000000E+00  0.00000000000E+00  0.14285946694E+04  0.14285946694E+04  0.25500000920E-02 0.  1.
       -2   -1    0    0    0  501  0.00000000000E+00  0.00000000000E+00 -0.56599066977E+03  0.56599066977E+03  0.25500000920E-02 0. -1.
    10030    2    1    2    0    0  0.00000000000E+00  0.00000000000E+00  0.86260399959E+03  0.19945853391E+04  0.17984118035E+04 0.  0.
        5    1    3    3  502    0 -0.50074003277E+02  0.44835318198E+03 -0.43137609021E+03  0.62420782020E+03  0.46999998093E+01 0. -1.
       -5    1    3    3    0  502  0.50074003277E+02 -0.44835318198E+03  0.12939800898E+04  0.13703775189E+04  0.46999998093E+01 0.  1.
</event>
<event>
 5   0  0.9589963E-06  0.1799785E+04  0.7818609E-02  0.8706414E-01
       -2   -1    0    0    0  501  0.00000000000E+00  0.00000000000E+00  0.70038215571E+03  0.70038215572E+03  0.25500000920E-02 0. -1.
        2   -1    0    0  501    0  0.00000000000E+00  0.00000000000E+00 -0.11562353432E+04  0.11562353432E+04  0.25500000920E-02 0.  1.
    10030    2    1    2    0    0  0.00000000000E+00  0.00000000000E+00 -0.45585318751E+03  0.18566174989E+04  0.17997851007E+04 0.  0.
        2    1    3    3  502    0  0.32115746681E+03  0.44906436669E+03 -0.96100414060E+03  0.11083004476E+04  0.25500000920E-02 0.  1.
       -2    1    3    3    0  502 -0.32115746681E+03 -0.44906436669E+03  0.50515095308E+03  0.74831705134E+03  0.25500000920E-02 0. -1.
</event>
<event>
 5   0  0.4994123E-06  0.1799997E+04  0.7818609E-02  0.8706301E-01
        1   -1    0    0  501    0  0.00000000000E+00  0.00000000000E+00  0.88638401025E+03  0.88638401026E+03  0.50400001928E-02 0. -1.
       -1   -1    0    0    0  501  0.00000000000E+00  0.00000000000E+00 -0.91382242522E+03  0.91382242524E+03  0.50400001928E-02 0.  1.
    10030    2    1    2    0    0  0.00000000000E+00  0.00000000000E+00 -0.27438414977E+02  0.18002064355E+04  0.17999973177E+04 0.  0.
        1    1    3    3  502    0 -0.19347640322E+03 -0.19445366110E+03  0.84355727833E+03  0.88703676742E+03  0.50400001928E-02 0. -1.
       -1    1    3    3    0  502  0.19347640322E+03  0.19445366110E+03 -0.87099569330E+03  0.91316966808E+03  0.50400001928E-02 0.  1.
</event>
<event>
 5   0  0.4983159E-06  0.1799315E+04  0.7818609E-02  0.8706664E-01
       -1   -1    0    0    0  501  0.00000000000E+00  0.00000000000E+00  0.37789832287E+03  0.37789832290E+03  0.50400001928E-02 0.  1.
        1   -1    0    0  501    0  0.00000000000E+00  0.00000000000E+00 -0.21418014943E+04  0.21418014943E+04  0.50400001928E-02 0. -1.
    10030    2    1    2    0    0  0.00000000000E+00  0.00000000000E+00 -0.17639031714E+04  0.25196998172E+04  0.17993145280E+04 0.  0.
        4    1    3    3  502    0  0.40188479795E+03  0.53145823424E+03 -0.35427612542E+02  0.66724506307E+03  0.12699999809E+01 0.  1.
       -4    1    3    3    0  502 -0.40188479795E+03 -0.53145823424E+03 -0.17284755589E+04  0.18524547541E+04  0.12699999809E+01 0. -1.
</event>
<event>
 5   0  0.9589963E-06  0.1800731E+04  0.7818609E-02  0.8705911E-01
       -2   -1    0    0    0  501  0.00000000000E+00  0.00000000000E+00  0.10302116101E+04  0.10302116101E+04  0.25500000920E-02 0.  1.
        2   -1    0    0  501    0  0.00000000000E+00  0.00000000000E+00 -0.78688498884E+03  0.78688498884E+03  0.25500000920E-02 0. -1.
    10030    2    1    2    0    0  0.00000000000E+00  0.00000000000E+00  0.24332662126E+03  0.18170965989E+04  0.18007310197E+04 0.  0.
        2    1    3    3  502    0 -0.30733762857E+03 -0.11960882713E+03 -0.72374274811E+03  0.79534033904E+03  0.25500000920E-02 0. -1.
       -2    1    3    3    0  502  0.30733762857E+03  0.11960882713E+03  0.96706936937E+03  0.10217562599E+04  0.25500000920E-02 0.  1.
</event>
<event>
 5   0  0.1000316E-05  0.1802500E+04  0.7818609E-02  0.8704971E-01
        2   -1    0    0  501    0  0.00000000000E+00  0.00000000000E+00  0.24190007821E+04  0.24190007821E+04  0.25500000920E-02 0.  1.
       -2   -1    0    0    0  501  0.00000000000E+00  0.00000000000E+00 -0.33577987943E+03  0.33577987944E+03  0.25500000920E-02 0. -1.
    10030    2    1    2    0    0  0.00000000000E+00  0.00000000000E+00  0.20832209027E+04  0.27547806616E+04  0.18025002535E+04 0.  0.
        5    1    3    3  502    0 -0.86232283761E+03 -0.95497420225E+02  0.66878633844E+03  0.10954531893E+04  0.46999998093E+01 0. -1.
       -5    1    3    3    0  502  0.86232283761E+03  0.95497420225E+02  0.14144345643E+04  0.16593274722E+04  0.46999998093E+01 0.  1.
</event>
<event>
 5   0  0.4983159E-06  0.1798052E+04  0.7818609E-02  0.8707336E-01
        1   -1    0    0  501    0  0.00000000000E+00  0.00000000000E+00  0.25744564885E+04  0.25744564885E+04  0.50400001928E-02 0. -1.
       -1   -1    0    0    0  501  0.00000000000E+00  0.00000000000E+00 -0.31394898174E+03  0.31394898178E+03  0.50400001928E-02 0.  1.
    10030    2    1    2    0    0  0.00000000000E+00  0.00000000000E+00  0.22605075068E+04  0.28884054703E+04  0.17980522720E+04 0.  0.
        4    1    3    3  502    0 -0.71123154259E+02 -0.61010817665E+03  0.21848160887E+04  0.22695183288E+04  0.12699999809E+01 0. -1.
       -4    1    3    3    0  502  0.71123154259E+02  0.61010817665E+03  0.75691418090E+02  0.61888714154E+03  0.12699999809E+01 0.  1.
</event>
<event>
 5   0  0.4953155E-06  0.1799884E+04  0.7818609E-02  0.8706361E-01
       -1   -1    0    0    0  501  0.00000000000E+00  0.00000000000E+00  0.12817872118E+04  0.12817872118E+04  0.50400001928E-02 0. -1.
        1   -1    0    0  501    0  0.00000000000E+00  0.00000000000E+00 -0.63184850547E+03  0.63184850549E+03  0.50400001928E-02 0.  1.
    10030    2    1    2    0    0  0.00000000000E+00  0.00000000000E+00  0.64993870629E+03  0.19136357173E+04  0.17998837008E+04 0.  0.
        2    1    3    3  502    0  0.14478358805E+03 -0.78237910571E+02 -0.61571414831E+03  0.63732830665E+03  0.25500000920E-02 0.  1.
       -2    1    3    3    0  502 -0.14478358805E+03  0.78237910571E+02  0.12656528546E+04  0.12763074106E+04  0.25500000920E-02 0. -1.
</event>
<event>
 5   0  0.1036381E-05  0.1800336E+04  0.7818609E-02  0.8706121E-01
        2   -1    0    0  501    0  0.00000000000E+00  0.00000000000E+00  0.16163484548E+04  0.16163484548E+04  0.25500000920E-02 0.  1.
       -2   -1    0    0    0  501  0.00000000000E+00  0.00000000000E+00 -0.50131644566E+03  0.50131644567E+03  0.25500000920E-02 0. -1.
    10030    2    1    2    0    0  0.00000000000E+00  0.00000000000E+00  0.11150320092E+04  0.21176649005E+04  0.18003355935E+04 0.  0.
        4    1    3    3  502    0 -0.67659290530E+03  0.71030755788E+02  0.12508889281E+04  0.14239199595E+04  0.12699999809E+01 0.  1.
       -4    1    3    3    0  502  0.67659290530E+03 -0.71030755788E+02 -0.13585691896E+03  0.69374494096E+03  0.12699999809E+01 0. -1.
</event>
<event>
 5   0  0.3626125E-06  0.1801003E+04  0.7818609E-02  0.8705766E-01
        3   -1    0    0  501    0  0.00000000000E+00  0.00000000000E+00  0.11824779619E+04  0.11824779662E+04  0.10100000352E+00 0. -1.
       -3   -1    0    0    0  501  0.00000000000E+00  0.00000000000E+00 -0.68576615520E+03  0.68576616264E+03  0.10100000352E+00 0.  1.
    10030    2    1    2    0    0  0.00000000000E+00  0.00000000000E+00  0.49671180665E+03  0.18682441288E+04  0.18010034719E+04 0.  0.
        2    1    3    3  502    0 -0.52173524483E+03  0.42380632722E+03 -0.37325274411E+03  0.76885439433E+03  0.25500000920E-02 0.  1.
       -2    1    3    3    0  502  0.52173524483E+03 -0.42380632722E+03  0.86996455077E+03  0.10993897345E+04  0.25500000920E-02 0. -1.
</event>
<event>
 5   0  0.1036381E-05  0.1799636E+04  0.7818609E-02  0.8706493E-01
        2   -1    0    0  501    0  0.00000000000E+00  0.00000000000E+00  0.13757452587E+04  0.13757452587E+04  0.25500000920E-02 0. -1.
       -2   -1    0    0    0  501  0.00000000000E+00  0.00000000000E+00 -0.58853350009E+03  0.58853350010E+03  0.25500000920E-02 0.  1.
    10030    2    1    2    0    0  0.00000000000E+00  0.00000000000E+00  0.78721175860E+03  0.19642787588E+04  0.17996357102E+04 0.  0.
        4    1    3    3  502    0  0.84352301534E+03 -0.29285558128E+03  0.27218518532E+03  0.93347836445E+03  0.12699999809E+01 0.  1.
       -4    1    3    3    0  502 -0.84352301534E+03  0.29285558128E+03  0.51502657328E+03  0.10308003943E+04  0.12699999809E+01 0. -1.
</event>
<event>
 5   0  0.1036381E-05  0.1801722E+04  0.7818609E-02  0.8705384E-01
        2   -1    0    0  501    0  0.00000000000E+00  0.00000000000E+00  0.65619827671E+03  0.65619827672E+03  0.25500000920E-02 0. -1.
       -2   -1    0    0    0  501  0.00000000000E+00  0.00000000000E+00 -0.12367453392E+04  0.12367453392E+04  0.25500000920E-02 0.  1.
    10030    2    1    2    0    0  0.00000000000E+00  0.00000000000E+00 -0.58054706249E+03  0.18929436159E+04  0.18017215771E+04 0.  0.
        4    1    3    3  502    0 -0.54212437440E+03  0.43623880811E+02 -0.10447891140E+04  0.11778742657E+04  0.12699999809E+01 0.  1.
       -4    1    3    3    0  502  0.54212437440E+03 -0.43623880811E+02  0.46424205150E+03  0.71506935018E+03  0.12699999809E+01 0. -1.
</event>
<event>
 5   0  0.1035018E-05  0.1800027E+04  0.7818609E-02  0.8706285E-01
        2   -1    0    0  501    0  0.00000000000E+00  0.00000000000E+00  0.28093891620E+04  0.28093891620E+04  0.25500000920E-02 0. -1.
       -2   -1    0    0    0  501  0.00000000000E+00  0.00000000000E+00 -0.28832742032E+03  0.28832742033E+03  0.25500000920E-02 0.  1.
    10030    2    1    2    0    0  0.00000000000E+00  0.00000000000E+00  0.25210617417E+04  0.30977165823E+04  0.18000265884E+04 0.  0.
        3    1    3    3  502    0 -0.23391182638E+03  0.42675947639E+03  0.25634287229E+04  0.26092154416E+04  0.10100000352E+00 0. -1.
       -3    1    3    3    0  502  0.23391182638E+03 -0.42675947639E+03 -0.42366981191E+02  0.48850114074E+03  0.10100000352E+00 0.  1.
</event>
<event>
 5   0  0.4953155E-06  0.1801329E+04  0.7818609E-02  0.8705593E-01
       -1   -1    0    0    0  501  0.00000000000E+00  0.00000000000E+00  0.10806104272E+04  0.10806104272E+04  0.50400001928E-02 0.  1.
        1   -1    0    0  501    0  0.00000000000E+00  0.00000000000E+00 -0.75068346848E+03  0.75068346850E+03  0.50400001928E-02 0. -1.
    10030    2    1    2    0    0  0.00000000000E+00  0.00000000000E+00  0.32992695868E+03  0.18312938957E+04  0.18013288246E+04 0.  0.
        2    1    3    3  502    0  0.19071228595E+03  0.77190021421E+03  0.59507970163E+03  0.99313693316E+03  0.25500000920E-02 0.  1.
       -2    1    3    3    0  502 -0.19071228595E+03 -0.77190021421E+03 -0.26515274295E+03  0.83815696251E+03  0.25500000920E-02 0. -1.
</event>
<event>
 5   0  0.4994123E-06  0.1798796E+04  0.7818609E-02  0.8706940E-01
       -1   -1    0    0    0  501  0.00000000000E+00  0.00000000000E+00  0.53440464758E+03  0.53440464761E+03  0.50400001928E-02 0. -1.
        1   -1    0    0  501    0  0.00000000000E+00  0.00000000000E+00 -0.15136775780E+04  0.15136775780E+04  0.50400001928E-02 0.  1.
    10030    2    1    2    0    0  0.00000000000E+00  0.00000000000E+00 -0.97927293038E+03  0.20480822256E+04  0.17987955222E+04 0.  0.
        1    1    3    3  502    0 -0.44287007313E+03 -0.54589044849E+03 -0.11284488527E+04  0.13294837708E+04  0.50400001928E-02 0.  1.
       -1    1    3    3    0  502  0.44287007313E+03  0.54589044849E+03  0.14917592236E+03  0.71859845482E+03  0.50400001928E-02 0. -1.
</event>
<event>
 5   0  0.4981384E-06  0.1800023E+04  0.7818609E-02  0.8706287E-01
       -1   -1    0    0    0  501  0.00000000000E+00  0.00000000000E+00  0.11231063544E+04  0.11231063545E+04  0.50400001928E-02 0. -1.
        1   -1    0    0  501    0  0.00000000000E+00  0.00000000000E+00 -0.72123218155E+03  0.72123218157E+03  0.50400001928E-02 0.  1.
    10030    2    1    2    0    0  0.00000000000E+00  0.00000000000E+00  0.40187417289E+03  0.18443385360E+04  0.18000227178E+04 0.  0.
        5    1    3    3  502    0  0.66464767001E+03 -0.31725897347E+03 -0.32908801450E+03  0.80667886595E+03  0.46999998093E+01 0.  1.
       -5    1    3    3    0  502 -0.66464767001E+03  0.31725897347E+03  0.73096218739E+03  0.10376596701E+04  0.46999998093E+01 0. -1.
</event>
<event>
 5   0  0.9999162E-06  0.1799939E+04  0.7818609E-02  0.8706332E-01
       -2   -1    0    0    0  501  0.00000000000E+00  0.00000000000E+00  0.30185777259E+03  0.30185777260E+03  0.25500000920E-02 0.  1.
        2   -1    0    0  501    0  0.00000000000E+00  0.00000000000E+00 -0.26832001198E+04  0.26832001198E+04  0.25500000920E-02 0. -1.
    10030    2    1    2    0    0  0.00000000000E+00  0.00000000000E+00 -0.23813423472E+04  0.29850578924E+04  0.17999386785E+04 0.  0.
        1    1    3    3  502    0 -0.11381574344E+03  0.26400560089E+03  0.22365442995E+03  0.36424481440E+03  0.50400001928E-02 0.  1.
       -1    1    3    3    0  502  0.11381574344E+03 -0.26400560089E+03 -0.26049967771E+04  0.26208130780E+04  0.50400001928E-02 0. -1.
</event>
<event>
 5   0  0.1000316E-05  0.1799952E+04  0.7818609E-02  0.8706325E-01
        2   -1    0    0  501    0  0.00000000000E+00  0.00000000000E+00  0.97213996122E+03  0.97213996122E+03  0.25500000920E-02 0.  1.
       -2   -1    0    0    0  501  0.00000000000E+00  0.00000000000E+00 -0.83316854001E+03  0.83316854001E+03  0.25500000920E-02 0. -1.
    10030    2    1    2    0    0  0.00000000000E+00  0.00000000000E+00  0.13897142121E+03  0.18053085012E+04  0.17999515907E+04 0.  0.
        5    1    3    3  502    0 -0.16126080995E+03  0.74208515640E+03 -0.41489975978E+03  0.86536658638E+03  0.46999998093E+01 0. -1.
       -5    1    3    3    0  502  0.16126080995E+03 -0.74208515640E+03  0.55387118099E+03  0.93994191485E+03  0.46999998093E+01 0.  1.
</event>
<event>
 5   0  0.1036381E-05  0.1800005E+04  0.7818609E-02  0.8706297E-01
        2   -1    0    0  501    0  0.00000000000E+00  0.00000000000E+00  0.13028690025E+04  0.13028690025E+04  0.25500000920E-02 0. -1.
       -2   -1    0    0    0  501  0.00000000000E+00  0.00000000000E+00 -0.62170806980E+03  0.62170806981E+03  0.25500000920E-02 0.  1.
    10030    2    1    2    0    0  0.00000000000E+00  0.00000000000E+00  0.68116093270E+03  0.19245770723E+04  0.18000046364E+04 0.  0.
        4    1    3    3  502    0 -0.83612574619E+03 -0.18423300685E+03  0.43975320156E+02  0.85731179039E+03  0.12699999809E+01 0.  1.
       -4    1    3    3    0  502  0.83612574619E+03  0.18423300685E+03  0.63718561254E+03  0.10672652819E+04  0.12699999809E+01 0. -1.
</event>
<event>
 5   0  0.4981384E-06  0.1800166E+04  0.7818609E-02  0.8706211E-01
        1   -1    0    0  501    0  0.00000000000E+00  0.00000000000E+00  0.13640517375E+04  0.13640517375E+04  0.50400001928E-02 0. -1.
       -1   -1    0    0    0  501  0.00000000000E+00  0.00000000000E+00 -0.59392845181E+03  0.59392845183E+03  0.50400001928E-02 0.  1.
    10030    2    1    2    0    0  0.00000000000E+00  0.00000000000E+00  0.77012328571E+03  0.19579801894E+04  0.18001656998E+04 0.  0.
        5    1    3    3  502    0 -0.82231366094E+02  0.88681891898E+03  0.52653046791E+03  0.10346333729E+04  0.46999998093E+01 0. -1.
       -5    1    3    3    0  502  0.82231366094E+02 -0.88681891898E+03  0.24359281780E+03  0.92334681649E+03  0.46999998093E+01 0.  1.
</event>
<event>
 5   0  0.4994123E-06  0.1800809E+04  0.7818609E-02  0.8705869E-01
        1   -1    0    0  501    0  0.00000000000E+00  0.00000000000E+00  0.18236025582E+04  0.18236025582E+04  0.50400001928E-02 0.  1.
       -1   -1    0    0    0  501  0.00000000000E+00  0.00000000000E+00 -0.44457513930E+03  0.44457513933E+03  0.50400001928E-02 0. -1.
    10030    2    1    2    0    0  0.00000000000E+00  0.00000000000E+00  0.13790274189E+04  0.22681776976E+04  0.18008091086E+04 0.  0.
        1    1    3    3  502    0 -0.56430320735E+03  0.55217950866E+02  0.15705035933E+04  0.16697211350E+04  0.50400001928E-02 0.  1.
       -1    1    3    3    0  502  0.56430320735E+03 -0.55217950866E+02 -0.19147617440E+03  0.59845656259E+03  0.50400001928E-02 0. -1.
</event>
<event>
 5   0  0.4953155E-06  0.1799558E+04  0.7818609E-02  0.8706535E-01
        1   -1    0    0  501    0  0.00000000000E+00  0.00000000000E+00  0.22009709612E+04  0.22009709612E+04  0.50400001928E-02 0.  1.
       -1   -1    0    0    0  501  0.00000000000E+00  0.00000000000E+00 -0.36783854981E+03  0.36783854985E+03  0.50400001928E-02 0. -1.
    10030    2    1    2    0    0  0.00000000000E+00  0.00000000000E+00  0.18331324113E+04  0.25688095110E+04  0.17995576863E+04 0.  0.
        2    1    3    3  502    0 -0.26454017596E+03  0.34085521582E+02 -0.31010795019E+03  0.40903577870E+03  0.25500000920E-02 0. -1.
       -2    1    3    3    0  502  0.26454017596E+03 -0.34085521582E+02  0.21432403615E+04  0.21597737323E+04  0.25500000920E-02 0.  1.
</event>
<event>
 5   0  0.4953155E-06  0.1800723E+04  0.7818609E-02  0.8705915E-01
       -1   -1    0    0    0  501  0.00000000000E+00  0.00000000000E+00  0.42076113231E+03  0.42076113234E+03  0.50400001928E-02 0. -1.
        1   -1    0    0  501    0  0.00000000000E+00  0.00000000000E+00 -0.19266295238E+04  0.19266295238E+04  0.50400001928E-02 0.  1.
    10030    2    1    2    0    0  0.00000000000E+00  0.00000000000E+00 -0.15058683915E+04  0.23473906562E+04  0.18007229882E+04 0.  0.
        2    1    3    3  502    0 -0.12740422735E+03 -0.79784510827E+03 -0.23499653436E+03  0.84143450434E+03  0.25500000920E-02 0.  1.
       -2    1    3    3    0  502  0.12740422735E+03  0.79784510827E+03 -0.12708718572E+04  0.15059561518E+04  0.25500000920E-02 0. -1.
</event>
<event>
 5   0  0.4981384E-06  0.1799374E+04  0.7818609E-02  0.8706632E-01
        1   -1    0    0  501    0  0.00000000000E+00  0.00000000000E+00  0.23564384847E+04  0.23564384847E+04  0.50400001928E-02 0. -1.
       -1   -1    0    0    0  501  0.00000000000E+00  0.00000000000E+00 -0.34350018901E+03  0.34350018905E+03  0.50400001928E-02 0.  1.
    10030    2    1    2    0    0  0.00000000000E+00  0.00000000000E+00  0.20129382957E+04  0.26999386737E+04  0.17993744079E+04 0.  0.
        5    1    3    3  502    0 -0.69906049390E+03  0.56491721482E+03  0.10664500178E+04  0.13946880526E+04  0.46999998093E+01 0. -1.
       -5    1    3    3    0  502  0.69906049390E+03 -0.56491721482E+03  0.94648827790E+03  0.13052506211E+04  0.46999998093E+01 0.  1.
</event>
<event>
 5   0  0.9999162E-06  0.1800465E+04  0.7818609E-02  0.8706052E-01
       -2   -1    0    0    0  501  0.00000000000E+00  0.00000000000E+00  0.87851031365E+03  0.87851031366E+03  0.25500000920E-02 0.  1.
        2   -1    0    0  501    0  0.00000000000E+00  0.00000000000E+00 -0.92249213916E+03  0.92249213916E+03  0.25500000920E-02 0. -1.
    10030    2    1    2    0    0  0.00000000000E+00  0.00000000000E+00 -0.43981825507E+02  0.18010024528E+04  0.18004653382E+04 0.  0.
        1    1    3    3  502    0  0.78655966691E+03 -0.43319421246E+03 -0.85928078160E+02  0.90206261976E+03  0.50400001928E-02 0.  1.
       -1    1    3    3    0  502 -0.78655966691E+03  0.43319421246E+03  0.41946252653E+02  0.89893983306E+03  0.50400001928E-02 0. -1.
</event>
<event>
 5   0  0.4953155E-06  0.1795208E+04  0.7818609E-02  0.8708852E-01
       -1   -1    0    0    0  501  0.00000000000E+00  0.00000000000E+00  0.58935219109E+03  0.58935219111E+03  0.50400001928E-02 0.  1.
        1   -1    0    0  501    0  0.00000000000E+00  0.00000000000E+00 -0.13670815329E+04  0.13670815329E+04  0.50400001928E-02 0. -1.
    10030    2    1    2    0    0  0.00000000000E+00  0.00000000000E+00 -0.77772934176E+03  0.19564337240E+04  0.17952075054E+04 0.  0.
        2    1    3    3  502    0  0.72055073282E+03  0.53292802594E+03 -0.44321171502E+03  0.99982111587E+03  0.25500000920E-02 0. -1.
       -2    1    3    3    0  502 -0.72055073282E+03 -0.53292802594E+03 -0.33451762674E+03  0.95661260811E+03  0.25500000920E-02 0.  1.
</event>
<event>
 5   0  0.4994123E-06  0.1799648E+04  0.7818609E-02  0.8706487E-01
       -1   -1    0    0    0  501  0.00000000000E+00  0.00000000000E+00  0.35401647915E+03  0.35401647919E+03  0.50400001928E-02 0.  1.
        1   -1    0    0  501    0  0.00000000000E+00  0.00000000000E+00 -0.22871344554E+04  0.22871344554E+04  0.50400001928E-02 0. -1.
    10030    2    1    2    0    0  0.00000000000E+00  0.00000000000E+00 -0.19331179763E+04  0.26411509346E+04  0.17996480626E+04 0.  0.
        1    1    3    3  502    0 -0.28297819280E+02  0.72359631180E+02 -0.22822023975E+04  0.22835245709E+04  0.50400001928E-02 0. -1.
       -1    1    3    3    0  502  0.28297819280E+02 -0.72359631180E+02  0.34908442126E+03  0.35762636367E+03  0.50400001928E-02 0.  1.
</event>
<event>
 5   0  0.1036381E-05  0.1799809E+04  0.7818609E-02  0.8706401E-01
        2   -1    0    0  501    0  0.00000000000E+00  0.00000000000E+00  0.10806082705E+04  0.10806082705E+04  0.25500000920E-02 0. -1.
       -2   -1    0    0    0  501  0.00000000000E+00  0.00000000000E+00 -0.74941909145E+03  0.74941909145E+03  0.25500000920E-02 0.  1.
    10030    2    1    2    0    0  0.00000000000E+00  0.00000000000E+00  0.33118917906E+03  0.18300273620E+04  0.17998093991E+04 0.  0.
        4    1    3    3  502    0 -0.22350759227E+03 -0.46200989337E+03  0.91720639730E+03  0.10510366185E+04  0.12699999809E+01 0. -1.
       -4    1    3    3    0  502  0.22350759227E+03  0.46200989337E+03 -0.58601721823E+03  0.77899074342E+03  0.12699999809E+01 0.  1.
</event>
<event>
 5   0  0.4981384E-06  0.1799470E+04  0.7818609E-02  0.8706582E-01
       -1   -1    0    0    0  501  0.00000000000E+00  0.00000000000E+00  0.76907969177E+03  0.76907969178E+03  0.50400001928E-02 0. -1.
        1   -1    0    0  501    0  0.00000000000E+00  0.00000000000E+00 -0.10525863706E+04  0.10525863707E+04  0.50400001928E-02 0.  1.
    10030    2    1    2    0    0  0.00000000000E+00  0.00000000000E+00 -0.28350667887E+03  0.18216660624E+04  0.17994697013E+04 0.  0.
        5    1    3    3  502    0 -0.19406936491E+03 -0.67502183582E+03 -0.71099110162E+03  0.99942375087E+03  0.46999998093E+01 0.  1.
       -5    1    3    3    0  502  0.19406936491E+03  0.67502183582E+03  0.42748442274E+03  0.82224231156E+03  0.46999998093E+01 0. -1.
</event>
<event>
 5   0  0.4981384E-06  0.1800162E+04  0.7818609E-02  0.8706213E-01
       -1   -1    0    0    0  501  0.00000000000E+00  0.00000000000E+00  0.14038644719E+04  0.14038644720E+04  0.50400001928E-02 0.  1.
        1   -1    0    0  501    0  0.00000000000E+00  0.00000000000E+00 -0.57708278088E+03  0.57708278091E+03  0.50400001928E-02 0. -1.
    10030    2    1    2    0    0  0.00000000000E+00  0.00000000000E+00  0.82678169106E+03  0.19809472529E+04  0.18001622299E+04 0.  0.
        5    1    3    3  502    0 -0.80536085101E+01  0.80174842824E+03  0.86343527657E+03  0.11783072475E+04  0.46999998093E+01 0.  1.
       -5    1    3    3    0  502  0.80536085101E+01 -0.80174842824E+03 -0.36653585508E+02  0.80264000531E+03  0.46999998093E+01 0. -1.
</event>
<event>
 5   0  0.4953155E-06  0.1798991E+04  0.7818609E-02  0.8706836E-01
        1   -1    0    0  501    0  0.00000000000E+00  0.00000000000E+00  0.99472754995E+03  0.99472754996E+03  0.50400001928E-02 0.  1.
       -1   -1    0    0    0  501  0.00000000000E+00  0.00000000000E+00 -0.81338083791E+03  0.81338083793E+03  0.50400001928E-02 0. -1.
    10030    2    1    2    0    0  0.00000000000E+00  0.00000000000E+00  0.18134671203E+03  0.18081083879E+04  0.17989911930E+04 0.  0.
        2    1    3    3  502    0  0.20410262732E+03 -0.74047503847E+03 -0.37981350049E+03  0.85686606902E+03  0.25500000920E-02 0. -1.
       -2    1    3    3    0  502 -0.20410262732E+03  0.74047503847E+03  0.56116021252E+03  0.95124231887E+03  0.25500000920E-02 0.  1.
</event>
<event>
 5   0  0.9999162E-06  0.1799477E+04  0.7818609E-02  0.8706578E-01
        2   -1    0    0  501    0  0.00000000000E+00  0.00000000000E+00  0.18709933910E+04  0.18709933910E+04  0.25500000920E-02 0.  1.
       -2   -1    0    0    0  501  0.00000000000E+00  0.00000000000E+00 -0.43267336815E+03  0.43267336815E+03  0.25500000920E-02 0. -1.
    10030    2    1    2    0    0  0.00000000000E+00  0.00000000000E+00  0.14383200228E+04  0.23036667591E+04  0.17994766042E+04 0.  0.
        1    1    3    3  502    0  0.58960075292E+03  0.47567527271E+03  0.97731025250E+02  0.76383726423E+03  0.50400001928E-02 0. -1.
       -1    1    3    3    0  502 -0.58960075292E+03 -0.47567527271E+03  0.13405889976E+04  0.15398294949E+04  0.50400001928E-02 0.  1.
</event>
<event>
 5   0  0.4983159E-06  0.1799575E+04  0.7818609E-02  0.8706526E-01
       -1   -1    0    0    0  501  0.00000000000E+00  0.00000000000E+00  0.68925071484E+03  0.68925071486E+03  0.50400001928E-02 0.  1.
        1   -1    0    0  501    0  0.00000000000E+00  0.00000000000E+00 -0.11746343014E+04  0.11746343014E+04  0.50400001928E-02 0. -1.
    10030    2    1    2    0    0  0.00000000000E+00  0.00000000000E+00 -0.48538358657E+03  0.18638850163E+04  0.17995749853E+04 0.  0.
        4    1    3    3  502    0 -0.89670438290E+03 -0.52638340183E+01 -0.16581350280E+03  0.91192224936E+03  0.12699999809E+01 0.  1.
       -4    1    3    3    0  502  0.89670438290E+03  0.52638340183E+01 -0.31957008377E+03  0.95196276692E+03  0.12699999809E+01 0. -1.
</event>
<event>
 5   0  0.9999162E-06  0.1800473E+04  0.7818609E-02  0.8706048E-01
        2   -1    0    0  501    0  0.00000000000E+00  0.00000000000E+00  0.23506070656E+04  0.23506070656E+04  0.25500000920E-02 0.  1.
       -2   -1    0    0    0  501  0.00000000000E+00  0.00000000000E+00 -0.34477303231E+03  0.34477303232E+03  0.25500000920E-02 0. -1.
    10030    2    1    2    0    0  0.00000000000E+00  0.00000000000E+00  0.20058340333E+04  0.26953800979E+04  0.18004731887E+04 0.  0.
        1    1    3    3  502    0  0.71253468647E+03 -0.44347159688E+03  0.14904401465E+04  0.17104924925E+04  0.50400001928E-02 0.  1.
       -1    1    3    3    0  502 -0.71253468647E+03  0.44347159688E+03  0.51539388674E+03  0.98488760535E+03  0.50400001928E-02 0. -1.
</event>
<event>
 5   0  0.1035018E-05  0.1799662E+04  0.7818609E-02  0.8706479E-01
        2   -1    0    0  501    0  0.00000000000E+00  0.00000000000E+00  0.10151628719E+04  0.10151628719E+04  0.25500000920E-02 0.  1.
       -2   -1    0    0    0  501  0.00000000000E+00  0.00000000000E+00 -0.79760230011E+03  0.79760230011E+03  0.25500000920E-02 0. -1.
    10030    2    1    2    0    0  0.00000000000E+00  0.00000000000E+00  0.21756057178E+03  0.18127651720E+04  0.17996624590E+04 0.  0.
        3    1    3    3  502    0 -0.37968942923E+03  0.78331953936E+03  0.33834895572E+03  0.93393446743E+03  0.10100000352E+00 0.  1.
       -3    1    3    3    0  502  0.37968942923E+03 -0.78331953936E+03 -0.12078838393E+03  0.87883070458E+03  0.10100000352E+00 0. -1.
</event>
<event>
 5   0  0.1035018E-05  0.1796959E+04  0.7818609E-02  0.8707918E-01
        2   -1    0    0  501    0  0.00000000000E+00  0.00000000000E+00  0.11525645035E+04  0.11525645035E+04  0.25500000920E-02 0.  1.
       -2   -1    0    0    0  501  0.00000000000E+00  0.00000000000E+00 -0.70040836820E+03  0.70040836820E+03  0.25500000920E-02 0. -1.
    10030    2    1    2    0    0  0.00000000000E+00  0.00000000000E+00  0.45215613531E+03  0.18529728717E+04  0.17969594577E+04 0.  0.
        3    1    3    3  502    0 -0.52236006533E+03 -0.21773064963E+03 -0.49352810355E+03  0.75089058646E+03  0.10100000352E+00 0. -1.
       -3    1    3    3    0  502  0.52236006533E+03  0.21773064963E+03  0.94568423887E+03  0.11020822853E+04  0.10100000352E+00 0.  1.
</event>
<event>
 5   0  0.4994123E-06  0.1800425E+04  0.7818609E-02  0.8706073E-01
       -1   -1    0    0    0  501  0.00000000000E+00  0.00000000000E+00  0.66758141238E+03  0.66758141240E+03  0.50400001928E-02 0. -1.
        1   -1    0    0  501    0  0.00000000000E+00  0.00000000000E+00 -0.12139082205E+04  0.12139082205E+04  0.50400001928E-02 0.  1.
    10030    2    1    2    0    0  0.00000000000E+00  0.00000000000E+00 -0.54632680808E+03  0.18814896329E+04  0.18004250213E+04 0.  0.
        1    1    3    3  502    0  0.40735891777E+03  0.12197746014E+03  0.55601180799E+03  0.69997779916E+03  0.50400001928E-02 0. -1.
       -1    1    3    3    0  502 -0.40735891777E+03 -0.12197746014E+03 -0.11023386161E+04  0.11815118337E+04  0.50400001928E-02 0.  1.
</event>
<event>
 5   0  0.4981384E-06  0.1799744E+04  0.7818609E-02  0.8706435E-01
        1   -1    0    0  501    0  0.00000000000E+00  0.00000000000E+00  0.13314486572E+04  0.13314486572E+04  0.50400001928E-02 0.  1.
       -1   -1    0    0    0  501  0.00000000000E+00  0.00000000000E+00 -0.60818717210E+03  0.60818717212E+03  0.50400001928E-02 0. -1.
    10030    2    1    2    0    0  0.00000000000E+00  0.00000000000E+00  0.72326148514E+03  0.19396358294E+04  0.17997444193E+04 0.  0.
        5    1    3    3  502    0 -0.62176084485E+02  0.51651167701E+03 -0.42967280393E+03  0.67475253717E+03  0.46999998093E+01 0. -1.
       -5    1    3    3    0  502  0.62176084485E+02 -0.51651167701E+03  0.11529342891E+04  0.12648832922E+04  0.46999998093E+01 0.  1.
</event>
<event>
 5   0  0.1035018E-05  0.1800472E+04  0.7818609E-02  0.8706048E-01
       -2   -1    0    0    0  501  0.00000000000E+00  0.00000000000E+00  0.49070408672E+03  0.49070408673E+03  0.25500000920E-02 0. -1.
        2   -1    0    0  501    0  0.00000000000E+00  0.00000000000E+00 -0.16515560048E+04  0.16515560048E+04  0.25500000920E-02 0.  1.
    10030    2    1    2    0    0  0.00000000000E+00  0.00000000000E+00 -0.11608519181E+04  0.21422600916E+04  0.18004724725E+04 0.  0.
        3    1    3    3  502    0  0.59574111482E+02 -0.86514469869E+03 -0.86796398195E+03  0.12269416892E+04  0.10100000352E+00 0.  1.
       -3    1    3    3    0  502 -0.59574111482E+02  0.86514469869E+03 -0.29288793617E+03  0.91531840241E+03  0.10100000352E+00 0. -1.
</event>
<event>
 5   0  0.4981384E-06  0.1799842E+04  0.7818609E-02  0.8706384E-01
       -1   -1    0    0    0  501  0.00000000000E+00  0.00000000000E+00  0.52327779899E+03  0.52327779902E+03  0.50400001928E-02 0.  1.
        1   -1    0    0  501    0  0.00000000000E+00  0.00000000000E+00 -0.15476627163E+04  0.15476627163E+04  0.50400001928E-02 0. -1.
    10030    2    1    2    0    0  0.00000000000E+00  0.00000000000E+00 -0.10243849173E+04  0.20709405153E+04  0.17998417039E+04 0.  0.
        5    1    3    3  502    0  0.38798226096E+02 -0.64583173521E+03  0.20750543390E+03  0.67947371373E+03  0.46999998093E+01 0.  1.
       -5    1    3    3    0  502 -0.38798226096E+02  0.64583173521E+03 -0.12318903512E+04  0.13914668016E+04  0.46999998093E+01 0. -1.
</event>
<event>
 5   0  0.9589963E-06  0.1802055E+04  0.7818609E-02  0.8705207E-01
       -2   -1    0    0    0  501  0.00000000000E+00  0.00000000000E+00  0.83486676234E+03  0.83486676235E+03  0.25500000920E-02 0.  1.
        2   -1    0    0  501    0  0.00000000000E+00  0.00000000000E+00 -0.97243150864E+03  0.97243150864E+03  0.25500000920E-02 0. -1.
    10030    2    1    2    0    0  0.00000000000E+00  0.00000000000E+00 -0.13756474630E+03  0.18072982710E+04  0.18020552103E+04 0.  0.
        2    1    3    3  502    0  0.41664681782E+03 -0.42341409253E+03 -0.74823166605E+03  0.95536625995E+03  0.25500000920E-02 0. -1.
       -2    1    3    3    0  502 -0.41664681782E+03  0.42341409253E+03  0.61066691975E+03  0.85193201104E+03  0.25500000920E-02 0.  1.
</event>
<event>
 5   0  0.4987456E-06  0.1800178E+04  0.7818609E-02  0.8706205E-01
       -1   -1    0    0    0  501  0.00000000000E+00  0.00000000000E+00  0.43418646692E+03  0.43418646694E+03  0.50400001928E-02 0.  1.
        1   -1    0    0  501    0  0.00000000000E+00  0.00000000000E+00 -0.18659263460E+04  0.18659263460E+04  0.50400001928E-02 0. -1.
    10030    2    1    2    0    0  0.00000000000E+00  0.00000000000E+00 -0.14317398790E+04  0.23001128129E+04  0.18001777331E+04 0.  0.
        3    1    3    3  502    0  0.14604670969E+03  0.86136546641E+03 -0.43922237220E+03  0.97785295959E+03  0.10100000352E+00 0.  1.
       -3    1    3    3    0  502 -0.14604670969E+03 -0.86136546641E+03 -0.99251750683E+03  0.13222598533E+04  0.10100000352E+00 0. -1.
</event>
<event>
 5   0  0.4994123E-06  0.1800131E+04  0.7818609E-02  0.8706230E-01
       -1   -1    0    0    0  501  0.00000000000E+00  0.00000000000E+00  0.68923669730E+03  0.68923669732E+03  0.50400001928E-02 0.  1.
        1   -1    0    0  501    0  0.00000000000E+00  0.00000000000E+00 -0.11753846519E+04  0.11753846519E+04  0.50400001928E-02 0. -1.
    10030    2    1    2    0    0  0.00000000000E+00  0.00000000000E+00 -0.48614795460E+03  0.18646213492E+04  0.18001313681E+04 0.  0.
        1    1    3    3  502    0  0.58366344394E+03 -0.66716670512E+03 -0.40468861897E+03  0.97444717998E+03  0.50400001928E-02 0. -1.
       -1    1    3    3    0  502 -0.58366344394E+03  0.66716670512E+03 -0.81459335637E+02  0.89017416925E+03  0.50400001928E-02 0.  1.
</event>
<event>
 5   0  0.4983159E-06  0.1800107E+04  0.7818609E-02  0.8706243E-01
       -1   -1    0    0    0  501  0.00000000000E+00  0.00000000000E+00  0.85807469407E+03  0.85807469408E+03  0.50400001928E-02 0.  1.
        1   -1    0    0  501    0  0.00000000000E+00  0.00000000000E+00 -0.94408611888E+03  0.94408611889E+03  0.50400001928E-02 0. -1.
    10030    2    1    2    0    0  0.00000000000E+00  0.00000000000E+00 -0.86011424811E+02  0.18021608130E+04  0.18001071164E+04 0.  0.
        4    1    3    3  502    0 -0.16806645423E+03  0.36050246204E+03  0.76531026942E+03  0.86250204611E+03  0.12699999809E+01 0.  1.
       -4    1    3    3    0  502  0.16806645423E+03 -0.36050246204E+03 -0.85132169423E+03  0.93965876686E+03  0.12699999809E+01 0. -1.
</event>
<event>
 5   0  0.1036381E-05  0.1799701E+04  0.7818609E-02  0.8706459E-01
        2   -1    0    0  501    0  0.00000000000E+00  0.00000000000E+00  0.10512977397E+04  0.10512977397E+04  0.25500000920E-02 0.  1.
       -2   -1    0    0    0  501  0.00000000000E+00  0.00000000000E+00 -0.77022013516E+03  0.77022013516E+03  0.25500000920E-02 0. -1.
    10030    2    1    2    0    0  0.00000000000E+00  0.00000000000E+00  0.28107760455E+03  0.18215178749E+04  0.17997007387E+04 0.  0.
        4    1    3    3  502    0 -0.26440577781E+03  0.26302508760E+02 -0.72960819968E+03  0.77648694467E+03  0.12699999809E+01 0. -1.
       -4    1    3    3    0  502  0.26440577781E+03 -0.26302508760E+02  0.10106858042E+04  0.10450309302E+04  0.12699999809E+01 0.  1.
</event>
<event>
 5   0  0.4987456E-06  0.1799906E+04  0.7818609E-02  0.8706350E-01
        1   -1    0    0  501    0  0.00000000000E+00  0.00000000000E+00  0.85513627510E+03  0.85513627512E+03  0.50400001928E-02 0. -1.
       -1   -1    0    0    0  501  0.00000000000E+00  0.00000000000E+00 -0.94711802508E+03  0.94711802509E+03  0.50400001928E-02 0.  1.
    10030    2    1    2    0    0  0.00000000000E+00  0.00000000000E+00 -0.91981749972E+02  0.18022543002E+04  0.17999055309E+04 0.  0.
        3    1    3    3  502    0  0.65574691231E+03  0.52190887925E+03 -0.37432436628E+03  0.91788432422E+03  0.10100000352E+00 0. -1.
       -3    1    3    3    0  502 -0.65574691231E+03 -0.52190887925E+03  0.28234261631E+03  0.88436997599E+03  0.10100000352E+00 0.  1.
</event>
<event>
 5   0  0.4981384E-06  0.1800205E+04  0.7818609E-02  0.8706191E-01
        1   -1    0    0  501    0  0.00000000000E+00  0.00000000000E+00  0.91630355399E+03  0.91630355400E+03  0.50400001928E-02 0.  1.
       -1   -1    0    0    0  501  0.00000000000E+00  0.00000000000E+00 -0.88418769879E+03  0.88418769880E+03  0.50400001928E-02 0. -1.
    10030    2    1    2    0    0  0.00000000000E+00  0.00000000000E+00  0.32115855199E+02  0.18004912528E+04  0.18002048004E+04 0.  0.
        5    1    3    3  502    0 -0.30641963961E+03 -0.18123969318E+02 -0.83020954147E+03  0.88515052197E+03  0.46999998093E+01 0. -1.
       -5    1    3    3    0  502  0.30641963961E+03  0.18123969318E+02  0.86232539667E+03  0.91534073084E+03  0.46999998093E+01 0.  1.
</event>
<event>
 5   0  0.4983159E-06  0.1799422E+04  0.7818609E-02  0.8706607E-01
        1   -1    0    0  501    0  0.00000000000E+00  0.00000000000E+00  0.15502249667E+04  0.15502249667E+04  0.50400001928E-02 0. -1.
       -1   -1    0    0    0  501  0.00000000000E+00  0.00000000000E+00 -0.52216914310E+03  0.52216914312E+03  0.50400001928E-02 0.  1.
    10030    2    1    2    0    0  0.00000000000E+00  0.00000000000E+00  0.10280558236E+04  0.20723941098E+04  0.17994217321E+04 0.  0.
        4    1    3    3  502    0  0.16717539488E+02 -0.88777762611E+03  0.68112145252E+03  0.11190874119E+04  0.12699999809E+01 0. -1.
       -4    1    3    3    0  502 -0.16717539488E+02  0.88777762611E+03  0.34693437109E+03  0.95330669791E+03  0.12699999809E+01 0.  1.
</event>
<event>
 5   0  0.9589963E-06  0.1799011E+04  0.7818609E-02  0.8706825E-01
        2   -1    0    0  501    0  0.00000000000E+00  0.00000000000E+00  0.11576512405E+04  0.11576512405E+04  0.25500000920E-02 0.  1.
       -2   -1    0    0    0  501  0.00000000000E+00  0.00000000000E+00 -0.69892422212E+03  0.69892422213E+03  0.25500000920E-02 0. -1.
    10030    2    1    2    0    0  0.00000000000E+00  0.00000000000E+00  0.45872701842E+03  0.18565754627E+04  0.17990113872E+04 0.  0.
        2    1    3    3  502    0  0.44133400727E+03  0.23013499153E+03  0.10025857327E+04  0.11193372913E+04  0.25500000920E-02 0.  1.
       -2    1    3    3    0  502 -0.44133400727E+03 -0.23013499153E+03 -0.54385871424E+03  0.73723817140E+03  0.25500000920E-02 0. -1.
</event>
<event>
 5   0  0.1036381E-05  0.1801324E+04  0.7818609E-02  0.8705595E-01
        2   -1    0    0  501    0  0.00000000000E+00  0.00000000000E+00  0.94045443410E+03  0.94045443411E+03  0.25500000920E-02 0.  1.
       -2   -1    0    0    0  501  0.00000000000E+00  0.00000000000E+00 -0.86255368454E+03  0.86255368454E+03  0.25500000920E-02 0. -1.
    10030    2    1    2    0    0  0.00000000000E+00  0.00000000000E+00  0.77900749568E+02  0.18030081186E+04  0.18013244430E+04 0.  0.
        4    1    3    3  502    0  0.88375708877E+03  0.13245323744E+03 -0.73495058940E+02  0.89664574311E+03  0.12699999809E+01 0. -1.
       -4    1    3    3    0  502 -0.88375708877E+03 -0.13245323744E+03  0.15139580851E+03  0.90636237554E+03  0.12699999809E+01 0.  1.
</event>
<event>
 5   0  0.1036381E-05  0.1798320E+04  0.7818609E-02  0.8707194E-01
        2   -1    0    0  501    0  0.00000000000E+00  0.00000000000E+00  0.13586898546E+04  0.13586898546E+04  0.25500000920E-02 0.  1.
       -2   -1    0    0    0  501  0.00000000000E+00  0.00000000000E+00 -0.59505003837E+03  0.59505003837E+03  0.25500000920E-02 0. -1.
    10030    2    1    2    0    0  0.00000000000E+00  0.00000000000E+00  0.76363981623E+03  0.19537398930E+04  0.17983197159E+04 0.  0.
        4    1    3    3  502    0  0.75527463949E+02 -0.29043664640E+03  0.13026759971E+04  0.13367962484E+04  0.12699999809E+01 0.  1.
       -4    1    3    3    0  502 -0.75527463949E+02  0.29043664640E+03 -0.53903618088E+03  0.61694364458E+03  0.12699999809E+01 0. -1.
</event>
<event>
 5   0  0.4983159E-06  0.1799820E+04  0.7818609E-02  0.8706395E-01
        1   -1    0    0  501    0  0.00000000000E+00  0.00000000000E+00  0.12773142471E+04  0.12773142471E+04  0.50400001928E-02 0.  1.
       -1   -1    0    0    0  501  0.00000000000E+00  0.00000000000E+00 -0.63401616504E+03  0.63401616506E+03  0.50400001928E-02 0. -1.
    10030    2    1    2    0    0  0.00000000000E+00  0.00000000000E+00  0.64329808208E+03  0.19113304122E+04  0.17998198582E+04 0.  0.
        4    1    3    3  502    0 -0.34746429286E+03 -0.67909759983E+03 -0.18535182147E+03  0.78502349999E+03  0.12699999809E+01 0. -1.
       -4    1    3    3    0  502  0.34746429286E+03  0.67909759983E+03  0.82864990355E+03  0.11263069122E+04  0.12699999809E+01 0.  1.
</event>
<event>
 5   0  0.9589963E-06  0.1800145E+04  0.7818609E-02  0.8706223E-01
        2   -1    0    0  501    0  0.00000000000E+00  0.00000000000E+00  0.11161767717E+04  0.11161767717E+04  0.25500000920E-02 0. -1.
       -2   -1    0    0    0  501  0.00000000000E+00  0.00000000000E+00 -0.72580807921E+03  0.72580807921E+03  0.25500000920E-02 0.  1.
    10030    2    1    2    0    0  0.00000000000E+00  0.00000000000E+00  0.39036869250E+03  0.18419848509E+04  0.18001445706E+04 0.  0.
        2    1    3    3  502    0  0.60666922298E+03 -0.64180192654E+03  0.17443638142E+02  0.88332414182E+03  0.25500000920E-02 0.  1.
       -2    1    3    3    0  502 -0.60666922298E+03  0.64180192654E+03  0.37292505436E+03  0.95866070911E+03  0.25500000920E-02 0. -1.
</event>
<event>
 5   0  0.1036381E-05  0.1796821E+04  0.7818609E-02  0.8707992E-01
       -2   -1    0    0    0  501  0.00000000000E+00  0.00000000000E+00  0.74105177798E+03  0.74105177798E+03  0.25500000920E-02 0. -1.
        2   -1    0    0  501    0  0.00000000000E+00  0.00000000000E+00 -0.10891832483E+04  0.10891832483E+04  0.25500000920E-02 0.  1.
    10030    2    1    2    0    0  0.00000000000E+00  0.00000000000E+00 -0.34813147029E+03  0.18302350263E+04  0.17968207286E+04 0.  0.
        4    1    3    3  502    0 -0.52112113996E+03 -0.16661831907E+03  0.55179452719E+03  0.77705065465E+03  0.12699999809E+01 0. -1.
       -4    1    3    3    0  502  0.52112113996E+03  0.16661831907E+03 -0.89992599748E+03  0.10531843716E+04  0.12699999809E+01 0.  1.
</event>
<event>
 5   0  0.1000316E-05  0.1799969E+04  0.7818609E-02  0.8706316E-01
       -2   -1    0    0    0  501  0.00000000000E+00  0.00000000000E+00  0.15577610464E+04  0.15577610464E+04  0.25500000920E-02 0.  1.
        2   -1    0    0  501    0  0.00000000000E+00  0.00000000000E+00 -0.51995908131E+03  0.51995908132E+03  0.25500000920E-02 0. -1.
    10030    2    1    2    0    0  0.00000000000E+00  0.00000000000E+00  0.10378019651E+04  0.20777201277E+04  0.17999688915E+04 0.  0.
        5    1    3    3  502    0  0.80141880474E+03 -0.12713951306E+03  0.96821245407E+03  0.12632869835E+04  0.46999998093E+01 0. -1.
       -5    1    3    3    0  502 -0.80141880474E+03  0.12713951306E+03  0.69589510991E+02  0.81443314422E+03  0.46999998093E+01 0.  1.
</event>
<event>
 5   0  0.3626125E-06  0.1799740E+04  0.7818609E-02  0.8706438E-01
       -4   -1    0    0    0  501  0.00000000000E+00  0.00000000000E+00  0.10415974537E+04  0.10415982279E+04  0.12699999809E+01 0.  1.
        4   -1    0    0  501    0  0.00000000000E+00  0.00000000000E+00 -0.77742510132E+03  0.77742613866E+03  0.12699999809E+01 0. -1.
    10030    2    1    2    0    0  0.00000000000E+00  0.00000000000E+00  0.26417235233E+03  0.18190243666E+04  0.17997395963E+04 0.  0.
        5    1    3    3  502    0 -0.19226881846E+03  0.71730643392E+03 -0.38153995869E+03  0.83491954628E+03  0.46999998093E+01 0. -1.
       -5    1    3    3    0  502  0.19226881846E+03 -0.71730643392E+03  0.64571231101E+03  0.98410482027E+03  0.46999998093E+01 0.  1.
</event>
<event>
 5   0  0.1000316E-05  0.1799618E+04  0.7818609E-02  0.8706503E-01
        2   -1    0    0  501    0  0.00000000000E+00  0.00000000000E+00  0.92769652083E+03  0.92769652083E+03  0.25500000920E-02 0. -1.
       -2   -1    0    0    0  501  0.00000000000E+00  0.00000000000E+00 -0.87275934589E+03  0.87275934589E+03  0.25500000920E-02 0.  1.
    10030    2    1    2    0    0  0.00000000000E+00  0.00000000000E+00  0.54937174937E+02  0.18004558667E+04  0.17996175246E+04 0.  0.
        5    1    3    3  502    0 -0.51482587415E+03  0.70276114815E+03  0.25277297740E+03  0.90710262933E+03  0.46999998093E+01 0. -1.
       -5    1    3    3    0  502  0.51482587415E+03 -0.70276114815E+03 -0.19783580246E+03  0.89335323740E+03  0.46999998093E+01 0.  1.
</event>
<event>
 5   0  0.4981384E-06  0.1798697E+04  0.7818609E-02  0.8706993E-01
       -1   -1    0    0    0  501  0.00000000000E+00  0.00000000000E+00  0.72826426637E+03  0.72826426639E+03  0.50400001928E-02 0. -1.
        1   -1    0    0  501    0  0.00000000000E+00  0.00000000000E+00 -0.11106243544E+04  0.11106243544E+04  0.50400001928E-02 0.  1.
    10030    2    1    2    0    0  0.00000000000E+00  0.00000000000E+00 -0.38236008807E+03  0.18388886208E+04  0.17986973405E+04 0.  0.
        5    1    3    3  502    0  0.13695991310E+03  0.75111277750E+03  0.29470534168E+03  0.81841416821E+03  0.46999998093E+01 0. -1.
       -5    1    3    3    0  502 -0.13695991310E+03 -0.75111277750E+03 -0.67706542974E+03  0.10204744526E+04  0.46999998093E+01 0.  1.
</event>
<event>
 5   0  0.4953155E-06  0.1800307E+04  0.7818609E-02  0.8706136E-01
       -1   -1    0    0    0  501  0.00000000000E+00  0.00000000000E+00  0.33240525362E+03  0.33240525366E+03  0.50400001928E-02 0.  1.
        1   -1    0    0  501    0  0.00000000000E+00  0.00000000000E+00 -0.24376155012E+04  0.24376155012E+04  0.50400001928E-02 0. -1.
    10030    2    1    2    0    0  0.00000000000E+00  0.00000000000E+00 -0.21052102476E+04  0.27700207549E+04  0.18003068616E+04 0.  0.
        2    1    3    3  502    0 -0.70999745116E+03  0.45546478656E+03 -0.15360697197E+04  0.17524425058E+04  0.25500000920E-02 0. -1.
       -2    1    3    3    0  502  0.70999745116E+03 -0.45546478656E+03 -0.56914052790E+03  0.10175782491E+04  0.25500000920E-02 0.  1.
</event>
<event>
 5   0  0.9999162E-06  0.1799913E+04  0.7818609E-02  0.8706346E-01
        2   -1    0    0  501    0  0.00000000000E+00  0.00000000000E+00  0.17466699606E+04  0.17466699606E+04  0.25500000920E-02 0. -1.
       -2   -1    0    0    0  501  0.00000000000E+00  0.00000000000E+00 -0.46369455729E+03  0.46369455729E+03  0.25500000920E-02 0.  1.
    10030    2    1    2    0    0  0.00000000000E+00  0.00000000000E+00  0.12829754033E+04  0.22103645178E+04  0.17999126135E+04 0.  0.
        1    1    3    3  502    0 -0.83482212188E+03 -0.31976630978E+03  0.51420395108E+03  0.10313021727E+04  0.50400001928E-02 0. -1.
       -1    1    3    3    0  502  0.83482212188E+03  0.31976630978E+03  0.76877145219E+03  0.11790623452E+04  0.50400001928E-02 0.  1.
</event>
<event>
 5   0  0.4983159E-06  0.1799101E+04  0.7818609E-02  0.8706778E-01
        1   -1    0    0  501    0  0.00000000000E+00  0.00000000000E+00  0.59164065330E+03  0.59164065332E+03  0.50400001928E-02 0.  1.
       -1   -1    0    0    0  501  0.00000000000E+00  0.00000000000E+00 -0.13677075697E+04  0.13677075697E+04  0.50400001928E-02 0. -1.
    10030    2    1    2    0    0  0.00000000000E+00  0.00000000000E+00 -0.77606691643E+03  0.19593482231E+04  0.17991013313E+04 0.  0.
        4    1    3    3  502    0  0.30447091692E+02  0.59701072353E+03 -0.11200970364E+04  0.12696329443E+04  0.12699999809E+01 0. -1.
       -4    1    3    3    0  502 -0.30447091692E+02 -0.59701072353E+03  0.34403011998E+03  0.68971527876E+03  0.12699999809E+01 0.  1.
</event>
<event>
 5   0  0.1035018E-05  0.1797635E+04  0.7818609E-02  0.8707558E-01
       -2   -1    0    0    0  501  0.00000000000E+00  0.00000000000E+00  0.86390147396E+03  0.86390147396E+03  0.25500000920E-02 0. -1.
        2   -1    0    0  501    0  0.00000000000E+00  0.00000000000E+00 -0.93514428346E+03  0.93514428346E+03  0.25500000920E-02 0.  1.
    10030    2    1    2    0    0  0.00000000000E+00  0.00000000000E+00 -0.71242809501E+02  0.17990457574E+04  0.17976345845E+04 0.  0.
        3    1    3    3  502    0  0.29013668627E+03 -0.76140581405E+03 -0.41533248722E+03  0.91455956369E+03  0.10100000352E+00 0.  1.
       -3    1    3    3    0  502 -0.29013668627E+03  0.76140581405E+03  0.34408967772E+03  0.88448619374E+03  0.10100000352E+00 0. -1.
</event>
<event>
 5   0  0.4981384E-06  0.1799951E+04  0.7818609E-02  0.8706326E-01
        1   -1    0    0  501    0  0.00000000000E+00  0.00000000000E+00  0.13180872202E+04  0.13180872202E+04  0.50400001928E-02 0. -1.
       -1   -1    0    0    0  501  0.00000000000E+00  0.00000000000E+00 -0.61449333152E+03  0.61449333154E+03  0.50400001928E-02 0.  1.
    10030    2    1    2    0    0  0.00000000000E+00  0.00000000000E+00  0.70359388866E+03  0.19325805517E+04  0.17999508962E+04 0.  0.
        5    1    3    3  502    0  0.14655277817E+03  0.47018943733E+03 -0.45695093069E+03  0.67184973530E+03  0.46999998093E+01 0.  1.
       -5    1    3    3    0  502 -0.14655277817E+03 -0.47018943733E+03  0.11605448193E+04  0.12607308164E+04  0.46999998093E+01 0. -1.
</event>
<event>
 5   0  0.4987456E-06  0.1800080E+04  0.7818609E-02  0.8706257E-01
       -1   -1    0    0    0  501  0.00000000000E+00  0.00000000000E+00  0.75731969935E+03  0.75731969937E+03  0.50400001928E-02 0.  1.
        1   -1    0    0  501    0  0.00000000000E+00  0.00000000000E+00 -0.10696568777E+04  0.10696568777E+04  0.50400001928E-02 0. -1.
    10030    2    1    2    0    0  0.00000000000E+00  0.00000000000E+00 -0.31233717832E+03  0.18269765771E+04  0.18000802482E+04 0.  0.
        3    1    3    3  502    0 -0.62310355174E+02 -0.29017368673E+03  0.70622667524E+03  0.76605448622E+03  0.10100000352E+00 0.  1.
       -3    1    3    3    0  502  0.62310355174E+02  0.29017368673E+03 -0.10185638536E+04  0.10609220908E+04  0.10100000352E+00 0. -1.
</event>
<event>
 5   0  0.3626125E-06  0.1799888E+04  0.7818609E-02  0.8706359E-01
        3   -1    0    0  501    0  0.00000000000E+00  0.00000000000E+00  0.83863338237E+03  0.83863338845E+03  0.10100000352E+00 0.  1.
       -3   -1    0    0    0  501  0.00000000000E+00  0.00000000000E+00 -0.96573682937E+03  0.96573683466E+03  0.10100000352E+00 0. -1.
    10030    2    1    2    0    0  0.00000000000E+00  0.00000000000E+00 -0.12710344701E+03  0.18043702231E+04  0.17998879453E+04 0.  0.
        1    1    3    3  502    0 -0.82403201812E+03 -0.36033383015E+03 -0.31379469988E+02  0.89991883368E+03  0.50400001928E-02 0. -1.
       -1    1    3    3    0  502  0.82403201812E+03  0.36033383015E+03 -0.95723977017E+02  0.90445138943E+03  0.50400001928E-02 0.  1.
</event>
<event>
 5   0  0.9589963E-06  0.1800653E+04  0.7818609E-02  0.8705952E-01
        2   -1    0    0  501    0  0.00000000000E+00  0.00000000000E+00  0.10214859436E+04  0.10214859436E+04  0.25500000920E-02 0. -1.
       -2   -1    0    0    0  501  0.00000000000E+00  0.00000000000E+00 -0.79353802811E+03  0.79353802812E+03  0.25500000920E-02 0.  1.
    10030    2    1    2    0    0  0.00000000000E+00  0.00000000000E+00  0.22794791546E+03  0.18150239717E+04  0.18006531497E+04 0.  0.
        2    1    3    3  502    0 -0.33589548217E+03 -0.37775953791E+03  0.86494333180E+03  0.10018258385E+04  0.25500000920E-02 0. -1.
       -2    1    3    3    0  502  0.33589548217E+03  0.37775953791E+03 -0.63699541634E+03  0.81319813321E+03  0.25500000920E-02 0.  1.
</event>
<event>
 5   0  0.1000316E-05  0.1799688E+04  0.7818609E-02  0.8706465E-01
        2   -1    0    0  501    0  0.00000000000E+00  0.00000000000E+00  0.70066011845E+03  0.70066011846E+03  0.25500000920E-02 0. -1.
       -2   -1    0    0    0  501  0.00000000000E+00  0.00000000000E+00 -0.11556519682E+04  0.11556519682E+04  0.25500000920E-02 0.  1.
    10030    2    1    2    0    0  0.00000000000E+00  0.00000000000E+00 -0.45499184971E+03  0.18563120866E+04  0.17996880229E+04 0.  0.
        5    1    3    3  502    0 -0.46683768638E+03 -0.52151433306E+03  0.35578951160E+03  0.78518971693E+03  0.46999998093E+01 0. -1.
       -5    1    3    3    0  502  0.46683768638E+03  0.52151433306E+03 -0.81078136131E+03  0.10711223697E+04  0.46999998093E+01 0.  1.
</event>
<event>
 5   0  0.4983159E-06  0.1800770E+04  0.7818609E-02  0.8705890E-01
        1   -1    0    0  501    0  0.00000000000E+00  0.00000000000E+00  0.11848842860E+04  0.11848842860E+04  0.50400001928E-02 0. -1.
       -1   -1    0    0    0  501  0.00000000000E+00  0.00000000000E+00 -0.68419634899E+03  0.68419634901E+03  0.50400001928E-02 0.  1.
    10030    2    1    2    0    0  0.00000000000E+00  0.00000000000E+00  0.50068793696E+03  0.18690806350E+04  0.18007703934E+04 0.  0.
        4    1    3    3  502    0 -0.52224174313E+03 -0.77217008261E+01  0.10115790306E+04  0.11384594024E+04  0.12699999809E+01 0. -1.
       -4    1    3    3    0  502  0.52224174313E+03  0.77217008261E+01 -0.51089109366E+03  0.73062123252E+03  0.12699999809E+01 0.  1.
</event>
<event>
 5   0  0.1036381E-05  0.1801236E+04  0.7818609E-02  0.8705642E-01
       -2   -1    0    0    0  501  0.00000000000E+00  0.00000000000E+00  0.68492535054E+03  0.68492535055E+03  0.25500000920E-02 0.  1.
        2   -1    0    0  501    0  0.00000000000E+00  0.00000000000E+00 -0.11842357585E+04  0.11842357585E+04  0.25500000920E-02 0. -1.
    10030    2    1    2    0    0  0.00000000000E+00  0.00000000000E+00 -0.49931040796E+03  0.18691611091E+04  0.18012363443E+04 0.  0.
        4    1    3    3  502    0  0.49805786118E+03  0.46758370076E+03  0.35934476576E+03  0.77189793618E+03  0.12699999809E+01 0.  1.
       -4    1    3    3    0  502 -0.49805786118E+03 -0.46758370076E+03 -0.85865517372E+03  0.10972631729E+04  0.12699999809E+01 0. -1.
</event>
<event>
 5   0  0.4981384E-06  0.1800550E+04  0.7818609E-02  0.8706007E-01
        1   -1    0    0  501    0  0.00000000000E+00  0.00000000000E+00  0.15937038392E+04  0.15937038392E+04  0.50400001928E-02 0.  1.
       -1   -1    0    0    0  501  0.00000000000E+00  0.00000000000E+00 -0.50856066979E+03  0.50856066981E+03  0.50400001928E-02 0. -1.
    10030    2    1    2    0    0  0.00000000000E+00  0.00000000000E+00  0.10851431694E+04  0.21022645090E+04  0.18005500181E+04 0.  0.
        5    1    3    3  502    0  0.62532948289E+03 -0.53311163597E+02 -0.21102453312E+03  0.66214234566E+03  0.46999998093E+01 0. -1.
       -5    1    3    3    0  502 -0.62532948289E+03  0.53311163597E+02  0.12961677026E+04  0.14401221634E+04  0.46999998093E+01 0.  1.
</event>
<event>
 5   0  0.9589963E-06  0.1803107E+04  0.7818609E-02  0.8704649E-01
       -2   -1    0    0    0  501  0.00000000000E+00  0.00000000000E+00  0.13905636652E+04  0.13905636652E+04  0.25500000920E-02 0.  1.
        2   -1    0    0  501    0  0.00000000000E+00  0.00000000000E+00 -0.58451043620E+03  0.58451043621E+03  0.25500000920E-02 0. -1.
    10030    2    1    2    0    0  0.00000000000E+00  0.00000000000E+00  0.80605322901E+03  0.19750741014E+04  0.18031072897E+04 0.  0.
        2    1    3    3  502    0 -0.31009631082E+03  0.60752576332E+03  0.10487871990E+04  0.12510802787E+04  0.25500000920E-02 0.  1.
       -2    1    3    3    0  502  0.31009631082E+03 -0.60752576332E+03 -0.24273396999E+03  0.72399382267E+03  0.25500000920E-02 0. -1.
</event>
<event>
 5   0  0.1035018E-05  0.1800741E+04  0.7818609E-02  0.8705906E-01
       -2   -1    0    0    0  501  0.00000000000E+00  0.00000000000E+00  0.54677446517E+03  0.54677446518E+03  0.25500000920E-02 0. -1.
        2   -1    0    0  501    0  0.00000000000E+00  0.00000000000E+00 -0.14826349279E+04  0.14826349279E+04  0.25500000920E-02 0.  1.
    10030    2    1    2    0    0  0.00000000000E+00  0.00000000000E+00 -0.93586046277E+03  0.20294093931E+04  0.18007408695E+04 0.  0.
        3    1    3    3  502    0  0.30325487550E+03  0.13632125453E+03 -0.14109149558E+04  0.14495613221E+04  0.10100000352E+00 0.  1.
       -3    1    3    3    0  502 -0.30325487550E+03 -0.13632125453E+03  0.47505449299E+03  0.57984807102E+03  0.10100000352E+00 0. -1.
</event>
<event>
 5   0  0.4953155E-06  0.1801555E+04  0.7818609E-02  0.8705473E-01
        1   -1    0    0  501    0  0.00000000000E+00  0.00000000000E+00  0.10177343817E+04  0.10177343817E+04  0.50400001928E-02 0. -1.
       -1   -1    0    0    0  501  0.00000000000E+00  0.00000000000E+00 -0.79726088906E+03  0.79726088908E+03  0.50400001928E-02 0.  1.
    10030    2    1    2    0    0  0.00000000000E+00  0.00000000000E+00  0.22047349263E+03  0.18149952708E+04  0.18015546819E+04 0.  0.
        2    1    3    3  502    0  0.11148562405E+03  0.77750255600E+03 -0.33402999562E+03  0.85353108141E+03  0.25500000920E-02 0.  1.
       -2    1    3    3    0  502 -0.11148562405E+03 -0.77750255600E+03  0.55450348825E+03  0.96146418937E+03  0.25500000920E-02 0. -1.
</event>
<event>
 5   0  0.4981384E-06  0.1794359E+04  0.7818609E-02  0.8709305E-01
       -1   -1    0    0    0  501  0.00000000000E+00  0.00000000000E+00  0.62146952789E+03  0.62146952791E+03  0.50400001928E-02 0. -1.
        1   -1    0    0  501    0  0.00000000000E+00  0.00000000000E+00 -0.12952056186E+04  0.12952056186E+04  0.50400001928E-02 0.  1.
    10030    2    1    2    0    0  0.00000000000E+00  0.00000000000E+00 -0.67373609069E+03  0.19166751465E+04  0.17943587427E+04 0.  0.
        5    1    3    3  502    0 -0.18320944221E+03  0.13376537112E+03  0.59031699235E+03  0.63242004687E+03  0.46999998093E+01 0. -1.
       -5    1    3    3    0  502  0.18320944221E+03 -0.13376537112E+03 -0.12640530830E+04  0.12842550996E+04  0.46999998093E+01 0.  1.
</event>
<event>
 5   0  0.1035018E-05  0.1798275E+04  0.7818609E-02  0.8707217E-01
       -2   -1    0    0    0  501  0.00000000000E+00  0.00000000000E+00  0.14345755222E+04  0.14345755222E+04  0.25500000920E-02 0. -1.
        2   -1    0    0  501    0  0.00000000000E+00  0.00000000000E+00 -0.56354556461E+03  0.56354556461E+03  0.25500000920E-02 0.  1.
    10030    2    1    2    0    0  0.00000000000E+00  0.00000000000E+00  0.87102995754E+03  0.19981210868E+04  0.17982754768E+04 0.  0.
        3    1    3    3  502    0 -0.22952363975E+03 -0.82565192002E+03  0.73791122740E+03  0.11308824802E+04  0.10100000352E+00 0. -1.
       -3    1    3    3    0  502  0.22952363975E+03  0.82565192002E+03  0.13311873014E+03  0.86723860659E+03  0.10100000352E+00 0.  1.
</event>
<event>
 5   0  0.1035018E-05  0.1801153E+04  0.7818609E-02  0.8705687E-01
       -2   -1    0    0    0  501  0.00000000000E+00  0.00000000000E+00  0.81077073773E+03  0.81077073773E+03  0.25500000920E-02 0. -1.
        2   -1    0    0  501    0  0.00000000000E+00  0.00000000000E+00 -0.10003292415E+04  0.10003292415E+04  0.25500000920E-02 0.  1.
    10030    2    1    2    0    0  0.00000000000E+00  0.00000000000E+00 -0.18955850377E+03  0.18110999792E+04  0.18011526055E+04 0.  0.
        3    1    3    3  502    0  0.28142658586E+03  0.73228320533E+03  0.34992796386E+03  0.85900477654E+03  0.10100000352E+00 0. -1.
       -3    1    3    3    0  502 -0.28142658586E+03 -0.73228320533E+03 -0.53948646763E+03  0.95209520269E+03  0.10100000352E+00 0.  1.
</event>
<event>
 5   0  0.9589963E-06  0.1799386E+04  0.7818609E-02  0.8706626E-01
        2   -1    0    0  501    0  0.00000000000E+00  0.00000000000E+00  0.16230735289E+04  0.16230735289E+04  0.25500000920E-02 0. -1.
       -2   -1    0    0    0  501  0.00000000000E+00  0.00000000000E+00 -0.49871258443E+03  0.49871258443E+03  0.25500000920E-02 0.  1.
    10030    2    1    2    0    0  0.00000000000E+00  0.00000000000E+00  0.11243609444E+04  0.21217861133E+04  0.17993856666E+04 0.  0.
        2    1    3    3  502    0 -0.72871174877E+03 -0.50350146399E+03  0.74829804177E+03  0.11595190798E+04  0.25500000920E-02 0. -1.
       -2    1    3    3    0  502  0.72871174877E+03  0.50350146399E+03  0.37606290266E+03  0.96226703352E+03  0.25500000920E-02 0.  1.
</event>
<event>
 5   0  0.4994123E-06  0.1799822E+04  0.7818609E-02  0.8706394E-01
        1   -1    0    0  501    0  0.00000000000E+00  0.00000000000E+00  0.61147546729E+03  0.61147546731E+03  0.50400001928E-02 0.  1.
       -1   -1    0    0    0  501  0.00000000000E+00  0.00000000000E+00 -0.13244022439E+04  0.13244022439E+04  0.50400001928E-02 0. -1.
    10030    2    1    2    0    0  0.00000000000E+00  0.00000000000E+00 -0.71292677664E+03  0.19358777112E+04  0.17998216367E+04 0.  0.
        1    1    3    3  502    0 -0.17824497355E+03 -0.48153905571E+03 -0.11513765114E+04  0.12606819598E+04  0.50400001928E-02 0. -1.
       -1    1    3    3    0  502  0.17824497355E+03  0.48153905571E+03  0.43844973479E+03  0.67519575141E+03  0.50400001928E-02 0.  1.
</event>
<event>
 5   0  0.1036381E-05  0.1800152E+04  0.7818609E-02  0.8706219E-01
        2   -1    0    0  501    0  0.00000000000E+00  0.00000000000E+00  0.29787110468E+04  0.29787110468E+04  0.25500000920E-02 0.  1.
       -2   -1    0    0    0  501  0.00000000000E+00  0.00000000000E+00 -0.27197555520E+03  0.27197555521E+03  0.25500000920E-02 0. -1.
    10030    2    1    2    0    0  0.00000000000E+00  0.00000000000E+00  0.27067354916E+04  0.32506866020E+04  0.18001517611E+04 0.  0.
        4    1    3    3  502    0  0.16528946293E+03  0.85722090073E+03  0.95779494892E+03  0.12959633700E+04  0.12699999809E+01 0. -1.
       -4    1    3    3    0  502 -0.16528946293E+03 -0.85722090073E+03  0.17489405427E+04  0.19547232321E+04  0.12699999809E+01 0.  1.
</event>
<event>
 5   0  0.1035018E-05  0.1798808E+04  0.7818609E-02  0.8706934E-01
       -2   -1    0    0    0  501  0.00000000000E+00  0.00000000000E+00  0.56870903421E+03  0.56870903421E+03  0.25500000920E-02 0. -1.
        2   -1    0    0  501    0  0.00000000000E+00  0.00000000000E+00 -0.14223926323E+04  0.14223926323E+04  0.25500000920E-02 0.  1.
    10030    2    1    2    0    0  0.00000000000E+00  0.00000000000E+00 -0.85368359811E+03  0.19911016665E+04  0.17988079833E+04 0.  0.
        3    1    3    3  502    0  0.58479154425E+03 -0.67297196099E+03 -0.55806961492E+03  0.10518146775E+04  0.10100000352E+00 0. -1.
       -3    1    3    3    0  502 -0.58479154425E+03  0.67297196099E+03 -0.29561398319E+03  0.93928698903E+03  0.10100000352E+00 0.  1.
</event>
<event>
 5   0  0.4953155E-06  0.1798077E+04  0.7818609E-02  0.8707323E-01
        1   -1    0    0  501    0  0.00000000000E+00  0.00000000000E+00  0.99839769797E+03  0.99839769798E+03  0.50400001928E-02 0.  1.
       -1   -1    0    0    0  501  0.00000000000E+00  0.00000000000E+00 -0.80956729833E+03  0.80956729835E+03  0.50400001928E-02 0. -1.
    10030    2    1    2    0    0  0.00000000000E+00  0.00000000000E+00  0.18883039964E+03  0.18079649963E+04  0.17980768916E+04 0.  0.
        2    1    3    3  502    0 -0.69684574830E+03  0.54569226519E+03  0.25306782387E+03  0.92055275172E+03  0.25500000920E-02 0. -1.
       -2    1    3    3    0  502  0.69684574830E+03 -0.54569226519E+03 -0.64237424226E+02  0.88741224461E+03  0.25500000920E-02 0.  1.
</event>
<event>
 5   0  0.4994123E-06  0.1800975E+04  0.7818609E-02  0.8705781E-01
       -1   -1    0    0    0  501  0.00000000000E+00  0.00000000000E+00  0.88844486579E+03  0.88844486581E+03  0.50400001928E-02 0. -1.
        1   -1    0    0  501    0  0.00000000000E+00  0.00000000000E+00 -0.91269319489E+03  0.91269319490E+03  0.50400001928E-02 0.  1.
    10030    2    1    2    0    0  0.00000000000E+00  0.00000000000E+00 -0.24248329098E+02  0.18011380607E+04  0.18009748283E+04 0.  0.
        1    1    3    3  502    0 -0.83956909261E+03  0.25172285399E+03 -0.21862998952E+03  0.90334917326E+03  0.50400001928E-02 0.  1.
       -1    1    3    3    0  502  0.83956909261E+03 -0.25172285399E+03  0.19438166043E+03  0.89778888745E+03  0.50400001928E-02 0. -1.
</event>
<event>
 5   0  0.9999162E-06  0.1801615E+04  0.7818609E-02  0.8705441E-01
        2   -1    0    0  501    0  0.00000000000E+00  0.00000000000E+00  0.27586919159E+04  0.27586919159E+04  0.25500000920E-02 0. -1.
       -2   -1    0    0    0  501  0.00000000000E+00  0.00000000000E+00 -0.29414455465E+03  0.29414455466E+03  0.25500000920E-02 0.  1.
    10030    2    1    2    0    0  0.00000000000E+00  0.00000000000E+00  0.24645473612E+04  0.30528364705E+04  0.18016150588E+04 0.  0.
        1    1    3    3  502    0  0.22075584535E+03  0.25388025239E+03 -0.18368946070E+03  0.38331467988E+03  0.50400001928E-02 0.  1.
       -1    1    3    3    0  502 -0.22075584535E+03 -0.25388025239E+03  0.26482368219E+04  0.26695217907E+04  0.50400001928E-02 0. -1.
</event>
<event>
 5   0  0.4981384E-06  0.1800300E+04  0.7818609E-02  0.8706140E-01
       -1   -1    0    0    0  501  0.00000000000E+00  0.00000000000E+00  0.84661944092E+03  0.84661944093E+03  0.50400001928E-02 0. -1.
        1   -1    0    0  501    0  0.00000000000E+00  0.00000000000E+00 -0.95706539981E+03  0.95706539982E+03  0.50400001928E-02 0.  1.
    10030    2    1    2    0    0  0.00000000000E+00  0.00000000000E+00 -0.11044595889E+03  0.18036848408E+04  0.18003001680E+04 0.  0.
        5    1    3    3  502    0 -0.89099819599E+03  0.73024532228E+02  0.50035076418E+02  0.89539709986E+03  0.46999998093E+01 0.  1.
       -5    1    3    3    0  502  0.89099819599E+03 -0.73024532228E+02 -0.16048103531E+03  0.90828774089E+03  0.46999998093E+01 0. -1.
</event>
<event>
 5   0  0.4994123E-06  0.1800306E+04  0.7818609E-02  0.8706137E-01
       -1   -1    0    0    0  501  0.00000000000E+00  0.00000000000E+00  0.54326233667E+03  0.54326233670E+03  0.50400001928E-02 0. -1.
        1   -1    0    0  501    0  0.00000000000E+00  0.00000000000E+00 -0.14914997015E+04  0.14914997015E+04  0.50400001928E-02 0.  1.
    10030    2    1    2    0    0  0.00000000000E+00  0.00000000000E+00 -0.94823736486E+03  0.20347620382E+04  0.18003062107E+04 0.  0.
        1    1    3    3  502    0  0.56106364522E+03  0.42931765057E+03 -0.11045906704E+04  0.13111928188E+04  0.50400001928E-02 0. -1.
       -1    1    3    3    0  502 -0.56106364522E+03 -0.42931765057E+03  0.15635330551E+03  0.72356921940E+03  0.50400001928E-02 0.  1.
</event>
<event>
 5   0  0.1035018E-05  0.1799938E+04  0.7818609E-02  0.8706333E-01
       -2   -1    0    0    0  501  0.00000000000E+00  0.00000000000E+00  0.86417441833E+03  0.86417441833E+03  0.25500000920E-02 0.  1.
        2   -1    0    0  501    0  0.00000000000E+00  0.00000000000E+00 -0.93724585007E+03  0.93724585008E+03  0.25500000920E-02 0. -1.
    10030    2    1    2    0    0  0.00000000000E+00  0.00000000000E+00 -0.73071431745E+02  0.18014202684E+04  0.17999376515E+04 0.  0.
        3    1    3    3  502    0 -0.88062580997E+02 -0.49837458595E+02  0.85846320634E+03  0.86440608356E+03  0.10100000352E+00 0.  1.
       -3    1    3    3    0  502  0.88062580997E+02  0.49837458595E+02 -0.93153463809E+03  0.93701418485E+03  0.10100000352E+00 0. -1.
</event>
<event>
 5   0  0.4994123E-06  0.1800106E+04  0.7818609E-02  0.8706243E-01
        1   -1    0    0  501    0  0.00000000000E+00  0.00000000000E+00  0.60058156803E+03  0.60058156805E+03  0.50400001928E-02 0. -1.
       -1   -1    0    0    0  501  0.00000000000E+00  0.00000000000E+00 -0.13488514380E+04  0.13488514380E+04  0.50400001928E-02 0.  1.
    10030    2    1    2    0    0  0.00000000000E+00  0.00000000000E+00 -0.74826986996E+03  0.19494330060E+04  0.18001058988E+04 0.  0.
        1    1    3    3  502    0  0.85506284028E+03  0.23979217456E+03 -0.53278894740E+03  0.10356142189E+04  0.50400001928E-02 0.  1.
       -1    1    3    3    0  502 -0.85506284028E+03 -0.23979217456E+03 -0.21548092256E+03  0.91381878719E+03  0.50400001928E-02 0. -1.
</event>
<event>
 5   0  0.4994123E-06  0.1799760E+04  0.7818609E-02  0.8706427E-01
        1   -1    0    0  501    0  0.00000000000E+00  0.00000000000E+00  0.92576343922E+03  0.92576343923E+03  0.50400001928E-02 0. -1.
       -1   -1    0    0    0  501  0.00000000000E+00  0.00000000000E+00 -0.87472049025E+03  0.87472049027E+03  0.50400001928E-02 0.  1.
    10030    2    1    2    0    0  0.00000000000E+00  0.00000000000E+00  0.51042948966E+02  0.18004839295E+04  0.17997602612E+04 0.  0.
        1    1    3    3  502    0 -0.75632592123E+03 -0.46786765196E+03  0.16289096393E+03  0.90413633100E+03  0.50400001928E-02 0. -1.
       -1    1    3    3    0  502  0.75632592123E+03  0.46786765196E+03 -0.11184801496E+03  0.89634759851E+03  0.50400001928E-02 0.  1.
</event>
<event>
 5   0  0.4953155E-06  0.1802800E+04  0.7818609E-02  0.8704812E-01
        1   -1    0    0  501    0  0.00000000000E+00  0.00000000000E+00  0.87406992749E+03  0.87406992751E+03  0.50400001928E-02 0. -1.
       -1   -1    0    0    0  501  0.00000000000E+00  0.00000000000E+00 -0.92958506696E+03  0.92958506698E+03  0.50400001928E-02 0.  1.
    10030    2    1    2    0    0  0.00000000000E+00  0.00000000000E+00 -0.55515139470E+02  0.18036549945E+04  0.18028004350E+04 0.  0.
        2    1    3    3  502    0 -0.71145574282E+02  0.82065099949E+03  0.33846593613E+03  0.89055541413E+03  0.25500000920E-02 0.  1.
       -2    1    3    3    0  502  0.71145574282E+02 -0.82065099949E+03 -0.39398107560E+03  0.91309958036E+03  0.25500000920E-02 0. -1.
</event>
<event>
 5   0  0.9999162E-06  0.1798814E+04  0.7818609E-02  0.8706931E-01
       -2   -1    0    0    0  501  0.00000000000E+00  0.00000000000E+00  0.71618048089E+03  0.71618048089E+03  0.25500000920E-02 0. -1.
        2   -1    0    0  501    0  0.00000000000E+00  0.00000000000E+00 -0.11295093394E+04  0.11295093394E+04  0.25500000920E-02 0.  1.
    10030    2    1    2    0    0  0.00000000000E+00  0.00000000000E+00 -0.41332885853E+03  0.18456898203E+04  0.17988135444E+04 0.  0.
        1    1    3    3  502    0  0.15310023418E+03  0.39731599185E+03  0.60621363751E+03  0.74080675848E+03  0.50400001928E-02 0. -1.
       -1    1    3    3    0  502 -0.15310023418E+03 -0.39731599185E+03 -0.10195424960E+04  0.11048830618E+04  0.50400001928E-02 0.  1.
</event>
<event>
 5   0  0.3626125E-06  0.1800691E+04  0.7818609E-02  0.8705932E-01
       -3   -1    0    0    0  501  0.00000000000E+00  0.00000000000E+00  0.98816624634E+03  0.98816625150E+03  0.10100000352E+00 0. -1.
        3   -1    0    0  501    0  0.00000000000E+00  0.00000000000E+00 -0.82032965212E+03  0.82032965834E+03  0.10100000352E+00 0.  1.
    10030    2    1    2    0    0  0.00000000000E+00  0.00000000000E+00  0.16783659421E+03  0.18084959098E+04  0.18006910711E+04 0.  0.
        1    1    3    3  502    0 -0.22438766721E+03  0.85982206923E+03  0.22938484362E+03  0.91774790789E+03  0.50400001928E-02 0.  1.
       -1    1    3    3    0  502  0.22438766721E+03 -0.85982206923E+03 -0.61548249404E+02  0.89074800194E+03  0.50400001928E-02 0. -1.
</event>
<event>
 5   0  0.1035018E-05  0.1798669E+04  0.7818609E-02  0.8707008E-01
       -2   -1    0    0    0  501  0.00000000000E+00  0.00000000000E+00  0.27239743903E+03  0.27239743904E+03  0.25500000920E-02 0.  1.
        2   -1    0    0  501    0  0.00000000000E+00  0.00000000000E+00 -0.29691987708E+04  0.29691987708E+04  0.25500000920E-02 0. -1.
    10030    2    1    2    0    0  0.00000000000E+00  0.00000000000E+00 -0.26968013318E+04  0.32415962099E+04  0.17986685533E+04 0.  0.
        3    1    3    3  502    0 -0.21708109445E+03 -0.63012875998E+03 -0.26015876956E+03  0.71545024376E+03  0.10100000352E+00 0.  1.
       -3    1    3    3    0  502  0.21708109445E+03  0.63012875998E+03 -0.24366425622E+04  0.25261459661E+04  0.10100000352E+00 0. -1.
</event>
<event>
 5   0  0.9589963E-06  0.1800680E+04  0.7818609E-02  0.8705938E-01
       -2   -1    0    0    0  501  0.00000000000E+00  0.00000000000E+00  0.14770379278E+04  0.14770379278E+04  0.25500000920E-02 0.  1.
        2   -1    0    0  501    0  0.00000000000E+00  0.00000000000E+00 -0.54880898058E+03  0.54880898059E+03  0.25500000920E-02 0. -1.
    10030    2    1    2    0    0  0.00000000000E+00  0.00000000000E+00  0.92822894723E+03  0.20258469084E+04  0.18006795156E+04 0.  0.
        2    1    3    3  502    0 -0.15926658940E+03 -0.88348583645E+03  0.54123231889E+03  0.10482583139E+04  0.25500000920E-02 0.  1.
       -2    1    3    3    0  502  0.15926658940E+03  0.88348583645E+03  0.38699662835E+03  0.97758859448E+03  0.25500000920E-02 0. -1.
</event>
<event>
 5   0  0.1036381E-05  0.1800506E+04  0.7818609E-02  0.8706030E-01
       -2   -1    0    0    0  501  0.00000000000E+00  0.00000000000E+00  0.54092204416E+03  0.54092204416E+03  0.25500000920E-02 0.  1.
        2   -1    0    0  501    0  0.00000000000E+00  0.00000000000E+00 -0.14982852152E+04  0.14982852152E+04  0.25500000920E-02 0. -1.
    10030    2    1    2    0    0  0.00000000000E+00  0.00000000000E+00 -0.95736317101E+03  0.20392072593E+04  0.18005060414E+04 0.  0.
        4    1    3    3  502    0 -0.64870121947E+03  0.23137276771E+03  0.17792575168E+03  0.71134085767E+03  0.12699999809E+01 0.  1.
       -4    1    3    3    0  502  0.64870121947E+03 -0.23137276771E+03 -0.11352889227E+04  0.13278664017E+04  0.12699999809E+01 0. -1.
</event>
<event>
 5   0  0.1035018E-05  0.1799401E+04  0.7818609E-02  0.8706618E-01
       -2   -1    0    0    0  501  0.00000000000E+00  0.00000000000E+00  0.43265243747E+03  0.43265243748E+03  0.25500000920E-02 0. -1.
        2   -1    0    0  501    0  0.00000000000E+00  0.00000000000E+00 -0.18709257975E+04  0.18709257975E+04  0.25500000920E-02 0.  1.
    10030    2    1    2    0    0  0.00000000000E+00  0.00000000000E+00 -0.14382733600E+04  0.23035782350E+04  0.17994005742E+04 0.  0.
        3    1    3    3  502    0 -0.19797387425E+03  0.11005819910E+03 -0.18338260654E+04  0.18477620275E+04  0.10100000352E+00 0.  1.
       -3    1    3    3    0  502  0.19797387425E+03 -0.11005819910E+03  0.39555270535E+03  0.45581620746E+03  0.10100000352E+00 0. -1.
</event>
<event>
 5   0  0.4994123E-06  0.1800132E+04  0.7818609E-02  0.8706229E-01
        1   -1    0    0  501    0  0.00000000000E+00  0.00000000000E+00  0.94134274676E+03  0.94134274678E+03  0.50400001928E-02 0. -1.
       -1   -1    0    0    0  501  0.00000000000E+00  0.00000000000E+00 -0.86059936409E+03  0.86059936410E+03  0.50400001928E-02 0.  1.
    10030    2    1    2    0    0  0.00000000000E+00  0.00000000000E+00  0.80743382679E+02  0.18019421109E+04  0.18001321832E+04 0.  0.
        1    1    3    3  502    0  0.19949565376E+03 -0.71154378982E+03  0.55472281717E+03  0.92401866032E+03  0.50400001928E-02 0. -1.
       -1    1    3    3    0  502 -0.19949565376E+03  0.71154378982E+03 -0.47397943449E+03  0.87792345056E+03  0.50400001928E-02 0.  1.
</event>
<event>
 5   0  0.3626125E-06  0.1799811E+04  0.7818609E-02  0.8706400E-01
       -3   -1    0    0    0  501  0.00000000000E+00  0.00000000000E+00  0.22584858703E+04  0.22584858726E+04  0.10100000352E+00 0.  1.
        3   -1    0    0  501    0  0.00000000000E+00  0.00000000000E+00 -0.35857194921E+03  0.35857196344E+03  0.10100000352E+00 0. -1.
    10030    2    1    2    0    0  0.00000000000E+00  0.00000000000E+00  0.18999139211E+04  0.26170578360E+04  0.17998107705E+04 0.  0.
        4    1    3    3  502    0 -0.10408369396E+02 -0.68580768083E+03  0.17970565023E+04  0.19235005055E+04  0.12699999809E+01 0.  1.
       -4    1    3    3    0  502  0.10408369396E+02  0.68580768083E+03  0.10285741881E+03  0.69355733053E+03  0.12699999809E+01 0. -1.
</event>
<event>
 5   0  0.3626125E-06  0.1797099E+04  0.7818609E-02  0.8707844E-01
        3   -1    0    0  501    0  0.00000000000E+00  0.00000000000E+00  0.89182643358E+03  0.89182643930E+03  0.10100000352E+00 0. -1.
       -3   -1    0    0    0  501  0.00000000000E+00  0.00000000000E+00 -0.90532291659E+03  0.90532292222E+03  0.10100000352E+00 0.  1.
    10030    2    1    2    0    0  0.00000000000E+00  0.00000000000E+00 -0.13496483009E+02  0.17971493615E+04  0.17970986819E+04 0.  0.
        5    1    3    3  502    0  0.62288924917E+03  0.51198460268E+02 -0.65233327474E+03  0.90342298531E+03  0.46999998093E+01 0.  1.
       -5    1    3    3    0  502 -0.62288924917E+03 -0.51198460268E+02  0.63883679173E+03  0.89372637621E+03  0.46999998093E+01 0. -1.
</event>
<event>
 5   0  0.1036381E-05  0.1799036E+04  0.7818609E-02  0.8706812E-01
        2   -1    0    0  501    0  0.00000000000E+00  0.00000000000E+00  0.13295452291E+04  0.13295452291E+04  0.25500000920E-02 0.  1.
       -2   -1    0    0    0  501  0.00000000000E+00  0.00000000000E+00 -0.60857824862E+03  0.60857824863E+03  0.25500000920E-02 0. -1.
    10030    2    1    2    0    0  0.00000000000E+00  0.00000000000E+00  0.72096698044E+03  0.19381234777E+04  0.17990356383E+04 0.  0.
        4    1    3    3  502    0  0.23215771548E+03  0.54571267821E+03  0.10891092973E+04  0.12401049175E+04  0.12699999809E+01 0.  1.
       -4    1    3    3    0  502 -0.23215771548E+03 -0.54571267821E+03 -0.36814231687E+03  0.69801856020E+03  0.12699999809E+01 0. -1.
</event>
<event>
 5   0  0.9589963E-06  0.1799767E+04  0.7818609E-02  0.8706423E-01
       -2   -1    0    0    0  501  0.00000000000E+00  0.00000000000E+00  0.57481506807E+03  0.57481506808E+03  0.25500000920E-02 0. -1.
        2   -1    0    0  501    0  0.00000000000E+00  0.00000000000E+00 -0.14087844607E+04  0.14087844607E+04  0.25500000920E-02 0.  1.
    10030    2    1    2    0    0  0.00000000000E+00  0.00000000000E+00 -0.83396939262E+03  0.19835995288E+04  0.17997672468E+04 0.  0.
        2    1    3    3  502    0  0.33089908469E+03 -0.71578743970E+03  0.60822473539E+02  0.79091417763E+03  0.25500000920E-02 0. -1.
       -2    1    3    3    0  502 -0.33089908469E+03  0.71578743970E+03 -0.89479186616E+03  0.11926853511E+04  0.25500000920E-02 0.  1.
</event>
<event>
 5   0  0.4953155E-06  0.1800167E+04  0.7818609E-02  0.8706211E-01
       -1   -1    0    0    0  501  0.00000000000E+00  0.00000000000E+00  0.46686678346E+03  0.46686678349E+03  0.50400001928E-02 0. -1.
        1   -1    0    0  501    0  0.00000000000E+00  0.00000000000E+00 -0.17352924354E+04  0.17352924354E+04  0.50400001928E-02 0.  1.
    10030    2    1    2    0    0  0.00000000000E+00  0.00000000000E+00 -0.12684256519E+04  0.22021592189E+04  0.18001671008E+04 0.  0.
        2    1    3    3  502    0  0.83865487690E+03  0.21879565841E+03 -0.93119431067E+03  0.12721385093E+04  0.25500000920E-02 0.  1.
       -2    1    3    3    0  502 -0.83865487690E+03 -0.21879565841E+03 -0.33723134125E+03  0.93002070956E+03  0.25500000920E-02 0. -1.
</event>
<event>
 5   0  0.4953155E-06  0.1799547E+04  0.7818609E-02  0.8706540E-01
        1   -1    0    0  501    0  0.00000000000E+00  0.00000000000E+00  0.18141034574E+04  0.18141034574E+04  0.50400001928E-02 0. -1.
       -1   -1    0    0    0  501  0.00000000000E+00  0.00000000000E+00 -0.44627692883E+03  0.44627692885E+03  0.50400001928E-02 0.  1.
    10030    2    1    2    0    0  0.00000000000E+00  0.00000000000E+00  0.13678265286E+04  0.22603803862E+04  0.17995471870E+04 0.  0.
        2    1    3    3  502    0  0.15720414626E+03  0.30863834292E+03  0.17270080298E+04  0.17613993032E+04  0.25500000920E-02 0. -1.
       -2    1    3    3    0  502 -0.15720414626E+03 -0.30863834292E+03 -0.35918150128E+03  0.49898108300E+03  0.25500000920E-02 0.  1.
</event>
<event>
 5   0  0.9999162E-06  0.1799472E+04  0.7818609E-02  0.8706580E-01
       -2   -1    0    0    0  501  0.00000000000E+00  0.00000000000E+00  0.39435057752E+03  0.39435057753E+03  0.25500000920E-02 0. -1.
        2   -1    0    0  501    0  0.00000000000E+00  0.00000000000E+00 -0.20528056793E+04  0.20528056793E+04  0.25500000920E-02 0.  1.
    10030    2    1    2    0    0  0.00000000000E+00  0.00000000000E+00 -0.16584551017E+04  0.24471562568E+04  0.17994722617E+04 0.  0.
        1    1    3    3  502    0 -0.19693594198E+03  0.29878687357E+03 -0.19518641499E+04  0.19843968910E+04  0.50400001928E-02 0.  1.
       -1    1    3    3    0  502  0.19693594198E+03 -0.29878687357E+03  0.29340904820E+03  0.46275936582E+03  0.50400001928E-02 0. -1.
</event>
<event>
 5   0  0.4994123E-06  0.1799900E+04  0.7818609E-02  0.8706353E-01
        1   -1    0    0  501    0  0.00000000000E+00  0.00000000000E+00  0.12263790293E+04  0.12263790293E+04  0.50400001928E-02 0.  1.
       -1   -1    0    0    0  501  0.00000000000E+00  0.00000000000E+00 -0.66040744023E+03  0.66040744025E+03  0.50400001928E-02 0. -1.
    10030    2    1    2    0    0  0.00000000000E+00  0.00000000000E+00  0.56597158905E+03  0.18867864696E+04  0.17998998145E+04 0.  0.
        1    1    3    3  502    0  0.55661728876E+01 -0.21143050388E+02 -0.66012900259E+03  0.66049096205E+03  0.50400001928E-02 0. -1.
       -1    1    3    3    0  502 -0.55661728876E+01  0.21143050388E+02  0.12261005916E+04  0.12262955075E+04  0.50400001928E-02 0.  1.
</event>
<event>
 5   0  0.4981384E-06  0.1800024E+04  0.7818609E-02  0.8706287E-01
       -1   -1    0    0    0  501  0.00000000000E+00  0.00000000000E+00  0.10054787894E+04  0.10054787895E+04  0.50400001928E-02 0.  1.
        1   -1    0    0  501    0  0.00000000000E+00  0.00000000000E+00 -0.80560769725E+03  0.80560769727E+03  0.50400001928E-02 0. -1.
    10030    2    1    2    0    0  0.00000000000E+00  0.00000000000E+00  0.19987109219E+03  0.18110864867E+04  0.18000238357E+04 0.  0.
        5    1    3    3  502    0 -0.43560849631E+02 -0.22584802840E+03 -0.77552378248E+03  0.80892775125E+03  0.46999998093E+01 0. -1.
       -5    1    3    3    0  502  0.43560849631E+02  0.22584802840E+03  0.97539487467E+03  0.10021587355E+04  0.46999998093E+01 0.  1.
</event>
<event>
 5   0  0.4994123E-06  0.1799314E+04  0.7818609E-02  0.8706664E-01
        1   -1    0    0  501    0  0.00000000000E+00  0.00000000000E+00  0.81684272802E+03  0.81684272804E+03  0.50400001928E-02 0.  1.
       -1   -1    0    0    0  501  0.00000000000E+00  0.00000000000E+00 -0.99086743827E+03  0.99086743829E+03  0.50400001928E-02 0. -1.
    10030    2    1    2    0    0  0.00000000000E+00  0.00000000000E+00 -0.17402471025E+03  0.18077101663E+04  0.17993141598E+04 0.  0.
        1    1    3    3  502    0 -0.46367384921E+03  0.77095383687E+03 -0.91460697559E+02  0.90428331636E+03  0.50400001928E-02 0.  1.
       -1    1    3    3    0  502  0.46367384921E+03 -0.77095383687E+03 -0.82564012690E+02  0.90342684997E+03  0.50400001928E-02 0. -1.
</event>
<event>
 5   0  0.4987456E-06  0.1799698E+04  0.7818609E-02  0.8706460E-01
        1   -1    0    0  501    0  0.00000000000E+00  0.00000000000E+00  0.19510956621E+04  0.19510956621E+04  0.50400001928E-02 0. -1.
       -1   -1    0    0    0  501  0.00000000000E+00  0.00000000000E+00 -0.41501186707E+03  0.41501186710E+03  0.50400001928E-02 0.  1.
    10030    2    1    2    0    0  0.00000000000E+00  0.00000000000E+00  0.15360837950E+04  0.23661075292E+04  0.17996975897E+04 0.  0.
        3    1    3    3  502    0 -0.14733577365E+03 -0.88151341730E+03  0.63044030573E+03  0.10937224165E+04  0.10100000352E+00 0. -1.
       -3    1    3    3    0  502  0.14733577365E+03  0.88151341730E+03  0.90564348928E+03  0.12723851127E+04  0.10100000352E+00 0.  1.
</event>
<event>
 5   0  0.1035018E-05  0.1799857E+04  0.7818609E-02  0.8706376E-01
        2   -1    0    0  501    0  0.00000000000E+00  0.00000000000E+00  0.99265395139E+03  0.99265395139E+03  0.25500000920E-02 0.  1.
       -2   -1    0    0    0  501  0.00000000000E+00  0.00000000000E+00 -0.81586463710E+03  0.81586463710E+03  0.25500000920E-02 0. -1.
    10030    2    1    2    0    0  0.00000000000E+00  0.00000000000E+00  0.17678931429E+03  0.18085185885E+04  0.17998569452E+04 0.  0.
        3    1    3    3  502    0  0.62803850429E+03  0.61302855196E+03 -0.11164852175E+03  0.88470434101E+03  0.10100000352E+00 0. -1.
       -3    1    3    3    0  502 -0.62803850429E+03 -0.61302855196E+03  0.28843783604E+03  0.92381424748E+03  0.10100000352E+00 0.  1.
</event>
<event>
 5   0  0.9999162E-06  0.1800669E+04  0.7818609E-02  0.8705944E-01
        2   -1    0    0  501    0  0.00000000000E+00  0.00000000000E+00  0.94264090673E+03  0.94264090673E+03  0.25500000920E-02 0.  1.
       -2   -1    0    0    0  501  0.00000000000E+00  0.00000000000E+00 -0.85992724593E+03  0.85992724593E+03  0.25500000920E-02 0. -1.
    10030    2    1    2    0    0  0.00000000000E+00  0.00000000000E+00  0.82713660804E+02  0.18025681527E+04  0.18006694298E+04 0.  0.
        1    1    3    3  502    0 -0.57264599347E+03 -0.12143542392E+03  0.72613412981E+03  0.93270615443E+03  0.50400001928E-02 0.  1.
       -1    1    3    3    0  502  0.57264599347E+03  0.12143542392E+03 -0.64342046900E+03  0.86986199823E+03  0.50400001928E-02 0. -1.
</event>
<event>
 5   0  0.3626125E-06  0.1799543E+04  0.7818609E-02  0.8706543E-01
        3   -1    0    0  501    0  0.00000000000E+00  0.00000000000E+00  0.20087534629E+04  0.20087534655E+04  0.10100000352E+00 0. -1.
       -3   -1    0    0    0  501  0.00000000000E+00  0.00000000000E+00 -0.40303029246E+03  0.40303030511E+03  0.10100000352E+00 0.  1.
    10030    2    1    2    0    0  0.00000000000E+00  0.00000000000E+00  0.16057231705E+04  0.24117837706E+04  0.17995427352E+04 0.  0.
        3    1    3    3  502    0  0.73289519772E+03  0.43021035643E+02  0.15000368404E+04  0.16700588951E+04  0.10100000352E+00 0. -1.
       -3    1    3    3    0  502 -0.73289519772E+03 -0.43021035643E+02  0.10568633007E+03  0.74172487548E+03  0.10100000352E+00 0.  1.
</event>
<event>
 5   0  0.1036381E-05  0.1800178E+04  0.7818609E-02  0.8706205E-01
       -2   -1    0    0    0  501  0.00000000000E+00  0.00000000000E+00  0.13770836379E+04  0.13770836379E+04  0.25500000920E-02 0. -1.
        2   -1    0    0  501    0  0.00000000000E+00  0.00000000000E+00 -0.58831611788E+03  0.58831611789E+03  0.25500000920E-02 0.  1.
    10030    2    1    2    0    0  0.00000000000E+00  0.00000000000E+00  0.78876752002E+03  0.19653997558E+04  0.18001783243E+04 0.  0.
        4    1    3    3  502    0  0.85436363409E+03 -0.19003234208E+03  0.62368205735E+03  0.10747234211E+04  0.12699999809E+01 0.  1.
       -4    1    3    3    0  502 -0.85436363409E+03  0.19003234208E+03  0.16508546266E+03  0.89067633469E+03  0.12699999809E+01 0. -1.
</event>
<event>
 5   0  0.4953155E-06  0.1799092E+04  0.7818609E-02  0.8706782E-01
        1   -1    0    0  501    0  0.00000000000E+00  0.00000000000E+00  0.73997655575E+03  0.73997655577E+03  0.50400001928E-02 0. -1.
       -1   -1    0    0    0  501  0.00000000000E+00  0.00000000000E+00 -0.10935253261E+04  0.10935253261E+04  0.50400001928E-02 0.  1.
    10030    2    1    2    0    0  0.00000000000E+00  0.00000000000E+00 -0.35354877030E+03  0.18335018818E+04  0.17990921093E+04 0.  0.
        2    1    3    3  502    0 -0.26306064330E+03 -0.25695438503E+03 -0.10134246282E+04  0.10780797443E+04  0.25500000920E-02 0.  1.
       -2    1    3    3    0  502  0.26306064330E+03  0.25695438503E+03  0.65987585789E+03  0.75542213753E+03  0.25500000920E-02 0. -1.
</event>
<event>
 5   0  0.1000316E-05  0.1799783E+04  0.7818609E-02  0.8706415E-01
        2   -1    0    0  501    0  0.00000000000E+00  0.00000000000E+00  0.11105042648E+04  0.11105042648E+04  0.25500000920E-02 0.  1.
       -2   -1    0    0    0  501  0.00000000000E+00  0.00000000000E+00 -0.72922227696E+03  0.72922227697E+03  0.25500000920E-02 0. -1.
    10030    2    1    2    0    0  0.00000000000E+00  0.00000000000E+00  0.38128198780E+03  0.18397265417E+04  0.17997827075E+04 0.  0.
        5    1    3    3  502    0  0.17345290175E+03  0.23314270462E+03  0.10612121846E+04  0.11002885170E+04  0.46999998093E+01 0.  1.
       -5    1    3    3    0  502 -0.17345290175E+03 -0.23314270462E+03 -0.67993019684E+03  0.73943802473E+03  0.46999998093E+01 0. -1.
</event>
<event>
 5   0  0.1000316E-05  0.1800530E+04  0.7818609E-02  0.8706018E-01
       -2   -1    0    0    0  501  0.00000000000E+00  0.00000000000E+00  0.46307974468E+03  0.46307974469E+03  0.25500000920E-02 0. -1.
        2   -1    0    0  501    0  0.00000000000E+00  0.00000000000E+00 -0.17501882859E+04  0.17501882859E+04  0.25500000920E-02 0.  1.
    10030    2    1    2    0    0  0.00000000000E+00  0.00000000000E+00 -0.12871085413E+04  0.22132680306E+04  0.18005296383E+04 0.  0.
        5    1    3    3  502    0 -0.17851557731E+02  0.71695075723E+03  0.25352879174E+02  0.71763634585E+03  0.46999998093E+01 0. -1.
       -5    1    3    3    0  502  0.17851557731E+02 -0.71695075723E+03 -0.13124614204E+04  0.14956316848E+04  0.46999998093E+01 0.  1.
</event>
<event>
 5   0  0.1035018E-05  0.1800392E+04  0.7818609E-02  0.8706091E-01
        2   -1    0    0  501    0  0.00000000000E+00  0.00000000000E+00  0.16940636718E+04  0.16940636718E+04  0.25500000920E-02 0. -1.
       -2   -1    0    0    0  501  0.00000000000E+00  0.00000000000E+00 -0.47834849057E+03  0.47834849058E+03  0.25500000920E-02 0.  1.
    10030    2    1    2    0    0  0.00000000000E+00  0.00000000000E+00  0.12157151812E+04  0.21724121624E+04  0.18003919577E+04 0.  0.
        3    1    3    3  502    0  0.47456289607E+03  0.38688711976E+01  0.15308551592E+04  0.16027296838E+04  0.10100000352E+00 0. -1.
       -3    1    3    3    0  502 -0.47456289607E+03 -0.38688711976E+01 -0.31513997801E+03  0.56968247860E+03  0.10100000352E+00 0.  1.
</event>
<event>
 5   0  0.1000316E-05  0.1799834E+04  0.7818609E-02  0.8706388E-01
       -2   -1    0    0    0  501  0.00000000000E+00  0.00000000000E+00  0.33489078339E+03  0.33489078340E+03  0.25500000920E-02 0. -1.
        2   -1    0    0  501    0  0.00000000000E+00  0.00000000000E+00 -0.24182527139E+04  0.24182527139E+04  0.25500000920E-02 0.  1.
    10030    2    1    2    0    0  0.00000000000E+00  0.00000000000E+00 -0.20833619305E+04  0.27531434973E+04  0.17998339321E+04 0.  0.
        5    1    3    3  502    0 -0.60122345229E+03  0.38728037649E+03 -0.18772377574E+04  0.20088552505E+04  0.46999998093E+01 0.  1.
       -5    1    3    3    0  502  0.60122345229E+03 -0.38728037649E+03 -0.20612417310E+03  0.74428824680E+03  0.46999998093E+01 0. -1.
</event>
<event>
 5   0  0.9589963E-06  0.1799418E+04  0.7818609E-02  0.8706609E-01
       -2   -1    0    0    0  501  0.00000000000E+00  0.00000000000E+00  0.65098569644E+03  0.65098569644E+03  0.25500000920E-02 0. -1.
        2   -1    0    0  501    0  0.00000000000E+00  0.00000000000E+00 -0.12434625206E+04  0.12434625206E+04  0.25500000920E-02 0.  1.
    10030    2    1    2    0    0  0.00000000000E+00  0.00000000000E+00 -0.59247682416E+03  0.18944482170E+04  0.17994180337E+04 0.  0.
        2    1    3    3  502    0  0.72735217718E+03 -0.35289787509E+03  0.11945318107E+03  0.81721916422E+03  0.25500000920E-02 0. -1.
       -2    1    3    3    0  502 -0.72735217718E+03  0.35289787509E+03 -0.71193000523E+03  0.10772290528E+04  0.25500000920E-02 0.  1.
</event>
<event>
 5   0  0.1000316E-05  0.1799826E+04  0.7818609E-02  0.8706392E-01
        2   -1    0    0  501    0  0.00000000000E+00  0.00000000000E+00  0.12772004941E+04  0.12772004941E+04  0.25500000920E-02 0. -1.
       -2   -1    0    0    0  501  0.00000000000E+00  0.00000000000E+00 -0.63407721039E+03  0.63407721040E+03  0.25500000920E-02 0.  1.
    10030    2    1    2    0    0  0.00000000000E+00  0.00000000000E+00  0.64312328375E+03  0.19112777045E+04  0.17998263543E+04 0.  0.
        5    1    3    3  502    0 -0.40326724413E+03  0.73947257019E+03 -0.14881236781E+02  0.84242963709E+03  0.46999998093E+01 0.  1.
       -5    1    3    3    0  502  0.40326724413E+03 -0.73947257019E+03  0.65800452053E+03  0.10688480674E+04  0.46999998093E+01 0. -1.
</event>
<event>
 5   0  0.9589963E-06  0.1800918E+04  0.7818609E-02  0.8705811E-01
        2   -1    0    0  501    0  0.00000000000E+00  0.00000000000E+00  0.12104409420E+04  0.12104409420E+04  0.25500000920E-02 0. -1.
       -2   -1    0    0    0  501  0.00000000000E+00  0.00000000000E+00 -0.66986072843E+03  0.66986072843E+03  0.25500000920E-02 0.  1.
    10030    2    1    2    0    0  0.00000000000E+00  0.00000000000E+00  0.54058021358E+03  0.18803016704E+04  0.18009184891E+04 0.  0.
        2    1    3    3  502    0  0.65964485570E+03  0.47553414489E+03 -0.13349031538E+03  0.82406536325E+03  0.25500000920E-02 0.  1.
       -2    1    3    3    0  502 -0.65964485570E+03 -0.47553414489E+03  0.67407052895E+03  0.10562363072E+04  0.25500000920E-02 0. -1.
</event>
<event>
 5   0  0.1036381E-05  0.1800742E+04  0.7818609E-02  0.8705905E-01
        2   -1    0    0  501    0  0.00000000000E+00  0.00000000000E+00  0.96970932965E+03  0.96970932965E+03  0.25500000920E-02 0. -1.
       -2   -1    0    0    0  501  0.00000000000E+00  0.00000000000E+00 -0.83599059687E+03  0.83599059687E+03  0.25500000920E-02 0.  1.
    10030    2    1    2    0    0  0.00000000000E+00  0.00000000000E+00  0.13371873278E+03  0.18056999265E+04  0.18007419374E+04 0.  0.
        4    1    3    3  502    0  0.25812145426E+03  0.69274999575E+03  0.58221703614E+03  0.94101409758E+03  0.12699999809E+01 0. -1.
       -4    1    3    3    0  502 -0.25812145426E+03 -0.69274999575E+03 -0.44849830336E+03  0.86468582895E+03  0.12699999809E+01 0.  1.
</event>
<event>
 5   0  0.9999162E-06  0.1800271E+04  0.7818609E-02  0.8706155E-01
        2   -1    0    0  501    0  0.00000000000E+00  0.00000000000E+00  0.12871293678E+04  0.12871293678E+04  0.25500000920E-02 0.  1.
       -2   -1    0    0    0  501  0.00000000000E+00  0.00000000000E+00 -0.62949689368E+03  0.62949689368E+03  0.25500000920E-02 0. -1.
    10030    2    1    2    0    0  0.00000000000E+00  0.00000000000E+00  0.65763247411E+03  0.19166262615E+04  0.18002710227E+04 0.  0.
        1    1    3    3  502    0 -0.61153574489E+03 -0.54303229637E+03 -0.71496599762E+02  0.82095785883E+03  0.50400001928E-02 0. -1.
       -1    1    3    3    0  502  0.61153574489E+03  0.54303229637E+03  0.72912907387E+03  0.10956684026E+04  0.50400001928E-02 0.  1.
</event>
<event>
 5   0  0.4994123E-06  0.1799759E+04  0.7818609E-02  0.8706428E-01
       -1   -1    0    0    0  501  0.00000000000E+00  0.00000000000E+00  0.18095663584E+04  0.18095663584E+04  0.50400001928E-02 0. -1.
        1   -1    0    0  501    0  0.00000000000E+00  0.00000000000E+00 -0.44750109182E+03  0.44750109185E+03  0.50400001928E-02 0.  1.
    10030    2    1    2    0    0  0.00000000000E+00  0.00000000000E+00  0.13620652666E+04  0.22570674503E+04  0.17997587851E+04 0.  0.
        1    1    3    3  502    0  0.46194408586E+02  0.44730734633E+01  0.18080644725E+04  0.18086600201E+04  0.50400001928E-02 0. -1.
       -1    1    3    3    0  502 -0.46194408586E+02 -0.44730734633E+01 -0.44599920586E+03  0.44840743016E+03  0.50400001928E-02 0.  1.
</event>
<event>
 5   0  0.4981384E-06  0.1800094E+04  0.7818609E-02  0.8706249E-01
       -1   -1    0    0    0  501  0.00000000000E+00  0.00000000000E+00  0.96115340562E+03  0.96115340564E+03  0.50400001928E-02 0. -1.
        1   -1    0    0  501    0  0.00000000000E+00  0.00000000000E+00 -0.84282590702E+03  0.84282590703E+03  0.50400001928E-02 0.  1.
    10030    2    1    2    0    0  0.00000000000E+00  0.00000000000E+00  0.11832749861E+03  0.18039793127E+04  0.18000944319E+04 0.  0.
        5    1    3    3  502    0 -0.22842303622E+02  0.74759456901E+03 -0.44255979241E+03  0.86908035895E+03  0.46999998093E+01 0.  1.
       -5    1    3    3    0  502  0.22842303622E+02 -0.74759456901E+03  0.56088729102E+03  0.93489895372E+03  0.46999998093E+01 0. -1.
</event>
<event>
 5   0  0.4953155E-06  0.1800727E+04  0.7818609E-02  0.8705913E-01
       -1   -1    0    0    0  501  0.00000000000E+00  0.00000000000E+00  0.40370070826E+03  0.40370070829E+03  0.50400001928E-02 0.  1.
        1   -1    0    0  501    0  0.00000000000E+00  0.00000000000E+00 -0.20080583677E+04  0.20080583677E+04  0.50400001928E-02 0. -1.
    10030    2    1    2    0    0  0.00000000000E+00  0.00000000000E+00 -0.16043576594E+04  0.24117590760E+04  0.18007271701E+04 0.  0.
        2    1    3    3  502    0 -0.59503515885E+03  0.33824185999E+02 -0.17060433497E+04  0.18071510249E+04  0.25500000920E-02 0. -1.
       -2    1    3    3    0  502  0.59503515885E+03 -0.33824185999E+02  0.10168569025E+03  0.60460805108E+03  0.25500000920E-02 0.  1.
</event>
<event>
 5   0  0.4981384E-06  0.1799721E+04  0.7818609E-02  0.8706448E-01
       -1   -1    0    0    0  501  0.00000000000E+00  0.00000000000E+00  0.60093590675E+03  0.60093590677E+03  0.50400001928E-02 0. -1.
        1   -1    0    0  501    0  0.00000000000E+00  0.00000000000E+00 -0.13474796910E+04  0.13474796910E+04  0.50400001928E-02 0.  1.
    10030    2    1    2    0    0  0.00000000000E+00  0.00000000000E+00 -0.74654378421E+03  0.19484155977E+04  0.17997210116E+04 0.  0.
        5    1    3    3  502    0  0.45752944225E+03  0.22406251597E+03 -0.11763034526E+04  0.12818927818E+04  0.46999998093E+01 0.  1.
       -5    1    3    3    0  502 -0.45752944225E+03 -0.22406251597E+03  0.42975966835E+03  0.66652281591E+03  0.46999998093E+01 0. -1.
</event>
<event>
 5   0  0.9999162E-06  0.1801510E+04  0.7818609E-02  0.8705497E-01
        2   -1    0    0  501    0  0.00000000000E+00  0.00000000000E+00  0.12762156784E+04  0.12762156784E+04  0.25500000920E-02 0. -1.
       -2   -1    0    0    0  501  0.00000000000E+00  0.00000000000E+00 -0.63575430854E+03  0.63575430854E+03  0.25500000920E-02 0.  1.
    10030    2    1    2    0    0  0.00000000000E+00  0.00000000000E+00  0.64046136984E+03  0.19119699869E+04  0.18015100512E+04 0.  0.
        1    1    3    3  502    0 -0.48518484009E+03  0.59530276905E+02  0.11231992265E+04  0.12249590546E+04  0.50400001928E-02 0. -1.
       -1    1    3    3    0  502  0.48518484009E+03 -0.59530276905E+02 -0.48273785665E+03  0.68701093237E+03  0.50400001928E-02 0.  1.
</event>
<event>
 5   0  0.1036381E-05  0.1802344E+04  0.7818609E-02  0.8705054E-01
       -2   -1    0    0    0  501  0.00000000000E+00  0.00000000000E+00  0.37491687463E+03  0.37491687463E+03  0.25500000920E-02 0. -1.
        2   -1    0    0  501    0  0.00000000000E+00  0.00000000000E+00 -0.21661084257E+04  0.21661084257E+04  0.25500000920E-02 0.  1.
    10030    2    1    2    0    0  0.00000000000E+00  0.00000000000E+00 -0.17911915510E+04  0.25410253003E+04  0.18023435866E+04 0.  0.
        4    1    3    3  502    0  0.59799031620E+03 -0.21310405789E+03 -0.17973493202E+04  0.19061668210E+04  0.12699999809E+01 0.  1.
       -4    1    3    3    0  502 -0.59799031620E+03  0.21310405789E+03  0.61577691231E+01  0.63485847934E+03  0.12699999809E+01 0. -1.
</event>
<event>
 5   0  0.4983159E-06  0.1800816E+04  0.7818609E-02  0.8705866E-01
       -1   -1    0    0    0  501  0.00000000000E+00  0.00000000000E+00  0.38997252422E+03  0.38997252425E+03  0.50400001928E-02 0. -1.
        1   -1    0    0  501    0  0.00000000000E+00  0.00000000000E+00 -0.20789526070E+04  0.20789526070E+04  0.50400001928E-02 0.  1.
    10030    2    1    2    0    0  0.00000000000E+00  0.00000000000E+00 -0.16889800827E+04  0.24689251312E+04  0.18008158106E+04 0.  0.
        4    1    3    3  502    0 -0.14483061512E+03 -0.22544418834E+03  0.33404039252E+03  0.42823543276E+03  0.12699999809E+01 0. -1.
       -4    1    3    3    0  502  0.14483061512E+03  0.22544418834E+03 -0.20230204753E+04  0.20406896985E+04  0.12699999809E+01 0.  1.
</event>
<event>
 5   0  0.4953155E-06  0.1799943E+04  0.7818609E-02  0.8706330E-01
       -1   -1    0    0    0  501  0.00000000000E+00  0.00000000000E+00  0.85732447006E+03  0.85732447008E+03  0.50400001928E-02 0. -1.
        1   -1    0    0  501    0  0.00000000000E+00  0.00000000000E+00 -0.94474031030E+03  0.94474031031E+03  0.50400001928E-02 0.  1.
    10030    2    1    2    0    0  0.00000000000E+00  0.00000000000E+00 -0.87415840238E+02  0.18020647804E+04  0.17999433168E+04 0.  0.
        2    1    3    3  502    0 -0.39272501835E+03  0.42680581804E+03  0.64525491101E+03  0.86761169110E+03  0.25500000920E-02 0. -1.
       -2    1    3    3    0  502  0.39272501835E+03 -0.42680581804E+03 -0.73267075124E+03  0.93445308929E+03  0.25500000920E-02 0.  1.
</event>
<event>
 5   0  0.4953155E-06  0.1799604E+04  0.7818609E-02  0.8706510E-01
        1   -1    0    0  501    0  0.00000000000E+00  0.00000000000E+00  0.15783905211E+04  0.15783905211E+04  0.50400001928E-02 0.  1.
       -1   -1    0    0    0  501  0.00000000000E+00  0.00000000000E+00 -0.51295495427E+03  0.51295495429E+03  0.50400001928E-02 0. -1.
    10030    2    1    2    0    0  0.00000000000E+00  0.00000000000E+00  0.10654355668E+04  0.20913454754E+04  0.17996035537E+04 0.  0.
        2    1    3    3  502    0  0.58290897986E+03  0.41118608101E+03 -0.10463224874E+03  0.72097488133E+03  0.25500000920E-02 0. -1.
       -2    1    3    3    0  502 -0.58290897986E+03 -0.41118608101E+03  0.11700678156E+04  0.13703705940E+04  0.25500000920E-02 0.  1.
</event>
<event>
 5   0  0.9589963E-06  0.1799937E+04  0.7818609E-02  0.8706333E-01
       -2   -1    0    0    0  501  0.00000000000E+00  0.00000000000E+00  0.68894836092E+03  0.68894836092E+03  0.25500000920E-02 0. -1.
        2   -1    0    0  501    0  0.00000000000E+00  0.00000000000E+00 -0.11756226457E+04  0.11756226457E+04  0.25500000920E-02 0.  1.
    10030    2    1    2    0    0  0.00000000000E+00  0.00000000000E+00 -0.48667428477E+03  0.18645710066E+04  0.17999369931E+04 0.  0.
        2    1    3    3  502    0  0.73512236194E+03  0.40813800319E+03 -0.57573609068E+03  0.10190454174E+04  0.25500000920E-02 0. -1.
       -2    1    3    3    0  502 -0.73512236194E+03 -0.40813800319E+03  0.89061805911E+02  0.84552558918E+03  0.25500000920E-02 0.  1.
</event>
<event>
 5   0  0.4994123E-06  0.1798813E+04  0.7818609E-02  0.8706931E-01
        1   -1    0    0  501    0  0.00000000000E+00  0.00000000000E+00  0.97136768121E+03  0.97136768122E+03  0.50400001928E-02 0. -1.
       -1   -1    0    0    0  501  0.00000000000E+00  0.00000000000E+00 -0.83277679522E+03  0.83277679523E+03  0.50400001928E-02 0.  1.
    10030    2    1    2    0    0  0.00000000000E+00  0.00000000000E+00  0.13859088599E+03  0.18041444765E+04  0.17988134584E+04 0.  0.
        1    1    3    3  502    0 -0.84368332741E+03  0.31145078222E+03  0.57889940797E+02  0.90119608963E+03  0.50400001928E-02 0. -1.
       -1    1    3    3    0  502  0.84368332741E+03 -0.31145078222E+03  0.80700945195E+02  0.90294838683E+03  0.50400001928E-02 0.  1.
</event>
<event>
 5   0  0.4983159E-06  0.1799320E+04  0.7818609E-02  0.8706661E-01
        1   -1    0    0  501    0  0.00000000000E+00  0.00000000000E+00  0.14038969671E+04  0.14038969672E+04  0.50400001928E-02 0. -1.
       -1   -1    0    0    0  501  0.00000000000E+00  0.00000000000E+00 -0.57652977202E+03  0.57652977204E+03  0.50400001928E-02 0.  1.
    10030    2    1    2    0    0  0.00000000000E+00  0.00000000000E+00  0.82736719512E+03  0.19804267392E+04  0.17993203144E+04 0.  0.
        4    1    3    3  502    0  0.61845383331E+03 -0.61372642004E+03  0.16697647044E+03  0.88714599541E+03  0.12699999809E+01 0.  1.
       -4    1    3    3    0  502 -0.61845383331E+03  0.61372642004E+03  0.66039072469E+03  0.10932807438E+04  0.12699999809E+01 0. -1.
</event>
<event>
 5   0  0.4987456E-06  0.1800024E+04  0.7818609E-02  0.8706287E-01
       -1   -1    0    0    0  501  0.00000000000E+00  0.00000000000E+00  0.10652877811E+04  0.10652877811E+04  0.50400001928E-02 0.  1.
        1   -1    0    0  501    0  0.00000000000E+00  0.00000000000E+00 -0.76037827402E+03  0.76037827404E+03  0.50400001928E-02 0. -1.
    10030    2    1    2    0    0  0.00000000000E+00  0.00000000000E+00  0.30490950710E+03  0.18256660552E+04  0.18000240936E+04 0.  0.
        3    1    3    3  502    0 -0.57033051290E+03  0.37701533250E+03 -0.44120741763E+03  0.81368387624E+03  0.10100000352E+00 0. -1.
       -3    1    3    3    0  502  0.57033051290E+03 -0.37701533250E+03  0.74611692473E+03  0.10119821789E+04  0.10100000352E+00 0.  1.
</event>
<event>
 5   0  0.4983159E-06  0.1800831E+04  0.7818609E-02  0.8705857E-01
       -1   -1    0    0    0  501  0.00000000000E+00  0.00000000000E+00  0.77942793510E+03  0.77942793512E+03  0.50400001928E-02 0.  1.
        1   -1    0    0  501    0  0.00000000000E+00  0.00000000000E+00 -0.10401840541E+04  0.10401840541E+04  0.50400001928E-02 0. -1.
    10030    2    1    2    0    0  0.00000000000E+00  0.00000000000E+00 -0.26075611902E+03  0.18196119893E+04  0.18008314851E+04 0.  0.
        4    1    3    3  502    0 -0.35243567756E+01  0.62565932288E+03 -0.78465304878E+03  0.10035656577E+04  0.12699999809E+01 0. -1.
       -4    1    3    3    0  502  0.35243567756E+01 -0.62565932288E+03  0.52389692975E+03  0.81604633159E+03  0.12699999809E+01 0.  1.
</event>
<event>
 5   0  0.1036381E-05  0.1799123E+04  0.7818609E-02  0.8706766E-01
       -2   -1    0    0    0  501  0.00000000000E+00  0.00000000000E+00  0.89401117489E+03  0.89401117489E+03  0.25500000920E-02 0.  1.
        2   -1    0    0  501    0  0.00000000000E+00  0.00000000000E+00 -0.90514588459E+03  0.90514588460E+03  0.25500000920E-02 0. -1.
    10030    2    1    2    0    0  0.00000000000E+00  0.00000000000E+00 -0.11134709704E+02  0.17991570595E+04  0.17991226036E+04 0.  0.
        4    1    3    3  502    0 -0.98871015648E+02 -0.56981786175E+03  0.68346039037E+03  0.89531424171E+03  0.12699999809E+01 0.  1.
       -4    1    3    3    0  502  0.98871015648E+02  0.56981786175E+03 -0.69459510008E+03  0.90384281778E+03  0.12699999809E+01 0. -1.
</event>
<event>
 5   0  0.9589963E-06  0.1799608E+04  0.7818609E-02  0.8706508E-01
       -2   -1    0    0    0  501  0.00000000000E+00  0.00000000000E+00  0.40931589832E+03  0.40931589833E+03  0.25500000920E-02 0.  1.
        2   -1    0    0  501    0  0.00000000000E+00  0.00000000000E+00 -0.19780489981E+04  0.19780489981E+04  0.25500000920E-02 0. -1.
    10030    2    1    2    0    0  0.00000000000E+00  0.00000000000E+00 -0.15687330998E+04  0.23873648965E+04  0.17996076268E+04 0.  0.
        2    1    3    3  502    0 -0.53533179374E+03  0.72323042316E+03 -0.78154358775E+03  0.11918274850E+04  0.25500000920E-02 0. -1.
       -2    1    3    3    0  502  0.53533179374E+03 -0.72323042316E+03 -0.78718951206E+03  0.11955374115E+04  0.25500000920E-02 0.  1.
</event>
<event>
 5   0  0.1000316E-05  0.1799154E+04  0.7818609E-02  0.8706749E-01
        2   -1    0    0  501    0  0.00000000000E+00  0.00000000000E+00  0.15289328211E+04  0.15289328211E+04  0.25500000920E-02 0. -1.
       -2   -1    0    0    0  501  0.00000000000E+00  0.00000000000E+00 -0.52928349306E+03  0.52928349307E+03  0.25500000920E-02 0.  1.
    10030    2    1    2    0    0  0.00000000000E+00  0.00000000000E+00  0.99964932808E+03  0.20582163142E+04  0.17991541393E+04 0.  0.
        5    1    3    3  502    0  0.59320067117E+03  0.54503792858E+03  0.95779765541E+03  0.12515397791E+04  0.46999998093E+01 0. -1.
       -5    1    3    3    0  502 -0.59320067117E+03 -0.54503792858E+03  0.41851672672E+02  0.80667653515E+03  0.46999998093E+01 0.  1.
</event>
<event>
 5   0  0.1035018E-05  0.1801885E+04  0.7818609E-02  0.8705298E-01
       -2   -1    0    0    0  501  0.00000000000E+00  0.00000000000E+00  0.76637053928E+03  0.76637053928E+03  0.25500000920E-02 0. -1.
        2   -1    0    0  501    0  0.00000000000E+00  0.00000000000E+00 -0.10591446066E+04  0.10591446066E+04  0.25500000920E-02 0.  1.
    10030    2    1    2    0    0  0.00000000000E+00  0.00000000000E+00 -0.29277406729E+03  0.18255151459E+04  0.18018848169E+04 0.  0.
        3    1    3    3  502    0  0.26645255173E+03 -0.83281410240E+03 -0.36630732532E+03  0.94802814213E+03  0.10100000352E+00 0.  1.
       -3    1    3    3    0  502 -0.26645255173E+03  0.83281410240E+03  0.73533258027E+02  0.87748700373E+03  0.10100000352E+00 0. -1.
</event>
<event>
 5   0  0.9999162E-06  0.1800009E+04  0.7818609E-02  0.8706295E-01
        2   -1    0    0  501    0  0.00000000000E+00  0.00000000000E+00  0.78949693242E+03  0.78949693243E+03  0.25500000920E-02 0. -1.
       -2   -1    0    0    0  501  0.00000000000E+00  0.00000000000E+00 -0.10259799440E+04  0.10259799440E+04  0.25500000920E-02 0.  1.
    10030    2    1    2    0    0  0.00000000000E+00  0.00000000000E+00 -0.23648301159E+03  0.18154768764E+04  0.18000089095E+04 0.  0.
        1    1    3    3  502    0  0.85907661283E+02  0.18077457401E+03  0.76676587017E+03  0.79245786800E+03  0.50400001928E-02 0. -1.
       -1    1    3    3    0  502 -0.85907661283E+02 -0.18077457401E+03 -0.10032488818E+04  0.10230190084E+04  0.50400001928E-02 0.  1.
</event>
<event>
 5   0  0.4987456E-06  0.1801023E+04  0.7818609E-02  0.8705756E-01
       -1   -1    0    0    0  501  0.00000000000E+00  0.00000000000E+00  0.80833620458E+03  0.80833620460E+03  0.50400001928E-02 0. -1.
        1   -1    0    0  501    0  0.00000000000E+00  0.00000000000E+00 -0.10031972736E+04  0.10031972737E+04  0.50400001928E-02 0.  1.
    10030    2    1    2    0    0  0.00000000000E+00  0.00000000000E+00 -0.19486106906E+03  0.18115334783E+04  0.18010226835E+04 0.  0.
        3    1    3    3  502    0  0.56073867713E+03  0.65159746201E+03 -0.36716257990E+03  0.93478098334E+03  0.10100000352E+00 0.  1.
       -3    1    3    3    0  502 -0.56073867713E+03 -0.65159746201E+03  0.17230151084E+03  0.87675249493E+03  0.10100000352E+00 0. -1.
</event>
<event>
 5   0  0.4987456E-06  0.1800436E+04  0.7818609E-02  0.8706068E-01
        1   -1    0    0  501    0  0.00000000000E+00  0.00000000000E+00  0.18645240027E+04  0.18645240027E+04  0.50400001928E-02 0.  1.
       -1   -1    0    0    0  501  0.00000000000E+00  0.00000000000E+00 -0.43463748783E+03  0.43463748786E+03  0.50400001928E-02 0. -1.
    10030    2    1    2    0    0  0.00000000000E+00  0.00000000000E+00  0.14298865149E+04  0.22991614906E+04  0.18004355346E+04 0.  0.
        3    1    3    3  502    0  0.70205031411E+03  0.18448345066E+03  0.13948597690E+04  0.15724320566E+04  0.10100000352E+00 0.  1.
       -3    1    3    3    0  502 -0.70205031411E+03 -0.18448345066E+03  0.35026745863E+02  0.72672943400E+03  0.10100000352E+00 0. -1.
</event>
<event>
 5   0  0.1000316E-05  0.1800339E+04  0.7818609E-02  0.8706119E-01
       -2   -1    0    0    0  501  0.00000000000E+00  0.00000000000E+00  0.97713683840E+03  0.97713683840E+03  0.25500000920E-02 0. -1.
        2   -1    0    0  501    0  0.00000000000E+00  0.00000000000E+00 -0.82926443435E+03  0.82926443436E+03  0.25500000920E-02 0.  1.
    10030    2    1    2    0    0  0.00000000000E+00  0.00000000000E+00  0.14787240404E+03  0.18064012728E+04  0.18003386655E+04 0.  0.
        5    1    3    3  502    0  0.57851960929E+03  0.32654556531E+03 -0.53553483757E+03  0.85330920352E+03  0.46999998093E+01 0.  1.
       -5    1    3    3    0  502 -0.57851960929E+03 -0.32654556531E+03  0.68340724162E+03  0.95309206924E+03  0.46999998093E+01 0. -1.
</event>
<event>
 5   0  0.4983159E-06  0.1795974E+04  0.7818609E-02  0.8708443E-01
        1   -1    0    0  501    0  0.00000000000E+00  0.00000000000E+00  0.11549612045E+04  0.11549612045E+04  0.50400001928E-02 0. -1.
       -1   -1    0    0    0  501  0.00000000000E+00  0.00000000000E+00 -0.69818834843E+03  0.69818834845E+03  0.50400001928E-02 0.  1.
    10030    2    1    2    0    0  0.00000000000E+00  0.00000000000E+00  0.45677285610E+03  0.18531495530E+04  0.17959737815E+04 0.  0.
        4    1    3    3  502    0  0.59521506871E+03 -0.55851831632E+03 -0.15790495047E+03  0.83135989437E+03  0.12699999809E+01 0.  1.
       -4    1    3    3    0  502 -0.59521506871E+03  0.55851831632E+03  0.61467780657E+03  0.10217896586E+04  0.12699999809E+01 0. -1.
</event>
<event>
 5   0  0.9999162E-06  0.1800757E+04  0.7818609E-02  0.8705897E-01
       -2   -1    0    0    0  501  0.00000000000E+00  0.00000000000E+00  0.62852832747E+03  0.62852832747E+03  0.25500000920E-02 0. -1.
        2   -1    0    0  501    0  0.00000000000E+00  0.00000000000E+00 -0.12898091140E+04  0.12898091140E+04  0.25500000920E-02 0.  1.
    10030    2    1    2    0    0  0.00000000000E+00  0.00000000000E+00 -0.66128078651E+03  0.19183374414E+04  0.18007571354E+04 0.  0.
        1    1    3    3  502    0  0.48776304034E+03  0.69990828228E+03 -0.63735872417E+03  0.10648993053E+04  0.50400001928E-02 0. -1.
       -1    1    3    3    0  502 -0.48776304034E+03 -0.69990828228E+03 -0.23922062339E+02  0.85343813614E+03  0.50400001928E-02 0.  1.
</event>
<event>
 5   0  0.1035018E-05  0.1801755E+04  0.7818609E-02  0.8705367E-01
       -2   -1    0    0    0  501  0.00000000000E+00  0.00000000000E+00  0.73701162674E+03  0.73701162675E+03  0.25500000920E-02 0. -1.
        2   -1    0    0  501    0  0.00000000000E+00  0.00000000000E+00 -0.11011771219E+04  0.11011771219E+04  0.25500000920E-02 0.  1.
    10030    2    1    2    0    0  0.00000000000E+00  0.00000000000E+00 -0.36416549520E+03  0.18381887487E+04  0.18017550799E+04 0.  0.
        3    1    3    3  502    0 -0.43319662332E+03  0.37794942215E+03 -0.88970398096E+03  0.10592819568E+04  0.10100000352E+00 0.  1.
       -3    1    3    3    0  502  0.43319662332E+03 -0.37794942215E+03  0.52553848576E+03  0.77890679185E+03  0.10100000352E+00 0. -1.
</event>
<event>
 5   0  0.4987456E-06  0.1799363E+04  0.7818609E-02  0.8706638E-01
        1   -1    0    0  501    0  0.00000000000E+00  0.00000000000E+00  0.18089469457E+04  0.18089469457E+04  0.50400001928E-02 0. -1.
       -1   -1    0    0    0  501  0.00000000000E+00  0.00000000000E+00 -0.44745732111E+03  0.44745732114E+03  0.50400001928E-02 0.  1.
    10030    2    1    2    0    0  0.00000000000E+00  0.00000000000E+00  0.13614896245E+04  0.22564042668E+04  0.17993627254E+04 0.  0.
        3    1    3    3  502    0  0.38661076634E+03  0.79965238030E+03  0.86035505411E+03  0.12365769864E+04  0.10100000352E+00 0.  1.
       -3    1    3    3    0  502 -0.38661076634E+03 -0.79965238030E+03  0.50113457043E+03  0.10198272804E+04  0.10100000352E+00 0. -1.
</event>
<event>
 5   0  0.1035018E-05  0.1800007E+04  0.7818609E-02  0.8706296E-01
       -2   -1    0    0    0  501  0.00000000000E+00  0.00000000000E+00  0.60191911542E+03  0.60191911543E+03  0.25500000920E-02 0. -1.
        2   -1    0    0  501    0  0.00000000000E+00  0.00000000000E+00 -0.13457067383E+04  0.13457067383E+04  0.25500000920E-02 0.  1.
    10030    2    1    2    0    0  0.00000000000E+00  0.00000000000E+00 -0.74378762289E+03  0.19476258537E+04  0.18000073439E+04 0.  0.
        3    1    3    3  502    0 -0.17990865022E+03  0.46134155600E+03  0.44127351987E+03  0.66326878658E+03  0.10100000352E+00 0. -1.
       -3    1    3    3    0  502  0.17990865022E+03 -0.46134155600E+03 -0.11850611428E+04  0.12843570672E+04  0.10100000352E+00 0.  1.
</event>
<event>
 5   0  0.9999162E-06  0.1802292E+04  0.7818609E-02  0.8705081E-01
       -2   -1    0    0    0  501  0.00000000000E+00  0.00000000000E+00  0.95389008097E+03  0.95389008097E+03  0.25500000920E-02 0.  1.
        2   -1    0    0  501    0  0.00000000000E+00  0.00000000000E+00 -0.85131857194E+03  0.85131857194E+03  0.25500000920E-02 0. -1.
    10030    2    1    2    0    0  0.00000000000E+00  0.00000000000E+00  0.10257150903E+03  0.18052086529E+04  0.18022922532E+04 0.  0.
        1    1    3    3  502    0 -0.77046957997E+03  0.25215130665E+03  0.44544596438E+03  0.92500041206E+03  0.50400001928E-02 0. -1.
       -1    1    3    3    0  502  0.77046957997E+03 -0.25215130665E+03 -0.34287445535E+03  0.88020824085E+03  0.50400001928E-02 0.  1.
</event>
<event>
 5   0  0.4953155E-06  0.1798440E+04  0.7818609E-02  0.8707129E-01
        1   -1    0    0  501    0  0.00000000000E+00  0.00000000000E+00  0.12469566502E+04  0.12469566502E+04  0.50400001928E-02 0. -1.
       -1   -1    0    0    0  501  0.00000000000E+00  0.00000000000E+00 -0.64845609973E+03  0.64845609975E+03  0.50400001928E-02 0.  1.
    10030    2    1    2    0    0  0.00000000000E+00  0.00000000000E+00  0.59850055050E+03  0.18954127500E+04  0.17984400418E+04 0.  0.
        2    1    3    3  502    0 -0.38680030270E+03 -0.76679372892E+03  0.18405588673E+02  0.85902611286E+03  0.25500000920E-02 0.  1.
       -2    1    3    3    0  502  0.38680030270E+03  0.76679372892E+03  0.58009496183E+03  0.10363866371E+04  0.25500000920E-02 0. -1.
</event>
<event>
 5   0  0.1036381E-05  0.1799893E+04  0.7818609E-02  0.8706357E-01
        2   -1    0    0  501    0  0.00000000000E+00  0.00000000000E+00  0.11581762725E+04  0.11581762725E+04  0.25500000920E-02 0.  1.
       -2   -1    0    0    0  501  0.00000000000E+00  0.00000000000E+00 -0.69929207576E+03  0.69929207577E+03  0.25500000920E-02 0. -1.
    10030    2    1    2    0    0  0.00000000000E+00  0.00000000000E+00  0.45888419669E+03  0.18574683482E+04  0.17998927631E+04 0.  0.
        4    1    3    3  502    0 -0.18485228585E+03 -0.67022957847E+03  0.81914359013E+03  0.10744188613E+04  0.12699999809E+01 0.  1.
       -4    1    3    3    0  502  0.18485228585E+03  0.67022957847E+03 -0.36025939345E+03  0.78304948688E+03  0.12699999809E+01 0. -1.
</event>
<event>
 5   0  0.9589963E-06  0.1799697E+04  0.7818609E-02  0.8706461E-01
       -2   -1    0    0    0  501  0.00000000000E+00  0.00000000000E+00  0.14455099194E+04  0.14455099194E+04  0.25500000920E-02 0.  1.
        2   -1    0    0  501    0  0.00000000000E+00  0.00000000000E+00 -0.56016725720E+03  0.56016725720E+03  0.25500000920E-02 0. -1.
    10030    2    1    2    0    0  0.00000000000E+00  0.00000000000E+00  0.88534266221E+03  0.20056771766E+04  0.17996970043E+04 0.  0.
        2    1    3    3  502    0 -0.72317831604E+03  0.49610344902E+03  0.66728765548E+03  0.11019883503E+04  0.25500000920E-02 0.  1.
       -2    1    3    3    0  502  0.72317831604E+03 -0.49610344902E+03  0.21805500673E+03  0.90368882636E+03  0.25500000920E-02 0. -1.
</event>
<event>
 5   0  0.4987456E-06  0.1799486E+04  0.7818609E-02  0.8706573E-01
        1   -1    0    0  501    0  0.00000000000E+00  0.00000000000E+00  0.10228524453E+04  0.10228524453E+04  0.50400001928E-02 0.  1.
       -1   -1    0    0    0  501  0.00000000000E+00  0.00000000000E+00 -0.79145061782E+03  0.79145061784E+03  0.50400001928E-02 0. -1.
    10030    2    1    2    0    0  0.00000000000E+00  0.00000000000E+00  0.23140182749E+03  0.18143030632E+04  0.17994857041E+04 0.  0.
        3    1    3    3  502    0  0.54089666542E+03 -0.86751323226E+02  0.83533029981E+03  0.99893529056E+03  0.10100000352E+00 0.  1.
       -3    1    3    3    0  502 -0.54089666542E+03  0.86751323226E+02 -0.60392847231E+03  0.81536777261E+03  0.10100000352E+00 0. -1.
</event>
<event>
 5   0  0.4983159E-06  0.1803212E+04  0.7818609E-02  0.8704593E-01
        1   -1    0    0  501    0  0.00000000000E+00  0.00000000000E+00  0.15948065032E+04  0.15948065032E+04  0.50400001928E-02 0. -1.
       -1   -1    0    0    0  501  0.00000000000E+00  0.00000000000E+00 -0.50971267990E+03  0.50971267993E+03  0.50400001928E-02 0.  1.
    10030    2    1    2    0    0  0.00000000000E+00  0.00000000000E+00  0.10850938233E+04  0.21045191832E+04  0.18032116867E+04 0.  0.
        4    1    3    3  502    0  0.18996643447E+03 -0.63845456054E+03  0.12516759422E+04  0.14178877774E+04  0.12699999809E+01 0. -1.
       -4    1    3    3    0  502 -0.18996643447E+03  0.63845456054E+03 -0.16658211891E+03  0.68663140574E+03  0.12699999809E+01 0.  1.
</event>
<event>
 5   0  0.4981384E-06  0.1800924E+04  0.7818609E-02  0.8705809E-01
        1   -1    0    0  501    0  0.00000000000E+00  0.00000000000E+00  0.73760720266E+03  0.73760720268E+03  0.50400001928E-02 0.  1.
       -1   -1    0    0    0  501  0.00000000000E+00  0.00000000000E+00 -0.10992725854E+04  0.10992725854E+04  0.50400001928E-02 0. -1.
    10030    2    1    2    0    0  0.00000000000E+00  0.00000000000E+00 -0.36166538275E+03  0.18368797881E+04  0.18009235150E+04 0.  0.
        5    1    3    3  502    0 -0.81048640711E+03 -0.28039801946E+03 -0.46071616068E+03  0.97354647354E+03  0.46999998093E+01 0. -1.
       -5    1    3    3    0  502  0.81048640711E+03  0.28039801946E+03  0.99050777927E+02  0.86333331456E+03  0.46999998093E+01 0.  1.
</event>
<event>
 5   0  0.4983159E-06  0.1798172E+04  0.7818609E-02  0.8707272E-01
        1   -1    0    0  501    0  0.00000000000E+00  0.00000000000E+00  0.48403192687E+03  0.48403192689E+03  0.50400001928E-02 0. -1.
       -1   -1    0    0    0  501  0.00000000000E+00  0.00000000000E+00 -0.16700460317E+04  0.16700460317E+04  0.50400001928E-02 0.  1.
    10030    2    1    2    0    0  0.00000000000E+00  0.00000000000E+00 -0.11860141048E+04  0.21540779586E+04  0.17981719592E+04 0.  0.
        4    1    3    3  502    0  0.25381864627E+03  0.62550353487E+03  0.11839937547E+03  0.68534560795E+03  0.12699999809E+01 0. -1.
       -4    1    3    3    0  502 -0.25381864627E+03 -0.62550353487E+03 -0.13044134803E+04  0.14687323507E+04  0.12699999809E+01 0.  1.
</event>
<event>
 5   0  0.4994123E-06  0.1800394E+04  0.7818609E-02  0.8706090E-01
        1   -1    0    0  501    0  0.00000000000E+00  0.00000000000E+00  0.13222104285E+04  0.13222104285E+04  0.50400001928E-02 0. -1.
       -1   -1    0    0    0  501  0.00000000000E+00  0.00000000000E+00 -0.61287887597E+03  0.61287887599E+03  0.50400001928E-02 0.  1.
    10030    2    1    2    0    0  0.00000000000E+00  0.00000000000E+00  0.70933155250E+03  0.19350893045E+04  0.18003942248E+04 0.  0.
        1    1    3    3  502    0  0.80029584337E+03  0.11877412414E+03  0.77887591400E+03  0.11230442640E+04  0.50400001928E-02 0. -1.
       -1    1    3    3    0  502 -0.80029584337E+03 -0.11877412414E+03 -0.69544361508E+02  0.81204504045E+03  0.50400001928E-02 0.  1.
</event>
<event>
 5   0  0.1000316E-05  0.1802752E+04  0.7818609E-02  0.8704837E-01
       -2   -1    0    0    0  501  0.00000000000E+00  0.00000000000E+00  0.88351981008E+03  0.88351981009E+03  0.25500000920E-02 0.  1.
        2   -1    0    0  501    0  0.00000000000E+00  0.00000000000E+00 -0.91959293061E+03  0.91959293062E+03  0.25500000920E-02 0. -1.
    10030    2    1    2    0    0  0.00000000000E+00  0.00000000000E+00 -0.36073120529E+02  0.18031127407E+04  0.18027518647E+04 0.  0.
        5    1    3    3  502    0 -0.41377753959E+03  0.24544138020E+03  0.74435165612E+03  0.88630401181E+03  0.46999998093E+01 0.  1.
       -5    1    3    3    0  502  0.41377753959E+03 -0.24544138020E+03 -0.78042477664E+03  0.91680872890E+03  0.46999998093E+01 0. -1.
</event>
<event>
 5   0  0.4983159E-06  0.1811586E+04  0.7818609E-02  0.8700162E-01
        1   -1    0    0  501    0  0.00000000000E+00  0.00000000000E+00  0.10276115456E+04  0.10276115457E+04  0.50400001928E-02 0. -1.
       -1   -1    0    0    0  501  0.00000000000E+00  0.00000000000E+00 -0.79841562646E+03  0.79841562648E+03  0.50400001928E-02 0.  1.
    10030    2    1    2    0    0  0.00000000000E+00  0.00000000000E+00  0.22919591918E+03  0.18260271721E+04  0.18115861735E+04 0.  0.
        4    1    3    3  502    0  0.76533184882E+03 -0.16509310026E+03  0.57371865323E+03  0.97064065263E+03  0.12699999809E+01 0. -1.
       -4    1    3    3    0  502 -0.76533184882E+03  0.16509310026E+03 -0.34452273405E+03  0.85538651950E+03  0.12699999809E+01 0.  1.
</event>
<event>
 5   0  0.3626125E-06  0.1799820E+04  0.7818609E-02  0.8706395E-01
       -4   -1    0    0    0  501  0.00000000000E+00  0.00000000000E+00  0.15954970680E+04  0.15954975734E+04  0.12699999809E+01 0. -1.
        4   -1    0    0  501    0  0.00000000000E+00  0.00000000000E+00 -0.50757562637E+03  0.50757721519E+03  0.12699999809E+01 0.  1.
    10030    2    1    2    0    0  0.00000000000E+00  0.00000000000E+00  0.10879214416E+04  0.21030747886E+04  0.17998195752E+04 0.  0.
        1    1    3    3  502    0 -0.31055161918E+03  0.68889982013E+03 -0.27062990381E+02  0.75614659678E+03  0.50400001928E-02 0.  1.
       -1    1    3    3    0  502  0.31055161918E+03 -0.68889982013E+03  0.11149844320E+04  0.13469281918E+04  0.50400001928E-02 0. -1.
</event>
<event>
 5   0  0.1035018E-05  0.1801085E+04  0.7818609E-02  0.8705723E-01
       -2   -1    0    0    0  501  0.00000000000E+00  0.00000000000E+00  0.88355891866E+03  0.88355891867E+03  0.25500000920E-02 0. -1.
        2   -1    0    0  501    0  0.00000000000E+00  0.00000000000E+00 -0.91785213272E+03  0.91785213272E+03  0.25500000920E-02 0.  1.
    10030    2    1    2    0    0  0.00000000000E+00  0.00000000000E+00 -0.34293214056E+02  0.18014110514E+04  0.18010846042E+04 0.  0.
        3    1    3    3  502    0  0.23436312785E+03  0.29457918025E+03  0.80109302328E+03  0.88512881056E+03  0.10100000352E+00 0. -1.
       -3    1    3    3    0  502 -0.23436312785E+03 -0.29457918025E+03 -0.83538623734E+03  0.91628224083E+03  0.10100000352E+00 0.  1.
</event>
<event>
 5   0  0.1035018E-05  0.1800811E+04  0.7818609E-02  0.8705868E-01
       -2   -1    0    0    0  501  0.00000000000E+00  0.00000000000E+00  0.35511564074E+03  0.35511564075E+03  0.25500000920E-02 0.  1.
        2   -1    0    0  501    0  0.00000000000E+00  0.00000000000E+00 -0.22830031589E+04  0.22830031589E+04  0.25500000920E-02 0. -1.
    10030    2    1    2    0    0  0.00000000000E+00  0.00000000000E+00 -0.19278875181E+04  0.26381187996E+04  0.18008110724E+04 0.  0.
        3    1    3    3  502    0 -0.84795859330E+03  0.30218453916E+03 -0.99253295164E+03  0.13399518431E+04  0.10100000352E+00 0. -1.
       -3    1    3    3    0  502  0.84795859330E+03 -0.30218453916E+03 -0.93535456649E+03  0.12981669565E+04  0.10100000352E+00 0.  1.
</event>
<event>
 5   0  0.4981384E-06  0.1803607E+04  0.7818609E-02  0.8704384E-01
        1   -1    0    0  501    0  0.00000000000E+00  0.00000000000E+00  0.55431843300E+03  0.55431843302E+03  0.50400001928E-02 0. -1.
       -1   -1    0    0    0  501  0.00000000000E+00  0.00000000000E+00 -0.14671159589E+04  0.14671159589E+04  0.50400001928E-02 0.  1.
    10030    2    1    2    0    0  0.00000000000E+00  0.00000000000E+00 -0.91279752586E+03  0.20214343919E+04  0.18036068523E+04 0.  0.
        5    1    3    3  502    0 -0.62697584183E+03  0.43705085240E+03  0.80070324098E+02  0.76846958341E+03  0.46999998093E+01 0. -1.
       -5    1    3    3    0  502  0.62697584183E+03 -0.43705085240E+03 -0.99286784996E+03  0.12529648085E+04  0.46999998093E+01 0.  1.
</event>
<event>
 5   0  0.1000316E-05  0.1799778E+04  0.7818609E-02  0.8706418E-01
        2   -1    0    0  501    0  0.00000000000E+00  0.00000000000E+00  0.12371616633E+04  0.12371616633E+04  0.25500000920E-02 0.  1.
       -2   -1    0    0    0  501  0.00000000000E+00  0.00000000000E+00 -0.65456292885E+03  0.65456292886E+03  0.25500000920E-02 0. -1.
    10030    2    1    2    0    0  0.00000000000E+00  0.00000000000E+00  0.58259873444E+03  0.18917245922E+04  0.17997779439E+04 0.  0.
        5    1    3    3  502    0 -0.65007577914E+03 -0.52122989933E+03  0.64851297401E+03  0.10558741848E+04  0.46999998093E+01 0.  1.
       -5    1    3    3    0  502  0.65007577914E+03  0.52122989933E+03 -0.65914239570E+02  0.83585040740E+03  0.46999998093E+01 0. -1.
</event>
<event>
 5   0  0.1035018E-05  0.1800136E+04  0.7818609E-02  0.8706227E-01
        2   -1    0    0  501    0  0.00000000000E+00  0.00000000000E+00  0.13872512045E+04  0.13872512045E+04  0.25500000920E-02 0.  1.
       -2   -1    0    0    0  501  0.00000000000E+00  0.00000000000E+00 -0.58397642771E+03  0.58397642772E+03  0.25500000920E-02 0. -1.
    10030    2    1    2    0    0  0.00000000000E+00  0.00000000000E+00  0.80327477682E+03  0.19712276323E+04  0.18001355535E+04 0.  0.
        3    1    3    3  502    0 -0.74379013034E+03  0.11486928628E+03 -0.13894545406E+03  0.76532644037E+03  0.10100000352E+00 0. -1.
       -3    1    3    3    0  502  0.74379013034E+03 -0.11486928628E+03  0.94222023088E+03  0.12059011919E+04  0.10100000352E+00 0.  1.
</event>
<event>
 5   0  0.4987456E-06  0.1800477E+04  0.7818609E-02  0.8706046E-01
       -1   -1    0    0    0  501  0.00000000000E+00  0.00000000000E+00  0.10556031484E+04  0.10556031484E+04  0.50400001928E-02 0. -1.
        1   -1    0    0  501    0  0.00000000000E+00  0.00000000000E+00 -0.76774069830E+03  0.76774069831E+03  0.50400001928E-02 0.  1.
    10030    2    1    2    0    0  0.00000000000E+00  0.00000000000E+00  0.28786245012E+03  0.18233438468E+04  0.18004771571E+04 0.  0.
        3    1    3    3  502    0  0.80700359707E+03 -0.34811546117E+03 -0.53455239324E+02  0.88050931444E+03  0.10100000352E+00 0.  1.
       -3    1    3    3    0  502 -0.80700359707E+03  0.34811546117E+03  0.34131768945E+03  0.94283453232E+03  0.10100000352E+00 0. -1.
</event>
<event>
 5   0  0.4987456E-06  0.1800211E+04  0.7818609E-02  0.8706187E-01
        1   -1    0    0  501    0  0.00000000000E+00  0.00000000000E+00  0.20854500179E+04  0.20854500179E+04  0.50400001928E-02 0.  1.
       -1   -1    0    0    0  501  0.00000000000E+00  0.00000000000E+00 -0.38849640259E+03  0.38849640262E+03  0.50400001928E-02 0. -1.
    10030    2    1    2    0    0  0.00000000000E+00  0.00000000000E+00  0.16969536153E+04  0.24739464206E+04  0.18002109096E+04 0.  0.
        3    1    3    3  502    0  0.12582323740E+03 -0.87597875199E+03  0.10743714991E+04  0.13919211146E+04  0.10100000352E+00 0. -1.
       -3    1    3    3    0  502 -0.12582323740E+03  0.87597875199E+03  0.62258211620E+03  0.10820253059E+04  0.10100000352E+00 0.  1.
</event>
<event>
 5   0  0.4983159E-06  0.1800548E+04  0.7818609E-02  0.8706008E-01
        1   -1    0    0  501    0  0.00000000000E+00  0.00000000000E+00  0.13674027523E+04  0.13674027523E+04  0.50400001928E-02 0. -1.
       -1   -1    0    0    0  501  0.00000000000E+00  0.00000000000E+00 -0.59272439484E+03  0.59272439486E+03  0.50400001928E-02 0.  1.
    10030    2    1    2    0    0  0.00000000000E+00  0.00000000000E+00  0.77467835747E+03  0.19601271472E+04  0.18005476599E+04 0.  0.
        4    1    3    3  502    0 -0.99613889810E+02  0.70251702850E+03  0.99055936399E+03  0.12184673032E+04  0.12699999809E+01 0. -1.
       -4    1    3    3    0  502  0.99613889810E+02 -0.70251702850E+03 -0.21588100652E+03  0.74165984403E+03  0.12699999809E+01 0.  1.
</event>
<event>
 5   0  0.9999162E-06  0.1798969E+04  0.7818609E-02  0.8706848E-01
        2   -1    0    0  501    0  0.00000000000E+00  0.00000000000E+00  0.81836556385E+03  0.81836556385E+03  0.25500000920E-02 0.  1.
       -2   -1    0    0    0  501  0.00000000000E+00  0.00000000000E+00 -0.98864391108E+03  0.98864391108E+03  0.25500000920E-02 0. -1.
    10030    2    1    2    0    0  0.00000000000E+00  0.00000000000E+00 -0.17027834723E+03  0.18070094749E+04  0.17989687399E+04 0.  0.
        1    1    3    3  502    0 -0.83127192705E+02  0.55545733472E+03 -0.79086695219E+03  0.97000696748E+03  0.50400001928E-02 0. -1.
       -1    1    3    3    0  502  0.83127192705E+02 -0.55545733472E+03  0.62058860496E+03  0.83700250746E+03  0.50400001928E-02 0.  1.
</event>
<event>
 5   0  0.3626125E-06  0.1801957E+04  0.7818609E-02  0.8705260E-01
       -4   -1    0    0    0  501  0.00000000000E+00  0.00000000000E+00  0.18039386721E+04  0.18039391191E+04  0.12699999809E+01 0. -1.
        4   -1    0    0  501    0  0.00000000000E+00  0.00000000000E+00 -0.44999275811E+03  0.44999455025E+03  0.12699999809E+01 0.  1.
    10030    2    1    2    0    0  0.00000000000E+00  0.00000000000E+00  0.13539459139E+04  0.22539336694E+04  0.18019565611E+04 0.  0.
        4    1    3    3  502    0  0.13335229840E+03 -0.82559121257E+03  0.10962824424E+04  0.13788475232E+04  0.12699999809E+01 0. -1.
       -4    1    3    3    0  502 -0.13335229840E+03  0.82559121257E+03  0.25766347155E+03  0.87508614618E+03  0.12699999809E+01 0.  1.
</event>
<event>
 5   0  0.9589963E-06  0.1799892E+04  0.7818609E-02  0.8706357E-01
       -2   -1    0    0    0  501  0.00000000000E+00  0.00000000000E+00  0.35067250701E+03  0.35067250702E+03  0.25500000920E-02 0.  1.
        2   -1    0    0  501    0  0.00000000000E+00  0.00000000000E+00 -0.23095711048E+04  0.23095711048E+04  0.25500000920E-02 0. -1.
    10030    2    1    2    0    0  0.00000000000E+00  0.00000000000E+00 -0.19588985978E+04  0.26602436118E+04  0.17998923184E+04 0.  0.
        2    1    3    3  502    0 -0.27578339972E+03 -0.34418581063E+03  0.17998872457E+03  0.47635732048E+03  0.25500000920E-02 0.  1.
       -2    1    3    3    0  502  0.27578339972E+03  0.34418581063E+03 -0.21388873224E+04  0.21838862914E+04  0.25500000920E-02 0. -1.
</event>
<event>
 5   0  0.1035018E-05  0.1800283E+04  0.7818609E-02  0.8706149E-01
       -2   -1    0    0    0  501  0.00000000000E+00  0.00000000000E+00  0.67952546623E+03  0.67952546624E+03  0.25500000920E-02 0. -1.
        2   -1    0    0  501    0  0.00000000000E+00  0.00000000000E+00 -0.11923826567E+04  0.11923826567E+04  0.25500000920E-02 0.  1.
    10030    2    1    2    0    0  0.00000000000E+00  0.00000000000E+00 -0.51285719048E+03  0.18719081229E+04  0.18002826231E+04 0.  0.
        3    1    3    3  502    0 -0.70934662415E+03 -0.10095148108E+03 -0.82298351619E+03  0.10911762978E+04  0.10100000352E+00 0.  1.
       -3    1    3    3    0  502  0.70934662415E+03  0.10095148108E+03  0.31012632571E+03  0.78073182516E+03  0.10100000352E+00 0. -1.
</event>
<event>
 5   0  0.4953155E-06  0.1800616E+04  0.7818609E-02  0.8705972E-01
        1   -1    0    0  501    0  0.00000000000E+00  0.00000000000E+00  0.64179935714E+03  0.64179935716E+03  0.50400001928E-02 0. -1.
       -1   -1    0    0    0  501  0.00000000000E+00  0.00000000000E+00 -0.12629407248E+04  0.12629407248E+04  0.50400001928E-02 0.  1.
    10030    2    1    2    0    0  0.00000000000E+00  0.00000000000E+00 -0.62114136766E+03  0.19047400820E+04  0.18006160560E+04 0.  0.
        2    1    3    3  502    0  0.60603828559E+03  0.35551931555E+03 -0.90604187453E+03  0.11465549554E+04  0.25500000920E-02 0.  1.
       -2    1    3    3    0  502 -0.60603828559E+03 -0.35551931555E+03  0.28490050687E+03  0.75818512657E+03  0.25500000920E-02 0. -1.
</event>
<event>
 5   0  0.4994123E-06  0.1799512E+04  0.7818609E-02  0.8706559E-01
        1   -1    0    0  501    0  0.00000000000E+00  0.00000000000E+00  0.10015609813E+04  0.10015609814E+04  0.50400001928E-02 0. -1.
       -1   -1    0    0    0  501  0.00000000000E+00  0.00000000000E+00 -0.80829872340E+03  0.80829872342E+03  0.50400001928E-02 0.  1.
    10030    2    1    2    0    0  0.00000000000E+00  0.00000000000E+00  0.19326225794E+03  0.18098597048E+04  0.17995115589E+04 0.  0.
        1    1    3    3  502    0 -0.38556564812E+03  0.76234237690E+03  0.38062646827E+03  0.93525572813E+03  0.50400001928E-02 0. -1.
       -1    1    3    3    0  502  0.38556564812E+03 -0.76234237690E+03 -0.18736421033E+03  0.87460397664E+03  0.50400001928E-02 0.  1.
</event>
<event>
 5   0  0.1035018E-05  0.1800088E+04  0.7818609E-02  0.8706253E-01
       -2   -1    0    0    0  501  0.00000000000E+00  0.00000000000E+00  0.39558472749E+03  0.39558472750E+03  0.25500000920E-02 0. -1.
        2   -1    0    0  501    0  0.00000000000E+00  0.00000000000E+00 -0.20478012529E+04  0.20478012529E+04  0.25500000920E-02 0.  1.
    10030    2    1    2    0    0  0.00000000000E+00  0.00000000000E+00 -0.16522165254E+04  0.24433859804E+04  0.18000876652E+04 0.  0.
        3    1    3    3  502    0  0.21274654880E+03 -0.28319533569E+03 -0.19492191604E+04  0.19811400853E+04  0.10100000352E+00 0.  1.
       -3    1    3    3    0  502 -0.21274654880E+03  0.28319533569E+03  0.29700263496E+03  0.46224589512E+03  0.10100000352E+00 0. -1.
</event>
<event>
 5   0  0.1000316E-05  0.1799568E+04  0.7818609E-02  0.8706529E-01
       -2   -1    0    0    0  501  0.00000000000E+00  0.00000000000E+00  0.39600874603E+03  0.39600874604E+03  0.25500000920E-02 0.  1.
        2   -1    0    0  501    0  0.00000000000E+00  0.00000000000E+00 -0.20444279552E+04  0.20444279552E+04  0.25500000920E-02 0. -1.
    10030    2    1    2    0    0  0.00000000000E+00  0.00000000000E+00 -0.16484192092E+04  0.24404367013E+04  0.17995681159E+04 0.  0.
        5    1    3    3  502    0  0.40169375105E+02  0.23052173687E+03  0.35400768275E+03  0.42437881582E+03  0.46999998093E+01 0.  1.
       -5    1    3    3    0  502 -0.40169375105E+02 -0.23052173687E+03 -0.20024268920E+04  0.20160578855E+04  0.46999998093E+01 0. -1.
</event>
<event>
 5   0  0.4987456E-06  0.1800037E+04  0.7818609E-02  0.8706280E-01
        1   -1    0    0  501    0  0.00000000000E+00  0.00000000000E+00  0.12129198994E+04  0.12129198994E+04  0.50400001928E-02 0. -1.
       -1   -1    0    0    0  501  0.00000000000E+00  0.00000000000E+00 -0.66783758712E+03  0.66783758714E+03  0.50400001928E-02 0.  1.
    10030    2    1    2    0    0  0.00000000000E+00  0.00000000000E+00  0.54508231223E+03  0.18807574865E+04  0.18000372207E+04 0.  0.
        3    1    3    3  502    0  0.74152606353E+03 -0.50195195019E+03  0.17782951796E+03  0.91292935699E+03  0.10100000352E+00 0. -1.
       -3    1    3    3    0  502 -0.74152606353E+03  0.50195195019E+03  0.36725279427E+03  0.96782812952E+03  0.10100000352E+00 0.  1.
</event>
<event>
 5   0  0.4983159E-06  0.1800370E+04  0.7818609E-02  0.8706103E-01
       -1   -1    0    0    0  501  0.00000000000E+00  0.00000000000E+00  0.37489458112E+03  0.37489458116E+03  0.50400001928E-02 0. -1.
        1   -1    0    0  501    0  0.00000000000E+00  0.00000000000E+00 -0.21614966856E+04  0.21614966856E+04  0.50400001928E-02 0.  1.
    10030    2    1    2    0    0  0.00000000000E+00  0.00000000000E+00 -0.17866021044E+04  0.25363912667E+04  0.18003704003E+04 0.  0.
        4    1    3    3  502    0  0.67544415967E+03  0.20598482177E+03 -0.10678621967E+03  0.71418447844E+03  0.12699999809E+01 0. -1.
       -4    1    3    3    0  502 -0.67544415967E+03 -0.20598482177E+03 -0.16798158848E+04  0.18222067883E+04  0.12699999809E+01 0.  1.
</event>
<event>
 5   0  0.4953155E-06  0.1799713E+04  0.7818609E-02  0.8706452E-01
        1   -1    0    0  501    0  0.00000000000E+00  0.00000000000E+00  0.69834515209E+03  0.69834515211E+03  0.50400001928E-02 0.  1.
       -1   -1    0    0    0  501  0.00000000000E+00  0.00000000000E+00 -0.11595148662E+04  0.11595148662E+04  0.50400001928E-02 0. -1.
    10030    2    1    2    0    0  0.00000000000E+00  0.00000000000E+00 -0.46116971411E+03  0.18578600183E+04  0.17997128500E+04 0.  0.
        2    1    3    3  502    0  0.61780749871E+03  0.59472728336E+03 -0.51207596520E+03  0.99880350479E+03  0.25500000920E-02 0. -1.
       -2    1    3    3    0  502 -0.61780749871E+03 -0.59472728336E+03  0.50906251098E+02  0.85905651353E+03  0.25500000920E-02 0.  1.
</event>
<event>
 5   0  0.1036381E-05  0.1800190E+04  0.7818609E-02  0.8706199E-01
       -2   -1    0    0    0  501  0.00000000000E+00  0.00000000000E+00  0.79748884610E+03  0.79748884611E+03  0.25500000920E-02 0. -1.
        2   -1    0    0  501    0  0.00000000000E+00  0.00000000000E+00 -0.10159023482E+04  0.10159023482E+04  0.25500000920E-02 0.  1.
    10030    2    1    2    0    0  0.00000000000E+00  0.00000000000E+00 -0.21841350208E+03  0.18133911943E+04  0.18001897582E+04 0.  0.
        4    1    3    3  502    0  0.22516153413E+02 -0.12062670452E+03 -0.10074360270E+04  0.10148826240E+04  0.12699999809E+01 0.  1.
       -4    1    3    3    0  502 -0.22516153413E+02  0.12062670452E+03  0.78902252497E+03  0.79850857029E+03  0.12699999809E+01 0. -1.
</event>
<event>
 5   0  0.4981384E-06  0.1800054E+04  0.7818609E-02  0.8706271E-01
       -1   -1    0    0    0  501  0.00000000000E+00  0.00000000000E+00  0.39890974511E+03  0.39890974514E+03  0.50400001928E-02 0. -1.
        1   -1    0    0  501    0  0.00000000000E+00  0.00000000000E+00 -0.20306569898E+04  0.20306569898E+04  0.50400001928E-02 0.  1.
    10030    2    1    2    0    0  0.00000000000E+00  0.00000000000E+00 -0.16317472447E+04  0.24295667350E+04  0.18000542906E+04 0.  0.
        5    1    3    3  502    0 -0.32860343584E+03  0.23529143752E+02 -0.19463327873E+04  0.19740231122E+04  0.46999998093E+01 0.  1.
       -5    1    3    3    0  502  0.32860343584E+03 -0.23529143752E+02  0.31458554257E+03  0.45554362277E+03  0.46999998093E+01 0. -1.
</event>
<event>
 5   0  0.1000316E-05  0.1799182E+04  0.7818609E-02  0.8706734E-01
       -2   -1    0    0    0  501  0.00000000000E+00  0.00000000000E+00  0.85645147609E+03  0.85645147609E+03  0.25500000920E-02 0.  1.
        2   -1    0    0  501    0  0.00000000000E+00  0.00000000000E+00 -0.94490377143E+03  0.94490377144E+03  0.25500000920E-02 0. -1.
    10030    2    1    2    0    0  0.00000000000E+00  0.00000000000E+00 -0.88452295346E+02  0.18013552475E+04  0.17991822918E+04 0.  0.
        5    1    3    3  502    0 -0.44640788016E+03 -0.76414737540E+03  0.11734078170E+03  0.89274417156E+03  0.46999998093E+01 0.  1.
       -5    1    3    3    0  502  0.44640788016E+03  0.76414737540E+03 -0.20579307705E+03  0.90861107597E+03  0.46999998093E+01 0. -1.
</event>
<event>
 5   0  0.4953155E-06  0.1800645E+04  0.7818609E-02  0.8705956E-01
       -1   -1    0    0    0  501  0.00000000000E+00  0.00000000000E+00  0.49400762592E+03  0.49400762594E+03  0.50400001928E-02 0.  1.
        1   -1    0    0  501    0  0.00000000000E+00  0.00000000000E+00 -0.16408267620E+04  0.16408267620E+04  0.50400001928E-02 0. -1.
    10030    2    1    2    0    0  0.00000000000E+00  0.00000000000E+00 -0.11468191361E+04  0.21348343880E+04  0.18006453657E+04 0.  0.
        2    1    3    3  502    0  0.25239580095E+03 -0.64498008784E+03  0.10856775611E+03  0.70106341491E+03  0.25500000920E-02 0.  1.
       -2    1    3    3    0  502 -0.25239580095E+03  0.64498008784E+03 -0.12553868922E+04  0.14337709731E+04  0.25500000920E-02 0. -1.
</event>
<event>
 5   0  0.9999162E-06  0.1798435E+04  0.7818609E-02  0.8707132E-01
        2   -1    0    0  501    0  0.00000000000E+00  0.00000000000E+00  0.90337060170E+03  0.90337060171E+03  0.25500000920E-02 0.  1.
       -2   -1    0    0    0  501  0.00000000000E+00  0.00000000000E+00 -0.89508383078E+03  0.89508383078E+03  0.25500000920E-02 0. -1.
    10030    2    1    2    0    0  0.00000000000E+00  0.00000000000E+00  0.82867709286E+01  0.17984544325E+04  0.17984353408E+04 0.  0.
        1    1    3    3  502    0 -0.47269945552E+03 -0.26887453240E+03 -0.71200256196E+03  0.89592741764E+03  0.50400001928E-02 0. -1.
       -1    1    3    3    0  502  0.47269945552E+03  0.26887453240E+03  0.72028933289E+03  0.90252701484E+03  0.50400001928E-02 0.  1.
</event>
<event>
 5   0  0.4981384E-06  0.1799876E+04  0.7818609E-02  0.8706366E-01
        1   -1    0    0  501    0  0.00000000000E+00  0.00000000000E+00  0.20238087848E+04  0.20238087849E+04  0.50400001928E-02 0. -1.
       -1   -1    0    0    0  501  0.00000000000E+00  0.00000000000E+00 -0.40018009818E+03  0.40018009821E+03  0.50400001928E-02 0.  1.
    10030    2    1    2    0    0  0.00000000000E+00  0.00000000000E+00  0.16236286867E+04  0.24239888831E+04  0.17998755493E+04 0.  0.
        5    1    3    3  502    0 -0.44119311145E+03 -0.76815649936E+03  0.59823544465E+03  0.10689356886E+04  0.46999998093E+01 0.  1.
       -5    1    3    3    0  502  0.44119311145E+03  0.76815649936E+03  0.10253932420E+04  0.13550531945E+04  0.46999998093E+01 0. -1.
</event>
<event>
 5   0  0.4953155E-06  0.1801327E+04  0.7818609E-02  0.8705594E-01
        1   -1    0    0  501    0  0.00000000000E+00  0.00000000000E+00  0.10040445379E+04  0.10040445379E+04  0.50400001928E-02 0. -1.
       -1   -1    0    0    0  501  0.00000000000E+00  0.00000000000E+00 -0.80792728312E+03  0.80792728314E+03  0.50400001928E-02 0.  1.
    10030    2    1    2    0    0  0.00000000000E+00  0.00000000000E+00  0.19611725479E+03  0.18119718211E+04  0.18013272614E+04 0.  0.
        2    1    3    3  502    0  0.36863608808E+03  0.67302682704E+03  0.57237157690E+03  0.95732277597E+03  0.25500000920E-02 0. -1.
       -2    1    3    3    0  502 -0.36863608808E+03 -0.67302682704E+03 -0.37625432211E+03  0.85464904509E+03  0.25500000920E-02 0.  1.
</event>
<event>
 5   0  0.9589963E-06  0.1799311E+04  0.7818609E-02  0.8706666E-01
        2   -1    0    0  501    0  0.00000000000E+00  0.00000000000E+00  0.19837080188E+04  0.19837080188E+04  0.25500000920E-02 0. -1.
       -2   -1    0    0    0  501  0.00000000000E+00  0.00000000000E+00 -0.40801372636E+03  0.40801372637E+03  0.25500000920E-02 0.  1.
    10030    2    1    2    0    0  0.00000000000E+00  0.00000000000E+00  0.15756942924E+04  0.23917217452E+04  0.17993110913E+04 0.  0.
        2    1    3    3  502    0  0.17695839827E+03  0.29388586006E+03  0.18933562372E+04  0.19241832071E+04  0.25500000920E-02 0. -1.
       -2    1    3    3    0  502 -0.17695839827E+03 -0.29388586006E+03 -0.31766194475E+03  0.46753853810E+03  0.25500000920E-02 0.  1.
</event>
<event>
 5   0  0.9589963E-06  0.1799868E+04  0.7818609E-02  0.8706370E-01
        2   -1    0    0  501    0  0.00000000000E+00  0.00000000000E+00  0.15135061493E+04  0.15135061493E+04  0.25500000920E-02 0.  1.
       -2   -1    0    0    0  501  0.00000000000E+00  0.00000000000E+00 -0.53510240991E+03  0.53510240991E+03  0.25500000920E-02 0. -1.
    10030    2    1    2    0    0  0.00000000000E+00  0.00000000000E+00  0.97840373940E+03  0.20486085592E+04  0.17998675372E+04 0.  0.
        2    1    3    3  502    0 -0.34552436083E+03 -0.29524747687E+03  0.13732852922E+04  0.14465374693E+04  0.25500000920E-02 0.  1.
       -2    1    3    3    0  502  0.34552436083E+03  0.29524747687E+03 -0.39488155278E+03  0.60207108987E+03  0.25500000920E-02 0. -1.
</event>
<event>
 5   0  0.1036381E-05  0.1799724E+04  0.7818609E-02  0.8706446E-01
       -2   -1    0    0    0  501  0.00000000000E+00  0.00000000000E+00  0.38400162355E+03  0.38400162356E+03  0.25500000920E-02 0. -1.
        2   -1    0    0  501    0  0.00000000000E+00  0.00000000000E+00 -0.21087188676E+04  0.21087188676E+04  0.25500000920E-02 0.  1.
    10030    2    1    2    0    0  0.00000000000E+00  0.00000000000E+00 -0.17247172440E+04  0.24927204911E+04  0.17997238330E+04 0.  0.
        4    1    3    3  502    0  0.22206189132E+03 -0.87009208387E-01 -0.20701716938E+04  0.20820480171E+04  0.12699999809E+01 0.  1.
       -4    1    3    3    0  502 -0.22206189132E+03  0.87009208387E-01  0.34545444974E+03  0.41067247399E+03  0.12699999809E+01 0. -1.
</event>
<event>
 5   0  0.9589963E-06  0.1799616E+04  0.7818609E-02  0.8706504E-01
       -2   -1    0    0    0  501  0.00000000000E+00  0.00000000000E+00  0.67723857536E+03  0.67723857536E+03  0.25500000920E-02 0. -1.
        2   -1    0    0  501    0  0.00000000000E+00  0.00000000000E+00 -0.11955237123E+04  0.11955237123E+04  0.25500000920E-02 0.  1.
    10030    2    1    2    0    0  0.00000000000E+00  0.00000000000E+00 -0.51828513698E+03  0.18727622877E+04  0.17996163766E+04 0.  0.
        2    1    3    3  502    0  0.37197270389E+03 -0.31547451816E+03  0.52774417365E+03  0.71861100526E+03  0.25500000920E-02 0. -1.
       -2    1    3    3    0  502 -0.37197270389E+03  0.31547451816E+03 -0.10460293106E+04  0.11541512824E+04  0.25500000920E-02 0.  1.
</event>
<event>
 5   0  0.9589963E-06  0.1799568E+04  0.7818609E-02  0.8706529E-01
        2   -1    0    0  501    0  0.00000000000E+00  0.00000000000E+00  0.97870204544E+03  0.97870204544E+03  0.25500000920E-02 0.  1.
       -2   -1    0    0    0  501  0.00000000000E+00  0.00000000000E+00 -0.82722986882E+03  0.82722986883E+03  0.25500000920E-02 0. -1.
    10030    2    1    2    0    0  0.00000000000E+00  0.00000000000E+00  0.15147217662E+03  0.18059319143E+04  0.17995683534E+04 0.  0.
        2    1    3    3  502    0  0.30566043100E+03 -0.55153352225E+03  0.71987345292E+03  0.95699284923E+03  0.25500000920E-02 0.  1.
       -2    1    3    3    0  502 -0.30566043100E+03  0.55153352225E+03 -0.56840127630E+03  0.84893906504E+03  0.25500000920E-02 0. -1.
</event>
<event>
 5   0  0.1035018E-05  0.1801558E+04  0.7818609E-02  0.8705471E-01
        2   -1    0    0  501    0  0.00000000000E+00  0.00000000000E+00  0.74387762733E+03  0.74387762734E+03  0.25500000920E-02 0. -1.
       -2   -1    0    0    0  501  0.00000000000E+00  0.00000000000E+00 -0.10907750496E+04  0.10907750496E+04  0.25500000920E-02 0.  1.
    10030    2    1    2    0    0  0.00000000000E+00  0.00000000000E+00 -0.34689742228E+03  0.18346526770E+04  0.18015583875E+04 0.  0.
        3    1    3    3  502    0  0.89646795201E+03  0.87359919728E+02 -0.16245215076E+03  0.91524710108E+03  0.10100000352E+00 0. -1.
       -3    1    3    3    0  502 -0.89646795201E+03 -0.87359919728E+02 -0.18444527152E+03  0.91940557587E+03  0.10100000352E+00 0.  1.
</event>
<event>
 5   0  0.4983159E-06  0.1796835E+04  0.7818609E-02  0.8707984E-01
        1   -1    0    0  501    0  0.00000000000E+00  0.00000000000E+00  0.82461964848E+03  0.82461964849E+03  0.50400001928E-02 0.  1.
       -1   -1    0    0    0  501  0.00000000000E+00  0.00000000000E+00 -0.97881960053E+03  0.97881960055E+03  0.50400001928E-02 0. -1.
    10030    2    1    2    0    0  0.00000000000E+00  0.00000000000E+00 -0.15419995206E+03  0.18034392490E+04  0.17968348560E+04 0.  0.
        4    1    3    3  502    0 -0.36215072699E+02  0.39711717597E+02 -0.97720376520E+03  0.97868144134E+03  0.12699999809E+01 0. -1.
       -4    1    3    3    0  502  0.36215072699E+02 -0.39711717597E+02  0.82300381314E+03  0.82475780770E+03  0.12699999809E+01 0.  1.
</event>
<event>
 5   0  0.4994123E-06  0.1802952E+04  0.7818609E-02  0.8704731E-01
       -1   -1    0    0    0  501  0.00000000000E+00  0.00000000000E+00  0.69194409876E+03  0.69194409877E+03  0.50400001928E-02 0.  1.
        1   -1    0    0  501    0  0.00000000000E+00  0.00000000000E+00 -0.11744576566E+04  0.11744576566E+04  0.50400001928E-02 0. -1.
    10030    2    1    2    0    0  0.00000000000E+00  0.00000000000E+00 -0.48251355781E+03  0.18664017554E+04  0.18029520734E+04 0.  0.
        1    1    3    3  502    0  0.80813733863E+03 -0.61401173264E+02  0.16735307475E+03  0.82756456777E+03  0.50400001928E-02 0.  1.
       -1    1    3    3    0  502 -0.80813733863E+03  0.61401173264E+02 -0.64986663257E+03  0.10388371876E+04  0.50400001928E-02 0. -1.
</event>
<event>
 5   0  0.4987456E-06  0.1798889E+04  0.7818609E-02  0.8706890E-01
       -1   -1    0    0    0  501  0.00000000000E+00  0.00000000000E+00  0.46732658530E+03  0.46732658533E+03  0.50400001928E-02 0. -1.
        1   -1    0    0  501    0  0.00000000000E+00  0.00000000000E+00 -0.17311245382E+04  0.17311245382E+04  0.50400001928E-02 0.  1.
    10030    2    1    2    0    0  0.00000000000E+00  0.00000000000E+00 -0.12637979529E+04  0.21984511235E+04  0.17988891230E+04 0.  0.
        3    1    3    3  502    0  0.72385650838E+03 -0.43361981431E+03 -0.25126111203E+03  0.88041271271E+03  0.10100000352E+00 0. -1.
       -3    1    3    3    0  502 -0.72385650838E+03  0.43361981431E+03 -0.10125368409E+04  0.13180384108E+04  0.10100000352E+00 0.  1.
</event>
<event>
 5   0  0.4953155E-06  0.1797385E+04  0.7818609E-02  0.8707691E-01
       -1   -1    0    0    0  501  0.00000000000E+00  0.00000000000E+00  0.16436806386E+04  0.16436806386E+04  0.50400001928E-02 0.  1.
        1   -1    0    0  501    0  0.00000000000E+00  0.00000000000E+00 -0.49136574844E+03  0.49136574847E+03  0.50400001928E-02 0. -1.
    10030    2    1    2    0    0  0.00000000000E+00  0.00000000000E+00  0.11523148901E+04  0.21350463871E+04  0.17973851754E+04 0.  0.
        2    1    3    3  502    0 -0.26318509312E+03 -0.32290087199E+03  0.15220697134E+04  0.15780454933E+04  0.25500000920E-02 0.  1.
       -2    1    3    3    0  502  0.26318509312E+03  0.32290087199E+03 -0.36975482325E+03  0.55700089380E+03  0.25500000920E-02 0. -1.
</event>
<event>
 5   0  0.4987456E-06  0.1799756E+04  0.7818609E-02  0.8706429E-01
       -1   -1    0    0    0  501  0.00000000000E+00  0.00000000000E+00  0.91921312210E+03  0.91921312212E+03  0.50400001928E-02 0.  1.
        1   -1    0    0  501    0  0.00000000000E+00  0.00000000000E+00 -0.88094950265E+03  0.88094950267E+03  0.50400001928E-02 0. -1.
    10030    2    1    2    0    0  0.00000000000E+00  0.00000000000E+00  0.38263619448E+02  0.18001626248E+04  0.17997559199E+04 0.  0.
        3    1    3    3  502    0  0.31615505365E+02 -0.85592349032E+02  0.91457416136E+03  0.91911451801E+03  0.10100000352E+00 0.  1.
       -3    1    3    3    0  502 -0.31615505365E+02  0.85592349032E+02 -0.87631054191E+03  0.88104810678E+03  0.10100000352E+00 0. -1.
</event>
<event>
 5   0  0.1036381E-05  0.1799566E+04  0.7818609E-02  0.8706530E-01
       -2   -1    0    0    0  501  0.00000000000E+00  0.00000000000E+00  0.47731519553E+03  0.47731519554E+03  0.25500000920E-02 0. -1.
        2   -1    0    0  501    0  0.00000000000E+00  0.00000000000E+00 -0.16961744388E+04  0.16961744388E+04  0.25500000920E-02 0.  1.
    10030    2    1    2    0    0  0.00000000000E+00  0.00000000000E+00 -0.12188592433E+04  0.21734896343E+04  0.17995664299E+04 0.  0.
        4    1    3    3  502    0  0.27327291557E+03  0.68315994181E+03  0.16084901308E+02  0.73596598388E+03  0.12699999809E+01 0. -1.
       -4    1    3    3    0  502 -0.27327291557E+03 -0.68315994181E+03 -0.12349441446E+04  0.14375236505E+04  0.12699999809E+01 0.  1.
</event>
<event>
 5   0  0.1036381E-05  0.1800019E+04  0.7818609E-02  0.8706289E-01
        2   -1    0    0  501    0  0.00000000000E+00  0.00000000000E+00  0.11701849535E+04  0.11701849536E+04  0.25500000920E-02 0.  1.
       -2   -1    0    0    0  501  0.00000000000E+00  0.00000000000E+00 -0.69221289481E+03  0.69221289482E+03  0.25500000920E-02 0. -1.
    10030    2    1    2    0    0  0.00000000000E+00  0.00000000000E+00  0.47797205874E+03  0.18623978484E+04  0.18000190156E+04 0.  0.
        4    1    3    3  502    0  0.49406830005E+03  0.75087150219E+03  0.19152702958E+03  0.91901888658E+03  0.12699999809E+01 0. -1.
       -4    1    3    3    0  502 -0.49406830005E+03 -0.75087150219E+03  0.28644502916E+03  0.94337896179E+03  0.12699999809E+01 0.  1.
</event>
<event>
 5   0  0.9589963E-06  0.1799600E+04  0.7818609E-02  0.8706512E-01
        2   -1    0    0  501    0  0.00000000000E+00  0.00000000000E+00  0.54669485239E+03  0.54669485239E+03  0.25500000920E-02 0.  1.
       -2   -1    0    0    0  501  0.00000000000E+00  0.00000000000E+00 -0.14809719281E+04  0.14809719281E+04  0.25500000920E-02 0. -1.
    10030    2    1    2    0    0  0.00000000000E+00  0.00000000000E+00 -0.93427707574E+03  0.20276667805E+04  0.17995996551E+04 0.  0.
        2    1    3    3  502    0  0.30716636900E+02 -0.72843983828E+03 -0.10612925283E+04  0.12875985168E+04  0.25500000920E-02 0. -1.
       -2    1    3    3    0  502 -0.30716636900E+02  0.72843983828E+03  0.12701545259E+03  0.74006826372E+03  0.25500000920E-02 0.  1.
</event>
<event>
 5   0  0.3626125E-06  0.1800453E+04  0.7818609E-02  0.8706059E-01
       -3   -1    0    0    0  501  0.00000000000E+00  0.00000000000E+00  0.19953878556E+04  0.19953878581E+04  0.10100000352E+00 0. -1.
        3   -1    0    0  501    0  0.00000000000E+00  0.00000000000E+00 -0.40614047221E+03  0.40614048477E+03  0.10100000352E+00 0.  1.
    10030    2    1    2    0    0  0.00000000000E+00  0.00000000000E+00  0.15892473834E+04  0.24015283429E+04  0.18004530364E+04 0.  0.
        4    1    3    3  502    0 -0.69649855756E+03  0.49937169593E+03  0.42709182446E+03  0.95754444848E+03  0.12699999809E+01 0.  1.
       -4    1    3    3    0  502  0.69649855756E+03 -0.49937169593E+03  0.11621555589E+04  0.14439838944E+04  0.12699999809E+01 0. -1.
</event>
<event>
 5   0  0.4983159E-06  0.1801017E+04  0.7818609E-02  0.8705759E-01
       -1   -1    0    0    0  501  0.00000000000E+00  0.00000000000E+00  0.46915347722E+03  0.46915347724E+03  0.50400001928E-02 0. -1.
        1   -1    0    0  501    0  0.00000000000E+00  0.00000000000E+00 -0.17284657162E+04  0.17284657162E+04  0.50400001928E-02 0.  1.
    10030    2    1    2    0    0  0.00000000000E+00  0.00000000000E+00 -0.12593122390E+04  0.21976191935E+04  0.18010171582E+04 0.  0.
        4    1    3    3  502    0  0.38844320796E+03  0.37019561044E+03 -0.15120807388E+04  0.16044695975E+04  0.12699999809E+01 0.  1.
       -4    1    3    3    0  502 -0.38844320796E+03 -0.37019561044E+03  0.25276849979E+03  0.59314959596E+03  0.12699999809E+01 0. -1.
</event>
<event>
 5   0  0.4987456E-06  0.1799638E+04  0.7818609E-02  0.8706492E-01
        1   -1    0    0  501    0  0.00000000000E+00  0.00000000000E+00  0.65658603096E+03  0.65658603098E+03  0.50400001928E-02 0.  1.
       -1   -1    0    0    0  501  0.00000000000E+00  0.00000000000E+00 -0.12331583406E+04  0.12331583406E+04  0.50400001928E-02 0. -1.
    10030    2    1    2    0    0  0.00000000000E+00  0.00000000000E+00 -0.57657230968E+03  0.18897443716E+04  0.17996383419E+04 0.  0.
        3    1    3    3  502    0  0.42328757435E+02 -0.57050560984E+03 -0.10176164328E+04  0.11673952155E+04  0.10100000352E+00 0. -1.
       -3    1    3    3    0  502 -0.42328757435E+02  0.57050560984E+03  0.44104412317E+03  0.72234915613E+03  0.10100000352E+00 0.  1.
</event>
<event>
 5   0  0.4983159E-06  0.1799439E+04  0.7818609E-02  0.8706598E-01
       -1   -1    0    0    0  501  0.00000000000E+00  0.00000000000E+00  0.85733547425E+03  0.85733547427E+03  0.50400001928E-02 0. -1.
        1   -1    0    0  501    0  0.00000000000E+00  0.00000000000E+00 -0.94419937531E+03  0.94419937533E+03  0.50400001928E-02 0.  1.
    10030    2    1    2    0    0  0.00000000000E+00  0.00000000000E+00 -0.86863901060E+02  0.18015348496E+04  0.17994394897E+04 0.  0.
        4    1    3    3  502    0  0.71942668335E+03  0.44202099321E+03  0.26763339739E+03  0.88576890861E+03  0.12699999809E+01 0. -1.
       -4    1    3    3    0  502 -0.71942668335E+03 -0.44202099321E+03 -0.35449729845E+03  0.91576594098E+03  0.12699999809E+01 0.  1.
</event>
<event>
 5   0  0.4983159E-06  0.1799672E+04  0.7818609E-02  0.8706474E-01
        1   -1    0    0  501    0  0.00000000000E+00  0.00000000000E+00  0.18025620544E+04  0.18025620544E+04  0.50400001928E-02 0.  1.
       -1   -1    0    0    0  501  0.00000000000E+00  0.00000000000E+00 -0.44919672474E+03  0.44919672477E+03  0.50400001928E-02 0. -1.
    10030    2    1    2    0    0  0.00000000000E+00  0.00000000000E+00  0.13533653296E+04  0.22517587791E+04  0.17996721601E+04 0.  0.
        4    1    3    3  502    0  0.33018614632E+03  0.83570921424E+03  0.61706204341E+03  0.10900458524E+04  0.12699999809E+01 0.  1.
       -4    1    3    3    0  502 -0.33018614632E+03 -0.83570921424E+03  0.73630328621E+03  0.11617129267E+04  0.12699999809E+01 0. -1.
</event>
<event>
 5   0  0.9999162E-06  0.1810669E+04  0.7818609E-02  0.8700646E-01
        2   -1    0    0  501    0  0.00000000000E+00  0.00000000000E+00  0.82345538162E+03  0.82345538163E+03  0.25500000920E-02 0. -1.
       -2   -1    0    0    0  501  0.00000000000E+00  0.00000000000E+00 -0.99535510454E+03  0.99535510454E+03  0.25500000920E-02 0.  1.
    10030    2    1    2    0    0  0.00000000000E+00  0.00000000000E+00 -0.17189972292E+03  0.18188104862E+04  0.18106689565E+04 0.  0.
        1    1    3    3  502    0 -0.50119714090E+03 -0.32660038739E+03 -0.76853761257E+03  0.97391809155E+03  0.50400001928E-02 0.  1.
       -1    1    3    3    0  502  0.50119714090E+03  0.32660038739E+03  0.59663788966E+03  0.84489239462E+03  0.50400001928E-02 0. -1.
</event>
<event>
 5   0  0.9589963E-06  0.1799765E+04  0.7818609E-02  0.8706425E-01
       -2   -1    0    0    0  501  0.00000000000E+00  0.00000000000E+00  0.12935192411E+04  0.12935192411E+04  0.25500000920E-02 0.  1.
        2   -1    0    0  501    0  0.00000000000E+00  0.00000000000E+00 -0.62603508500E+03  0.62603508500E+03  0.25500000920E-02 0. -1.
    10030    2    1    2    0    0  0.00000000000E+00  0.00000000000E+00  0.66748415614E+03  0.19195543261E+04  0.17997649047E+04 0.  0.
        2    1    3    3  502    0  0.32155022520E+03  0.28566373488E+03  0.11767889136E+04  0.12529287545E+04  0.25500000920E-02 0.  1.
       -2    1    3    3    0  502 -0.32155022520E+03 -0.28566373488E+03 -0.50930475746E+03  0.66662557161E+03  0.25500000920E-02 0. -1.
</event>
<event>
 5   0  0.1035018E-05  0.1800234E+04  0.7818609E-02  0.8706175E-01
        2   -1    0    0  501    0  0.00000000000E+00  0.00000000000E+00  0.12725722114E+04  0.12725722114E+04  0.25500000920E-02 0.  1.
       -2   -1    0    0    0  501  0.00000000000E+00  0.00000000000E+00 -0.63667159296E+03  0.63667159296E+03  0.25500000920E-02 0. -1.
    10030    2    1    2    0    0  0.00000000000E+00  0.00000000000E+00  0.63590061848E+03  0.19092438044E+04  0.18002339593E+04 0.  0.
        3    1    3    3  502    0  0.64160883792E+03  0.45070163734E+03 -0.15087740611E+03  0.79847220908E+03  0.10100000352E+00 0.  1.
       -3    1    3    3    0  502 -0.64160883792E+03 -0.45070163734E+03  0.78677802459E+03  0.11107715953E+04  0.10100000352E+00 0. -1.
</event>
<event>
 5   0  0.1000316E-05  0.1798368E+04  0.7818609E-02  0.8707168E-01
       -2   -1    0    0    0  501  0.00000000000E+00  0.00000000000E+00  0.70151883635E+03  0.70151883635E+03  0.25500000920E-02 0. -1.
        2   -1    0    0  501    0  0.00000000000E+00  0.00000000000E+00 -0.11525450371E+04  0.11525450371E+04  0.25500000920E-02 0.  1.
    10030    2    1    2    0    0  0.00000000000E+00  0.00000000000E+00 -0.45102620080E+03  0.18540638735E+04  0.17983682085E+04 0.  0.
        5    1    3    3  502    0 -0.23263698560E+03 -0.58069550051E+03 -0.89141344114E+03  0.10890212323E+04  0.46999998093E+01 0.  1.
       -5    1    3    3    0  502  0.23263698560E+03  0.58069550051E+03  0.44038724034E+03  0.76504264119E+03  0.46999998093E+01 0. -1.
</event>
<event>
 5   0  0.4981384E-06  0.1799901E+04  0.7818609E-02  0.8706352E-01
       -1   -1    0    0    0  501  0.00000000000E+00  0.00000000000E+00  0.46795825076E+03  0.46795825079E+03  0.50400001928E-02 0. -1.
        1   -1    0    0  501    0  0.00000000000E+00  0.00000000000E+00 -0.17307328509E+04  0.17307328509E+04  0.50400001928E-02 0.  1.
    10030    2    1    2    0    0  0.00000000000E+00  0.00000000000E+00 -0.12627746002E+04  0.21986911017E+04  0.17999007945E+04 0.  0.
        5    1    3    3  502    0  0.26714309863E+02  0.59029942549E+03 -0.14605407629E+04  0.15755533873E+04  0.46999998093E+01 0.  1.
       -5    1    3    3    0  502 -0.26714309863E+02 -0.59029942549E+03  0.19776616270E+03  0.62313771447E+03  0.46999998093E+01 0. -1.
</event>
<event>
 5   0  0.4953155E-06  0.1798114E+04  0.7818609E-02  0.8707303E-01
       -1   -1    0    0    0  501  0.00000000000E+00  0.00000000000E+00  0.57663515449E+03  0.57663515452E+03  0.50400001928E-02 0. -1.
        1   -1    0    0  501    0  0.00000000000E+00  0.00000000000E+00 -0.14017582875E+04  0.14017582875E+04  0.50400001928E-02 0.  1.
    10030    2    1    2    0    0  0.00000000000E+00  0.00000000000E+00 -0.82512313298E+03  0.19783934420E+04  0.17981135745E+04 0.  0.
        2    1    3    3  502    0 -0.12320514674E+03  0.26092821543E+03 -0.13494255578E+04  0.13799320193E+04  0.25500000920E-02 0.  1.
       -2    1    3    3    0  502  0.12320514674E+03 -0.26092821543E+03  0.52430242483E+03  0.59846142271E+03  0.25500000920E-02 0. -1.
</event>
<event>
 5   0  0.4981384E-06  0.1803471E+04  0.7818609E-02  0.8704456E-01
       -1   -1    0    0    0  501  0.00000000000E+00  0.00000000000E+00  0.48575543204E+03  0.48575543207E+03  0.50400001928E-02 0.  1.
        1   -1    0    0  501    0  0.00000000000E+00  0.00000000000E+00 -0.16739427595E+04  0.16739427595E+04  0.50400001928E-02 0. -1.
    10030    2    1    2    0    0  0.00000000000E+00  0.00000000000E+00 -0.11881873275E+04  0.21596981916E+04  0.18034708630E+04 0.  0.
        5    1    3    3  502    0 -0.22398295543E+03  0.85941838693E+03 -0.40727862394E+03  0.97707026136E+03  0.46999998093E+01 0.  1.
       -5    1    3    3    0  502  0.22398295543E+03 -0.85941838693E+03 -0.78090870356E+03  0.11826279302E+04  0.46999998093E+01 0. -1.
</event>
<event>
 5   0  0.9589963E-06  0.1799307E+04  0.7818609E-02  0.8706668E-01
        2   -1    0    0  501    0  0.00000000000E+00  0.00000000000E+00  0.17781855717E+04  0.17781855717E+04  0.25500000920E-02 0.  1.
       -2   -1    0    0    0  501  0.00000000000E+00  0.00000000000E+00 -0.45517007680E+03  0.45517007681E+03  0.25500000920E-02 0. -1.
    10030    2    1    2    0    0  0.00000000000E+00  0.00000000000E+00  0.13230154949E+04  0.22333556485E+04  0.17993074926E+04 0.  0.
        2    1    3    3  502    0 -0.55054410776E+02 -0.89650752549E+03  0.72504289886E+03  0.11543153541E+04  0.25500000920E-02 0. -1.
       -2    1    3    3    0  502  0.55054410776E+02  0.89650752549E+03  0.59797259600E+03  0.10790402944E+04  0.25500000920E-02 0.  1.
</event>
<event>
 5   0  0.9999162E-06  0.1802094E+04  0.7818609E-02  0.8705187E-01
        2   -1    0    0  501    0  0.00000000000E+00  0.00000000000E+00  0.14563238089E+04  0.14563238089E+04  0.25500000920E-02 0. -1.
       -2   -1    0    0    0  501  0.00000000000E+00  0.00000000000E+00 -0.55748995054E+03  0.55748995055E+03  0.25500000920E-02 0.  1.
    10030    2    1    2    0    0  0.00000000000E+00  0.00000000000E+00  0.89883385840E+03  0.20138137595E+04  0.18020942131E+04 0.  0.
        1    1    3    3  502    0 -0.43037699351E+02 -0.53871894218E+03  0.12551040914E+04  0.13665125768E+04  0.50400001928E-02 0. -1.
       -1    1    3    3    0  502  0.43037699351E+02  0.53871894218E+03 -0.35627023298E+03  0.64730118273E+03  0.50400001928E-02 0.  1.
</event>
<event>
 5   0  0.9999162E-06  0.1799864E+04  0.7818609E-02  0.8706372E-01
        2   -1    0    0  501    0  0.00000000000E+00  0.00000000000E+00  0.17926776962E+04  0.17926776962E+04  0.25500000920E-02 0.  1.
       -2   -1    0    0    0  501  0.00000000000E+00  0.00000000000E+00 -0.45176968394E+03  0.45176968395E+03  0.25500000920E-02 0. -1.
    10030    2    1    2    0    0  0.00000000000E+00  0.00000000000E+00  0.13409080122E+04  0.22444473801E+04  0.17998638129E+04 0.  0.
        1    1    3    3  502    0  0.20166108513E+03 -0.37521033706E+03  0.16590010796E+04  0.17128148098E+04  0.50400001928E-02 0.  1.
       -1    1    3    3    0  502 -0.20166108513E+03  0.37521033706E+03 -0.31809306741E+03  0.53163257035E+03  0.50400001928E-02 0. -1.
</event>
<event>
 5   0  0.1035018E-05  0.1790244E+04  0.7818609E-02  0.8711505E-01
        2   -1    0    0  501    0  0.00000000000E+00  0.00000000000E+00  0.76557698775E+03  0.76557698775E+03  0.25500000920E-02 0.  1.
       -2   -1    0    0    0  501  0.00000000000E+00  0.00000000000E+00 -0.10465877833E+04  0.10465877833E+04  0.25500000920E-02 0. -1.
    10030    2    1    2    0    0  0.00000000000E+00  0.00000000000E+00 -0.28101079555E+03  0.18121647711E+04  0.17902441426E+04 0.  0.
        3    1    3    3  502    0  0.17720900542E+03  0.70554109982E+03 -0.66847822636E+03  0.98795466721E+03  0.10100000352E+00 0. -1.
       -3    1    3    3    0  502 -0.17720900542E+03 -0.70554109982E+03  0.38746743081E+03  0.82421010384E+03  0.10100000352E+00 0.  1.
</event>
<event>
 5   0  0.4983159E-06  0.1800010E+04  0.7818609E-02  0.8706294E-01
        1   -1    0    0  501    0  0.00000000000E+00  0.00000000000E+00  0.13575880105E+04  0.13575880106E+04  0.50400001928E-02 0. -1.
       -1   -1    0    0    0  501  0.00000000000E+00  0.00000000000E+00 -0.59665329236E+03  0.59665329238E+03  0.50400001928E-02 0.  1.
    10030    2    1    2    0    0  0.00000000000E+00  0.00000000000E+00  0.76093471818E+03  0.19542413029E+04  0.18000103957E+04 0.  0.
        4    1    3    3  502    0  0.45069115252E+03  0.11430096802E+03 -0.45615751749E+03  0.65135897929E+03  0.12699999809E+01 0.  1.
       -4    1    3    3    0  502 -0.45069115252E+03 -0.11430096802E+03  0.12170922357E+04  0.13028823236E+04  0.12699999809E+01 0. -1.
</event>
<event>
 5   0  0.1035018E-05  0.1800380E+04  0.7818609E-02  0.8706098E-01
        2   -1    0    0  501    0  0.00000000000E+00  0.00000000000E+00  0.12758265632E+04  0.12758265632E+04  0.25500000920E-02 0.  1.
       -2   -1    0    0    0  501  0.00000000000E+00  0.00000000000E+00 -0.63515038079E+03  0.63515038079E+03  0.25500000920E-02 0. -1.
    10030    2    1    2    0    0  0.00000000000E+00  0.00000000000E+00  0.64067618240E+03  0.19109769440E+04  0.18003796571E+04 0.  0.
        3    1    3    3  502    0  0.44953383781E+03  0.35666542358E+03 -0.41584668201E+03  0.70867437435E+03  0.10100000352E+00 0. -1.
       -3    1    3    3    0  502 -0.44953383781E+03 -0.35666542358E+03  0.10565228644E+04  0.12023025696E+04  0.10100000352E+00 0.  1.
</event>
<event>
 5   0  0.4953155E-06  0.1799960E+04  0.7818609E-02  0.8706321E-01
        1   -1    0    0  501    0  0.00000000000E+00  0.00000000000E+00  0.91483884318E+03  0.91483884319E+03  0.50400001928E-02 0.  1.
       -1   -1    0    0    0  501  0.00000000000E+00  0.00000000000E+00 -0.88536240898E+03  0.88536240899E+03  0.50400001928E-02 0. -1.
    10030    2    1    2    0    0  0.00000000000E+00  0.00000000000E+00  0.29476434201E+02  0.18002012522E+04  0.17999599129E+04 0.  0.
        2    1    3    3  502    0 -0.12154277027E+03  0.13437963069E+03  0.89640811139E+03  0.91453705902E+03  0.25500000920E-02 0.  1.
       -2    1    3    3    0  502  0.12154277027E+03 -0.13437963069E+03 -0.86693167719E+03  0.88566419317E+03  0.25500000920E-02 0. -1.
</event>
<event>
 5   0  0.3626125E-06  0.1800209E+04  0.7818609E-02  0.8706189E-01
        4   -1    0    0  501    0  0.00000000000E+00  0.00000000000E+00  0.76165617518E+03  0.76165723399E+03  0.12699999809E+01 0.  1.
       -4   -1    0    0    0  501  0.00000000000E+00  0.00000000000E+00 -0.10637162795E+04  0.10637170376E+04  0.12699999809E+01 0. -1.
    10030    2    1    2    0    0  0.00000000000E+00  0.00000000000E+00 -0.30206010428E+03  0.18253742716E+04  0.18002085781E+04 0.  0.
        2    1    3    3  502    0  0.87473030791E+03  0.49447280601E+02  0.58227339536E+02  0.87805954707E+03  0.25500000920E-02 0. -1.
       -2    1    3    3    0  502 -0.87473030791E+03 -0.49447280601E+02 -0.36028744381E+03  0.94731472453E+03  0.25500000920E-02 0.  1.
</event>
<event>
 5   0  0.1035018E-05  0.1799097E+04  0.7818609E-02  0.8706780E-01
       -2   -1    0    0    0  501  0.00000000000E+00  0.00000000000E+00  0.12217528749E+04  0.12217528749E+04  0.25500000920E-02 0. -1.
        2   -1    0    0  501    0  0.00000000000E+00  0.00000000000E+00 -0.66231675845E+03  0.66231675846E+03  0.25500000920E-02 0.  1.
    10030    2    1    2    0    0  0.00000000000E+00  0.00000000000E+00  0.55943611640E+03  0.18840696333E+04  0.17990968887E+04 0.  0.
        3    1    3    3  502    0  0.21632595035E+03  0.86554653424E+03  0.15931077243E+03  0.90628232474E+03  0.10100000352E+00 0. -1.
       -3    1    3    3    0  502 -0.21632595035E+03 -0.86554653424E+03  0.40012534397E+03  0.97778730858E+03  0.10100000352E+00 0.  1.
</event>
<event>
 5   0  0.4953155E-06  0.1798155E+04  0.7818609E-02  0.8707281E-01
        1   -1    0    0  501    0  0.00000000000E+00  0.00000000000E+00  0.70811897527E+03  0.70811897529E+03  0.50400001928E-02 0.  1.
       -1   -1    0    0    0  501  0.00000000000E+00  0.00000000000E+00 -0.11415319810E+04  0.11415319810E+04  0.50400001928E-02 0. -1.
    10030    2    1    2    0    0  0.00000000000E+00  0.00000000000E+00 -0.43341300572E+03  0.18496509563E+04  0.17981551175E+04 0.  0.
        2    1    3    3  502    0  0.87720220054E+03  0.15416013866E+03 -0.34307170698E+03  0.95443556363E+03  0.25500000920E-02 0. -1.
       -2    1    3    3    0  502 -0.87720220054E+03 -0.15416013866E+03 -0.90341298738E+02  0.89521539266E+03  0.25500000920E-02 0.  1.
</event>
<event>
 5   0  0.4953155E-06  0.1800089E+04  0.7818609E-02  0.8706252E-01
       -1   -1    0    0    0  501  0.00000000000E+00  0.00000000000E+00  0.58020158158E+03  0.58020158161E+03  0.50400001928E-02 0.  1.
        1   -1    0    0  501    0  0.00000000000E+00  0.00000000000E+00 -0.13962041610E+04  0.13962041610E+04  0.50400001928E-02 0. -1.
    10030    2    1    2    0    0  0.00000000000E+00  0.00000000000E+00 -0.81600257938E+03  0.19764057426E+04  0.18000887339E+04 0.  0.
        2    1    3    3  502    0 -0.13366799490E+03 -0.64128697054E+03 -0.10856802780E+04  0.12679975463E+04  0.25500000920E-02 0. -1.
       -2    1    3    3    0  502  0.13366799490E+03  0.64128697054E+03  0.26967769858E+03  0.70840819628E+03  0.25500000920E-02 0.  1.
</event>
<event>
 5   0  0.4981384E-06  0.1800331E+04  0.7818609E-02  0.8706123E-01
       -1   -1    0    0    0  501  0.00000000000E+00  0.00000000000E+00  0.78481012157E+03  0.78481012158E+03  0.50400001928E-02 0. -1.
        1   -1    0    0  501    0  0.00000000000E+00  0.00000000000E+00 -0.10324764936E+04  0.10324764936E+04  0.50400001928E-02 0.  1.
    10030    2    1    2    0    0  0.00000000000E+00  0.00000000000E+00 -0.24766637205E+03  0.18172866152E+04  0.18003310834E+04 0.  0.
        5    1    3    3  502    0 -0.69345985821E+03 -0.14405787830E+03  0.43694977188E+03  0.83221778423E+03  0.46999998093E+01 0. -1.
       -5    1    3    3    0  502  0.69345985821E+03  0.14405787830E+03 -0.68461614393E+03  0.98506883098E+03  0.46999998093E+01 0.  1.
</event>
<event>
 5   0  0.9589963E-06  0.1799903E+04  0.7818609E-02  0.8706351E-01
        2   -1    0    0  501    0  0.00000000000E+00  0.00000000000E+00  0.17200629929E+04  0.17200629929E+04  0.25500000920E-02 0. -1.
       -2   -1    0    0    0  501  0.00000000000E+00  0.00000000000E+00 -0.47086234344E+03  0.47086234345E+03  0.25500000920E-02 0.  1.
    10030    2    1    2    0    0  0.00000000000E+00  0.00000000000E+00  0.12492006495E+04  0.21909253364E+04  0.17999032104E+04 0.  0.
        2    1    3    3  502    0  0.34480331206E+03 -0.80414659470E+03  0.88100861145E+03  0.12416590688E+04  0.25500000920E-02 0. -1.
       -2    1    3    3    0  502 -0.34480331206E+03  0.80414659470E+03  0.36819203801E+03  0.94926626751E+03  0.25500000920E-02 0.  1.
</event>
<event>
 5   0  0.9589963E-06  0.1803032E+04  0.7818609E-02  0.8704689E-01
       -2   -1    0    0    0  501  0.00000000000E+00  0.00000000000E+00  0.51594430280E+03  0.51594430280E+03  0.25500000920E-02 0.  1.
        2   -1    0    0  501    0  0.00000000000E+00  0.00000000000E+00 -0.15752294675E+04  0.15752294675E+04  0.25500000920E-02 0. -1.
    10030    2    1    2    0    0  0.00000000000E+00  0.00000000000E+00 -0.10592851647E+04  0.20911737703E+04  0.18030315243E+04 0.  0.
        2    1    3    3  502    0 -0.34464582993E+03  0.51479781875E+03  0.22995154292E+03  0.66081408457E+03  0.25500000920E-02 0.  1.
       -2    1    3    3    0  502  0.34464582993E+03 -0.51479781875E+03 -0.12892367076E+04  0.14303596857E+04  0.25500000920E-02 0. -1.
</event>
<event>
 5   0  0.4987456E-06  0.1799023E+04  0.7818609E-02  0.8706819E-01
        1   -1    0    0  501    0  0.00000000000E+00  0.00000000000E+00  0.11341180860E+04  0.11341180860E+04  0.50400001928E-02 0. -1.
       -1   -1    0    0    0  501  0.00000000000E+00  0.00000000000E+00 -0.71343617319E+03  0.71343617321E+03  0.50400001928E-02 0.  1.
    10030    2    1    2    0    0  0.00000000000E+00  0.00000000000E+00  0.42068191280E+03  0.18475542592E+04  0.17990229206E+04 0.  0.
        3    1    3    3  502    0 -0.88118997803E+03  0.45640939673E+02  0.30863820782E+02  0.88291078733E+03  0.10100000352E+00 0.  1.
       -3    1    3    3    0  502  0.88118997803E+03 -0.45640939673E+02  0.38981809202E+03  0.96464347187E+03  0.10100000352E+00 0. -1.
</event>
<event>
 5   0  0.1036381E-05  0.1800147E+04  0.7818609E-02  0.8706221E-01
       -2   -1    0    0    0  501  0.00000000000E+00  0.00000000000E+00  0.18588310430E+04  0.18588310430E+04  0.25500000920E-02 0. -1.
        2   -1    0    0  501    0  0.00000000000E+00  0.00000000000E+00 -0.43582886157E+03  0.43582886157E+03  0.25500000920E-02 0.  1.
    10030    2    1    2    0    0  0.00000000000E+00  0.00000000000E+00  0.14230021815E+04  0.22946599046E+04  0.18001469022E+04 0.  0.
        4    1    3    3  502    0 -0.16714002318E+03 -0.78084020212E+03  0.12409012001E+04  0.14756302416E+04  0.12699999809E+01 0.  1.
       -4    1    3    3    0  502  0.16714002318E+03  0.78084020212E+03  0.18210098137E+03  0.81902966302E+03  0.12699999809E+01 0. -1.
</event>
<event>
 5   0  0.4994123E-06  0.1800634E+04  0.7818609E-02  0.8705962E-01
        1   -1    0    0  501    0  0.00000000000E+00  0.00000000000E+00  0.67970530323E+03  0.67970530325E+03  0.50400001928E-02 0.  1.
       -1   -1    0    0    0  501  0.00000000000E+00  0.00000000000E+00 -0.11925323859E+04  0.11925323859E+04  0.50400001928E-02 0. -1.
    10030    2    1    2    0    0  0.00000000000E+00  0.00000000000E+00 -0.51282708265E+03  0.18722376891E+04  0.18006338739E+04 0.  0.
        1    1    3    3  502    0 -0.52195382692E+03 -0.56505163270E+02 -0.10168954699E+04  0.11444234477E+04  0.50400001928E-02 0. -1.
       -1    1    3    3    0  502  0.52195382692E+03  0.56505163270E+02  0.50406838728E+03  0.72781424141E+03  0.50400001928E-02 0.  1.
</event>
<event>
 5   0  0.9589963E-06  0.1798465E+04  0.7818609E-02  0.8707116E-01
        2   -1    0    0  501    0  0.00000000000E+00  0.00000000000E+00  0.12084318524E+04  0.12084318524E+04  0.25500000920E-02 0.  1.
       -2   -1    0    0    0  501  0.00000000000E+00  0.00000000000E+00 -0.66914780710E+03  0.66914780710E+03  0.25500000920E-02 0. -1.
    10030    2    1    2    0    0  0.00000000000E+00  0.00000000000E+00  0.53928404529E+03  0.18775796595E+04  0.17984654837E+04 0.  0.
        2    1    3    3  502    0 -0.39115777751E+03 -0.11252209179E+02 -0.57559557021E+03  0.69601816038E+03  0.25500000920E-02 0. -1.
       -2    1    3    3    0  502  0.39115777751E+03  0.11252209179E+02  0.11148796155E+04  0.11815614991E+04  0.25500000920E-02 0.  1.
</event>
<event>
 5   0  0.4987456E-06  0.1798562E+04  0.7818609E-02  0.8707064E-01
        1   -1    0    0  501    0  0.00000000000E+00  0.00000000000E+00  0.10274666306E+04  0.10274666306E+04  0.50400001928E-02 0. -1.
       -1   -1    0    0    0  501  0.00000000000E+00  0.00000000000E+00 -0.78708794326E+03  0.78708794328E+03  0.50400001928E-02 0.  1.
    10030    2    1    2    0    0  0.00000000000E+00  0.00000000000E+00  0.24037868730E+03  0.18145545739E+04  0.17985623115E+04 0.  0.
        3    1    3    3  502    0  0.82145552085E+03 -0.28005451731E+03  0.35784037542E+03  0.93875952718E+03  0.10100000352E+00 0. -1.
       -3    1    3    3    0  502 -0.82145552085E+03  0.28005451731E+03 -0.11746168812E+03  0.87579504667E+03  0.10100000352E+00 0.  1.
</event>
<event>
 5   0  0.9999162E-06  0.1800796E+04  0.7818609E-02  0.8705876E-01
        2   -1    0    0  501    0  0.00000000000E+00  0.00000000000E+00  0.13722930277E+04  0.13722930277E+04  0.25500000920E-02 0. -1.
       -2   -1    0    0    0  501  0.00000000000E+00  0.00000000000E+00 -0.59077503993E+03  0.59077503994E+03  0.25500000920E-02 0.  1.
    10030    2    1    2    0    0  0.00000000000E+00  0.00000000000E+00  0.78151798774E+03  0.19630680676E+04  0.18007958999E+04 0.  0.
        1    1    3    3  502    0  0.34192530406E+03 -0.60601735347E+03 -0.23217695855E+03  0.73353669736E+03  0.50400001928E-02 0.  1.
       -1    1    3    3    0  502 -0.34192530406E+03  0.60601735347E+03  0.10136949463E+04  0.12295313703E+04  0.50400001928E-02 0. -1.
</event>
<event>
 5   0  0.3626125E-06  0.1799579E+04  0.7818609E-02  0.8706523E-01
       -4   -1    0    0    0  501  0.00000000000E+00  0.00000000000E+00  0.85062417492E+03  0.85062512298E+03  0.12699999809E+01 0. -1.
        4   -1    0    0  501    0  0.00000000000E+00  0.00000000000E+00 -0.95179476260E+03  0.95179560989E+03  0.12699999809E+01 0.  1.
    10030    2    1    2    0    0  0.00000000000E+00  0.00000000000E+00 -0.10117058768E+03  0.18024207329E+04  0.17995791204E+04 0.  0.
        2    1    3    3  502    0 -0.44729395352E+03 -0.41706118426E+03  0.61046396158E+03  0.86410541062E+03  0.25500000920E-02 0. -1.
       -2    1    3    3    0  502  0.44729395352E+03  0.41706118426E+03 -0.71163454926E+03  0.93831532226E+03  0.25500000920E-02 0.  1.
</event>
<event>
 5   0  0.4994123E-06  0.1800129E+04  0.7818609E-02  0.8706231E-01
        1   -1    0    0  501    0  0.00000000000E+00  0.00000000000E+00  0.22056008142E+04  0.22056008142E+04  0.50400001928E-02 0. -1.
       -1   -1    0    0    0  501  0.00000000000E+00  0.00000000000E+00 -0.36729959093E+03  0.36729959096E+03  0.50400001928E-02 0.  1.
    10030    2    1    2    0    0  0.00000000000E+00  0.00000000000E+00  0.18383012232E+04  0.25729004051E+04  0.18001291919E+04 0.  0.
        1    1    3    3  502    0  0.85655986395E+03  0.23351282213E+03  0.70766817686E+03  0.11353489715E+04  0.50400001928E-02 0.  1.
       -1    1    3    3    0  502 -0.85655986395E+03 -0.23351282213E+03  0.11306330464E+04  0.14375514336E+04  0.50400001928E-02 0. -1.
</event>
<event>
 5   0  0.4983159E-06  0.1799284E+04  0.7818609E-02  0.8706680E-01
       -1   -1    0    0    0  501  0.00000000000E+00  0.00000000000E+00  0.86608103581E+03  0.86608103583E+03  0.50400001928E-02 0. -1.
        1   -1    0    0  501    0  0.00000000000E+00  0.00000000000E+00 -0.93450338253E+03  0.93450338254E+03  0.50400001928E-02 0.  1.
    10030    2    1    2    0    0  0.00000000000E+00  0.00000000000E+00 -0.68422346713E+02  0.18005844184E+04  0.17992839215E+04 0.  0.
        4    1    3    3  502    0 -0.49918896863E+03 -0.16576661304E+03 -0.76459200693E+03  0.92804673717E+03  0.12699999809E+01 0.  1.
       -4    1    3    3    0  502  0.49918896863E+03  0.16576661304E+03  0.69616966022E+03  0.87253768120E+03  0.12699999809E+01 0. -1.
</event>
<event>
 5   0  0.4983159E-06  0.1799971E+04  0.7818609E-02  0.8706315E-01
       -1   -1    0    0    0  501  0.00000000000E+00  0.00000000000E+00  0.63616397853E+03  0.63616397855E+03  0.50400001928E-02 0. -1.
        1   -1    0    0  501    0  0.00000000000E+00  0.00000000000E+00 -0.12732157050E+04  0.12732157050E+04  0.50400001928E-02 0.  1.
    10030    2    1    2    0    0  0.00000000000E+00  0.00000000000E+00 -0.63705172649E+03  0.19093796836E+04  0.17999710758E+04 0.  0.
        4    1    3    3  502    0 -0.35380139169E+03 -0.18211696695E+03 -0.11748287728E+04  0.12403895649E+04  0.12699999809E+01 0.  1.
       -4    1    3    3    0  502  0.35380139169E+03  0.18211696695E+03  0.53777704632E+03  0.66899011866E+03  0.12699999809E+01 0. -1.
</event>
<event>
 5   0  0.9589963E-06  0.1800861E+04  0.7818609E-02  0.8705842E-01
        2   -1    0    0  501    0  0.00000000000E+00  0.00000000000E+00  0.97791590122E+03  0.97791590123E+03  0.25500000920E-02 0. -1.
       -2   -1    0    0    0  501  0.00000000000E+00  0.00000000000E+00 -0.82908503486E+03  0.82908503486E+03  0.25500000920E-02 0.  1.
    10030    2    1    2    0    0  0.00000000000E+00  0.00000000000E+00  0.14883086637E+03  0.18070009361E+04  0.18008613928E+04 0.  0.
        2    1    3    3  502    0 -0.81800270189E+03  0.35321191705E+03 -0.55982838187E+02  0.89276041401E+03  0.25500000920E-02 0.  1.
       -2    1    3    3    0  502  0.81800270189E+03 -0.35321191705E+03  0.20481370455E+03  0.91424052208E+03  0.25500000920E-02 0. -1.
</event>
<event>
 5   0  0.9589963E-06  0.1799853E+04  0.7818609E-02  0.8706378E-01
       -2   -1    0    0    0  501  0.00000000000E+00  0.00000000000E+00  0.67911696202E+03  0.67911696202E+03  0.25500000920E-02 0.  1.
        2   -1    0    0  501    0  0.00000000000E+00  0.00000000000E+00 -0.11925300659E+04  0.11925300659E+04  0.25500000920E-02 0. -1.
    10030    2    1    2    0    0  0.00000000000E+00  0.00000000000E+00 -0.51341310385E+03  0.18716470279E+04  0.17998526556E+04 0.  0.
        2    1    3    3  502    0  0.55073824353E+03  0.81091088747E+02 -0.99200370647E+03  0.11375235080E+04  0.25500000920E-02 0. -1.
       -2    1    3    3    0  502 -0.55073824353E+03 -0.81091088747E+02  0.47859060262E+03  0.73412351991E+03  0.25500000920E-02 0.  1.
</event>
<event>
 5   0  0.1036381E-05  0.1802610E+04  0.7818609E-02  0.8704913E-01
        2   -1    0    0  501    0  0.00000000000E+00  0.00000000000E+00  0.12849680972E+04  0.12849680972E+04  0.25500000920E-02 0. -1.
       -2   -1    0    0    0  501  0.00000000000E+00  0.00000000000E+00 -0.63219500685E+03  0.63219500686E+03  0.25500000920E-02 0.  1.
    10030    2    1    2    0    0  0.00000000000E+00  0.00000000000E+00  0.65277309036E+03  0.19171631041E+04  0.18026096805E+04 0.  0.
        4    1    3    3  502    0  0.35368613914E+03  0.80483520664E+03  0.53774983598E+03  0.10305484432E+04  0.12699999809E+01 0. -1.
       -4    1    3    3    0  502 -0.35368613914E+03 -0.80483520664E+03  0.11502325438E+03  0.88661466083E+03  0.12699999809E+01 0.  1.
</event>
<event>
 5   0  0.1000316E-05  0.1800485E+04  0.7818609E-02  0.8706042E-01
        2   -1    0    0  501    0  0.00000000000E+00  0.00000000000E+00  0.78987752550E+03  0.78987752550E+03  0.25500000920E-02 0. -1.
       -2   -1    0    0    0  501  0.00000000000E+00  0.00000000000E+00 -0.10260280942E+04  0.10260280942E+04  0.25500000920E-02 0.  1.
    10030    2    1    2    0    0  0.00000000000E+00  0.00000000000E+00 -0.23615056868E+03  0.18159056197E+04  0.18004849704E+04 0.  0.
        5    1    3    3  502    0 -0.38611251361E+03  0.30924025840E+02 -0.93767004606E+03  0.10145375172E+04  0.46999998093E+01 0.  1.
       -5    1    3    3    0  502  0.38611251361E+03 -0.30924025840E+02  0.70151947738E+03  0.80136810248E+03  0.46999998093E+01 0. -1.
</event>
<event>
 5   0  0.9589963E-06  0.1799482E+04  0.7818609E-02  0.8706575E-01
       -2   -1    0    0    0  501  0.00000000000E+00  0.00000000000E+00  0.95168517055E+03  0.95168517056E+03  0.25500000920E-02 0.  1.
        2   -1    0    0  501    0  0.00000000000E+00  0.00000000000E+00 -0.85063235603E+03  0.85063235604E+03  0.25500000920E-02 0. -1.
    10030    2    1    2    0    0  0.00000000000E+00  0.00000000000E+00  0.10105281452E+03  0.18023175266E+04  0.17994823687E+04 0.  0.
        2    1    3    3  502    0  0.58495861846E+03 -0.44077483061E+03 -0.47286285724E+03  0.87181323595E+03  0.25500000920E-02 0. -1.
       -2    1    3    3    0  502 -0.58495861846E+03  0.44077483061E+03  0.57391567176E+03  0.93050429064E+03  0.25500000920E-02 0.  1.
</event>
<event>
 5   0  0.9999162E-06  0.1800709E+04  0.7818609E-02  0.8705923E-01
       -2   -1    0    0    0  501  0.00000000000E+00  0.00000000000E+00  0.40531097565E+03  0.40531097565E+03  0.25500000920E-02 0.  1.
        2   -1    0    0  501    0  0.00000000000E+00  0.00000000000E+00 -0.20000400245E+04  0.20000400245E+04  0.25500000920E-02 0. -1.
    10030    2    1    2    0    0  0.00000000000E+00  0.00000000000E+00 -0.15947290488E+04  0.24053510001E+04  0.18007089422E+04 0.  0.
        1    1    3    3  502    0 -0.24560899402E+03  0.19756924292E+03 -0.19239275105E+04  0.19495780183E+04  0.50400001928E-02 0. -1.
       -1    1    3    3    0  502  0.24560899402E+03 -0.19756924292E+03  0.32919846173E+03  0.45577298178E+03  0.50400001928E-02 0.  1.
</event>
<event>
 5   0  0.1036381E-05  0.1800313E+04  0.7818609E-02  0.8706133E-01
        2   -1    0    0  501    0  0.00000000000E+00  0.00000000000E+00  0.12229715124E+04  0.12229715124E+04  0.25500000920E-02 0. -1.
       -2   -1    0    0    0  501  0.00000000000E+00  0.00000000000E+00 -0.66255128953E+03  0.66255128954E+03  0.25500000920E-02 0.  1.
    10030    2    1    2    0    0  0.00000000000E+00  0.00000000000E+00  0.56042022282E+03  0.18855228019E+04  0.18003125868E+04 0.  0.
        4    1    3    3  502    0  0.61989356272E+03  0.70221980613E+02  0.95983062518E+03  0.11447600611E+04  0.12699999809E+01 0. -1.
       -4    1    3    3    0  502 -0.61989356272E+03 -0.70221980613E+02 -0.39941040236E+03  0.74076274075E+03  0.12699999809E+01 0.  1.
</event>
<event>
 5   0  0.1036381E-05  0.1791957E+04  0.7818609E-02  0.8710588E-01
        2   -1    0    0  501    0  0.00000000000E+00  0.00000000000E+00  0.21923393879E+04  0.21923393879E+04  0.25500000920E-02 0. -1.
       -2   -1    0    0    0  501  0.00000000000E+00  0.00000000000E+00 -0.36617396314E+03  0.36617396315E+03  0.25500000920E-02 0.  1.
    10030    2    1    2    0    0  0.00000000000E+00  0.00000000000E+00  0.18261654247E+04  0.25585133510E+04  0.17919571448E+04 0.  0.
        4    1    3    3  502    0 -0.20928492432E+03  0.18043383783E+03 -0.30381422304E+03  0.41068387404E+03  0.12699999809E+01 0.  1.
       -4    1    3    3    0  502  0.20928492432E+03 -0.18043383783E+03  0.21299796478E+04  0.21478294770E+04  0.12699999809E+01 0. -1.
</event>
<event>
 5   0  0.1000316E-05  0.1800450E+04  0.7818609E-02  0.8706060E-01
        2   -1    0    0  501    0  0.00000000000E+00  0.00000000000E+00  0.21582327329E+04  0.21582327329E+04  0.25500000920E-02 0.  1.
       -2   -1    0    0    0  501  0.00000000000E+00  0.00000000000E+00 -0.37549477581E+03  0.37549477582E+03  0.25500000920E-02 0. -1.
    10030    2    1    2    0    0  0.00000000000E+00  0.00000000000E+00  0.17827379571E+04  0.25337275087E+04  0.18004500728E+04 0.  0.
        5    1    3    3  502    0 -0.54752940048E+03 -0.58173028747E+03  0.14753191540E+04  0.16777327761E+04  0.46999998093E+01 0.  1.
       -5    1    3    3    0  502  0.54752940048E+03  0.58173028747E+03  0.30741880302E+03  0.85599473258E+03  0.46999998093E+01 0. -1.
</event>
<event>
 5   0  0.4983159E-06  0.1801272E+04  0.7818609E-02  0.8705623E-01
        1   -1    0    0  501    0  0.00000000000E+00  0.00000000000E+00  0.77800587533E+03  0.77800587535E+03  0.50400001928E-02 0. -1.
       -1   -1    0    0    0  501  0.00000000000E+00  0.00000000000E+00 -0.10425952069E+04  0.10425952069E+04  0.50400001928E-02 0.  1.
    10030    2    1    2    0    0  0.00000000000E+00  0.00000000000E+00 -0.26458933152E+03  0.18206010822E+04  0.18012719912E+04 0.  0.
        4    1    3    3  502    0 -0.14262127360E+03  0.86595378089E+03  0.72179960678E+02  0.88058408908E+03  0.12699999809E+01 0. -1.
       -4    1    3    3    0  502  0.14262127360E+03 -0.86595378089E+03 -0.33676929220E+03  0.94001699313E+03  0.12699999809E+01 0.  1.
</event>
<event>
 5   0  0.1000316E-05  0.1799881E+04  0.7818609E-02  0.8706363E-01
        2   -1    0    0  501    0  0.00000000000E+00  0.00000000000E+00  0.71806266051E+03  0.71806266052E+03  0.25500000920E-02 0.  1.
       -2   -1    0    0    0  501  0.00000000000E+00  0.00000000000E+00 -0.11278864911E+04  0.11278864911E+04  0.25500000920E-02 0. -1.
    10030    2    1    2    0    0  0.00000000000E+00  0.00000000000E+00 -0.40982383060E+03  0.18459491516E+04  0.17998813012E+04 0.  0.
        5    1    3    3  502    0  0.49328652420E+02  0.73771721377E+03  0.32126035078E+03  0.80615774289E+03  0.46999998093E+01 0.  1.
       -5    1    3    3    0  502 -0.49328652420E+02 -0.73771721377E+03 -0.73108418138E+03  0.10397914087E+04  0.46999998093E+01 0. -1.
</event>
<event>
 5   0  0.1035018E-05  0.1801228E+04  0.7818609E-02  0.8705647E-01
       -2   -1    0    0    0  501  0.00000000000E+00  0.00000000000E+00  0.49713323135E+03  0.49713323136E+03  0.25500000920E-02 0.  1.
        2   -1    0    0  501    0  0.00000000000E+00  0.00000000000E+00 -0.16315663776E+04  0.16315663776E+04  0.25500000920E-02 0. -1.
    10030    2    1    2    0    0  0.00000000000E+00  0.00000000000E+00 -0.11344331463E+04  0.21286996090E+04  0.18012283203E+04 0.  0.
        3    1    3    3  502    0  0.62404881587E+03  0.26513567159E+03 -0.12677505322E+04  0.14376805177E+04  0.10100000352E+00 0. -1.
       -3    1    3    3    0  502 -0.62404881587E+03 -0.26513567159E+03  0.13331738590E+03  0.69101909129E+03  0.10100000352E+00 0.  1.
</event>
<event>
 5   0  0.3626125E-06  0.1799502E+04  0.7818609E-02  0.8706564E-01
        4   -1    0    0  501    0  0.00000000000E+00  0.00000000000E+00  0.53003199577E+03  0.53003351728E+03  0.12699999809E+01 0.  1.
       -4   -1    0    0    0  501  0.00000000000E+00  0.00000000000E+00 -0.15273609878E+04  0.15273615158E+04  0.12699999809E+01 0. -1.
    10030    2    1    2    0    0  0.00000000000E+00  0.00000000000E+00 -0.99732899201E+03  0.20573950331E+04  0.17995024878E+04 0.  0.
        1    1    3    3  502    0  0.39252198468E+03  0.78403267121E+03 -0.26780703466E+03  0.91678860476E+03  0.50400001928E-02 0.  1.
       -1    1    3    3    0  502 -0.39252198468E+03 -0.78403267121E+03 -0.72952195735E+03  0.11406064283E+04  0.50400001928E-02 0. -1.
</event>
<event>
 5   0  0.4994123E-06  0.1800055E+04  0.7818609E-02  0.8706270E-01
       -1   -1    0    0    0  501  0.00000000000E+00  0.00000000000E+00  0.68875001288E+03  0.68875001290E+03  0.50400001928E-02 0.  1.
        1   -1    0    0  501    0  0.00000000000E+00  0.00000000000E+00 -0.11761156506E+04  0.11761156506E+04  0.50400001928E-02 0. -1.
    10030    2    1    2    0    0  0.00000000000E+00  0.00000000000E+00 -0.48736563770E+03  0.18648656635E+04  0.18000551875E+04 0.  0.
        1    1    3    3  502    0 -0.48452967199E+02 -0.46630835116E+03  0.55226181243E+03  0.72441995962E+03  0.50400001928E-02 0.  1.
       -1    1    3    3    0  502  0.48452967199E+02  0.46630835116E+03 -0.10396274501E+04  0.11404457039E+04  0.50400001928E-02 0. -1.
</event>
<event>
 5   0  0.4981384E-06  0.1799856E+04  0.7818609E-02  0.8706376E-01
       -1   -1    0    0    0  501  0.00000000000E+00  0.00000000000E+00  0.45318377051E+03  0.45318377053E+03  0.50400001928E-02 0. -1.
        1   -1    0    0  501    0  0.00000000000E+00  0.00000000000E+00 -0.17870681908E+04  0.17870681908E+04  0.50400001928E-02 0.  1.
    10030    2    1    2    0    0  0.00000000000E+00  0.00000000000E+00 -0.13338844203E+04  0.22402519613E+04  0.17998558841E+04 0.  0.
        5    1    3    3  502    0  0.19626534915E+03  0.16713612541E+03  0.40622786585E+03  0.48114212109E+03  0.46999998093E+01 0. -1.
       -5    1    3    3    0  502 -0.19626534915E+03 -0.16713612541E+03 -0.17401122861E+04  0.17591098402E+04  0.46999998093E+01 0.  1.
</event>
<event>
 5   0  0.4981384E-06  0.1800818E+04  0.7818609E-02  0.8705865E-01
       -1   -1    0    0    0  501  0.00000000000E+00  0.00000000000E+00  0.21204293204E+04  0.21204293204E+04  0.50400001928E-02 0.  1.
        1   -1    0    0  501    0  0.00000000000E+00  0.00000000000E+00 -0.38234542837E+03  0.38234542841E+03  0.50400001928E-02 0. -1.
    10030    2    1    2    0    0  0.00000000000E+00  0.00000000000E+00  0.17380838920E+04  0.25027747488E+04  0.18008180995E+04 0.  0.
        5    1    3    3  502    0  0.85221778612E+03 -0.23723927892E+03  0.11022497479E+04  0.14133415112E+04  0.46999998093E+01 0.  1.
       -5    1    3    3    0  502 -0.85221778612E+03  0.23723927892E+03  0.63583414413E+03  0.10894332376E+04  0.46999998093E+01 0. -1.
</event>
<event>
 5   0  0.9999162E-06  0.1800256E+04  0.7818609E-02  0.8706163E-01
       -2   -1    0    0    0  501  0.00000000000E+00  0.00000000000E+00  0.71069440116E+03  0.71069440116E+03  0.25500000920E-02 0.  1.
        2   -1    0    0  501    0  0.00000000000E+00  0.00000000000E+00 -0.11400548143E+04  0.11400548143E+04  0.25500000920E-02 0. -1.
    10030    2    1    2    0    0  0.00000000000E+00  0.00000000000E+00 -0.42936041317E+03  0.18507492155E+04  0.18002561746E+04 0.  0.
        1    1    3    3  502    0 -0.58880178977E+03  0.28490140872E+03  0.42102762682E+03  0.77789499477E+03  0.50400001928E-02 0.  1.
       -1    1    3    3    0  502  0.58880178977E+03 -0.28490140872E+03 -0.85038803999E+03  0.10728542207E+04  0.50400001928E-02 0. -1.
</event>
<event>
 5   0  0.9999162E-06  0.1800130E+04  0.7818609E-02  0.8706230E-01
        2   -1    0    0  501    0  0.00000000000E+00  0.00000000000E+00  0.10257099113E+04  0.10257099113E+04  0.25500000920E-02 0.  1.
       -2   -1    0    0    0  501  0.00000000000E+00  0.00000000000E+00 -0.78981107258E+03  0.78981107258E+03  0.25500000920E-02 0. -1.
    10030    2    1    2    0    0  0.00000000000E+00  0.00000000000E+00  0.23589883872E+03  0.18155209839E+04  0.18001300455E+04 0.  0.
        1    1    3    3  502    0 -0.11173842080E+03 -0.55767572511E+03 -0.58560313539E+03  0.81634473188E+03  0.50400001928E-02 0. -1.
       -1    1    3    3    0  502  0.11173842080E+03  0.55767572511E+03  0.82150197411E+03  0.99917625200E+03  0.50400001928E-02 0.  1.
</event>
<event>
 5   0  0.4983159E-06  0.1799126E+04  0.7818609E-02  0.8706764E-01
       -1   -1    0    0    0  501  0.00000000000E+00  0.00000000000E+00  0.13818368440E+04  0.13818368440E+04  0.50400001928E-02 0.  1.
        1   -1    0    0  501    0  0.00000000000E+00  0.00000000000E+00 -0.58560726230E+03  0.58560726232E+03  0.50400001928E-02 0. -1.
    10030    2    1    2    0    0  0.00000000000E+00  0.00000000000E+00  0.79622958169E+03  0.19674441063E+04  0.17991261114E+04 0.  0.
        4    1    3    3  502    0  0.22708283664E+03 -0.20414812312E+03  0.13234261809E+04  0.13581979016E+04  0.12699999809E+01 0.  1.
       -4    1    3    3    0  502 -0.22708283664E+03  0.20414812312E+03 -0.52719659917E+03  0.60924620471E+03  0.12699999809E+01 0. -1.
</event>
<event>
 5   0  0.9589963E-06  0.1799082E+04  0.7818609E-02  0.8706788E-01
       -2   -1    0    0    0  501  0.00000000000E+00  0.00000000000E+00  0.66395850753E+03  0.66395850754E+03  0.25500000920E-02 0. -1.
        2   -1    0    0  501    0  0.00000000000E+00  0.00000000000E+00 -0.12187111166E+04  0.12187111166E+04  0.25500000920E-02 0.  1.
    10030    2    1    2    0    0  0.00000000000E+00  0.00000000000E+00 -0.55475260909E+03  0.18826696242E+04  0.17990815591E+04 0.  0.
        2    1    3    3  502    0  0.74006065158E+03  0.44726583931E+03 -0.53675760938E+03  0.10177648207E+04  0.25500000920E-02 0.  1.
       -2    1    3    3    0  502 -0.74006065158E+03 -0.44726583931E+03 -0.17994999713E+02  0.86490480346E+03  0.25500000920E-02 0. -1.
</event>
<event>
 5   0  0.3626125E-06  0.1799758E+04  0.7818609E-02  0.8706428E-01
       -3   -1    0    0    0  501  0.00000000000E+00  0.00000000000E+00  0.11210615070E+04  0.11210615116E+04  0.10100000352E+00 0.  1.
        3   -1    0    0  501    0  0.00000000000E+00  0.00000000000E+00 -0.72233533779E+03  0.72233534485E+03  0.10100000352E+00 0. -1.
    10030    2    1    2    0    0  0.00000000000E+00  0.00000000000E+00  0.39872616924E+03  0.18433968564E+04  0.17997581538E+04 0.  0.
        3    1    3    3  502    0 -0.36738958729E+03  0.81979073055E+03  0.14564729060E+03  0.91007971860E+03  0.10100000352E+00 0.  1.
       -3    1    3    3    0  502  0.36738958729E+03 -0.81979073055E+03  0.25307887864E+03  0.93331713783E+03  0.10100000352E+00 0. -1.
</event>
<event>
 5   0  0.1000316E-05  0.1800421E+04  0.7818609E-02  0.8706076E-01
        2   -1    0    0  501    0  0.00000000000E+00  0.00000000000E+00  0.80388856583E+03  0.80388856583E+03  0.25500000920E-02 0.  1.
       -2   -1    0    0    0  501  0.00000000000E+00  0.00000000000E+00 -0.10080736119E+04  0.10080736119E+04  0.25500000920E-02 0. -1.
    10030    2    1    2    0    0  0.00000000000E+00  0.00000000000E+00 -0.20418504611E+03  0.18119621778E+04  0.18004208954E+04 0.  0.
        5    1    3    3  502    0 -0.66714307803E+03  0.21726510660E+02 -0.70995505501E+03  0.97447944974E+03  0.46999998093E+01 0. -1.
       -5    1    3    3    0  502  0.66714307803E+03 -0.21726510660E+02  0.50577000890E+03  0.83748272802E+03  0.46999998093E+01 0.  1.
</event>
<event>
 5   0  0.1000316E-05  0.1800458E+04  0.7818609E-02  0.8706056E-01
        2   -1    0    0  501    0  0.00000000000E+00  0.00000000000E+00  0.74341717934E+03  0.74341717935E+03  0.25500000920E-02 0.  1.
       -2   -1    0    0    0  501  0.00000000000E+00  0.00000000000E+00 -0.10901176188E+04  0.10901176188E+04  0.25500000920E-02 0. -1.
    10030    2    1    2    0    0  0.00000000000E+00  0.00000000000E+00 -0.34670043949E+03  0.18335347982E+04  0.18004579033E+04 0.  0.
        5    1    3    3  502    0 -0.60522214378E+03 -0.15666623931E+03  0.48627771959E+03  0.79203930738E+03  0.46999998093E+01 0.  1.
       -5    1    3    3    0  502  0.60522214378E+03  0.15666623931E+03 -0.83297815908E+03  0.10414954908E+04  0.46999998093E+01 0. -1.
</event>
<event>
 5   0  0.4994123E-06  0.1800436E+04  0.7818609E-02  0.8706068E-01
        1   -1    0    0  501    0  0.00000000000E+00  0.00000000000E+00  0.77576035824E+03  0.77576035825E+03  0.50400001928E-02 0. -1.
       -1   -1    0    0    0  501  0.00000000000E+00  0.00000000000E+00 -0.10446421926E+04  0.10446421926E+04  0.50400001928E-02 0.  1.
    10030    2    1    2    0    0  0.00000000000E+00  0.00000000000E+00 -0.26888183439E+03  0.18204025509E+04  0.18004355047E+04 0.  0.
        1    1    3    3  502    0 -0.81347557255E+03 -0.21223960810E+03 -0.45988606416E+03  0.95827102138E+03  0.50400001928E-02 0. -1.
       -1    1    3    3    0  502  0.81347557255E+03  0.21223960810E+03  0.19100422977E+03  0.86213152952E+03  0.50400001928E-02 0.  1.
</event>
<event>
 5   0  0.4983159E-06  0.1807770E+04  0.7818609E-02  0.8702178E-01
        1   -1    0    0  501    0  0.00000000000E+00  0.00000000000E+00  0.13897047932E+04  0.13897047932E+04  0.50400001928E-02 0.  1.
       -1   -1    0    0    0  501  0.00000000000E+00  0.00000000000E+00 -0.58790037388E+03  0.58790037390E+03  0.50400001928E-02 0. -1.
    10030    2    1    2    0    0  0.00000000000E+00  0.00000000000E+00  0.80180441927E+03  0.19776051671E+04  0.18077698609E+04 0.  0.
        4    1    3    3  502    0 -0.12873925371E+03  0.85889152362E+03  0.67490909075E+03  0.10998965126E+04  0.12699999809E+01 0.  1.
       -4    1    3    3    0  502  0.12873925371E+03 -0.85889152362E+03  0.12689532852E+03  0.87770865444E+03  0.12699999809E+01 0. -1.
</event>
<event>
 5   0  0.1035018E-05  0.1799837E+04  0.7818609E-02  0.8706386E-01
        2   -1    0    0  501    0  0.00000000000E+00  0.00000000000E+00  0.20901863814E+04  0.20901863814E+04  0.25500000920E-02 0.  1.
       -2   -1    0    0    0  501  0.00000000000E+00  0.00000000000E+00 -0.38745486460E+03  0.38745486461E+03  0.25500000920E-02 0. -1.
    10030    2    1    2    0    0  0.00000000000E+00  0.00000000000E+00  0.17027315168E+04  0.24776412460E+04  0.17998365275E+04 0.  0.
        3    1    3    3  502    0  0.77879511571E+03 -0.27480456539E+03  0.13435114723E+04  0.15770423164E+04  0.10100000352E+00 0.  1.
       -3    1    3    3    0  502 -0.77879511571E+03  0.27480456539E+03  0.35922004453E+03  0.90059892960E+03  0.10100000352E+00 0. -1.
</event>
<event>
 5   0  0.9999162E-06  0.1795035E+04  0.7818609E-02  0.8708944E-01
        2   -1    0    0  501    0  0.00000000000E+00  0.00000000000E+00  0.85938108447E+03  0.85938108448E+03  0.25500000920E-02 0. -1.
       -2   -1    0    0    0  501  0.00000000000E+00  0.00000000000E+00 -0.93734644382E+03  0.93734644382E+03  0.25500000920E-02 0.  1.
    10030    2    1    2    0    0  0.00000000000E+00  0.00000000000E+00 -0.77965359342E+02  0.17967275283E+04  0.17950351567E+04 0.  0.
        1    1    3    3  502    0  0.54475240541E+03  0.30394530681E+03  0.60691623671E+03  0.87033628624E+03  0.50400001928E-02 0. -1.
       -1    1    3    3    0  502 -0.54475240541E+03 -0.30394530681E+03 -0.68488159605E+03  0.92639124206E+03  0.50400001928E-02 0.  1.
</event>
<event>
 5   0  0.1000316E-05  0.1799452E+04  0.7818609E-02  0.8706591E-01
       -2   -1    0    0    0  501  0.00000000000E+00  0.00000000000E+00  0.44508930532E+03  0.44508930533E+03  0.25500000920E-02 0.  1.
        2   -1    0    0  501    0  0.00000000000E+00  0.00000000000E+00 -0.18187515500E+04  0.18187515500E+04  0.25500000920E-02 0. -1.
    10030    2    1    2    0    0  0.00000000000E+00  0.00000000000E+00 -0.13736622447E+04  0.22638408554E+04  0.17994519877E+04 0.  0.
        5    1    3    3  502    0 -0.12729047945E+03 -0.77986205693E+03 -0.14557176987E+03  0.80349295217E+03  0.46999998093E+01 0.  1.
       -5    1    3    3    0  502  0.12729047945E+03  0.77986205693E+03 -0.12280904748E+04  0.14603479032E+04  0.46999998093E+01 0. -1.
</event>
<event>
 5   0  0.3626125E-06  0.1798748E+04  0.7818609E-02  0.8706965E-01
        4   -1    0    0  501    0  0.00000000000E+00  0.00000000000E+00  0.59046515891E+03  0.59046652469E+03  0.12699999809E+01 0.  1.
       -4   -1    0    0    0  501  0.00000000000E+00  0.00000000000E+00 -0.13698896567E+04  0.13698902454E+04  0.12699999809E+01 0. -1.
    10030    2    1    2    0    0  0.00000000000E+00  0.00000000000E+00 -0.77942449777E+03  0.19603567701E+04  0.17987484866E+04 0.  0.
        5    1    3    3  502    0  0.57609273266E+02 -0.35073160993E+03  0.51066084670E+03  0.62219617559E+03  0.46999998093E+01 0.  1.
       -5    1    3    3    0  502 -0.57609273266E+02  0.35073160993E+03 -0.12900853445E+04  0.13381605945E+04  0.46999998093E+01 0. -1.
</event>
<event>
 5   0  0.1035018E-05  0.1800337E+04  0.7818609E-02  0.8706120E-01
        2   -1    0    0  501    0  0.00000000000E+00  0.00000000000E+00  0.10419594862E+04  0.10419594862E+04  0.25500000920E-02 0.  1.
       -2   -1    0    0    0  501  0.00000000000E+00  0.00000000000E+00 -0.77767250866E+03  0.77767250866E+03  0.25500000920E-02 0. -1.
    10030    2    1    2    0    0  0.00000000000E+00  0.00000000000E+00  0.26428697751E+03  0.18196319948E+04  0.18003369102E+04 0.  0.
        3    1    3    3  502    0  0.36874093183E+03 -0.59016806080E+03 -0.44497090512E+03  0.82599475264E+03  0.10100000352E+00 0. -1.
       -3    1    3    3    0  502 -0.36874093183E+03  0.59016806080E+03  0.70925788263E+03  0.99363724219E+03  0.10100000352E+00 0.  1.
</event>
<event>
 5   0  0.1036381E-05  0.1799792E+04  0.7818609E-02  0.8706410E-01
       -2   -1    0    0    0  501  0.00000000000E+00  0.00000000000E+00  0.33558420189E+03  0.33558420190E+03  0.25500000920E-02 0.  1.
        2   -1    0    0  501    0  0.00000000000E+00  0.00000000000E+00 -0.24131443668E+04  0.24131443668E+04  0.25500000920E-02 0. -1.
    10030    2    1    2    0    0  0.00000000000E+00  0.00000000000E+00 -0.20775601649E+04  0.27487285687E+04  0.17997923507E+04 0.  0.
        4    1    3    3  502    0  0.60567933882E+03 -0.17988084516E+02 -0.22683433510E+02  0.60637214952E+03  0.12699999809E+01 0. -1.
       -4    1    3    3    0  502 -0.60567933882E+03  0.17988084516E+02 -0.20548767314E+04  0.21423564192E+04  0.12699999809E+01 0.  1.
</event>
<event>
 5   0  0.3626125E-06  0.1799790E+04  0.7818609E-02  0.8706411E-01
        3   -1    0    0  501    0  0.00000000000E+00  0.00000000000E+00  0.81845832276E+03  0.81845832899E+03  0.10100000352E+00 0. -1.
       -3   -1    0    0    0  501  0.00000000000E+00  0.00000000000E+00 -0.98943494474E+03  0.98943494990E+03  0.10100000352E+00 0.  1.
    10030    2    1    2    0    0  0.00000000000E+00  0.00000000000E+00 -0.17097662198E+03  0.18078932789E+04  0.17997902941E+04 0.  0.
        4    1    3    3  502    0  0.32955286156E+03 -0.82859878680E+03  0.36005074439E+02  0.89245673079E+03  0.12699999809E+01 0. -1.
       -4    1    3    3    0  502 -0.32955286156E+03  0.82859878680E+03 -0.20698169642E+03  0.91543654810E+03  0.12699999809E+01 0.  1.
</event>
<event>
 5   0  0.1035018E-05  0.1800273E+04  0.7818609E-02  0.8706154E-01
        2   -1    0    0  501    0  0.00000000000E+00  0.00000000000E+00  0.18077443692E+04  0.18077443692E+04  0.25500000920E-02 0. -1.
       -2   -1    0    0    0  501  0.00000000000E+00  0.00000000000E+00 -0.44820807848E+03  0.44820807849E+03  0.25500000920E-02 0.  1.
    10030    2    1    2    0    0  0.00000000000E+00  0.00000000000E+00  0.13595362907E+04  0.22559524477E+04  0.18002729017E+04 0.  0.
        3    1    3    3  502    0 -0.24370794185E+03  0.63235423203E+03 -0.62623191755E+02  0.68057851129E+03  0.10100000352E+00 0.  1.
       -3    1    3    3    0  502  0.24370794185E+03 -0.63235423203E+03  0.14221594825E+04  0.15753739364E+04  0.10100000352E+00 0. -1.
</event>
<event>
 5   0  0.1036381E-05  0.1800357E+04  0.7818609E-02  0.8706110E-01
        2   -1    0    0  501    0  0.00000000000E+00  0.00000000000E+00  0.11548246391E+04  0.11548246391E+04  0.25500000920E-02 0. -1.
       -2   -1    0    0    0  501  0.00000000000E+00  0.00000000000E+00 -0.70168335970E+03  0.70168335970E+03  0.25500000920E-02 0.  1.
    10030    2    1    2    0    0  0.00000000000E+00  0.00000000000E+00  0.45314127941E+03  0.18565079988E+04  0.18003568898E+04 0.  0.
        4    1    3    3  502    0 -0.44750083651E+03  0.71306752058E+03 -0.10211397186E+03  0.84802780835E+03  0.12699999809E+01 0.  1.
       -4    1    3    3    0  502  0.44750083651E+03 -0.71306752058E+03  0.55525525127E+03  0.10084801905E+04  0.12699999809E+01 0. -1.
</event>
<event>
 5   0  0.9999162E-06  0.1801187E+04  0.7818609E-02  0.8705669E-01
        2   -1    0    0  501    0  0.00000000000E+00  0.00000000000E+00  0.13861778052E+04  0.13861778052E+04  0.25500000920E-02 0. -1.
       -2   -1    0    0    0  501  0.00000000000E+00  0.00000000000E+00 -0.58511144027E+03  0.58511144028E+03  0.25500000920E-02 0.  1.
    10030    2    1    2    0    0  0.00000000000E+00  0.00000000000E+00  0.80106636492E+03  0.19712892455E+04  0.18011868222E+04 0.  0.
        1    1    3    3  502    0 -0.11048104735E+03  0.45291091646E+03 -0.44277749599E+03  0.64295121981E+03  0.50400001928E-02 0.  1.
       -1    1    3    3    0  502  0.11048104735E+03 -0.45291091646E+03  0.12438438609E+04  0.13283380257E+04  0.50400001928E-02 0. -1.
</event>
<event>
 5   0  0.4983159E-06  0.1800974E+04  0.7818609E-02  0.8705782E-01
        1   -1    0    0  501    0  0.00000000000E+00  0.00000000000E+00  0.28536901444E+04  0.28536901444E+04  0.50400001928E-02 0.  1.
       -1   -1    0    0    0  501  0.00000000000E+00  0.00000000000E+00 -0.28415024601E+03  0.28415024605E+03  0.50400001928E-02 0. -1.
    10030    2    1    2    0    0  0.00000000000E+00  0.00000000000E+00  0.25695398984E+04  0.31378403905E+04  0.18009739106E+04 0.  0.
        4    1    3    3  502    0  0.97474343811E+02  0.52108493990E+03  0.16541199367E+02  0.53038286781E+03  0.12699999809E+01 0. -1.
       -4    1    3    3    0  502 -0.97474343811E+02 -0.52108493990E+03  0.25529986990E+04  0.26074575227E+04  0.12699999809E+01 0.  1.
</event>
<event>
 5   0  0.1035018E-05  0.1800087E+04  0.7818609E-02  0.8706253E-01
       -2   -1    0    0    0  501  0.00000000000E+00  0.00000000000E+00  0.10258943399E+04  0.10258943399E+04  0.25500000920E-02 0.  1.
        2   -1    0    0  501    0  0.00000000000E+00  0.00000000000E+00 -0.78963157609E+03  0.78963157609E+03  0.25500000920E-02 0. -1.
    10030    2    1    2    0    0  0.00000000000E+00  0.00000000000E+00  0.23626276377E+03  0.18155259160E+04  0.18000872918E+04 0.  0.
        3    1    3    3  502    0  0.69432011549E+03  0.18221380332E+03 -0.42947672962E+03  0.83650018792E+03  0.10100000352E+00 0. -1.
       -3    1    3    3    0  502 -0.69432011549E+03 -0.18221380332E+03  0.66573949339E+03  0.97902572804E+03  0.10100000352E+00 0.  1.
</event>
<event>
 5   0  0.1000316E-05  0.1800016E+04  0.7818609E-02  0.8706291E-01
        2   -1    0    0  501    0  0.00000000000E+00  0.00000000000E+00  0.13136022363E+04  0.13136022363E+04  0.25500000920E-02 0. -1.
       -2   -1    0    0    0  501  0.00000000000E+00  0.00000000000E+00 -0.61663603814E+03  0.61663603814E+03  0.25500000920E-02 0.  1.
    10030    2    1    2    0    0  0.00000000000E+00  0.00000000000E+00  0.69696619819E+03  0.19302382745E+04  0.18000160874E+04 0.  0.
        5    1    3    3  502    0  0.52013229576E+03 -0.51788500803E+03 -0.21001195495E+03  0.76345896933E+03  0.46999998093E+01 0.  1.
       -5    1    3    3    0  502 -0.52013229576E+03  0.51788500803E+03  0.90697815314E+03  0.11667793051E+04  0.46999998093E+01 0. -1.
</event>
<event>
 5   0  0.4987456E-06  0.1800577E+04  0.7818609E-02  0.8705993E-01
        1   -1    0    0  501    0  0.00000000000E+00  0.00000000000E+00  0.13583384166E+04  0.13583384166E+04  0.50400001928E-02 0. -1.
       -1   -1    0    0    0  501  0.00000000000E+00  0.00000000000E+00 -0.59669902032E+03  0.59669902034E+03  0.50400001928E-02 0.  1.
    10030    2    1    2    0    0  0.00000000000E+00  0.00000000000E+00  0.76163939630E+03  0.19550374370E+04  0.18005767992E+04 0.  0.
        3    1    3    3  502    0 -0.22128426834E+03 -0.80330854220E+03  0.75101925504E+03  0.11217402877E+04  0.10100000352E+00 0. -1.
       -3    1    3    3    0  502  0.22128426834E+03  0.80330854220E+03  0.10620141251E+02  0.83329714927E+03  0.10100000352E+00 0.  1.
</event>
<event>
 5   0  0.4983159E-06  0.1799313E+04  0.7818609E-02  0.8706665E-01
       -1   -1    0    0    0  501  0.00000000000E+00  0.00000000000E+00  0.57166839655E+03  0.57166839657E+03  0.50400001928E-02 0.  1.
        1   -1    0    0  501    0  0.00000000000E+00  0.00000000000E+00 -0.14158233758E+04  0.14158233759E+04  0.50400001928E-02 0. -1.
    10030    2    1    2    0    0  0.00000000000E+00  0.00000000000E+00 -0.84415497929E+03  0.19874917724E+04  0.17993126233E+04 0.  0.
        4    1    3    3  502    0 -0.26268610993E+03  0.28185360532E+03 -0.13200807163E+04  0.13751582300E+04  0.12699999809E+01 0. -1.
       -4    1    3    3    0  502  0.26268610993E+03 -0.28185360532E+03  0.47592573697E+03  0.61233354243E+03  0.12699999809E+01 0.  1.
</event>
<event>
 5   0  0.1036381E-05  0.1799658E+04  0.7818609E-02  0.8706482E-01
       -2   -1    0    0    0  501  0.00000000000E+00  0.00000000000E+00  0.39782097249E+03  0.39782097250E+03  0.25500000920E-02 0. -1.
        2   -1    0    0  501    0  0.00000000000E+00  0.00000000000E+00 -0.20353172721E+04  0.20353172721E+04  0.25500000920E-02 0.  1.
    10030    2    1    2    0    0  0.00000000000E+00  0.00000000000E+00 -0.16374962996E+04  0.24331382446E+04  0.17996576302E+04 0.  0.
        4    1    3    3  502    0  0.57304350815E+03  0.59839979635E+03 -0.12933544953E+04  0.15359780733E+04  0.12699999809E+01 0.  1.
       -4    1    3    3    0  502 -0.57304350815E+03 -0.59839979635E+03 -0.34414180438E+03  0.89716017128E+03  0.12699999809E+01 0. -1.
</event>
<event>
 5   0  0.4987456E-06  0.1800274E+04  0.7818609E-02  0.8706154E-01
        1   -1    0    0  501    0  0.00000000000E+00  0.00000000000E+00  0.98327082898E+03  0.98327082899E+03  0.50400001928E-02 0. -1.
       -1   -1    0    0    0  501  0.00000000000E+00  0.00000000000E+00 -0.82403179898E+03  0.82403179899E+03  0.50400001928E-02 0.  1.
    10030    2    1    2    0    0  0.00000000000E+00  0.00000000000E+00  0.15923903000E+03  0.18073026280E+04  0.18002737904E+04 0.  0.
        3    1    3    3  502    0 -0.64122044615E+03 -0.59508738458E+03 -0.13323131707E+03  0.88489731037E+03  0.10100000352E+00 0. -1.
       -3    1    3    3    0  502  0.64122044615E+03  0.59508738458E+03  0.29247034707E+03  0.92240531761E+03  0.10100000352E+00 0.  1.
</event>
<event>
 5   0  0.1000316E-05  0.1804376E+04  0.7818609E-02  0.8703976E-01
        2   -1    0    0  501    0  0.00000000000E+00  0.00000000000E+00  0.52005931203E+03  0.52005931204E+03  0.25500000920E-02 0.  1.
       -2   -1    0    0    0  501  0.00000000000E+00  0.00000000000E+00 -0.15650968154E+04  0.15650968154E+04  0.25500000920E-02 0. -1.
    10030    2    1    2    0    0  0.00000000000E+00  0.00000000000E+00 -0.10450375033E+04  0.20851561274E+04  0.18043759842E+04 0.  0.
        5    1    3    3  502    0 -0.86243920526E+03  0.22035366073E+03 -0.69221640807E+03  0.11276270501E+04  0.46999998093E+01 0.  1.
       -5    1    3    3    0  502  0.86243920526E+03 -0.22035366073E+03 -0.35282109526E+03  0.95752907727E+03  0.46999998093E+01 0. -1.
</event>
<event>
 5   0  0.9589963E-06  0.1800508E+04  0.7818609E-02  0.8706029E-01
       -2   -1    0    0    0  501  0.00000000000E+00  0.00000000000E+00  0.54193033660E+03  0.54193033660E+03  0.25500000920E-02 0.  1.
        2   -1    0    0  501    0  0.00000000000E+00  0.00000000000E+00 -0.14955014274E+04  0.14955014274E+04  0.25500000920E-02 0. -1.
    10030    2    1    2    0    0  0.00000000000E+00  0.00000000000E+00 -0.95357109076E+03  0.20374317640E+04  0.18005083637E+04 0.  0.
        2    1    3    3  502    0  0.56051248961E+03 -0.35983740144E+02  0.31934720370E+03  0.64610503564E+03  0.25500000920E-02 0.  1.
       -2    1    3    3    0  502 -0.56051248961E+03  0.35983740144E+02 -0.12729182945E+04  0.13913267283E+04  0.25500000920E-02 0. -1.
</event>
<event>
 5   0  0.1000316E-05  0.1800238E+04  0.7818609E-02  0.8706173E-01
       -2   -1    0    0    0  501  0.00000000000E+00  0.00000000000E+00  0.73009669535E+03  0.73009669536E+03  0.25500000920E-02 0. -1.
        2   -1    0    0  501    0  0.00000000000E+00  0.00000000000E+00 -0.11097355664E+04  0.11097355664E+04  0.25500000920E-02 0.  1.
    10030    2    1    2    0    0  0.00000000000E+00  0.00000000000E+00 -0.37963887104E+03  0.18398322618E+04  0.18002380618E+04 0.  0.
        5    1    3    3  502    0  0.53684905230E+03  0.50407856252E+03  0.33914515938E+03  0.81076731019E+03  0.46999998093E+01 0. -1.
       -5    1    3    3    0  502 -0.53684905230E+03 -0.50407856252E+03 -0.71878403042E+03  0.10290649516E+04  0.46999998093E+01 0.  1.
</event>
<event>
 5   0  0.4981384E-06  0.1799336E+04  0.7818609E-02  0.8706653E-01
       -1   -1    0    0    0  501  0.00000000000E+00  0.00000000000E+00  0.73007181705E+03  0.73007181706E+03  0.50400001928E-02 0. -1.
        1   -1    0    0  501    0  0.00000000000E+00  0.00000000000E+00 -0.11086608798E+04  0.11086608798E+04  0.50400001928E-02 0.  1.
    10030    2    1    2    0    0  0.00000000000E+00  0.00000000000E+00 -0.37858906278E+03  0.18387326969E+04  0.17993355030E+04 0.  0.
        5    1    3    3  502    0  0.46710338805E+02  0.40710683822E+03  0.62915511233E+03  0.75085023729E+03  0.46999998093E+01 0. -1.
       -5    1    3    3    0  502 -0.46710338805E+02 -0.40710683822E+03 -0.10077441751E+04  0.10878824596E+04  0.46999998093E+01 0.  1.
</event>
<event>
 5   0  0.4983159E-06  0.1812541E+04  0.7818609E-02  0.8699658E-01
        1   -1    0    0  501    0  0.00000000000E+00  0.00000000000E+00  0.14199328618E+04  0.14199328619E+04  0.50400001928E-02 0. -1.
       -1   -1    0    0    0  501  0.00000000000E+00  0.00000000000E+00 -0.57842629569E+03  0.57842629571E+03  0.50400001928E-02 0.  1.
    10030    2    1    2    0    0  0.00000000000E+00  0.00000000000E+00  0.84150656616E+03  0.19983591576E+04  0.18125413159E+04 0.  0.
        4    1    3    3  502    0 -0.33573820664E+03  0.44940649929E+03 -0.36400289811E+03  0.66871972285E+03  0.12699999809E+01 0.  1.
       -4    1    3    3    0  502  0.33573820664E+03 -0.44940649929E+03  0.12055094643E+04  0.13296394347E+04  0.12699999809E+01 0. -1.
</event>
<event>
 5   0  0.1035018E-05  0.1794881E+04  0.7818609E-02  0.8709026E-01
        2   -1    0    0  501    0  0.00000000000E+00  0.00000000000E+00  0.54769641351E+03  0.54769641351E+03  0.25500000920E-02 0. -1.
       -2   -1    0    0    0  501  0.00000000000E+00  0.00000000000E+00 -0.14705218484E+04  0.14705218484E+04  0.25500000920E-02 0.  1.
    10030    2    1    2    0    0  0.00000000000E+00  0.00000000000E+00 -0.92282543492E+03  0.20182182619E+04  0.17948811018E+04 0.  0.
        3    1    3    3  502    0 -0.16661944479E+03 -0.20215008017E+03  0.50374713862E+03  0.56779211351E+03  0.10100000352E+00 0. -1.
       -3    1    3    3    0  502  0.16661944479E+03  0.20215008017E+03 -0.14265725735E+04  0.14504261484E+04  0.10100000352E+00 0.  1.
</event>
<event>
 5   0  0.4953155E-06  0.1798696E+04  0.7818609E-02  0.8706993E-01
       -1   -1    0    0    0  501  0.00000000000E+00  0.00000000000E+00  0.74838145563E+03  0.74838145564E+03  0.50400001928E-02 0. -1.
        1   -1    0    0  501    0  0.00000000000E+00  0.00000000000E+00 -0.10807683086E+04  0.10807683087E+04  0.50400001928E-02 0.  1.
    10030    2    1    2    0    0  0.00000000000E+00  0.00000000000E+00 -0.33238685302E+03  0.18291497643E+04  0.17986961500E+04 0.  0.
        2    1    3    3  502    0  0.56035771181E+03 -0.24098903325E+02 -0.88112223058E+03  0.10444893047E+04  0.25500000920E-02 0.  1.
       -2    1    3    3    0  502 -0.56035771181E+03  0.24098903325E+02  0.54873537757E+03  0.78466045964E+03  0.25500000920E-02 0. -1.
</event>
<event>
 5   0  0.1036381E-05  0.1800392E+04  0.7818609E-02  0.8706091E-01
        2   -1    0    0  501    0  0.00000000000E+00  0.00000000000E+00  0.25035877585E+04  0.25035877585E+04  0.25500000920E-02 0.  1.
       -2   -1    0    0    0  501  0.00000000000E+00  0.00000000000E+00 -0.32367659170E+03  0.32367659171E+03  0.25500000920E-02 0. -1.
    10030    2    1    2    0    0  0.00000000000E+00  0.00000000000E+00  0.21799111668E+04  0.28272643502E+04  0.18003919048E+04 0.  0.
        4    1    3    3  502    0  0.75386487624E+03  0.32564000279E+03  0.16690705526E+04  0.18601483235E+04  0.12699999809E+01 0. -1.
       -4    1    3    3    0  502 -0.75386487624E+03 -0.32564000279E+03  0.51084061419E+03  0.96711602668E+03  0.12699999809E+01 0.  1.
</event>
<event>
 5   0  0.4983159E-06  0.1799988E+04  0.7818609E-02  0.8706306E-01
       -1   -1    0    0    0  501  0.00000000000E+00  0.00000000000E+00  0.62908897755E+03  0.62908897757E+03  0.50400001928E-02 0. -1.
        1   -1    0    0  501    0  0.00000000000E+00  0.00000000000E+00 -0.12875585057E+04  0.12875585057E+04  0.50400001928E-02 0.  1.
    10030    2    1    2    0    0  0.00000000000E+00  0.00000000000E+00 -0.65846952819E+03  0.19166474833E+04  0.17999876266E+04 0.  0.
        4    1    3    3  502    0  0.19003432794E+03 -0.48932649279E+03 -0.11076649659E+04  0.12257555841E+04  0.12699999809E+01 0.  1.
       -4    1    3    3    0  502 -0.19003432794E+03  0.48932649279E+03  0.44919543767E+03  0.69089189926E+03  0.12699999809E+01 0. -1.
</event>
<event>
 5   0  0.4994123E-06  0.1799095E+04  0.7818609E-02  0.8706781E-01
        1   -1    0    0  501    0  0.00000000000E+00  0.00000000000E+00  0.60227540782E+03  0.60227540784E+03  0.50400001928E-02 0. -1.
       -1   -1    0    0    0  501  0.00000000000E+00  0.00000000000E+00 -0.13435473357E+04  0.13435473357E+04  0.50400001928E-02 0.  1.
    10030    2    1    2    0    0  0.00000000000E+00  0.00000000000E+00 -0.74127192785E+03  0.19458227435E+04  0.17990947941E+04 0.  0.
        1    1    3    3  502    0 -0.72232586529E+03 -0.44220266937E+03 -0.42783968245E+02  0.84801434211E+03  0.50400001928E-02 0. -1.
       -1    1    3    3    0  502  0.72232586529E+03  0.44220266937E+03 -0.69848795961E+03  0.10978084014E+04  0.50400001928E-02 0.  1.
</event>
<event>
 5   0  0.4981384E-06  0.1798784E+04  0.7818609E-02  0.8706946E-01
       -1   -1    0    0    0  501  0.00000000000E+00  0.00000000000E+00  0.12950299547E+04  0.12950299547E+04  0.50400001928E-02 0. -1.
        1   -1    0    0  501    0  0.00000000000E+00  0.00000000000E+00 -0.62462324405E+03  0.62462324407E+03  0.50400001928E-02 0.  1.
    10030    2    1    2    0    0  0.00000000000E+00  0.00000000000E+00  0.67040671066E+03  0.19196531988E+04  0.17987838241E+04 0.  0.
        5    1    3    3  502    0 -0.88522633189E+03 -0.13072331067E+03  0.43166196099E+03  0.99351315099E+03  0.46999998093E+01 0. -1.
       -5    1    3    3    0  502  0.88522633189E+03  0.13072331067E+03  0.23874474967E+03  0.92614004779E+03  0.46999998093E+01 0.  1.
</event>
<event>
 5   0  0.4987456E-06  0.1796805E+04  0.7818609E-02  0.8708000E-01
        1   -1    0    0  501    0  0.00000000000E+00  0.00000000000E+00  0.76722953897E+03  0.76722953898E+03  0.50400001928E-02 0. -1.
       -1   -1    0    0    0  501  0.00000000000E+00  0.00000000000E+00 -0.10520024850E+04  0.10520024850E+04  0.50400001928E-02 0.  1.
    10030    2    1    2    0    0  0.00000000000E+00  0.00000000000E+00 -0.28477294601E+03  0.18192320240E+04  0.17968053668E+04 0.  0.
        3    1    3    3  502    0 -0.35235891165E+03  0.50193413075E+03  0.52233875887E+03  0.80556344471E+03  0.10100000352E+00 0. -1.
       -3    1    3    3    0  502  0.35235891165E+03 -0.50193413075E+03 -0.80711170488E+03  0.10136685793E+04  0.10100000352E+00 0.  1.
</event>
<event>
 5   0  0.9589963E-06  0.1800181E+04  0.7818609E-02  0.8706203E-01
       -2   -1    0    0    0  501  0.00000000000E+00  0.00000000000E+00  0.60782198768E+03  0.60782198768E+03  0.25500000920E-02 0. -1.
        2   -1    0    0  501    0  0.00000000000E+00  0.00000000000E+00 -0.13328951889E+04  0.13328951889E+04  0.25500000920E-02 0.  1.
    10030    2    1    2    0    0  0.00000000000E+00  0.00000000000E+00 -0.72507320121E+03  0.19407171766E+04  0.18001811054E+04 0.  0.
        2    1    3    3  502    0 -0.44439866239E+02  0.49206514265E+03 -0.11736419821E+04  0.12733964459E+04  0.25500000920E-02 0.  1.
       -2    1    3    3    0  502  0.44439866239E+02 -0.49206514265E+03  0.44856878091E+03  0.66732073064E+03  0.25500000920E-02 0. -1.
</event>
<event>
 5   0  0.4983159E-06  0.1799134E+04  0.7818609E-02  0.8706760E-01
        1   -1    0    0  501    0  0.00000000000E+00  0.00000000000E+00  0.11696092883E+04  0.11696092883E+04  0.50400001928E-02 0. -1.
       -1   -1    0    0    0  501  0.00000000000E+00  0.00000000000E+00 -0.69187308673E+03  0.69187308675E+03  0.50400001928E-02 0.  1.
    10030    2    1    2    0    0  0.00000000000E+00  0.00000000000E+00  0.47773620160E+03  0.18614823751E+04  0.17991344459E+04 0.  0.
        4    1    3    3  502    0  0.26277394717E+03  0.37218075840E+03 -0.56367358430E+03  0.72477457652E+03  0.12699999809E+01 0.  1.
       -4    1    3    3    0  502 -0.26277394717E+03 -0.37218075840E+03  0.10414097859E+04  0.11367077986E+04  0.12699999809E+01 0. -1.
</event>
<event>
 5   0  0.1000316E-05  0.1800282E+04  0.7818609E-02  0.8706150E-01
        2   -1    0    0  501    0  0.00000000000E+00  0.00000000000E+00  0.90423936118E+03  0.90423936119E+03  0.25500000920E-02 0.  1.
       -2   -1    0    0    0  501  0.00000000000E+00  0.00000000000E+00 -0.89606092038E+03  0.89606092039E+03  0.25500000920E-02 0. -1.
    10030    2    1    2    0    0  0.00000000000E+00  0.00000000000E+00  0.81784408003E+01  0.18003002816E+04  0.18002817049E+04 0.  0.
        5    1    3    3  502    0 -0.33889244810E+03  0.33214308947E+03  0.76899210007E+03  0.90362495717E+03  0.46999998093E+01 0.  1.
       -5    1    3    3    0  502  0.33889244810E+03 -0.33214308947E+03 -0.76081365927E+03  0.89667532440E+03  0.46999998093E+01 0. -1.
</event>
<event>
 5   0  0.1036381E-05  0.1800280E+04  0.7818609E-02  0.8706151E-01
       -2   -1    0    0    0  501  0.00000000000E+00  0.00000000000E+00  0.46801273708E+03  0.46801273708E+03  0.25500000920E-02 0.  1.
        2   -1    0    0  501    0  0.00000000000E+00  0.00000000000E+00 -0.17312601558E+04  0.17312601558E+04  0.25500000920E-02 0. -1.
    10030    2    1    2    0    0  0.00000000000E+00  0.00000000000E+00 -0.12632474187E+04  0.21992728929E+04  0.18002797606E+04 0.  0.
        4    1    3    3  502    0 -0.44635706103E+03  0.66229931516E+03 -0.11388204941E+04  0.13909668362E+04  0.12699999809E+01 0. -1.
       -4    1    3    3    0  502  0.44635706103E+03 -0.66229931516E+03 -0.12442692464E+03  0.80830605668E+03  0.12699999809E+01 0.  1.
</event>
<event>
 5   0  0.4994123E-06  0.1800798E+04  0.7818609E-02  0.8705875E-01
       -1   -1    0    0    0  501  0.00000000000E+00  0.00000000000E+00  0.65516487562E+03  0.65516487564E+03  0.50400001928E-02 0.  1.
        1   -1    0    0  501    0  0.00000000000E+00  0.00000000000E+00 -0.12374262507E+04  0.12374262507E+04  0.50400001928E-02 0. -1.
    10030    2    1    2    0    0  0.00000000000E+00  0.00000000000E+00 -0.58226137503E+03  0.18925911263E+04  0.18007978405E+04 0.  0.
        1    1    3    3  502    0 -0.45378294558E+03  0.77043842743E+03 -0.17978756093E+03  0.91204051404E+03  0.50400001928E-02 0. -1.
       -1    1    3    3    0  502  0.45378294558E+03 -0.77043842743E+03 -0.40247381410E+03  0.98055061226E+03  0.50400001928E-02 0.  1.
</event>
<event>
 5   0  0.1000316E-05  0.1800118E+04  0.7818609E-02  0.8706237E-01
        2   -1    0    0  501    0  0.00000000000E+00  0.00000000000E+00  0.14320123397E+04  0.14320123397E+04  0.25500000920E-02 0.  1.
       -2   -1    0    0    0  501  0.00000000000E+00  0.00000000000E+00 -0.56571195367E+03  0.56571195367E+03  0.25500000920E-02 0. -1.
    10030    2    1    2    0    0  0.00000000000E+00  0.00000000000E+00  0.86630038607E+03  0.19977242934E+04  0.18001183277E+04 0.  0.
        5    1    3    3  502    0  0.35074962705E+03  0.69110514154E+03 -0.74724809274E+02  0.77862539431E+03  0.46999998093E+01 0. -1.
       -5    1    3    3    0  502 -0.35074962705E+03 -0.69110514154E+03  0.94102519534E+03  0.12190988991E+04  0.46999998093E+01 0.  1.
</event>
<event>
 5   0  0.9999162E-06  0.1800337E+04  0.7818609E-02  0.8706120E-01
        2   -1    0    0  501    0  0.00000000000E+00  0.00000000000E+00  0.74189058071E+03  0.74189058071E+03  0.25500000920E-02 0.  1.
       -2   -1    0    0    0  501  0.00000000000E+00  0.00000000000E+00 -0.10922137315E+04  0.10922137315E+04  0.25500000920E-02 0. -1.
    10030    2    1    2    0    0  0.00000000000E+00  0.00000000000E+00 -0.35032315078E+03  0.18341043122E+04  0.18003367235E+04 0.  0.
        1    1    3    3  502    0 -0.30889921266E+03 -0.67318455284E+03 -0.69632975250E+03  0.10165978999E+04  0.50400001928E-02 0. -1.
       -1    1    3    3    0  502  0.30889921266E+03  0.67318455284E+03  0.34600660172E+03  0.81750641234E+03  0.50400001928E-02 0.  1.
</event>
<event>
 5   0  0.1035018E-05  0.1801027E+04  0.7818609E-02  0.8705754E-01
        2   -1    0    0  501    0  0.00000000000E+00  0.00000000000E+00  0.10345327148E+04  0.10345327148E+04  0.25500000920E-02 0.  1.
       -2   -1    0    0    0  501  0.00000000000E+00  0.00000000000E+00 -0.78385575518E+03  0.78385575518E+03  0.25500000920E-02 0. -1.
    10030    2    1    2    0    0  0.00000000000E+00  0.00000000000E+00  0.25067695959E+03  0.18183884699E+04  0.18010268431E+04 0.  0.
        3    1    3    3  502    0 -0.51579120157E+03 -0.71106590155E+03 -0.74736202224E+02  0.88161260772E+03  0.10100000352E+00 0. -1.
       -3    1    3    3    0  502  0.51579120157E+03  0.71106590155E+03  0.32541316181E+03  0.93677586223E+03  0.10100000352E+00 0.  1.
</event>
<event>
 5   0  0.4994123E-06  0.1799592E+04  0.7818609E-02  0.8706516E-01
        1   -1    0    0  501    0  0.00000000000E+00  0.00000000000E+00  0.17344102834E+04  0.17344102834E+04  0.50400001928E-02 0.  1.
       -1   -1    0    0    0  501  0.00000000000E+00  0.00000000000E+00 -0.46680605787E+03  0.46680605790E+03  0.50400001928E-02 0. -1.
    10030    2    1    2    0    0  0.00000000000E+00  0.00000000000E+00  0.12676042255E+04  0.22012163413E+04  0.17995924285E+04 0.  0.
        1    1    3    3  502    0 -0.37128402972E+03 -0.78762811949E+03  0.35642621614E+03  0.94087700201E+03  0.50400001928E-02 0. -1.
       -1    1    3    3    0  502  0.37128402972E+03  0.78762811949E+03  0.91117800937E+03  0.12603393393E+04  0.50400001928E-02 0.  1.
</event>
<event>
 5   0  0.4953155E-06  0.1800378E+04  0.7818609E-02  0.8706098E-01
       -1   -1    0    0    0  501  0.00000000000E+00  0.00000000000E+00  0.97563563570E+03  0.97563563572E+03  0.50400001928E-02 0. -1.
        1   -1    0    0  501    0  0.00000000000E+00  0.00000000000E+00 -0.83057695711E+03  0.83057695713E+03  0.50400001928E-02 0.  1.
    10030    2    1    2    0    0  0.00000000000E+00  0.00000000000E+00  0.14505867859E+03  0.18062125928E+04  0.18003782687E+04 0.  0.
        2    1    3    3  502    0  0.17126804461E+03  0.87809478192E+03  0.17263892112E+03  0.91114619367E+03  0.25500000920E-02 0.  1.
       -2    1    3    3    0  502 -0.17126804461E+03 -0.87809478192E+03 -0.27580242534E+02  0.89506639918E+03  0.25500000920E-02 0. -1.
</event>
<event>
 5   0  0.9999162E-06  0.1800655E+04  0.7818609E-02  0.8705951E-01
       -2   -1    0    0    0  501  0.00000000000E+00  0.00000000000E+00  0.47617657828E+03  0.47617657828E+03  0.25500000920E-02 0. -1.
        2   -1    0    0  501    0  0.00000000000E+00  0.00000000000E+00 -0.17022881131E+04  0.17022881132E+04  0.25500000920E-02 0.  1.
    10030    2    1    2    0    0  0.00000000000E+00  0.00000000000E+00 -0.12261115349E+04  0.21784646914E+04  0.18006551352E+04 0.  0.
        1    1    3    3  502    0 -0.34466855891E+03  0.50284334487E+03  0.18848108176E+03  0.63810106033E+03  0.50400001928E-02 0. -1.
       -1    1    3    3    0  502  0.34466855891E+03 -0.50284334487E+03 -0.14145926166E+04  0.15403636311E+04  0.50400001928E-02 0.  1.
</event>
<event>
 5   0  0.1035018E-05  0.1799990E+04  0.7818609E-02  0.8706305E-01
       -2   -1    0    0    0  501  0.00000000000E+00  0.00000000000E+00  0.75251982745E+03  0.75251982745E+03  0.25500000920E-02 0. -1.
        2   -1    0    0  501    0  0.00000000000E+00  0.00000000000E+00 -0.10763712804E+04  0.10763712804E+04  0.25500000920E-02 0.  1.
    10030    2    1    2    0    0  0.00000000000E+00  0.00000000000E+00 -0.32385145292E+03  0.18288911078E+04  0.17999897002E+04 0.  0.
        3    1    3    3  502    0 -0.11816601173E+03 -0.81945208699E+03  0.19662242064E+03  0.85095553098E+03  0.10100000352E+00 0.  1.
       -3    1    3    3    0  502  0.11816601173E+03  0.81945208699E+03 -0.52047387356E+03  0.97793557685E+03  0.10100000352E+00 0. -1.
</event>
<event>
 5   0  0.4981384E-06  0.1800248E+04  0.7818609E-02  0.8706168E-01
        1   -1    0    0  501    0  0.00000000000E+00  0.00000000000E+00  0.65884926727E+03  0.65884926729E+03  0.50400001928E-02 0. -1.
       -1   -1    0    0    0  501  0.00000000000E+00  0.00000000000E+00 -0.12297544324E+04  0.12297544325E+04  0.50400001928E-02 0.  1.
    10030    2    1    2    0    0  0.00000000000E+00  0.00000000000E+00 -0.57090516517E+03  0.18886036997E+04  0.18002475461E+04 0.  0.
        5    1    3    3  502    0  0.18753780368E+03  0.56082820349E+03 -0.99736140665E+03  0.11595044489E+04  0.46999998093E+01 0.  1.
       -5    1    3    3    0  502 -0.18753780368E+03 -0.56082820349E+03  0.42645624148E+03  0.72909925081E+03  0.46999998093E+01 0. -1.
</event>
<event>
 5   0  0.1035018E-05  0.1800365E+04  0.7818609E-02  0.8706106E-01
        2   -1    0    0  501    0  0.00000000000E+00  0.00000000000E+00  0.15720111324E+04  0.15720111324E+04  0.25500000920E-02 0.  1.
       -2   -1    0    0    0  501  0.00000000000E+00  0.00000000000E+00 -0.51547227053E+03  0.51547227053E+03  0.25500000920E-02 0. -1.
    10030    2    1    2    0    0  0.00000000000E+00  0.00000000000E+00  0.10565388619E+04  0.20874834029E+04  0.18003645717E+04 0.  0.
        3    1    3    3  502    0 -0.58050393420E+03 -0.85153196935E+02  0.13198561794E+04  0.14443878389E+04  0.10100000352E+00 0.  1.
       -3    1    3    3    0  502  0.58050393420E+03  0.85153196935E+02 -0.26331731755E+03  0.64309556404E+03  0.10100000352E+00 0. -1.
</event>
<event>
 5   0  0.4983159E-06  0.1800045E+04  0.7818609E-02  0.8706276E-01
       -1   -1    0    0    0  501  0.00000000000E+00  0.00000000000E+00  0.41071217673E+03  0.41071217676E+03  0.50400001928E-02 0. -1.
        1   -1    0    0  501    0  0.00000000000E+00  0.00000000000E+00 -0.19722821143E+04  0.19722821143E+04  0.50400001928E-02 0.  1.
    10030    2    1    2    0    0  0.00000000000E+00  0.00000000000E+00 -0.15615699375E+04  0.23829942910E+04  0.18000447553E+04 0.  0.
        4    1    3    3  502    0 -0.53510635732E+03 -0.39387543383E+03  0.22916893156E+02  0.66483341365E+03  0.12699999809E+01 0. -1.
       -4    1    3    3    0  502  0.53510635732E+03  0.39387543383E+03 -0.15844868307E+04  0.17181608774E+04  0.12699999809E+01 0.  1.
</event>
<event>
 5   0  0.4983159E-06  0.1800115E+04  0.7818609E-02  0.8706238E-01
       -1   -1    0    0    0  501  0.00000000000E+00  0.00000000000E+00  0.46528320294E+03  0.46528320296E+03  0.50400001928E-02 0.  1.
        1   -1    0    0  501    0  0.00000000000E+00  0.00000000000E+00 -0.17410971922E+04  0.17410971922E+04  0.50400001928E-02 0. -1.
    10030    2    1    2    0    0  0.00000000000E+00  0.00000000000E+00 -0.12758139892E+04  0.22063803951E+04  0.18001147499E+04 0.  0.
        4    1    3    3  502    0  0.12605563673E+03 -0.54993540108E+03  0.22163444880E+03  0.60617028194E+03  0.12699999809E+01 0.  1.
       -4    1    3    3    0  502 -0.12605563673E+03  0.54993540108E+03 -0.14974484380E+04  0.16002101132E+04  0.12699999809E+01 0. -1.
</event>
<event>
 5   0  0.1035018E-05  0.1800513E+04  0.7818609E-02  0.8706027E-01
       -2   -1    0    0    0  501  0.00000000000E+00  0.00000000000E+00  0.62168468647E+03  0.62168468647E+03  0.25500000920E-02 0. -1.
        2   -1    0    0  501    0  0.00000000000E+00  0.00000000000E+00 -0.13036543796E+04  0.13036543796E+04  0.25500000920E-02 0.  1.
    10030    2    1    2    0    0  0.00000000000E+00  0.00000000000E+00 -0.68196969308E+03  0.19253390660E+04  0.18005132204E+04 0.  0.
        3    1    3    3  502    0  0.28605472988E+03  0.65909398295E+02 -0.12510392006E+04  0.12850176843E+04  0.10100000352E+00 0.  1.
       -3    1    3    3    0  502 -0.28605472988E+03 -0.65909398295E+02  0.56906950754E+03  0.64032138172E+03  0.10100000352E+00 0. -1.
</event>
<event>
 5   0  0.4987456E-06  0.1800090E+04  0.7818609E-02  0.8706252E-01
        1   -1    0    0  501    0  0.00000000000E+00  0.00000000000E+00  0.22967146272E+04  0.22967146272E+04  0.50400001928E-02 0.  1.
       -1   -1    0    0    0  501  0.00000000000E+00  0.00000000000E+00 -0.35271289003E+03  0.35271289007E+03  0.50400001928E-02 0. -1.
    10030    2    1    2    0    0  0.00000000000E+00  0.00000000000E+00  0.19440017372E+04  0.26494275173E+04  0.18000898353E+04 0.  0.
        3    1    3    3  502    0 -0.54666018693E+03  0.54777913325E+03  0.16483731529E+04  0.18209979133E+04  0.10100000352E+00 0.  1.
       -3    1    3    3    0  502  0.54666018693E+03 -0.54777913325E+03  0.29562858435E+03  0.82842960406E+03  0.10100000352E+00 0. -1.
</event>
<event>
 5   0  0.4994123E-06  0.1799679E+04  0.7818609E-02  0.8706470E-01
        1   -1    0    0  501    0  0.00000000000E+00  0.00000000000E+00  0.88677591238E+03  0.88677591240E+03  0.50400001928E-02 0. -1.
       -1   -1    0    0    0  501  0.00000000000E+00  0.00000000000E+00 -0.91309589756E+03  0.91309589757E+03  0.50400001928E-02 0.  1.
    10030    2    1    2    0    0  0.00000000000E+00  0.00000000000E+00 -0.26319985172E+02  0.17998718100E+04  0.17996793577E+04 0.  0.
        1    1    3    3  502    0 -0.28358961384E+03  0.17339117894E+03 -0.84944548892E+03  0.91216512139E+03  0.50400001928E-02 0.  1.
       -1    1    3    3    0  502  0.28358961384E+03 -0.17339117894E+03  0.82312550374E+03  0.88770668858E+03  0.50400001928E-02 0. -1.
</event>
<event>
 5   0  0.4983159E-06  0.1799740E+04  0.7818609E-02  0.8706438E-01
       -1   -1    0    0    0  501  0.00000000000E+00  0.00000000000E+00  0.35287985077E+03  0.35287985080E+03  0.50400001928E-02 0.  1.
        1   -1    0    0  501    0  0.00000000000E+00  0.00000000000E+00 -0.22947360271E+04  0.22947360271E+04  0.50400001928E-02 0. -1.
    10030    2    1    2    0    0  0.00000000000E+00  0.00000000000E+00 -0.19418561763E+04  0.26476158779E+04  0.17997401000E+04 0.  0.
        4    1    3    3  502    0  0.24881987972E+03  0.63603686474E+03 -0.10896517526E+03  0.69161351069E+03  0.12699999809E+01 0.  1.
       -4    1    3    3    0  502 -0.24881987972E+03 -0.63603686474E+03 -0.18328910011E+04  0.19560023672E+04  0.12699999809E+01 0. -1.
</event>
<event>
 5   0  0.9589963E-06  0.1800804E+04  0.7818609E-02  0.8705872E-01
       -2   -1    0    0    0  501  0.00000000000E+00  0.00000000000E+00  0.75676213203E+03  0.75676213204E+03  0.25500000920E-02 0. -1.
        2   -1    0    0  501    0  0.00000000000E+00  0.00000000000E+00 -0.10713063371E+04  0.10713063371E+04  0.25500000920E-02 0.  1.
    10030    2    1    2    0    0  0.00000000000E+00  0.00000000000E+00 -0.31454420511E+03  0.18280684692E+04  0.18008043400E+04 0.  0.
        2    1    3    3  502    0 -0.42098979555E+03 -0.10097387549E+03  0.64417170380E+03  0.77613485650E+03  0.25500000920E-02 0. -1.
       -2    1    3    3    0  502  0.42098979555E+03  0.10097387549E+03 -0.95871590891E+03  0.10519336127E+04  0.25500000920E-02 0.  1.
</event>
<event>
 5   0  0.9589963E-06  0.1799992E+04  0.7818609E-02  0.8706304E-01
        2   -1    0    0  501    0  0.00000000000E+00  0.00000000000E+00  0.23934763514E+04  0.23934763514E+04  0.25500000920E-02 0.  1.
       -2   -1    0    0    0  501  0.00000000000E+00  0.00000000000E+00 -0.33841674082E+03  0.33841674083E+03  0.25500000920E-02 0. -1.
    10030    2    1    2    0    0  0.00000000000E+00  0.00000000000E+00  0.20550596106E+04  0.27318930923E+04  0.17999916290E+04 0.  0.
        2    1    3    3  502    0 -0.54347271268E+03 -0.55332632402E+01  0.21162788656E+04  0.21849552497E+04  0.25500000920E-02 0.  1.
       -2    1    3    3    0  502  0.54347271268E+03  0.55332632402E+01 -0.61219254952E+02  0.54693784255E+03  0.25500000920E-02 0. -1.
</event>
<event>
 5   0  0.9589963E-06  0.1798540E+04  0.7818609E-02  0.8707076E-01
       -2   -1    0    0    0  501  0.00000000000E+00  0.00000000000E+00  0.20529267296E+04  0.20529267296E+04  0.25500000920E-02 0. -1.
        2   -1    0    0  501    0  0.00000000000E+00  0.00000000000E+00 -0.39391868160E+03  0.39391868160E+03  0.25500000920E-02 0.  1.
    10030    2    1    2    0    0  0.00000000000E+00  0.00000000000E+00  0.16590080480E+04  0.24468454112E+04  0.17985396195E+04 0.  0.
        2    1    3    3  502    0  0.39918746520E+03 -0.79522641086E+03  0.65237980142E+03  0.11033290906E+04  0.25500000920E-02 0.  1.
       -2    1    3    3    0  502 -0.39918746520E+03  0.79522641086E+03  0.10066282466E+04  0.13435163206E+04  0.25500000920E-02 0. -1.
</event>
<event>
 5   0  0.4953155E-06  0.1804747E+04  0.7818609E-02  0.8703779E-01
       -1   -1    0    0    0  501  0.00000000000E+00  0.00000000000E+00  0.55421037210E+03  0.55421037212E+03  0.50400001928E-02 0.  1.
        1   -1    0    0  501    0  0.00000000000E+00  0.00000000000E+00 -0.14692575591E+04  0.14692575591E+04  0.50400001928E-02 0. -1.
    10030    2    1    2    0    0  0.00000000000E+00  0.00000000000E+00 -0.91504718702E+03  0.20234679312E+04  0.18047468283E+04 0.  0.
        2    1    3    3  502    0  0.51732832181E+03 -0.28381151057E+03 -0.12229786374E+04  0.13578859722E+04  0.25500000920E-02 0. -1.
       -2    1    3    3    0  502 -0.51732832181E+03  0.28381151057E+03  0.30793145034E+03  0.66558195904E+03  0.25500000920E-02 0.  1.
</event>
<event>
 5   0  0.4983159E-06  0.1798744E+04  0.7818609E-02  0.8706968E-01
        1   -1    0    0  501    0  0.00000000000E+00  0.00000000000E+00  0.10560571247E+04  0.10560571247E+04  0.50400001928E-02 0.  1.
       -1   -1    0    0    0  501  0.00000000000E+00  0.00000000000E+00 -0.76593351956E+03  0.76593351957E+03  0.50400001928E-02 0. -1.
    10030    2    1    2    0    0  0.00000000000E+00  0.00000000000E+00  0.29012360516E+03  0.18219906443E+04  0.17987435064E+04 0.  0.
        4    1    3    3  502    0 -0.57304874843E+03  0.50903434755E+03 -0.33151559754E+03  0.83510780105E+03  0.12699999809E+01 0. -1.
       -4    1    3    3    0  502  0.57304874843E+03 -0.50903434755E+03  0.62163920271E+03  0.98688284325E+03  0.12699999809E+01 0.  1.
</event>
<event>
 5   0  0.4987456E-06  0.1801530E+04  0.7818609E-02  0.8705486E-01
        1   -1    0    0  501    0  0.00000000000E+00  0.00000000000E+00  0.11227090573E+04  0.11227090574E+04  0.50400001928E-02 0.  1.
       -1   -1    0    0    0  501  0.00000000000E+00  0.00000000000E+00 -0.72269603115E+03  0.72269603117E+03  0.50400001928E-02 0. -1.
    10030    2    1    2    0    0  0.00000000000E+00  0.00000000000E+00  0.40001302619E+03  0.18454050885E+04  0.18015297721E+04 0.  0.
        3    1    3    3  502    0 -0.50735210954E+03  0.34099898963E+03 -0.47768808934E+03  0.77580435349E+03  0.10100000352E+00 0. -1.
       -3    1    3    3    0  502  0.50735210954E+03 -0.34099898963E+03  0.87770111554E+03  0.10696007350E+04  0.10100000352E+00 0.  1.
</event>
<event>
 5   0  0.1000316E-05  0.1799966E+04  0.7818609E-02  0.8706318E-01
        2   -1    0    0  501    0  0.00000000000E+00  0.00000000000E+00  0.14580558025E+04  0.14580558025E+04  0.25500000920E-02 0. -1.
       -2   -1    0    0    0  501  0.00000000000E+00  0.00000000000E+00 -0.55551318821E+03  0.55551318822E+03  0.25500000920E-02 0.  1.
    10030    2    1    2    0    0  0.00000000000E+00  0.00000000000E+00  0.90254261433E+03  0.20135689908E+04  0.17999658080E+04 0.  0.
        5    1    3    3  502    0  0.98477609071E+02 -0.28474463914E+03  0.13999474442E+04  0.14320098762E+04  0.46999998093E+01 0. -1.
       -5    1    3    3    0  502 -0.98477609071E+02  0.28474463914E+03 -0.49740482985E+03  0.58155911459E+03  0.46999998093E+01 0.  1.
</event>
<event>
 5   0  0.4983159E-06  0.1800052E+04  0.7818609E-02  0.8706272E-01
       -1   -1    0    0    0  501  0.00000000000E+00  0.00000000000E+00  0.42756298158E+03  0.42756298161E+03  0.50400001928E-02 0. -1.
        1   -1    0    0  501    0  0.00000000000E+00  0.00000000000E+00 -0.18945670284E+04  0.18945670284E+04  0.50400001928E-02 0.  1.
    10030    2    1    2    0    0  0.00000000000E+00  0.00000000000E+00 -0.14670040468E+04  0.23221300100E+04  0.18000519187E+04 0.  0.
        4    1    3    3  502    0 -0.15162407481E+03 -0.15166067084E+03  0.39412015814E+03  0.44869046245E+03  0.12699999809E+01 0. -1.
       -4    1    3    3    0  502  0.15162407481E+03  0.15166067084E+03 -0.18611242050E+04  0.18734395475E+04  0.12699999809E+01 0.  1.
</event>
<event>
 5   0  0.1000316E-05  0.1799486E+04  0.7818609E-02  0.8706573E-01
        2   -1    0    0  501    0  0.00000000000E+00  0.00000000000E+00  0.19212254037E+04  0.19212254037E+04  0.25500000920E-02 0. -1.
       -2   -1    0    0    0  501  0.00000000000E+00  0.00000000000E+00 -0.42136502743E+03  0.42136502744E+03  0.25500000920E-02 0.  1.
    10030    2    1    2    0    0  0.00000000000E+00  0.00000000000E+00  0.14998603763E+04  0.23425904312E+04  0.17994856987E+04 0.  0.
        5    1    3    3  502    0  0.55174147476E+03  0.33089857429E+03  0.15687296057E+04  0.16955374332E+04  0.46999998093E+01 0. -1.
       -5    1    3    3    0  502 -0.55174147476E+03 -0.33089857429E+03 -0.68869229437E+02  0.64705299799E+03  0.46999998093E+01 0.  1.
</event>
<event>
 5   0  0.4983159E-06  0.1799410E+04  0.7818609E-02  0.8706613E-01
       -1   -1    0    0    0  501  0.00000000000E+00  0.00000000000E+00  0.10645013381E+04  0.10645013381E+04  0.50400001928E-02 0. -1.
        1   -1    0    0  501    0  0.00000000000E+00  0.00000000000E+00 -0.76042061651E+03  0.76042061653E+03  0.50400001928E-02 0.  1.
    10030    2    1    2    0    0  0.00000000000E+00  0.00000000000E+00  0.30408072159E+03  0.18249219546E+04  0.17994096408E+04 0.  0.
        4    1    3    3  502    0 -0.49023436435E+03  0.73539714352E+03 -0.18656579954E+02  0.88401830952E+03  0.12699999809E+01 0.  1.
       -4    1    3    3    0  502  0.49023436435E+03 -0.73539714352E+03  0.32273730154E+03  0.94090364512E+03  0.12699999809E+01 0. -1.
</event>
<event>
 5   0  0.4981384E-06  0.1799855E+04  0.7818609E-02  0.8706377E-01
       -1   -1    0    0    0  501  0.00000000000E+00  0.00000000000E+00  0.38581591271E+03  0.38581591275E+03  0.50400001928E-02 0.  1.
        1   -1    0    0  501    0  0.00000000000E+00  0.00000000000E+00 -0.20991088878E+04  0.20991088878E+04  0.50400001928E-02 0. -1.
    10030    2    1    2    0    0  0.00000000000E+00  0.00000000000E+00 -0.17132929751E+04  0.24849248006E+04  0.17998551180E+04 0.  0.
        5    1    3    3  502    0  0.38967117645E+03 -0.23116899841E+02 -0.19761191952E+04  0.20143105968E+04  0.46999998093E+01 0. -1.
       -5    1    3    3    0  502 -0.38967117645E+03  0.23116899841E+02  0.26282622009E+03  0.47061420376E+03  0.46999998093E+01 0.  1.
</event>
<event>
 5   0  0.4987456E-06  0.1800255E+04  0.7818609E-02  0.8706164E-01
        1   -1    0    0  501    0  0.00000000000E+00  0.00000000000E+00  0.11151204513E+04  0.11151204513E+04  0.50400001928E-02 0.  1.
       -1   -1    0    0    0  501  0.00000000000E+00  0.00000000000E+00 -0.72658483986E+03  0.72658483988E+03  0.50400001928E-02 0. -1.
    10030    2    1    2    0    0  0.00000000000E+00  0.00000000000E+00  0.38853561147E+03  0.18417052912E+04  0.18002551092E+04 0.  0.
        3    1    3    3  502    0  0.29481449027E+03 -0.46743191045E+03 -0.53259923235E+03  0.76750904039E+03  0.10100000352E+00 0. -1.
       -3    1    3    3    0  502 -0.29481449027E+03  0.46743191045E+03  0.92113484382E+03  0.10741962508E+04  0.10100000352E+00 0.  1.
</event>
<event>
 5   0  0.4987456E-06  0.1800205E+04  0.7818609E-02  0.8706191E-01
       -1   -1    0    0    0  501  0.00000000000E+00  0.00000000000E+00  0.54593705944E+03  0.54593705946E+03  0.50400001928E-02 0.  1.
        1   -1    0    0  501    0  0.00000000000E+00  0.00000000000E+00 -0.14840249619E+04  0.14840249619E+04  0.50400001928E-02 0. -1.
    10030    2    1    2    0    0  0.00000000000E+00  0.00000000000E+00 -0.93808790247E+03  0.20299620214E+04  0.18002046816E+04 0.  0.
        3    1    3    3  502    0  0.70217192056E+02  0.52730250604E+03  0.34971512384E+03  0.63661531947E+03  0.10100000352E+00 0.  1.
       -3    1    3    3    0  502 -0.70217192056E+02 -0.52730250604E+03 -0.12878030263E+04  0.13933467019E+04  0.10100000352E+00 0. -1.
</event>
<event>
 5   0  0.1036381E-05  0.1799855E+04  0.7818609E-02  0.8706377E-01
        2   -1    0    0  501    0  0.00000000000E+00  0.00000000000E+00  0.14426466685E+04  0.14426466685E+04  0.25500000920E-02 0.  1.
       -2   -1    0    0    0  501  0.00000000000E+00  0.00000000000E+00 -0.56137727673E+03  0.56137727673E+03  0.25500000920E-02 0. -1.
    10030    2    1    2    0    0  0.00000000000E+00  0.00000000000E+00  0.88126939173E+03  0.20040239452E+04  0.17998545030E+04 0.  0.
        4    1    3    3  502    0  0.18119670880E+03  0.68127885135E+03 -0.18218788573E+03  0.72812578528E+03  0.12699999809E+01 0. -1.
       -4    1    3    3    0  502 -0.18119670880E+03 -0.68127885135E+03  0.10634572775E+04  0.12758981599E+04  0.12699999809E+01 0.  1.
</event>
<event>
 5   0  0.9589963E-06  0.1799870E+04  0.7818609E-02  0.8706369E-01
       -2   -1    0    0    0  501  0.00000000000E+00  0.00000000000E+00  0.97000916085E+03  0.97000916086E+03  0.25500000920E-02 0.  1.
        2   -1    0    0  501    0  0.00000000000E+00  0.00000000000E+00 -0.83492270589E+03  0.83492270590E+03  0.25500000920E-02 0. -1.
    10030    2    1    2    0    0  0.00000000000E+00  0.00000000000E+00  0.13508645496E+03  0.18049318668E+04  0.17998696323E+04 0.  0.
        2    1    3    3  502    0  0.57538560834E+03  0.54946478782E+03 -0.35423754250E+03  0.87089860940E+03  0.25500000920E-02 0. -1.
       -2    1    3    3    0  502 -0.57538560834E+03 -0.54946478782E+03  0.48932399746E+03  0.93403325735E+03  0.25500000920E-02 0.  1.
</event>
<event>
 5   0  0.4987456E-06  0.1800277E+04  0.7818609E-02  0.8706152E-01
        1   -1    0    0  501    0  0.00000000000E+00  0.00000000000E+00  0.19318126615E+04  0.19318126615E+04  0.50400001928E-02 0. -1.
       -1   -1    0    0    0  501  0.00000000000E+00  0.00000000000E+00 -0.41942444093E+03  0.41942444096E+03  0.50400001928E-02 0.  1.
    10030    2    1    2    0    0  0.00000000000E+00  0.00000000000E+00  0.15123882206E+04  0.23512371025E+04  0.18002771404E+04 0.  0.
        3    1    3    3  502    0 -0.30076186717E+03  0.41033476971E+03 -0.21363938377E+03  0.55179173650E+03  0.10100000352E+00 0.  1.
       -3    1    3    3    0  502  0.30076186717E+03 -0.41033476971E+03  0.17260276043E+04  0.17994453660E+04  0.10100000352E+00 0. -1.
</event>
<event>
 5   0  0.1035018E-05  0.1800070E+04  0.7818609E-02  0.8706262E-01
       -2   -1    0    0    0  501  0.00000000000E+00  0.00000000000E+00  0.77943756974E+03  0.77943756975E+03  0.25500000920E-02 0. -1.
        2   -1    0    0  501    0  0.00000000000E+00  0.00000000000E+00 -0.10392917135E+04  0.10392917135E+04  0.25500000920E-02 0.  1.
    10030    2    1    2    0    0  0.00000000000E+00  0.00000000000E+00 -0.25985414376E+03  0.18187292833E+04  0.18000700069E+04 0.  0.
        3    1    3    3  502    0 -0.77786400462E+03 -0.42047187073E+01 -0.58735944284E+03  0.97472109582E+03  0.10100000352E+00 0.  1.
       -3    1    3    3    0  502  0.77786400462E+03  0.42047187073E+01  0.32750529908E+03  0.84400818744E+03  0.10100000352E+00 0. -1.
</event>
<event>
 5   0  0.4994123E-06  0.1790188E+04  0.7818609E-02  0.8711535E-01
       -1   -1    0    0    0  501  0.00000000000E+00  0.00000000000E+00  0.65230910521E+03  0.65230910523E+03  0.50400001928E-02 0.  1.
        1   -1    0    0  501    0  0.00000000000E+00  0.00000000000E+00 -0.12282416100E+04  0.12282416100E+04  0.50400001928E-02 0. -1.
    10030    2    1    2    0    0  0.00000000000E+00  0.00000000000E+00 -0.57593250476E+03  0.18805507152E+04  0.17901879070E+04 0.  0.
        1    1    3    3  502    0  0.39231111998E+03 -0.44204883201E+03 -0.99411636119E+03  0.11565390285E+04  0.50400001928E-02 0. -1.
       -1    1    3    3    0  502 -0.39231111998E+03  0.44204883201E+03  0.41818385643E+03  0.72401168675E+03  0.50400001928E-02 0.  1.
</event>
<event>
 5   0  0.4983159E-06  0.1799545E+04  0.7818609E-02  0.8706541E-01
        1   -1    0    0  501    0  0.00000000000E+00  0.00000000000E+00  0.16594871805E+04  0.16594871805E+04  0.50400001928E-02 0.  1.
       -1   -1    0    0    0  501  0.00000000000E+00  0.00000000000E+00 -0.48785610819E+03  0.48785610821E+03  0.50400001928E-02 0. -1.
    10030    2    1    2    0    0  0.00000000000E+00  0.00000000000E+00  0.11716310723E+04  0.21473432888E+04  0.17995454510E+04 0.  0.
        4    1    3    3  502    0  0.48004855990E+03 -0.24238654274E+03  0.14466184958E+04  0.15433420040E+04  0.12699999809E+01 0.  1.
       -4    1    3    3    0  502 -0.48004855990E+03  0.24238654274E+03 -0.27498742351E+03  0.60400128473E+03  0.12699999809E+01 0. -1.
</event>
<event>
 5   0  0.4981384E-06  0.1799717E+04  0.7818609E-02  0.8706450E-01
       -1   -1    0    0    0  501  0.00000000000E+00  0.00000000000E+00  0.65154277884E+03  0.65154277886E+03  0.50400001928E-02 0.  1.
        1   -1    0    0  501    0  0.00000000000E+00  0.00000000000E+00 -0.12428123885E+04  0.12428123885E+04  0.50400001928E-02 0. -1.
    10030    2    1    2    0    0  0.00000000000E+00  0.00000000000E+00 -0.59126960969E+03  0.18943551674E+04  0.17997171303E+04 0.  0.
        5    1    3    3  502    0 -0.15196394231E+03  0.81962234617E+03  0.61080500204E+02  0.83583894837E+03  0.46999998093E+01 0.  1.
       -5    1    3    3    0  502  0.15196394231E+03 -0.81962234617E+03 -0.65235010990E+03  0.10585162190E+04  0.46999998093E+01 0. -1.
</event>
<event>
 5   0  0.1035018E-05  0.1800367E+04  0.7818609E-02  0.8706104E-01
        2   -1    0    0  501    0  0.00000000000E+00  0.00000000000E+00  0.16621146250E+04  0.16621146250E+04  0.25500000920E-02 0.  1.
       -2   -1    0    0    0  501  0.00000000000E+00  0.00000000000E+00 -0.48752981674E+03  0.48752981675E+03  0.25500000920E-02 0. -1.
    10030    2    1    2    0    0  0.00000000000E+00  0.00000000000E+00  0.11745848083E+04  0.21496444418E+04  0.18003671165E+04 0.  0.
        3    1    3    3  502    0  0.17094452514E+03 -0.78774696196E+03  0.10657334836E+04  0.13362466745E+04  0.10100000352E+00 0.  1.
       -3    1    3    3    0  502 -0.17094452514E+03  0.78774696196E+03  0.10885132467E+03  0.81339776730E+03  0.10100000352E+00 0. -1.
</event>
<event>
 5   0  0.4994123E-06  0.1800606E+04  0.7818609E-02  0.8705977E-01
        1   -1    0    0  501    0  0.00000000000E+00  0.00000000000E+00  0.92385012211E+03  0.92385012212E+03  0.50400001928E-02 0. -1.
       -1   -1    0    0    0  501  0.00000000000E+00  0.00000000000E+00 -0.87735642601E+03  0.87735642602E+03  0.50400001928E-02 0.  1.
    10030    2    1    2    0    0  0.00000000000E+00  0.00000000000E+00  0.46493696102E+02  0.18012065481E+04  0.18006063882E+04 0.  0.
        1    1    3    3  502    0 -0.78851847386E+03 -0.39018249999E+03  0.21447037723E+03  0.90553923695E+03  0.50400001928E-02 0.  1.
       -1    1    3    3    0  502  0.78851847386E+03  0.39018249999E+03 -0.16797668113E+03  0.89566731120E+03  0.50400001928E-02 0. -1.
</event>
<event>
 5   0  0.9999162E-06  0.1801266E+04  0.7818609E-02  0.8705627E-01
        2   -1    0    0  501    0  0.00000000000E+00  0.00000000000E+00  0.33611250522E+04  0.33611250522E+04  0.25500000920E-02 0. -1.
       -2   -1    0    0    0  501  0.00000000000E+00  0.00000000000E+00 -0.24132980787E+03  0.24132980789E+03  0.25500000920E-02 0.  1.
    10030    2    1    2    0    0  0.00000000000E+00  0.00000000000E+00  0.31197952443E+04  0.36024548601E+04  0.18012658472E+04 0.  0.
        1    1    3    3  502    0  0.79826520654E+03 -0.82099313410E+02  0.74218154656E+03  0.10930695702E+04  0.50400001928E-02 0. -1.
       -1    1    3    3    0  502 -0.79826520654E+03  0.82099313410E+02  0.23776136977E+04  0.25093852898E+04  0.50400001928E-02 0.  1.
</event>
<event>
 5   0  0.4983159E-06  0.1800239E+04  0.7818609E-02  0.8706172E-01
       -1   -1    0    0    0  501  0.00000000000E+00  0.00000000000E+00  0.52415409536E+03  0.52415409539E+03  0.50400001928E-02 0. -1.
        1   -1    0    0  501    0  0.00000000000E+00  0.00000000000E+00 -0.15457574121E+04  0.15457574122E+04  0.50400001928E-02 0.  1.
    10030    2    1    2    0    0  0.00000000000E+00  0.00000000000E+00 -0.10216033168E+04  0.20699115075E+04  0.18002389597E+04 0.  0.
        4    1    3    3  502    0  0.38129840163E+03 -0.11794261574E+03 -0.14384505009E+04  0.14927961643E+04  0.12699999809E+01 0.  1.
       -4    1    3    3    0  502 -0.38129840163E+03  0.11794261574E+03  0.41684718407E+03  0.57711534329E+03  0.12699999809E+01 0. -1.
</event>
<event>
 5   0  0.4981384E-06  0.1800433E+04  0.7818609E-02  0.8706069E-01
       -1   -1    0    0    0  501  0.00000000000E+00  0.00000000000E+00  0.40145569761E+03  0.40145569764E+03  0.50400001928E-02 0. -1.
        1   -1    0    0  501    0  0.00000000000E+00  0.00000000000E+00 -0.20186274677E+04  0.20186274677E+04  0.50400001928E-02 0.  1.
    10030    2    1    2    0    0  0.00000000000E+00  0.00000000000E+00 -0.16171717701E+04  0.24200831653E+04  0.18004327239E+04 0.  0.
        5    1    3    3  502    0  0.20781097236E+03 -0.83650933575E+03 -0.11576404338E+04  0.14432902456E+04  0.46999998093E+01 0. -1.
       -5    1    3    3    0  502 -0.20781097236E+03  0.83650933575E+03 -0.45953133626E+03  0.97679291973E+03  0.46999998093E+01 0.  1.
</event>
<event>
 5   0  0.4953155E-06  0.1800585E+04  0.7818609E-02  0.8705989E-01
        1   -1    0    0  501    0  0.00000000000E+00  0.00000000000E+00  0.77584099745E+03  0.77584099747E+03  0.50400001928E-02 0. -1.
       -1   -1    0    0    0  501  0.00000000000E+00  0.00000000000E+00 -0.10447065587E+04  0.10447065587E+04  0.50400001928E-02 0.  1.
    10030    2    1    2    0    0  0.00000000000E+00  0.00000000000E+00 -0.26886556127E+03  0.18205475562E+04  0.18005845480E+04 0.  0.
        2    1    3    3  502    0  0.26722148851E+03  0.42631525593E+03 -0.88928497783E+03  0.10217532937E+04  0.25500000920E-02 0.  1.
       -2    1    3    3    0  502 -0.26722148851E+03 -0.42631525593E+03  0.62041941656E+03  0.79879426251E+03  0.25500000920E-02 0. -1.
</event>
<event>
 5   0  0.4983159E-06  0.1799745E+04  0.7818609E-02  0.8706435E-01
        1   -1    0    0  501    0  0.00000000000E+00  0.00000000000E+00  0.10270241885E+04  0.10270241886E+04  0.50400001928E-02 0. -1.
       -1   -1    0    0    0  501  0.00000000000E+00  0.00000000000E+00 -0.78846303727E+03  0.78846303729E+03  0.50400001928E-02 0.  1.
    10030    2    1    2    0    0  0.00000000000E+00  0.00000000000E+00  0.23856115127E+03  0.18154872258E+04  0.17997451054E+04 0.  0.
        4    1    3    3  502    0 -0.83169299256E+03 -0.34357328474E+03  0.12294029924E+03  0.90822451296E+03  0.12699999809E+01 0.  1.
       -4    1    3    3    0  502  0.83169299256E+03  0.34357328474E+03  0.11562085203E+03  0.90726271288E+03  0.12699999809E+01 0. -1.
</event>
<event>
 5   0  0.4981384E-06  0.1799601E+04  0.7818609E-02  0.8706512E-01
       -1   -1    0    0    0  501  0.00000000000E+00  0.00000000000E+00  0.10357917028E+04  0.10357917028E+04  0.50400001928E-02 0.  1.
        1   -1    0    0  501    0  0.00000000000E+00  0.00000000000E+00 -0.78166411489E+03  0.78166411491E+03  0.50400001928E-02 0. -1.
    10030    2    1    2    0    0  0.00000000000E+00  0.00000000000E+00  0.25412758794E+03  0.18174558177E+04  0.17996012943E+04 0.  0.
        5    1    3    3  502    0  0.51401639848E+03 -0.11653356428E+03 -0.60943565018E+03  0.80574613323E+03  0.46999998093E+01 0. -1.
       -5    1    3    3    0  502 -0.51401639848E+03  0.11653356428E+03  0.86356323811E+03  0.10117096845E+04  0.46999998093E+01 0.  1.
</event>
<event>
 5   0  0.9589963E-06  0.1799684E+04  0.7818609E-02  0.8706468E-01
        2   -1    0    0  501    0  0.00000000000E+00  0.00000000000E+00  0.12039389261E+04  0.12039389261E+04  0.25500000920E-02 0. -1.
       -2   -1    0    0    0  501  0.00000000000E+00  0.00000000000E+00 -0.67255525510E+03  0.67255525510E+03  0.25500000920E-02 0.  1.
    10030    2    1    2    0    0  0.00000000000E+00  0.00000000000E+00  0.53138367102E+03  0.18764941812E+04  0.17996838073E+04 0.  0.
        2    1    3    3  502    0 -0.44282486380E+03  0.77588326106E+03  0.15326232837E+03  0.90640941969E+03  0.25500000920E-02 0. -1.
       -2    1    3    3    0  502  0.44282486380E+03 -0.77588326106E+03  0.37812134264E+03  0.97008476153E+03  0.25500000920E-02 0.  1.
</event>
<event>
 5   0  0.4994123E-06  0.1799633E+04  0.7818609E-02  0.8706495E-01
       -1   -1    0    0    0  501  0.00000000000E+00  0.00000000000E+00  0.48302375076E+03  0.48302375079E+03  0.50400001928E-02 0.  1.
        1   -1    0    0  501    0  0.00000000000E+00  0.00000000000E+00 -0.16762528375E+04  0.16762528375E+04  0.50400001928E-02 0. -1.
    10030    2    1    2    0    0  0.00000000000E+00  0.00000000000E+00 -0.11932290867E+04  0.21592765883E+04  0.17996332213E+04 0.  0.
        1    1    3    3  502    0 -0.51758489266E+03 -0.30706345748E+03  0.20601454630E+03  0.63610068491E+03  0.50400001928E-02 0.  1.
       -1    1    3    3    0  502  0.51758489266E+03  0.30706345748E+03 -0.13992436330E+04  0.15231759034E+04  0.50400001928E-02 0. -1.
</event>
<event>
 5   0  0.4994123E-06  0.1800349E+04  0.7818609E-02  0.8706114E-01
        1   -1    0    0  501    0  0.00000000000E+00  0.00000000000E+00  0.12077888204E+04  0.12077888204E+04  0.50400001928E-02 0. -1.
       -1   -1    0    0    0  501  0.00000000000E+00  0.00000000000E+00 -0.67090728371E+03  0.67090728373E+03  0.50400001928E-02 0.  1.
    10030    2    1    2    0    0  0.00000000000E+00  0.00000000000E+00  0.53688153669E+03  0.18786961041E+04  0.18003492070E+04 0.  0.
        1    1    3    3  502    0 -0.61834067367E+03  0.29078320302E+03  0.87995834386E+03  0.11141035620E+04  0.50400001928E-02 0. -1.
       -1    1    3    3    0  502  0.61834067367E+03 -0.29078320302E+03 -0.34307680717E+03  0.76459254215E+03  0.50400001928E-02 0.  1.
</event>
<event>
 5   0  0.4994123E-06  0.1799996E+04  0.7818609E-02  0.8706301E-01
       -1   -1    0    0    0  501  0.00000000000E+00  0.00000000000E+00  0.54592461616E+03  0.54592461618E+03  0.50400001928E-02 0. -1.
        1   -1    0    0  501    0  0.00000000000E+00  0.00000000000E+00 -0.14837152858E+04  0.14837152858E+04  0.50400001928E-02 0.  1.
    10030    2    1    2    0    0  0.00000000000E+00  0.00000000000E+00 -0.93779066961E+03  0.20296399020E+04  0.17999963310E+04 0.  0.
        1    1    3    3  502    0 -0.45554200373E+03 -0.35248011040E+03  0.31087818603E+03  0.65452730422E+03  0.50400001928E-02 0. -1.
       -1    1    3    3    0  502  0.45554200373E+03  0.35248011040E+03 -0.12486688556E+04  0.13751125977E+04  0.50400001928E-02 0.  1.
</event>
<event>
 5   0  0.1036381E-05  0.1802960E+04  0.7818609E-02  0.8704727E-01
        2   -1    0    0  501    0  0.00000000000E+00  0.00000000000E+00  0.13995276744E+04  0.13995276744E+04  0.25500000920E-02 0. -1.
       -2   -1    0    0    0  501  0.00000000000E+00  0.00000000000E+00 -0.58067164635E+03  0.58067164636E+03  0.25500000920E-02 0.  1.
    10030    2    1    2    0    0  0.00000000000E+00  0.00000000000E+00  0.81885602808E+03  0.19801993208E+04  0.18029598319E+04 0.  0.
        4    1    3    3  502    0 -0.52265891634E+03 -0.71980286014E+03  0.57000574658E+03  0.10565020891E+04  0.12699999809E+01 0. -1.
       -4    1    3    3    0  502  0.52265891634E+03  0.71980286014E+03  0.24885028150E+03  0.92369723167E+03  0.12699999809E+01 0.  1.
</event>
<event>
 5   0  0.4987456E-06  0.1800024E+04  0.7818609E-02  0.8706286E-01
        1   -1    0    0  501    0  0.00000000000E+00  0.00000000000E+00  0.21718549298E+04  0.21718549298E+04  0.50400001928E-02 0. -1.
       -1   -1    0    0    0  501  0.00000000000E+00  0.00000000000E+00 -0.37296322073E+03  0.37296322076E+03  0.50400001928E-02 0.  1.
    10030    2    1    2    0    0  0.00000000000E+00  0.00000000000E+00  0.17988917090E+04  0.25448181505E+04  0.18000244549E+04 0.  0.
        3    1    3    3  502    0 -0.36591889883E+03 -0.59674936633E+03  0.99678098313E+02  0.70706589524E+03  0.10100000352E+00 0.  1.
       -3    1    3    3    0  502  0.36591889883E+03  0.59674936633E+03  0.16992136107E+04  0.18377522553E+04  0.10100000352E+00 0. -1.
</event>
<event>
 5   0  0.1036381E-05  0.1799965E+04  0.7818609E-02  0.8706318E-01
       -2   -1    0    0    0  501  0.00000000000E+00  0.00000000000E+00  0.59189717555E+03  0.59189717555E+03  0.25500000920E-02 0. -1.
        2   -1    0    0  501    0  0.00000000000E+00  0.00000000000E+00 -0.13684275594E+04  0.13684275594E+04  0.25500000920E-02 0.  1.
    10030    2    1    2    0    0  0.00000000000E+00  0.00000000000E+00 -0.77653038381E+03  0.19603247349E+04  0.17999648967E+04 0.  0.
        4    1    3    3  502    0  0.34435996078E+03 -0.58236893865E+03  0.25809827986E+03  0.72412270940E+03  0.12699999809E+01 0. -1.
       -4    1    3    3    0  502 -0.34435996078E+03  0.58236893865E+03 -0.10346286637E+04  0.12362020255E+04  0.12699999809E+01 0.  1.
</event>
<event>
 5   0  0.1035018E-05  0.1799658E+04  0.7818609E-02  0.8706481E-01
       -2   -1    0    0    0  501  0.00000000000E+00  0.00000000000E+00  0.84066998543E+03  0.84066998543E+03  0.25500000920E-02 0. -1.
        2   -1    0    0  501    0  0.00000000000E+00  0.00000000000E+00 -0.96315111864E+03  0.96315111864E+03  0.25500000920E-02 0.  1.
    10030    2    1    2    0    0  0.00000000000E+00  0.00000000000E+00 -0.12248113321E+03  0.18038211041E+04  0.17996580085E+04 0.  0.
        3    1    3    3  502    0 -0.57410983675E+03  0.69266416566E+03 -0.78787509052E+02  0.90310200577E+03  0.10100000352E+00 0. -1.
       -3    1    3    3    0  502  0.57410983675E+03 -0.69266416566E+03 -0.43693624161E+02  0.90071909830E+03  0.10100000352E+00 0.  1.
</event>
<event>
 5   0  0.9999162E-06  0.1801030E+04  0.7818609E-02  0.8705752E-01
        2   -1    0    0  501    0  0.00000000000E+00  0.00000000000E+00  0.82019999458E+03  0.82019999458E+03  0.25500000920E-02 0.  1.
       -2   -1    0    0    0  501  0.00000000000E+00  0.00000000000E+00 -0.98869447401E+03  0.98869447401E+03  0.25500000920E-02 0. -1.
    10030    2    1    2    0    0  0.00000000000E+00  0.00000000000E+00 -0.16849447943E+03  0.18088944686E+04  0.18010299300E+04 0.  0.
        1    1    3    3  502    0  0.30550027885E+03 -0.10716895155E+03 -0.92822105567E+03  0.98306151016E+03  0.50400001928E-02 0. -1.
       -1    1    3    3    0  502 -0.30550027885E+03  0.10716895155E+03  0.75972657624E+03  0.82583295843E+03  0.50400001928E-02 0.  1.
</event>
<event>
 5   0  0.1036381E-05  0.1800834E+04  0.7818609E-02  0.8705856E-01
        2   -1    0    0  501    0  0.00000000000E+00  0.00000000000E+00  0.75688339319E+03  0.75688339320E+03  0.25500000920E-02 0.  1.
       -2   -1    0    0    0  501  0.00000000000E+00  0.00000000000E+00 -0.10711704336E+04  0.10711704336E+04  0.25500000920E-02 0. -1.
    10030    2    1    2    0    0  0.00000000000E+00  0.00000000000E+00 -0.31428704037E+03  0.18280538268E+04  0.18008343760E+04 0.  0.
        4    1    3    3  502    0 -0.33024459525E+03 -0.20945106686E+03 -0.98046257825E+03  0.10555755408E+04  0.12699999809E+01 0. -1.
       -4    1    3    3    0  502  0.33024459525E+03  0.20945106686E+03  0.66617553788E+03  0.77247828595E+03  0.12699999809E+01 0.  1.
</event>
<event>
 5   0  0.4987456E-06  0.1800045E+04  0.7818609E-02  0.8706275E-01
        1   -1    0    0  501    0  0.00000000000E+00  0.00000000000E+00  0.16506633577E+04  0.16506633577E+04  0.50400001928E-02 0.  1.
       -1   -1    0    0    0  501  0.00000000000E+00  0.00000000000E+00 -0.49073656498E+03  0.49073656500E+03  0.50400001928E-02 0. -1.
    10030    2    1    2    0    0  0.00000000000E+00  0.00000000000E+00  0.11599267927E+04  0.21413999227E+04  0.18000454062E+04 0.  0.
        3    1    3    3  502    0  0.40643219142E+03 -0.16242574423E+03 -0.35560211964E+03  0.56393450533E+03  0.10100000352E+00 0. -1.
       -3    1    3    3    0  502 -0.40643219142E+03  0.16242574423E+03  0.15155289123E+04  0.15774654174E+04  0.10100000352E+00 0.  1.
</event>
<event>
 5   0  0.1035018E-05  0.1800131E+04  0.7818609E-02  0.8706230E-01
        2   -1    0    0  501    0  0.00000000000E+00  0.00000000000E+00  0.23548251316E+04  0.23548251316E+04  0.25500000920E-02 0.  1.
       -2   -1    0    0    0  501  0.00000000000E+00  0.00000000000E+00 -0.34402477615E+03  0.34402477616E+03  0.25500000920E-02 0. -1.
    10030    2    1    2    0    0  0.00000000000E+00  0.00000000000E+00  0.20108003555E+04  0.26988499078E+04  0.18001313161E+04 0.  0.
        3    1    3    3  502    0  0.58796624612E+03  0.55371839392E+03  0.16009821547E+04  0.17931682119E+04  0.10100000352E+00 0. -1.
       -3    1    3    3    0  502 -0.58796624612E+03 -0.55371839392E+03  0.40981820076E+03  0.90568169586E+03  0.10100000352E+00 0.  1.
</event>
<event>
 5   0  0.4987456E-06  0.1798192E+04  0.7818609E-02  0.8707261E-01
       -1   -1    0    0    0  501  0.00000000000E+00  0.00000000000E+00  0.14447098825E+04  0.14447098825E+04  0.50400001928E-02 0. -1.
        1   -1    0    0  501    0  0.00000000000E+00  0.00000000000E+00 -0.55954059459E+03  0.55954059461E+03  0.50400001928E-02 0.  1.
    10030    2    1    2    0    0  0.00000000000E+00  0.00000000000E+00  0.88516928792E+03  0.20042504771E+04  0.17981922330E+04 0.  0.
        3    1    3    3  502    0 -0.64165533740E+03 -0.15165040236E+03 -0.23873502778E+03  0.70122310304E+03  0.10100000352E+00 0.  1.
       -3    1    3    3    0  502  0.64165533740E+03  0.15165040236E+03  0.11239043157E+04  0.13030273741E+04  0.10100000352E+00 0. -1.
</event>
<event>
 5   0  0.1036381E-05  0.1799858E+04  0.7818609E-02  0.8706375E-01
       -2   -1    0    0    0  501  0.00000000000E+00  0.00000000000E+00  0.43761455930E+03  0.43761455930E+03  0.25500000920E-02 0. -1.
        2   -1    0    0  501    0  0.00000000000E+00  0.00000000000E+00 -0.18506525563E+04  0.18506525563E+04  0.25500000920E-02 0.  1.
    10030    2    1    2    0    0  0.00000000000E+00  0.00000000000E+00 -0.14130379970E+04  0.22882671156E+04  0.17998583309E+04 0.  0.
        4    1    3    3  502    0  0.60165987692E+03  0.81956526119E+02 -0.15509538917E+04  0.16655843019E+04  0.12699999809E+01 0.  1.
       -4    1    3    3    0  502 -0.60165987692E+03 -0.81956526119E+02  0.13791589462E+03  0.62268281377E+03  0.12699999809E+01 0. -1.
</event>
<event>
 5   0  0.9589963E-06  0.1795800E+04  0.7818609E-02  0.8708536E-01
       -2   -1    0    0    0  501  0.00000000000E+00  0.00000000000E+00  0.60792370028E+03  0.60792370029E+03  0.25500000920E-02 0. -1.
        2   -1    0    0  501    0  0.00000000000E+00  0.00000000000E+00 -0.13261938696E+04  0.13261938696E+04  0.25500000920E-02 0.  1.
    10030    2    1    2    0    0  0.00000000000E+00  0.00000000000E+00 -0.71827016936E+03  0.19341175699E+04  0.17958003057E+04 0.  0.
        2    1    3    3  502    0 -0.55798020840E+03 -0.69089514088E+03 -0.21646850293E+03  0.91407692314E+03  0.25500000920E-02 0. -1.
       -2    1    3    3    0  502  0.55798020840E+03  0.69089514088E+03 -0.50180166643E+03  0.10200406468E+04  0.25500000920E-02 0.  1.
</event>
<event>
 5   0  0.9999162E-06  0.1799796E+04  0.7818609E-02  0.8706408E-01
        2   -1    0    0  501    0  0.00000000000E+00  0.00000000000E+00  0.18202400587E+04  0.18202400587E+04  0.25500000920E-02 0.  1.
       -2   -1    0    0    0  501  0.00000000000E+00  0.00000000000E+00 -0.44489539085E+03  0.44489539086E+03  0.25500000920E-02 0. -1.
    10030    2    1    2    0    0  0.00000000000E+00  0.00000000000E+00  0.13753446678E+04  0.22651354495E+04  0.17997960022E+04 0.  0.
        1    1    3    3  502    0  0.26850375822E+03 -0.42285214360E+03 -0.25323103463E+03  0.56127013144E+03  0.50400001928E-02 0. -1.
       -1    1    3    3    0  502 -0.26850375822E+03  0.42285214360E+03  0.16285757024E+04  0.17038653181E+04  0.50400001928E-02 0.  1.
</event>
<event>
 5   0  0.1035018E-05  0.1801122E+04  0.7818609E-02  0.8705703E-01
        2   -1    0    0  501    0  0.00000000000E+00  0.00000000000E+00  0.61735957854E+03  0.61735957855E+03  0.25500000920E-02 0. -1.
       -2   -1    0    0    0  501  0.00000000000E+00  0.00000000000E+00 -0.13136748934E+04  0.13136748935E+04  0.25500000920E-02 0.  1.
    10030    2    1    2    0    0  0.00000000000E+00  0.00000000000E+00 -0.69631531490E+03  0.19310344720E+04  0.18011216267E+04 0.  0.
        3    1    3    3  502    0 -0.22984163263E+03  0.79455659675E+03  0.33710511684E+02  0.82781868204E+03  0.10100000352E+00 0. -1.
       -3    1    3    3    0  502  0.22984163263E+03 -0.79455659675E+03 -0.73002582659E+03  0.11032157900E+04  0.10100000352E+00 0.  1.
</event>
<event>
 5   0  0.9589963E-06  0.1800144E+04  0.7818609E-02  0.8706223E-01
        2   -1    0    0  501    0  0.00000000000E+00  0.00000000000E+00  0.60765320604E+03  0.60765320604E+03  0.25500000920E-02 0. -1.
       -2   -1    0    0    0  501  0.00000000000E+00  0.00000000000E+00 -0.13332100784E+04  0.13332100784E+04  0.25500000920E-02 0.  1.
    10030    2    1    2    0    0  0.00000000000E+00  0.00000000000E+00 -0.72555687233E+03  0.19408632844E+04  0.18001437481E+04 0.  0.
        2    1    3    3  502    0  0.49300976275E+03  0.42220131379E+03 -0.10350740385E+04  0.12217572757E+04  0.25500000920E-02 0.  1.
       -2    1    3    3    0  502 -0.49300976275E+03 -0.42220131379E+03  0.30951716621E+03  0.71910600868E+03  0.25500000920E-02 0. -1.
</event>
<event>
 5   0  0.4953155E-06  0.1799951E+04  0.7818609E-02  0.8706325E-01
        1   -1    0    0  501    0  0.00000000000E+00  0.00000000000E+00  0.15862203880E+04  0.15862203880E+04  0.50400001928E-02 0.  1.
       -1   -1    0    0    0  501  0.00000000000E+00  0.00000000000E+00 -0.51062015871E+03  0.51062015874E+03  0.50400001928E-02 0. -1.
    10030    2    1    2    0    0  0.00000000000E+00  0.00000000000E+00  0.10756002293E+04  0.20968405467E+04  0.17999512286E+04 0.  0.
        2    1    3    3  502    0 -0.47595489634E+03  0.53233927406E+03 -0.10030577930E+03  0.72109598212E+03  0.25500000920E-02 0. -1.
       -2    1    3    3    0  502  0.47595489634E+03 -0.53233927406E+03  0.11759060086E+04  0.13757445646E+04  0.25500000920E-02 0.  1.
</event>
<event>
 5   0  0.4953155E-06  0.1800596E+04  0.7818609E-02  0.8705983E-01
       -1   -1    0    0    0  501  0.00000000000E+00  0.00000000000E+00  0.24090552800E+04  0.24090552800E+04  0.50400001928E-02 0.  1.
        1   -1    0    0  501    0  0.00000000000E+00  0.00000000000E+00 -0.33645412579E+03  0.33645412583E+03  0.50400001928E-02 0. -1.
    10030    2    1    2    0    0  0.00000000000E+00  0.00000000000E+00  0.20726011542E+04  0.27455094059E+04  0.18005961105E+04 0.  0.
        2    1    3    3  502    0  0.39226232731E+03 -0.30306398186E+03  0.21822390673E+04  0.22378303906E+04  0.25500000920E-02 0. -1.
       -2    1    3    3    0  502 -0.39226232731E+03  0.30306398186E+03 -0.10963791303E+03  0.50767901524E+03  0.25500000920E-02 0.  1.
</event>
<event>
 5   0  0.4983159E-06  0.1800307E+04  0.7818609E-02  0.8706136E-01
        1   -1    0    0  501    0  0.00000000000E+00  0.00000000000E+00  0.17449598769E+04  0.17449598770E+04  0.50400001928E-02 0. -1.
       -1   -1    0    0    0  501  0.00000000000E+00  0.00000000000E+00 -0.46435236368E+03  0.46435236371E+03  0.50400001928E-02 0.  1.
    10030    2    1    2    0    0  0.00000000000E+00  0.00000000000E+00  0.12806075133E+04  0.22093122407E+04  0.18003069110E+04 0.  0.
        4    1    3    3  502    0  0.84455321726E+03 -0.12229150678E+03  0.28878545581E+03  0.90090177145E+03  0.12699999809E+01 0.  1.
       -4    1    3    3    0  502 -0.84455321726E+03  0.12229150678E+03  0.99182205745E+03  0.13084104692E+04  0.12699999809E+01 0. -1.
</event>
<event>
 5   0  0.4981384E-06  0.1799409E+04  0.7818609E-02  0.8706614E-01
        1   -1    0    0  501    0  0.00000000000E+00  0.00000000000E+00  0.75985688052E+03  0.75985688054E+03  0.50400001928E-02 0.  1.
       -1   -1    0    0    0  501  0.00000000000E+00  0.00000000000E+00 -0.10652903546E+04  0.10652903546E+04  0.50400001928E-02 0. -1.
    10030    2    1    2    0    0  0.00000000000E+00  0.00000000000E+00 -0.30543347405E+03  0.18251472351E+04  0.17994090204E+04 0.  0.
        5    1    3    3  502    0  0.14914142965E+03 -0.47927104637E+03  0.60462398564E+03  0.78583468740E+03  0.46999998093E+01 0.  1.
       -5    1    3    3    0  502 -0.14914142965E+03  0.47927104637E+03 -0.91005745969E+03  0.10393125477E+04  0.46999998093E+01 0. -1.
</event>
<event>
 5   0  0.4981384E-06  0.1799952E+04  0.7818609E-02  0.8706325E-01
       -1   -1    0    0    0  501  0.00000000000E+00  0.00000000000E+00  0.11869314093E+04  0.11869314093E+04  0.50400001928E-02 0.  1.
        1   -1    0    0  501    0  0.00000000000E+00  0.00000000000E+00 -0.68239566067E+03  0.68239566069E+03  0.50400001928E-02 0. -1.
    10030    2    1    2    0    0  0.00000000000E+00  0.00000000000E+00  0.50453574867E+03  0.18693270700E+04  0.17999520474E+04 0.  0.
        5    1    3    3  502    0  0.62167238628E+03  0.53797364697E+03  0.63249728345E+03  0.10372883419E+04  0.46999998093E+01 0. -1.
       -5    1    3    3    0  502 -0.62167238628E+03 -0.53797364697E+03 -0.12796153479E+03  0.83203872811E+03  0.46999998093E+01 0.  1.
</event>
<event>
 5   0  0.1035018E-05  0.1799532E+04  0.7818609E-02  0.8706549E-01
        2   -1    0    0  501    0  0.00000000000E+00  0.00000000000E+00  0.16308994724E+04  0.16308994724E+04  0.25500000920E-02 0. -1.
       -2   -1    0    0    0  501  0.00000000000E+00  0.00000000000E+00 -0.49640004384E+03  0.49640004385E+03  0.25500000920E-02 0.  1.
    10030    2    1    2    0    0  0.00000000000E+00  0.00000000000E+00  0.11344994285E+04  0.21272995162E+04  0.17995316831E+04 0.  0.
        3    1    3    3  502    0  0.62487385604E+03  0.56078947203E+03  0.18487446995E+03  0.85972713563E+03  0.10100000352E+00 0.  1.
       -3    1    3    3    0  502 -0.62487385604E+03 -0.56078947203E+03  0.94962495857E+03  0.12675723806E+04  0.10100000352E+00 0. -1.
</event>
<event>
 5   0  0.1035018E-05  0.1801060E+04  0.7818609E-02  0.8705736E-01
       -2   -1    0    0    0  501  0.00000000000E+00  0.00000000000E+00  0.41398876209E+03  0.41398876209E+03  0.25500000920E-02 0. -1.
        2   -1    0    0  501    0  0.00000000000E+00  0.00000000000E+00 -0.19588790940E+04  0.19588790940E+04  0.25500000920E-02 0.  1.
    10030    2    1    2    0    0  0.00000000000E+00  0.00000000000E+00 -0.15448903319E+04  0.23728678561E+04  0.18010596117E+04 0.  0.
        3    1    3    3  502    0 -0.78683645291E+03 -0.37532084679E+03 -0.47498363362E+03  0.99276724567E+03  0.10100000352E+00 0. -1.
       -3    1    3    3    0  502  0.78683645291E+03  0.37532084679E+03 -0.10699066983E+04  0.13801006105E+04  0.10100000352E+00 0.  1.
</event>
<event>
 5   0  0.4981384E-06  0.1799615E+04  0.7818609E-02  0.8706504E-01
       -1   -1    0    0    0  501  0.00000000000E+00  0.00000000000E+00  0.11812270728E+04  0.11812270728E+04  0.50400001928E-02 0.  1.
        1   -1    0    0  501    0  0.00000000000E+00  0.00000000000E+00 -0.68543402768E+03  0.68543402770E+03  0.50400001928E-02 0. -1.
    10030    2    1    2    0    0  0.00000000000E+00  0.00000000000E+00  0.49579304508E+03  0.18666611005E+04  0.17996146589E+04 0.  0.
        5    1    3    3  502    0  0.82713567690E+03  0.90023771143E+02  0.60325841855E+03  0.10277161655E+04  0.46999998093E+01 0. -1.
       -5    1    3    3    0  502 -0.82713567690E+03 -0.90023771143E+02 -0.10746537347E+03  0.83894493494E+03  0.46999998093E+01 0.  1.
</event>
<event>
 5   0  0.9999162E-06  0.1799822E+04  0.7818609E-02  0.8706394E-01
       -2   -1    0    0    0  501  0.00000000000E+00  0.00000000000E+00  0.30760670862E+03  0.30760670863E+03  0.25500000920E-02 0. -1.
        2   -1    0    0  501    0  0.00000000000E+00  0.00000000000E+00 -0.26327115003E+04  0.26327115003E+04  0.25500000920E-02 0.  1.
    10030    2    1    2    0    0  0.00000000000E+00  0.00000000000E+00 -0.23251047917E+04  0.29403182090E+04  0.17998219016E+04 0.  0.
        1    1    3    3  502    0  0.51713253538E+03 -0.61750593395E+03 -0.18182637162E+04  0.19886735728E+04  0.50400001928E-02 0.  1.
       -1    1    3    3    0  502 -0.51713253538E+03  0.61750593395E+03 -0.50684107549E+03  0.95164463611E+03  0.50400001928E-02 0. -1.
</event>
<event>
 5   0  0.4953155E-06  0.1799957E+04  0.7818609E-02  0.8706322E-01
        1   -1    0    0  501    0  0.00000000000E+00  0.00000000000E+00  0.81285234473E+03  0.81285234474E+03  0.50400001928E-02 0.  1.
       -1   -1    0    0    0  501  0.00000000000E+00  0.00000000000E+00 -0.99644381899E+03  0.99644381901E+03  0.50400001928E-02 0. -1.
    10030    2    1    2    0    0  0.00000000000E+00  0.00000000000E+00 -0.18359147427E+03  0.18092961637E+04  0.17999574380E+04 0.  0.
        2    1    3    3  502    0  0.37098938723E+03  0.50735525465E+03 -0.73927997444E+03  0.97034909206E+03  0.25500000920E-02 0. -1.
       -2    1    3    3    0  502 -0.37098938723E+03 -0.50735525465E+03  0.55568850017E+03  0.83894707168E+03  0.25500000920E-02 0.  1.
</event>
<event>
 5   0  0.1035018E-05  0.1798672E+04  0.7818609E-02  0.8707006E-01
        2   -1    0    0  501    0  0.00000000000E+00  0.00000000000E+00  0.91572587399E+03  0.91572587399E+03  0.25500000920E-02 0. -1.
       -2   -1    0    0    0  501  0.00000000000E+00  0.00000000000E+00 -0.88323964329E+03  0.88323964329E+03  0.25500000920E-02 0.  1.
    10030    2    1    2    0    0  0.00000000000E+00  0.00000000000E+00  0.32486230703E+02  0.17989655173E+04  0.17986721706E+04 0.  0.
        3    1    3    3  502    0  0.59506145660E+03  0.77309165642E+02  0.68622589078E+03  0.91158149806E+03  0.10100000352E+00 0. -1.
       -3    1    3    3    0  502 -0.59506145660E+03 -0.77309165642E+02 -0.65373966008E+03  0.88738401923E+03  0.10100000352E+00 0.  1.
</event>
<event>
 5   0  0.1036381E-05  0.1799528E+04  0.7818609E-02  0.8706550E-01
       -2   -1    0    0    0  501  0.00000000000E+00  0.00000000000E+00  0.88742251785E+03  0.88742251785E+03  0.25500000920E-02 0. -1.
        2   -1    0    0  501    0  0.00000000000E+00  0.00000000000E+00 -0.91227746082E+03  0.91227746082E+03  0.25500000920E-02 0.  1.
    10030    2    1    2    0    0  0.00000000000E+00  0.00000000000E+00 -0.24854942974E+02  0.17996999787E+04  0.17995283396E+04 0.  0.
        4    1    3    3  502    0  0.47325870371E+03 -0.76192507763E+03 -0.83640469396E+02  0.90083348382E+03  0.12699999809E+01 0.  1.
       -4    1    3    3    0  502 -0.47325870371E+03  0.76192507763E+03  0.58785526421E+02  0.89886649485E+03  0.12699999809E+01 0. -1.
</event>
<event>
 5   0  0.1000316E-05  0.1800102E+04  0.7818609E-02  0.8706245E-01
       -2   -1    0    0    0  501  0.00000000000E+00  0.00000000000E+00  0.77479214916E+03  0.77479214916E+03  0.25500000920E-02 0.  1.
        2   -1    0    0  501    0  0.00000000000E+00  0.00000000000E+00 -0.10455602522E+04  0.10455602522E+04  0.25500000920E-02 0. -1.
    10030    2    1    2    0    0  0.00000000000E+00  0.00000000000E+00 -0.27076810303E+03  0.18203524014E+04  0.18001020803E+04 0.  0.
        5    1    3    3  502    0  0.30137657523E+03  0.51043931164E+03  0.54950417890E+03  0.80830258170E+03  0.46999998093E+01 0. -1.
       -5    1    3    3    0  502 -0.30137657523E+03 -0.51043931164E+03 -0.82027228192E+03  0.10120498196E+04  0.46999998093E+01 0.  1.
</event>
<event>
 5   0  0.4994123E-06  0.1799756E+04  0.7818609E-02  0.8706429E-01
       -1   -1    0    0    0  501  0.00000000000E+00  0.00000000000E+00  0.86031721579E+03  0.86031721581E+03  0.50400001928E-02 0. -1.
        1   -1    0    0  501    0  0.00000000000E+00  0.00000000000E+00 -0.94125743863E+03  0.94125743864E+03  0.50400001928E-02 0.  1.
    10030    2    1    2    0    0  0.00000000000E+00  0.00000000000E+00 -0.80940222832E+02  0.18015746544E+04  0.17997555156E+04 0.  0.
        1    1    3    3  502    0  0.40533887778E+03 -0.79706379371E+03 -0.14141688283E+03  0.90532261204E+03  0.50400001928E-02 0.  1.
       -1    1    3    3    0  502 -0.40533887778E+03  0.79706379371E+03  0.60476660002E+02  0.89625204241E+03  0.50400001928E-02 0. -1.
</event>
<event>
 5   0  0.4987456E-06  0.1799741E+04  0.7818609E-02  0.8706437E-01
        1   -1    0    0  501    0  0.00000000000E+00  0.00000000000E+00  0.12926743235E+04  0.12926743235E+04  0.50400001928E-02 0.  1.
       -1   -1    0    0    0  501  0.00000000000E+00  0.00000000000E+00 -0.62642758484E+03  0.62642758486E+03  0.50400001928E-02 0. -1.
    10030    2    1    2    0    0  0.00000000000E+00  0.00000000000E+00  0.66624673863E+03  0.19191019083E+04  0.17997409308E+04 0.  0.
        3    1    3    3  502    0 -0.32572639789E+03 -0.77672752774E+03 -0.46893167356E+01  0.84227390944E+03  0.10100000352E+00 0. -1.
       -3    1    3    3    0  502  0.32572639789E+03  0.77672752774E+03  0.67093605536E+03  0.10768279989E+04  0.10100000352E+00 0.  1.
</event>
<event>
 5   0  0.4983159E-06  0.1799192E+04  0.7818609E-02  0.8706729E-01
        1   -1    0    0  501    0  0.00000000000E+00  0.00000000000E+00  0.95187014340E+03  0.95187014341E+03  0.50400001928E-02 0. -1.
       -1   -1    0    0    0  501  0.00000000000E+00  0.00000000000E+00 -0.85019241194E+03  0.85019241196E+03  0.50400001928E-02 0.  1.
    10030    2    1    2    0    0  0.00000000000E+00  0.00000000000E+00  0.10167773146E+03  0.18020625554E+04  0.17991917887E+04 0.  0.
        4    1    3    3  502    0 -0.85219892808E+03 -0.22843352029E+03 -0.12507244240E+03  0.89110583825E+03  0.12699999809E+01 0.  1.
       -4    1    3    3    0  502  0.85219892808E+03  0.22843352029E+03  0.22675017386E+03  0.91095671712E+03  0.12699999809E+01 0. -1.
</event>
<event>
 5   0  0.4981384E-06  0.1799451E+04  0.7818609E-02  0.8706591E-01
       -1   -1    0    0    0  501  0.00000000000E+00  0.00000000000E+00  0.10356648732E+04  0.10356648732E+04  0.50400001928E-02 0.  1.
        1   -1    0    0  501    0  0.00000000000E+00  0.00000000000E+00 -0.78162941751E+03  0.78162941752E+03  0.50400001928E-02 0. -1.
    10030    2    1    2    0    0  0.00000000000E+00  0.00000000000E+00  0.25403545573E+03  0.18172942908E+04  0.17994511737E+04 0.  0.
        5    1    3    3  502    0 -0.76604366365E+03 -0.46603190401E+03  0.52287970012E+02  0.89820084167E+03  0.46999998093E+01 0.  1.
       -5    1    3    3    0  502  0.76604366365E+03  0.46603190401E+03  0.20174748572E+03  0.91909344910E+03  0.46999998093E+01 0. -1.
</event>
<event>
 5   0  0.1035018E-05  0.1801011E+04  0.7818609E-02  0.8705762E-01
        2   -1    0    0  501    0  0.00000000000E+00  0.00000000000E+00  0.88756714372E+03  0.88756714373E+03  0.25500000920E-02 0.  1.
       -2   -1    0    0    0  501  0.00000000000E+00  0.00000000000E+00 -0.91363265287E+03  0.91363265287E+03  0.25500000920E-02 0. -1.
    10030    2    1    2    0    0  0.00000000000E+00  0.00000000000E+00 -0.26065509144E+02  0.18011997966E+04  0.18010111872E+04 0.  0.
        3    1    3    3  502    0 -0.50110277128E+03 -0.52434514744E+02 -0.75947339451E+03  0.91140178455E+03  0.10100000352E+00 0. -1.
       -3    1    3    3    0  502  0.50110277128E+03  0.52434514744E+02  0.73340788536E+03  0.88979801204E+03  0.10100000352E+00 0.  1.
</event>
<event>
 5   0  0.4953155E-06  0.1804643E+04  0.7818609E-02  0.8703834E-01
        1   -1    0    0  501    0  0.00000000000E+00  0.00000000000E+00  0.73510122399E+03  0.73510122401E+03  0.50400001928E-02 0. -1.
       -1   -1    0    0    0  501  0.00000000000E+00  0.00000000000E+00 -0.11075810827E+04  0.11075810827E+04  0.50400001928E-02 0.  1.
    10030    2    1    2    0    0  0.00000000000E+00  0.00000000000E+00 -0.37247985872E+03  0.18426823067E+04  0.18046431332E+04 0.  0.
        2    1    3    3  502    0  0.75299473872E+02 -0.36485521741E+03 -0.10253868612E+04  0.10909663402E+04  0.25500000920E-02 0.  1.
       -2    1    3    3    0  502 -0.75299473872E+02  0.36485521741E+03  0.65290700245E+03  0.75171596650E+03  0.25500000920E-02 0. -1.
</event>
<event>
 5   0  0.4983159E-06  0.1800771E+04  0.7818609E-02  0.8705889E-01
       -1   -1    0    0    0  501  0.00000000000E+00  0.00000000000E+00  0.50382634776E+03  0.50382634778E+03  0.50400001928E-02 0.  1.
        1   -1    0    0  501    0  0.00000000000E+00  0.00000000000E+00 -0.16090751919E+04  0.16090751919E+04  0.50400001928E-02 0. -1.
    10030    2    1    2    0    0  0.00000000000E+00  0.00000000000E+00 -0.11052488442E+04  0.21129015397E+04  0.18007714761E+04 0.  0.
        4    1    3    3  502    0  0.81940296538E+03  0.34253237277E+03 -0.72643284474E+03  0.11473691372E+04  0.12699999809E+01 0. -1.
       -4    1    3    3    0  502 -0.81940296538E+03 -0.34253237277E+03 -0.37881599941E+03  0.96553240255E+03  0.12699999809E+01 0.  1.
</event>
<event>
 5   0  0.4987456E-06  0.1798849E+04  0.7818609E-02  0.8706912E-01
       -1   -1    0    0    0  501  0.00000000000E+00  0.00000000000E+00  0.77114215403E+03  0.77114215405E+03  0.50400001928E-02 0. -1.
        1   -1    0    0  501    0  0.00000000000E+00  0.00000000000E+00 -0.10490465071E+04  0.10490465071E+04  0.50400001928E-02 0.  1.
    10030    2    1    2    0    0  0.00000000000E+00  0.00000000000E+00 -0.27790435308E+03  0.18201886612E+04  0.17988485019E+04 0.  0.
        3    1    3    3  502    0 -0.31963069833E+03 -0.77483214258E+03  0.19116243137E+03  0.85969280435E+03  0.10100000352E+00 0. -1.
       -3    1    3    3    0  502  0.31963069833E+03  0.77483214258E+03 -0.46906678445E+03  0.96049585682E+03  0.10100000352E+00 0.  1.
</event>
<event>
 5   0  0.4983159E-06  0.1799915E+04  0.7818609E-02  0.8706345E-01
       -1   -1    0    0    0  501  0.00000000000E+00  0.00000000000E+00  0.34286064599E+03  0.34286064603E+03  0.50400001928E-02 0. -1.
        1   -1    0    0  501    0  0.00000000000E+00  0.00000000000E+00 -0.23622534998E+04  0.23622534998E+04  0.50400001928E-02 0.  1.
    10030    2    1    2    0    0  0.00000000000E+00  0.00000000000E+00 -0.20193928538E+04  0.27051141459E+04  0.17999152880E+04 0.  0.
        4    1    3    3  502    0 -0.57320126399E+03 -0.14475321419E+03  0.10081050407E+02  0.59128370731E+03  0.12699999809E+01 0. -1.
       -4    1    3    3    0  502  0.57320126399E+03  0.14475321419E+03 -0.20294739042E+04  0.21138304385E+04  0.12699999809E+01 0.  1.
</event>
<event>
 5   0  0.9589963E-06  0.1799989E+04  0.7818609E-02  0.8706305E-01
        2   -1    0    0  501    0  0.00000000000E+00  0.00000000000E+00  0.94569384343E+03  0.94569384343E+03  0.25500000920E-02 0.  1.
       -2   -1    0    0    0  501  0.00000000000E+00  0.00000000000E+00 -0.85650333907E+03  0.85650333907E+03  0.25500000920E-02 0. -1.
    10030    2    1    2    0    0  0.00000000000E+00  0.00000000000E+00  0.89190504356E+02  0.18021971825E+04  0.17999888162E+04 0.  0.
        2    1    3    3  502    0 -0.70782764266E+03 -0.26917780265E+03 -0.44232771426E+03  0.87700083692E+03  0.25500000920E-02 0. -1.
       -2    1    3    3    0  502  0.70782764266E+03  0.26917780265E+03  0.53151821862E+03  0.92519634558E+03  0.25500000920E-02 0.  1.
</event>
<event>
 5   0  0.1000316E-05  0.1803211E+04  0.7818609E-02  0.8704594E-01
        2   -1    0    0  501    0  0.00000000000E+00  0.00000000000E+00  0.14048147388E+04  0.14048147388E+04  0.25500000920E-02 0. -1.
       -2   -1    0    0    0  501  0.00000000000E+00  0.00000000000E+00 -0.57864733865E+03  0.57864733865E+03  0.25500000920E-02 0.  1.
    10030    2    1    2    0    0  0.00000000000E+00  0.00000000000E+00  0.82616740015E+03  0.19834620775E+04  0.18032108140E+04 0.  0.
        5    1    3    3  502    0  0.13837387322E+03 -0.69603251372E+03 -0.19861903059E+03  0.73693975212E+03  0.46999998093E+01 0.  1.
       -5    1    3    3    0  502 -0.13837387322E+03  0.69603251372E+03  0.10247864307E+04  0.12465223253E+04  0.46999998093E+01 0. -1.
</event>
<event>
 5   0  0.1035018E-05  0.1802854E+04  0.7818609E-02  0.8704783E-01
        2   -1    0    0  501    0  0.00000000000E+00  0.00000000000E+00  0.13553225377E+04  0.13553225377E+04  0.25500000920E-02 0.  1.
       -2   -1    0    0    0  501  0.00000000000E+00  0.00000000000E+00 -0.59954070230E+03  0.59954070231E+03  0.25500000920E-02 0. -1.
    10030    2    1    2    0    0  0.00000000000E+00  0.00000000000E+00  0.75578183538E+03  0.19548632400E+04  0.18028544324E+04 0.  0.
        3    1    3    3  502    0  0.83013233257E+03 -0.23511028706E+03  0.66100836422E+03  0.10868894168E+04  0.10100000352E+00 0.  1.
       -3    1    3    3    0  502 -0.83013233257E+03  0.23511028706E+03  0.94773471169E+02  0.86797382316E+03  0.10100000352E+00 0. -1.
</event>
<event>
 5   0  0.1000316E-05  0.1800837E+04  0.7818609E-02  0.8705854E-01
        2   -1    0    0  501    0  0.00000000000E+00  0.00000000000E+00  0.74570689296E+03  0.74570689297E+03  0.25500000920E-02 0. -1.
       -2   -1    0    0    0  501  0.00000000000E+00  0.00000000000E+00 -0.10872284726E+04  0.10872284726E+04  0.25500000920E-02 0.  1.
    10030    2    1    2    0    0  0.00000000000E+00  0.00000000000E+00 -0.34152157961E+03  0.18329353655E+04  0.18008373233E+04 0.  0.
        5    1    3    3  502    0  0.29295311278E+03  0.61719436108E+03 -0.76771368920E+03  0.10276948984E+04  0.46999998093E+01 0.  1.
       -5    1    3    3    0  502 -0.29295311278E+03 -0.61719436108E+03  0.42619210959E+03  0.80524046713E+03  0.46999998093E+01 0. -1.
</event>
<event>
 5   0  0.4983159E-06  0.1799915E+04  0.7818609E-02  0.8706345E-01
       -1   -1    0    0    0  501  0.00000000000E+00  0.00000000000E+00  0.11185529262E+04  0.11185529262E+04  0.50400001928E-02 0.  1.
        1   -1    0    0  501    0  0.00000000000E+00  0.00000000000E+00 -0.72408171207E+03  0.72408171209E+03  0.50400001928E-02 0. -1.
    10030    2    1    2    0    0  0.00000000000E+00  0.00000000000E+00  0.39447121415E+03  0.18426346383E+04  0.17999152401E+04 0.  0.
        4    1    3    3  502    0 -0.82875323385E+03 -0.10841389947E+03 -0.14435519743E+03  0.84818956144E+03  0.12699999809E+01 0. -1.
       -4    1    3    3    0  502  0.82875323385E+03  0.10841389947E+03  0.53882641158E+03  0.99444507688E+03  0.12699999809E+01 0.  1.
</event>
<event>
 5   0  0.4981384E-06  0.1800558E+04  0.7818609E-02  0.8706003E-01
       -1   -1    0    0    0  501  0.00000000000E+00  0.00000000000E+00  0.88979243183E+03  0.88979243185E+03  0.50400001928E-02 0.  1.
        1   -1    0    0  501    0  0.00000000000E+00  0.00000000000E+00 -0.91088956299E+03  0.91088956300E+03  0.50400001928E-02 0. -1.
    10030    2    1    2    0    0  0.00000000000E+00  0.00000000000E+00 -0.21097131156E+02  0.18006819948E+04  0.18005584016E+04 0.  0.
        5    1    3    3  502    0  0.39514940400E+03  0.22221443847E+03  0.76729543853E+03  0.89122762981E+03  0.46999998093E+01 0.  1.
       -5    1    3    3    0  502 -0.39514940400E+03 -0.22221443847E+03 -0.78839256969E+03  0.90945436504E+03  0.46999998093E+01 0. -1.
</event>
<event>
 5   0  0.4987456E-06  0.1800422E+04  0.7818609E-02  0.8706075E-01
        1   -1    0    0  501    0  0.00000000000E+00  0.00000000000E+00  0.82838851391E+03  0.82838851392E+03  0.50400001928E-02 0.  1.
       -1   -1    0    0    0  501  0.00000000000E+00  0.00000000000E+00 -0.97826020175E+03  0.97826020176E+03  0.50400001928E-02 0. -1.
    10030    2    1    2    0    0  0.00000000000E+00  0.00000000000E+00 -0.14987168784E+03  0.18066487157E+04  0.18004216337E+04 0.  0.
        3    1    3    3  502    0 -0.43229202602E+02 -0.40971643928E+03 -0.87810606433E+03  0.96995185189E+03  0.10100000352E+00 0. -1.
       -3    1    3    3    0  502  0.43229202602E+02  0.40971643928E+03  0.72823437649E+03  0.83669686379E+03  0.10100000352E+00 0.  1.
</event>
<event>
 5   0  0.4981384E-06  0.1799953E+04  0.7818609E-02  0.8706324E-01
        1   -1    0    0  501    0  0.00000000000E+00  0.00000000000E+00  0.99889159465E+03  0.99889159467E+03  0.50400001928E-02 0.  1.
       -1   -1    0    0    0  501  0.00000000000E+00  0.00000000000E+00 -0.81085666534E+03  0.81085666536E+03  0.50400001928E-02 0. -1.
    10030    2    1    2    0    0  0.00000000000E+00  0.00000000000E+00  0.18803492931E+03  0.18097482600E+04  0.17999532300E+04 0.  0.
        5    1    3    3  502    0  0.33505637636E+02 -0.72232186615E+03 -0.44468200607E+03  0.84890263434E+03  0.46999998093E+01 0. -1.
       -5    1    3    3    0  502 -0.33505637636E+02  0.72232186615E+03  0.63271693538E+03  0.96084562568E+03  0.46999998093E+01 0.  1.
</event>
<event>
 5   0  0.9589963E-06  0.1799619E+04  0.7818609E-02  0.8706502E-01
        2   -1    0    0  501    0  0.00000000000E+00  0.00000000000E+00  0.11088394864E+04  0.11088394864E+04  0.25500000920E-02 0.  1.
       -2   -1    0    0    0  501  0.00000000000E+00  0.00000000000E+00 -0.73018410799E+03  0.73018410799E+03  0.25500000920E-02 0. -1.
    10030    2    1    2    0    0  0.00000000000E+00  0.00000000000E+00  0.37865537839E+03  0.18390235944E+04  0.17996188166E+04 0.  0.
        2    1    3    3  502    0  0.24911462994E+03  0.86349985945E+03  0.23464812394E+03  0.92884328506E+03  0.25500000920E-02 0. -1.
       -2    1    3    3    0  502 -0.24911462994E+03 -0.86349985945E+03  0.14400725445E+03  0.91018030932E+03  0.25500000920E-02 0.  1.
</event>
<event>
 5   0  0.1035018E-05  0.1800135E+04  0.7818609E-02  0.8706228E-01
       -2   -1    0    0    0  501  0.00000000000E+00  0.00000000000E+00  0.80961890134E+03  0.80961890134E+03  0.25500000920E-02 0.  1.
        2   -1    0    0  501    0  0.00000000000E+00  0.00000000000E+00 -0.10006202441E+04  0.10006202441E+04  0.25500000920E-02 0. -1.
    10030    2    1    2    0    0  0.00000000000E+00  0.00000000000E+00 -0.19100134273E+03  0.18102391454E+04  0.18001345091E+04 0.  0.
        3    1    3    3  502    0  0.28861156627E+03 -0.53477822779E+03 -0.76318294740E+03  0.97556784003E+03  0.10100000352E+00 0. -1.
       -3    1    3    3    0  502 -0.28861156627E+03  0.53477822779E+03  0.57218160467E+03  0.83467130538E+03  0.10100000352E+00 0.  1.
</event>
<event>
 5   0  0.1035018E-05  0.1800500E+04  0.7818609E-02  0.8706034E-01
       -2   -1    0    0    0  501  0.00000000000E+00  0.00000000000E+00  0.10262464380E+04  0.10262464380E+04  0.25500000920E-02 0.  1.
        2   -1    0    0  501    0  0.00000000000E+00  0.00000000000E+00 -0.78972231900E+03  0.78972231900E+03  0.25500000920E-02 0. -1.
    10030    2    1    2    0    0  0.00000000000E+00  0.00000000000E+00  0.23652411902E+03  0.18159687570E+04  0.18004996161E+04 0.  0.
        3    1    3    3  502    0 -0.64857248878E+03 -0.50617075790E+03 -0.25038416205E+03  0.85996938792E+03  0.10100000352E+00 0. -1.
       -3    1    3    3    0  502  0.64857248878E+03  0.50617075790E+03  0.48690828107E+03  0.95599936911E+03  0.10100000352E+00 0.  1.
</event>
<event>
 5   0  0.4953155E-06  0.1803456E+04  0.7818609E-02  0.8704464E-01
        1   -1    0    0  501    0  0.00000000000E+00  0.00000000000E+00  0.57620515424E+03  0.57620515427E+03  0.50400001928E-02 0. -1.
       -1   -1    0    0    0  501  0.00000000000E+00  0.00000000000E+00 -0.14111526778E+04  0.14111526778E+04  0.50400001928E-02 0.  1.
    10030    2    1    2    0    0  0.00000000000E+00  0.00000000000E+00 -0.83494752354E+03  0.19873578321E+04  0.18034560670E+04 0.  0.
        2    1    3    3  502    0  0.51999603011E+03 -0.22906212523E+03  0.35410181296E+03  0.66951730560E+03  0.25500000920E-02 0. -1.
       -2    1    3    3    0  502 -0.51999603011E+03  0.22906212523E+03 -0.11890493365E+04  0.13178405265E+04  0.25500000920E-02 0.  1.
</event>
<event>
 5   0  0.1036381E-05  0.1799991E+04  0.7818609E-02  0.8706304E-01
       -2   -1    0    0    0  501  0.00000000000E+00  0.00000000000E+00  0.38631040767E+03  0.38631040768E+03  0.25500000920E-02 0.  1.
        2   -1    0    0  501    0  0.00000000000E+00  0.00000000000E+00 -0.20967382718E+04  0.20967382718E+04  0.25500000920E-02 0. -1.
    10030    2    1    2    0    0  0.00000000000E+00  0.00000000000E+00 -0.17104278641E+04  0.24830486795E+04  0.17999909073E+04 0.  0.
        4    1    3    3  502    0 -0.21042049583E+03  0.64747880872E+03 -0.43212308327E+02  0.68218363312E+03  0.12699999809E+01 0.  1.
       -4    1    3    3    0  502  0.21042049583E+03 -0.64747880872E+03 -0.16672155558E+04  0.18008650464E+04  0.12699999809E+01 0. -1.
</event>
<event>
 5   0  0.1035018E-05  0.1803012E+04  0.7818609E-02  0.8704699E-01
       -2   -1    0    0    0  501  0.00000000000E+00  0.00000000000E+00  0.12520861315E+04  0.12520861315E+04  0.25500000920E-02 0.  1.
        2   -1    0    0  501    0  0.00000000000E+00  0.00000000000E+00 -0.64908740862E+03  0.64908740862E+03  0.25500000920E-02 0. -1.
    10030    2    1    2    0    0  0.00000000000E+00  0.00000000000E+00  0.60299872292E+03  0.19011735402E+04  0.18030123044E+04 0.  0.
        3    1    3    3  502    0 -0.56238376821E+02  0.76614048295E+03 -0.19596903255E+03  0.79280380080E+03  0.10100000352E+00 0. -1.
       -3    1    3    3    0  502  0.56238376821E+02 -0.76614048295E+03  0.79896775548E+03  0.11083697394E+04  0.10100000352E+00 0.  1.
</event>
<event>
 5   0  0.1035018E-05  0.1799577E+04  0.7818609E-02  0.8706525E-01
        2   -1    0    0  501    0  0.00000000000E+00  0.00000000000E+00  0.12281753982E+04  0.12281753982E+04  0.25500000920E-02 0. -1.
       -2   -1    0    0    0  501  0.00000000000E+00  0.00000000000E+00 -0.65920466367E+03  0.65920466367E+03  0.25500000920E-02 0.  1.
    10030    2    1    2    0    0  0.00000000000E+00  0.00000000000E+00  0.56897073458E+03  0.18873800619E+04  0.17995765617E+04 0.  0.
        3    1    3    3  502    0  0.25306989619E+02  0.33857377195E+03  0.11584162704E+04  0.12071457694E+04  0.10100000352E+00 0. -1.
       -3    1    3    3    0  502 -0.25306989619E+02 -0.33857377195E+03 -0.58944553586E+03  0.68023429252E+03  0.10100000352E+00 0.  1.
</event>
<event>
 5   0  0.1035018E-05  0.1798956E+04  0.7818609E-02  0.8706855E-01
       -2   -1    0    0    0  501  0.00000000000E+00  0.00000000000E+00  0.75125120383E+03  0.75125120384E+03  0.25500000920E-02 0.  1.
        2   -1    0    0  501    0  0.00000000000E+00  0.00000000000E+00 -0.10769506417E+04  0.10769506418E+04  0.25500000920E-02 0. -1.
    10030    2    1    2    0    0  0.00000000000E+00  0.00000000000E+00 -0.32569943791E+03  0.18282018456E+04  0.17989557705E+04 0.  0.
        3    1    3    3  502    0 -0.62917007788E+03 -0.57443689249E+03 -0.45603196686E+03  0.96633218685E+03  0.10100000352E+00 0. -1.
       -3    1    3    3    0  502  0.62917007788E+03  0.57443689249E+03  0.13033252895E+03  0.86186965874E+03  0.10100000352E+00 0.  1.
</event>
<event>
 5   0  0.1000316E-05  0.1800151E+04  0.7818609E-02  0.8706219E-01
       -2   -1    0    0    0  501  0.00000000000E+00  0.00000000000E+00  0.88958905048E+03  0.88958905048E+03  0.25500000920E-02 0.  1.
        2   -1    0    0  501    0  0.00000000000E+00  0.00000000000E+00 -0.91068604098E+03  0.91068604098E+03  0.25500000920E-02 0. -1.
    10030    2    1    2    0    0  0.00000000000E+00  0.00000000000E+00 -0.21096990498E+02  0.18002750915E+04  0.18001514719E+04 0.  0.
        5    1    3    3  502    0  0.22021291206E+03 -0.80491191613E+03 -0.34782129689E+03  0.90408996452E+03  0.46999998093E+01 0. -1.
       -5    1    3    3    0  502 -0.22021291206E+03  0.80491191613E+03  0.32672430639E+03  0.89618512694E+03  0.46999998093E+01 0.  1.
</event>
<event>
 5   0  0.4987456E-06  0.1799523E+04  0.7818609E-02  0.8706553E-01
       -1   -1    0    0    0  501  0.00000000000E+00  0.00000000000E+00  0.11873517182E+04  0.11873517182E+04  0.50400001928E-02 0.  1.
        1   -1    0    0  501    0  0.00000000000E+00  0.00000000000E+00 -0.68182858246E+03  0.68182858248E+03  0.50400001928E-02 0. -1.
    10030    2    1    2    0    0  0.00000000000E+00  0.00000000000E+00  0.50552313576E+03  0.18691803007E+04  0.17995225355E+04 0.  0.
        3    1    3    3  502    0  0.56965840038E+03  0.28049346060E+03  0.91491967487E+03  0.11136719877E+04  0.10100000352E+00 0.  1.
       -3    1    3    3    0  502 -0.56965840038E+03 -0.28049346060E+03 -0.40939653911E+03  0.75550831299E+03  0.10100000352E+00 0. -1.
</event>
<event>
 5   0  0.4953155E-06  0.1799062E+04  0.7818609E-02  0.8706799E-01
       -1   -1    0    0    0  501  0.00000000000E+00  0.00000000000E+00  0.75135241726E+03  0.75135241728E+03  0.50400001928E-02 0.  1.
        1   -1    0    0  501    0  0.00000000000E+00  0.00000000000E+00 -0.10769324727E+04  0.10769324727E+04  0.50400001928E-02 0. -1.
    10030    2    1    2    0    0  0.00000000000E+00  0.00000000000E+00 -0.32558005547E+03  0.18282848900E+04  0.17990617740E+04 0.  0.
        2    1    3    3  502    0 -0.72280062470E+02 -0.64103892553E+03 -0.79987058086E+03  0.10275934301E+04  0.25500000920E-02 0. -1.
       -2    1    3    3    0  502  0.72280062470E+02  0.64103892553E+03  0.47429052539E+03  0.80069145990E+03  0.25500000920E-02 0.  1.
</event>
<event>
 5   0  0.4983159E-06  0.1800142E+04  0.7818609E-02  0.8706224E-01
        1   -1    0    0  501    0  0.00000000000E+00  0.00000000000E+00  0.11516038258E+04  0.11516038258E+04  0.50400001928E-02 0. -1.
       -1   -1    0    0    0  501  0.00000000000E+00  0.00000000000E+00 -0.70347760524E+03  0.70347760526E+03  0.50400001928E-02 0.  1.
    10030    2    1    2    0    0  0.00000000000E+00  0.00000000000E+00  0.44812622056E+03  0.18550814311E+04  0.18001416629E+04 0.  0.
        4    1    3    3  502    0 -0.52350417144E+03  0.68459245779E+03  0.49160642124E+03  0.99217031657E+03  0.12699999809E+01 0. -1.
       -4    1    3    3    0  502  0.52350417144E+03 -0.68459245779E+03 -0.43480200674E+02  0.86291111450E+03  0.12699999809E+01 0.  1.
</event>
<event>
 5   0  0.1035018E-05  0.1800481E+04  0.7818609E-02  0.8706044E-01
       -2   -1    0    0    0  501  0.00000000000E+00  0.00000000000E+00  0.99657336578E+03  0.99657336578E+03  0.25500000920E-02 0. -1.
        2   -1    0    0  501    0  0.00000000000E+00  0.00000000000E+00 -0.81321959296E+03  0.81321959296E+03  0.25500000920E-02 0.  1.
    10030    2    1    2    0    0  0.00000000000E+00  0.00000000000E+00  0.18335377282E+03  0.18097929587E+04  0.18004810323E+04 0.  0.
        3    1    3    3  502    0 -0.88244121205E+02 -0.53712513481E+03 -0.62906890247E+03  0.83187627063E+03  0.10100000352E+00 0.  1.
       -3    1    3    3    0  502  0.88244121205E+02  0.53712513481E+03  0.81242267529E+03  0.97791668812E+03  0.10100000352E+00 0. -1.
</event>
<event>
 5   0  0.1035018E-05  0.1799278E+04  0.7818609E-02  0.8706683E-01
       -2   -1    0    0    0  501  0.00000000000E+00  0.00000000000E+00  0.76802964001E+03  0.76802964001E+03  0.25500000920E-02 0. -1.
        2   -1    0    0  501    0  0.00000000000E+00  0.00000000000E+00 -0.10538012345E+04  0.10538012345E+04  0.25500000920E-02 0.  1.
    10030    2    1    2    0    0  0.00000000000E+00  0.00000000000E+00 -0.28577159449E+03  0.18218308745E+04  0.17992782806E+04 0.  0.
        3    1    3    3  502    0 -0.98525816689E+02  0.15226190337E+03  0.74932841690E+03  0.77096310570E+03  0.10100000352E+00 0. -1.
       -3    1    3    3    0  502  0.98525816689E+02 -0.15226190337E+03 -0.10351000114E+04  0.10508677688E+04  0.10100000352E+00 0.  1.
</event>
<event>
 5   0  0.9999162E-06  0.1800066E+04  0.7818609E-02  0.8706264E-01
        2   -1    0    0  501    0  0.00000000000E+00  0.00000000000E+00  0.18221185488E+04  0.18221185489E+04  0.25500000920E-02 0. -1.
       -2   -1    0    0    0  501  0.00000000000E+00  0.00000000000E+00 -0.44456997738E+03  0.44456997738E+03  0.25500000920E-02 0.  1.
    10030    2    1    2    0    0  0.00000000000E+00  0.00000000000E+00  0.13775485715E+04  0.22666885262E+04  0.18000657789E+04 0.  0.
        1    1    3    3  502    0 -0.26127442665E+03  0.75239140497E+03  0.12166016293E+04  0.14541240239E+04  0.50400001928E-02 0. -1.
       -1    1    3    3    0  502  0.26127442665E+03 -0.75239140497E+03  0.16094694214E+03  0.81256450236E+03  0.50400001928E-02 0.  1.
</event>
<event>
 5   0  0.4994123E-06  0.1799911E+04  0.7818609E-02  0.8706347E-01
        1   -1    0    0  501    0  0.00000000000E+00  0.00000000000E+00  0.98000989276E+03  0.98000989277E+03  0.50400001928E-02 0. -1.
       -1   -1    0    0    0  501  0.00000000000E+00  0.00000000000E+00 -0.82644040128E+03  0.82644040130E+03  0.50400001928E-02 0.  1.
    10030    2    1    2    0    0  0.00000000000E+00  0.00000000000E+00  0.15356949147E+03  0.18064502941E+04  0.17999108523E+04 0.  0.
        1    1    3    3  502    0 -0.22478630904E+03 -0.83517993536E+03  0.32641590434E+03  0.92444672740E+03  0.50400001928E-02 0. -1.
       -1    1    3    3    0  502  0.22478630904E+03  0.83517993536E+03 -0.17284641287E+03  0.88200356667E+03  0.50400001928E-02 0.  1.
</event>
<event>
 5   0  0.9589963E-06  0.1799531E+04  0.7818609E-02  0.8706549E-01
       -2   -1    0    0    0  501  0.00000000000E+00  0.00000000000E+00  0.27946432732E+03  0.27946432733E+03  0.25500000920E-02 0. -1.
        2   -1    0    0  501    0  0.00000000000E+00  0.00000000000E+00 -0.28968904388E+04  0.28968904388E+04  0.25500000920E-02 0.  1.
    10030    2    1    2    0    0  0.00000000000E+00  0.00000000000E+00 -0.26174261114E+04  0.31763547661E+04  0.17995305363E+04 0.  0.
        2    1    3    3  502    0 -0.35162100182E+03 -0.69991929894E+03 -0.20902629916E+04  0.22322015429E+04  0.25500000920E-02 0.  1.
       -2    1    3    3    0  502  0.35162100182E+03  0.69991929894E+03 -0.52716311980E+03  0.94415322318E+03  0.25500000920E-02 0. -1.
</event>
<event>
 5   0  0.1035018E-05  0.1798820E+04  0.7818609E-02  0.8706927E-01
        2   -1    0    0  501    0  0.00000000000E+00  0.00000000000E+00  0.19605041164E+04  0.19605041164E+04  0.25500000920E-02 0. -1.
       -2   -1    0    0    0  501  0.00000000000E+00  0.00000000000E+00 -0.41261753700E+03  0.41261753701E+03  0.25500000920E-02 0.  1.
    10030    2    1    2    0    0  0.00000000000E+00  0.00000000000E+00  0.15478865794E+04  0.23731216535E+04  0.17988200353E+04 0.  0.
        3    1    3    3  502    0  0.12924800623E+03  0.38392976875E+03 -0.28544538488E+03  0.49556653680E+03  0.10100000352E+00 0.  1.
       -3    1    3    3    0  502 -0.12924800623E+03 -0.38392976875E+03  0.18333319643E+04  0.18775551166E+04  0.10100000352E+00 0. -1.
</event>
<event>
 5   0  0.4994123E-06  0.1797804E+04  0.7818609E-02  0.8707468E-01
        1   -1    0    0  501    0  0.00000000000E+00  0.00000000000E+00  0.14090681489E+04  0.14090681489E+04  0.50400001928E-02 0. -1.
       -1   -1    0    0    0  501  0.00000000000E+00  0.00000000000E+00 -0.57344595307E+03  0.57344595309E+03  0.50400001928E-02 0.  1.
    10030    2    1    2    0    0  0.00000000000E+00  0.00000000000E+00  0.83562219586E+03  0.19825141020E+04  0.17978035795E+04 0.  0.
        1    1    3    3  502    0 -0.68947233149E+03 -0.41217756288E+03  0.86269894035E+03  0.11787755940E+04  0.50400001928E-02 0. -1.
       -1    1    3    3    0  502  0.68947233149E+03  0.41217756288E+03 -0.27076744484E+02  0.80373850806E+03  0.50400001928E-02 0.  1.
</event>
<event>
 5   0  0.1036381E-05  0.1801772E+04  0.7818609E-02  0.8705357E-01
       -2   -1    0    0    0  501  0.00000000000E+00  0.00000000000E+00  0.82593538528E+03  0.82593538528E+03  0.25500000920E-02 0. -1.
        2   -1    0    0  501    0  0.00000000000E+00  0.00000000000E+00 -0.98263859528E+03  0.98263859528E+03  0.25500000920E-02 0.  1.
    10030    2    1    2    0    0  0.00000000000E+00  0.00000000000E+00 -0.15670321001E+03  0.18085739806E+04  0.18017724460E+04 0.  0.
        4    1    3    3  502    0  0.76586433516E+03 -0.89501941193E+02  0.38927781063E+03  0.86376941604E+03  0.12699999809E+01 0. -1.
       -4    1    3    3    0  502 -0.76586433516E+03  0.89501941193E+02 -0.54598102064E+03  0.94480456452E+03  0.12699999809E+01 0.  1.
</event>
<event>
 5   0  0.3626125E-06  0.1800123E+04  0.7818609E-02  0.8706234E-01
        3   -1    0    0  501    0  0.00000000000E+00  0.00000000000E+00  0.79714668181E+03  0.79714668821E+03  0.10100000352E+00 0. -1.
       -3   -1    0    0    0  501  0.00000000000E+00  0.00000000000E+00 -0.10162630058E+04  0.10162630108E+04  0.10100000352E+00 0.  1.
    10030    2    1    2    0    0  0.00000000000E+00  0.00000000000E+00 -0.21911632399E+03  0.18134096990E+04  0.18001229883E+04 0.  0.
        2    1    3    3  502    0  0.40417546156E+02  0.84647174784E+03 -0.41504999332E+03  0.94361776948E+03  0.25500000920E-02 0. -1.
       -2    1    3    3    0  502 -0.40417546156E+02 -0.84647174784E+03  0.19593366933E+03  0.86979192955E+03  0.25500000920E-02 0.  1.
</event>
<event>
 5   0  0.1000316E-05  0.1799984E+04  0.7818609E-02  0.8706308E-01
        2   -1    0    0  501    0  0.00000000000E+00  0.00000000000E+00  0.78695129238E+03  0.78695129239E+03  0.25500000920E-02 0. -1.
       -2   -1    0    0    0  501  0.00000000000E+00  0.00000000000E+00 -0.10292698845E+04  0.10292698846E+04  0.25500000920E-02 0.  1.
    10030    2    1    2    0    0  0.00000000000E+00  0.00000000000E+00 -0.24231859217E+03  0.18162211769E+04  0.17999836287E+04 0.  0.
        5    1    3    3  502    0  0.29394529278E+03  0.79096633391E+03 -0.43692256081E+03  0.95023943860E+03  0.46999998093E+01 0.  1.
       -5    1    3    3    0  502 -0.29394529278E+03 -0.79096633391E+03  0.19460396865E+03  0.86598173834E+03  0.46999998093E+01 0. -1.
</event>
<event>
 5   0  0.9589963E-06  0.1794069E+04  0.7818609E-02  0.8709460E-01
        2   -1    0    0  501    0  0.00000000000E+00  0.00000000000E+00  0.20299161420E+04  0.20299161420E+04  0.25500000920E-02 0. -1.
       -2   -1    0    0    0  501  0.00000000000E+00  0.00000000000E+00 -0.39640614407E+03  0.39640614408E+03  0.25500000920E-02 0.  1.
    10030    2    1    2    0    0  0.00000000000E+00  0.00000000000E+00  0.16335099980E+04  0.24263222861E+04  0.17940693751E+04 0.  0.
        2    1    3    3  502    0  0.46177131925E+03 -0.64601521126E+03  0.25245225121E+03  0.83324698836E+03  0.25500000920E-02 0.  1.
       -2    1    3    3    0  502 -0.46177131925E+03  0.64601521126E+03  0.13810577468E+04  0.15930752978E+04  0.25500000920E-02 0. -1.
</event>
<event>
 5   0  0.1035018E-05  0.1797584E+04  0.7818609E-02  0.8707585E-01
        2   -1    0    0  501    0  0.00000000000E+00  0.00000000000E+00  0.10492884139E+04  0.10492884139E+04  0.25500000920E-02 0.  1.
       -2   -1    0    0    0  501  0.00000000000E+00  0.00000000000E+00 -0.76988101511E+03  0.76988101511E+03  0.25500000920E-02 0. -1.
    10030    2    1    2    0    0  0.00000000000E+00  0.00000000000E+00  0.27940739874E+03  0.18191694290E+04  0.17975841891E+04 0.  0.
        3    1    3    3  502    0  0.33353056603E+03  0.23231691924E+03 -0.67155395646E+03  0.78498313108E+03  0.10100000352E+00 0. -1.
       -3    1    3    3    0  502 -0.33353056603E+03 -0.23231691924E+03  0.95096135521E+03  0.10341862979E+04  0.10100000352E+00 0.  1.
</event>
<event>
 5   0  0.1035018E-05  0.1800995E+04  0.7818609E-02  0.8705771E-01
       -2   -1    0    0    0  501  0.00000000000E+00  0.00000000000E+00  0.14891712379E+04  0.14891712379E+04  0.25500000920E-02 0. -1.
        2   -1    0    0  501    0  0.00000000000E+00  0.00000000000E+00 -0.54452805914E+03  0.54452805914E+03  0.25500000920E-02 0.  1.
    10030    2    1    2    0    0  0.00000000000E+00  0.00000000000E+00  0.94464317877E+03  0.20336992970E+04  0.18009947517E+04 0.  0.
        3    1    3    3  502    0  0.26790899341E+03  0.65522928866E+03 -0.15618726180E+03  0.72491042234E+03  0.10100000352E+00 0.  1.
       -3    1    3    3    0  502 -0.26790899341E+03 -0.65522928866E+03  0.11008304406E+04  0.13087888747E+04  0.10100000352E+00 0. -1.
</event>
<event>
 5   0  0.9589963E-06  0.1799180E+04  0.7818609E-02  0.8706736E-01
        2   -1    0    0  501    0  0.00000000000E+00  0.00000000000E+00  0.86237645794E+03  0.86237645795E+03  0.25500000920E-02 0.  1.
       -2   -1    0    0    0  501  0.00000000000E+00  0.00000000000E+00 -0.93840907916E+03  0.93840907916E+03  0.25500000920E-02 0. -1.
    10030    2    1    2    0    0  0.00000000000E+00  0.00000000000E+00 -0.76032621212E+02  0.18007855371E+04  0.17991796995E+04 0.  0.
        2    1    3    3  502    0 -0.16801151204E+03 -0.76608057962E+03  0.40300671687E+03  0.88177192998E+03  0.25500000920E-02 0.  1.
       -2    1    3    3    0  502  0.16801151204E+03  0.76608057962E+03 -0.47903933808E+03  0.91901360713E+03  0.25500000920E-02 0. -1.
</event>
<event>
 5   0  0.1035018E-05  0.1799592E+04  0.7818609E-02  0.8706517E-01
        2   -1    0    0  501    0  0.00000000000E+00  0.00000000000E+00  0.14355726638E+04  0.14355726638E+04  0.25500000920E-02 0.  1.
       -2   -1    0    0    0  501  0.00000000000E+00  0.00000000000E+00 -0.56397869439E+03  0.56397869440E+03  0.25500000920E-02 0. -1.
    10030    2    1    2    0    0  0.00000000000E+00  0.00000000000E+00  0.87159396938E+03  0.19995513582E+04  0.17995915055E+04 0.  0.
        3    1    3    3  502    0  0.83016597332E+03 -0.18703797791E+03  0.11095307904E+03  0.85817792117E+03  0.10100000352E+00 0. -1.
       -3    1    3    3    0  502 -0.83016597332E+03  0.18703797791E+03  0.76064089034E+03  0.11413734370E+04  0.10100000352E+00 0.  1.
</event>
<event>
 5   0  0.4981384E-06  0.1797527E+04  0.7818609E-02  0.8707616E-01
        1   -1    0    0  501    0  0.00000000000E+00  0.00000000000E+00  0.16943435868E+04  0.16943435869E+04  0.50400001928E-02 0. -1.
       -1   -1    0    0    0  501  0.00000000000E+00  0.00000000000E+00 -0.47674849334E+03  0.47674849336E+03  0.50400001928E-02 0.  1.
    10030    2    1    2    0    0  0.00000000000E+00  0.00000000000E+00  0.12175950935E+04  0.21710920802E+04  0.17975269147E+04 0.  0.
        5    1    3    3  502    0  0.37905292886E+03 -0.29855885003E+03  0.15246220788E+04  0.15991601179E+04  0.46999998093E+01 0. -1.
       -5    1    3    3    0  502 -0.37905292886E+03  0.29855885003E+03 -0.30702698525E+03  0.57193196227E+03  0.46999998093E+01 0.  1.
</event>
<event>
 5   0  0.9999162E-06  0.1799471E+04  0.7818609E-02  0.8706581E-01
       -2   -1    0    0    0  501  0.00000000000E+00  0.00000000000E+00  0.63452182203E+03  0.63452182203E+03  0.25500000920E-02 0. -1.
        2   -1    0    0  501    0  0.00000000000E+00  0.00000000000E+00 -0.12758015841E+04  0.12758015841E+04  0.25500000920E-02 0.  1.
    10030    2    1    2    0    0  0.00000000000E+00  0.00000000000E+00 -0.64127976204E+03  0.19103234061E+04  0.17994709730E+04 0.  0.
        1    1    3    3  502    0 -0.57282204962E+03 -0.32370188297E+03 -0.97213534718E+03  0.11738633408E+04  0.50400001928E-02 0.  1.
       -1    1    3    3    0  502  0.57282204962E+03  0.32370188297E+03  0.33085558514E+03  0.73646006532E+03  0.50400001928E-02 0. -1.
</event>
<event>
 5   0  0.4987456E-06  0.1800159E+04  0.7818609E-02  0.8706215E-01
        1   -1    0    0  501    0  0.00000000000E+00  0.00000000000E+00  0.20426044077E+04  0.20426044077E+04  0.50400001928E-02 0. -1.
       -1   -1    0    0    0  501  0.00000000000E+00  0.00000000000E+00 -0.39662247781E+03  0.39662247785E+03  0.50400001928E-02 0.  1.
    10030    2    1    2    0    0  0.00000000000E+00  0.00000000000E+00  0.16459819298E+04  0.24392268855E+04  0.18001586835E+04 0.  0.
        3    1    3    3  502    0 -0.48629947673E+03  0.83201018974E+02  0.18430627702E+04  0.19079543956E+04  0.10100000352E+00 0. -1.
       -3    1    3    3    0  502  0.48629947673E+03 -0.83201018974E+02 -0.19708084040E+03  0.53127248986E+03  0.10100000352E+00 0.  1.
</event>
<event>
 5   0  0.1036381E-05  0.1799451E+04  0.7818609E-02  0.8706591E-01
        2   -1    0    0  501    0  0.00000000000E+00  0.00000000000E+00  0.13570988220E+04  0.13570988220E+04  0.25500000920E-02 0.  1.
       -2   -1    0    0    0  501  0.00000000000E+00  0.00000000000E+00 -0.59649751146E+03  0.59649751146E+03  0.25500000920E-02 0. -1.
    10030    2    1    2    0    0  0.00000000000E+00  0.00000000000E+00  0.76060131054E+03  0.19535963335E+04  0.17994511053E+04 0.  0.
        4    1    3    3  502    0 -0.40610171450E+03 -0.41423846369E+03  0.11269588558E+04  0.12674975278E+04  0.12699999809E+01 0.  1.
       -4    1    3    3    0  502  0.40610171450E+03  0.41423846369E+03 -0.36635754525E+03  0.68609880570E+03  0.12699999809E+01 0. -1.
</event>
<event>
 5   0  0.1036381E-05  0.1799902E+04  0.7818609E-02  0.8706352E-01
        2   -1    0    0  501    0  0.00000000000E+00  0.00000000000E+00  0.16251657325E+04  0.16251657325E+04  0.25500000920E-02 0.  1.
       -2   -1    0    0    0  501  0.00000000000E+00  0.00000000000E+00 -0.49835647400E+03  0.49835647401E+03  0.25500000920E-02 0. -1.
    10030    2    1    2    0    0  0.00000000000E+00  0.00000000000E+00  0.11268092585E+04  0.21235222065E+04  0.17999020686E+04 0.  0.
        4    1    3    3  502    0 -0.24013090853E+03 -0.86110457171E+03  0.68570779681E+03  0.11266591020E+04  0.12699999809E+01 0.  1.
       -4    1    3    3    0  502  0.24013090853E+03  0.86110457171E+03  0.44110146164E+03  0.99686310445E+03  0.12699999809E+01 0. -1.
</event>
<event>
 5   0  0.3626125E-06  0.1800419E+04  0.7818609E-02  0.8706077E-01
        3   -1    0    0  501    0  0.00000000000E+00  0.00000000000E+00  0.85112941286E+03  0.85112941885E+03  0.10100000352E+00 0.  1.
       -3   -1    0    0    0  501  0.00000000000E+00  0.00000000000E+00 -0.95211929193E+03  0.95211929728E+03  0.10100000352E+00 0. -1.
    10030    2    1    2    0    0  0.00000000000E+00  0.00000000000E+00 -0.10098987907E+03  0.18032487161E+04  0.18004185559E+04 0.  0.
        3    1    3    3  502    0 -0.60359432358E+03  0.65623747927E+03 -0.17479884409E+03  0.90858592481E+03  0.10100000352E+00 0. -1.
       -3    1    3    3    0  502  0.60359432358E+03 -0.65623747927E+03  0.73808965024E+02  0.89466279132E+03  0.10100000352E+00 0.  1.
</event>
<event>
 5   0  0.1036381E-05  0.1801331E+04  0.7818609E-02  0.8705592E-01
        2   -1    0    0  501    0  0.00000000000E+00  0.00000000000E+00  0.24791857882E+04  0.24791857882E+04  0.25500000920E-02 0.  1.
       -2   -1    0    0    0  501  0.00000000000E+00  0.00000000000E+00 -0.32720352494E+03  0.32720352495E+03  0.25500000920E-02 0. -1.
    10030    2    1    2    0    0  0.00000000000E+00  0.00000000000E+00  0.21519822633E+04  0.28063893132E+04  0.18013309845E+04 0.  0.
        4    1    3    3  502    0  0.36264130908E+03 -0.14635583206E+03 -0.18803414775E+03  0.43392073268E+03  0.12699999809E+01 0. -1.
       -4    1    3    3    0  502 -0.36264130908E+03  0.14635583206E+03  0.23400164110E+04  0.23724685805E+04  0.12699999809E+01 0.  1.
</event>
<event>
 5   0  0.9999162E-06  0.1800509E+04  0.7818609E-02  0.8706029E-01
       -2   -1    0    0    0  501  0.00000000000E+00  0.00000000000E+00  0.88118414593E+03  0.88118414594E+03  0.25500000920E-02 0. -1.
        2   -1    0    0  501    0  0.00000000000E+00  0.00000000000E+00 -0.91973716923E+03  0.91973716924E+03  0.25500000920E-02 0.  1.
    10030    2    1    2    0    0  0.00000000000E+00  0.00000000000E+00 -0.38553023299E+02  0.18009213152E+04  0.18005086081E+04 0.  0.
        1    1    3    3  502    0 -0.74946242642E+03 -0.30040567718E+03  0.37896084452E+03  0.89193543556E+03  0.50400001928E-02 0. -1.
       -1    1    3    3    0  502  0.74946242642E+03  0.30040567718E+03 -0.41751386782E+03  0.90898587962E+03  0.50400001928E-02 0.  1.
</event>
<event>
 5   0  0.4983159E-06  0.1800032E+04  0.7818609E-02  0.8706283E-01
       -1   -1    0    0    0  501  0.00000000000E+00  0.00000000000E+00  0.41275659513E+03  0.41275659516E+03  0.50400001928E-02 0.  1.
        1   -1    0    0  501    0  0.00000000000E+00  0.00000000000E+00 -0.19624846517E+04  0.19624846517E+04  0.50400001928E-02 0. -1.
    10030    2    1    2    0    0  0.00000000000E+00  0.00000000000E+00 -0.15497280566E+04  0.23752412469E+04  0.18000316474E+04 0.  0.
        4    1    3    3  502    0 -0.82649285414E+03 -0.25627902464E+02 -0.30594888553E+03  0.88167656245E+03  0.12699999809E+01 0.  1.
       -4    1    3    3    0  502  0.82649285414E+03  0.25627902464E+02 -0.12437791710E+04  0.14935646844E+04  0.12699999809E+01 0. -1.
</event>
<event>
 5   0  0.3626125E-06  0.1800076E+04  0.7818609E-02  0.8706259E-01
        3   -1    0    0  501    0  0.00000000000E+00  0.00000000000E+00  0.10169024725E+04  0.10169024775E+04  0.10100000352E+00 0.  1.
       -3   -1    0    0    0  501  0.00000000000E+00  0.00000000000E+00 -0.79660338646E+03  0.79660339286E+03  0.10100000352E+00 0. -1.
    10030    2    1    2    0    0  0.00000000000E+00  0.00000000000E+00  0.22029908604E+03  0.18135058704E+04  0.18000755136E+04 0.  0.
        5    1    3    3  502    0 -0.87023638211E+03 -0.20125803860E+03  0.22156268097E+03  0.92028705872E+03  0.46999998093E+01 0.  1.
       -5    1    3    3    0  502  0.87023638211E+03  0.20125803860E+03 -0.12635949312E+01  0.89321881167E+03  0.46999998093E+01 0. -1.
</event>
<event>
 5   0  0.4981384E-06  0.1802467E+04  0.7818609E-02  0.8704989E-01
        1   -1    0    0  501    0  0.00000000000E+00  0.00000000000E+00  0.85593923196E+03  0.85593923198E+03  0.50400001928E-02 0. -1.
       -1   -1    0    0    0  501  0.00000000000E+00  0.00000000000E+00 -0.94892420569E+03  0.94892420570E+03  0.50400001928E-02 0.  1.
    10030    2    1    2    0    0  0.00000000000E+00  0.00000000000E+00 -0.92984973725E+02  0.18048634377E+04  0.18024665942E+04 0.  0.
        5    1    3    3  502    0  0.75385417176E+03  0.44852478100E+03  0.16049178248E+03  0.89176807169E+03  0.46999998093E+01 0. -1.
       -5    1    3    3    0  502 -0.75385417176E+03 -0.44852478100E+03 -0.25347675620E+03  0.91309536599E+03  0.46999998093E+01 0.  1.
</event>
<event>
 5   0  0.1036381E-05  0.1799579E+04  0.7818609E-02  0.8706523E-01
        2   -1    0    0  501    0  0.00000000000E+00  0.00000000000E+00  0.15716566601E+04  0.15716566601E+04  0.25500000920E-02 0.  1.
       -2   -1    0    0    0  501  0.00000000000E+00  0.00000000000E+00 -0.51513877614E+03  0.51513877615E+03  0.25500000920E-02 0. -1.
    10030    2    1    2    0    0  0.00000000000E+00  0.00000000000E+00  0.10565178840E+04  0.20867954363E+04  0.17995791602E+04 0.  0.
        4    1    3    3  502    0 -0.15990122140E+03 -0.61244860113E+03  0.12698223125E+04  0.14188417839E+04  0.12699999809E+01 0.  1.
       -4    1    3    3    0  502  0.15990122140E+03  0.61244860113E+03 -0.21330442847E+03  0.66795365238E+03  0.12699999809E+01 0. -1.
</event>
<event>
 5   0  0.9999162E-06  0.1799756E+04  0.7818609E-02  0.8706429E-01
        2   -1    0    0  501    0  0.00000000000E+00  0.00000000000E+00  0.15157831848E+04  0.15157831848E+04  0.25500000920E-02 0.  1.
       -2   -1    0    0    0  501  0.00000000000E+00  0.00000000000E+00 -0.53423261405E+03  0.53423261405E+03  0.25500000920E-02 0. -1.
    10030    2    1    2    0    0  0.00000000000E+00  0.00000000000E+00  0.98155057076E+03  0.20500157989E+04  0.17997564426E+04 0.  0.
        1    1    3    3  502    0 -0.26109975684E+03 -0.84749255966E+03  0.31666760890E+03  0.94164488861E+03  0.50400001928E-02 0. -1.
       -1    1    3    3    0  502  0.26109975684E+03  0.84749255966E+03  0.66488296185E+03  0.11083709102E+04  0.50400001928E-02 0.  1.
</event>
<event>
 5   0  0.9589963E-06  0.1799993E+04  0.7818609E-02  0.8706303E-01
       -2   -1    0    0    0  501  0.00000000000E+00  0.00000000000E+00  0.43324015973E+03  0.43324015974E+03  0.25500000920E-02 0.  1.
        2   -1    0    0  501    0  0.00000000000E+00  0.00000000000E+00 -0.18696189853E+04  0.18696189854E+04  0.25500000920E-02 0. -1.
    10030    2    1    2    0    0  0.00000000000E+00  0.00000000000E+00 -0.14363788256E+04  0.23028591451E+04  0.17999933643E+04 0.  0.
        2    1    3    3  502    0 -0.85819094972E+03  0.96060278787E+02 -0.10425414653E+04  0.13537400010E+04  0.25500000920E-02 0.  1.
       -2    1    3    3    0  502  0.85819094972E+03 -0.96060278787E+02 -0.39383736028E+03  0.94911914410E+03  0.25500000920E-02 0. -1.
</event>
<event>
 5   0  0.1000316E-05  0.1800225E+04  0.7818609E-02  0.8706180E-01
       -2   -1    0    0    0  501  0.00000000000E+00  0.00000000000E+00  0.68599823668E+03  0.68599823669E+03  0.25500000920E-02 0.  1.
        2   -1    0    0  501    0  0.00000000000E+00  0.00000000000E+00 -0.11810560460E+04  0.11810560460E+04  0.25500000920E-02 0. -1.
    10030    2    1    2    0    0  0.00000000000E+00  0.00000000000E+00 -0.49505780933E+03  0.18670542827E+04  0.18002248360E+04 0.  0.
        5    1    3    3  502    0  0.37289917685E+03 -0.25127092921E+03 -0.10562116920E+04  0.11479530061E+04  0.46999998093E+01 0. -1.
       -5    1    3    3    0  502 -0.37289917685E+03  0.25127092921E+03  0.56115388266E+03  0.71910127659E+03  0.46999998093E+01 0.  1.
</event>
<event>
 5   0  0.9589963E-06  0.1800822E+04  0.7818609E-02  0.8705863E-01
        2   -1    0    0  501    0  0.00000000000E+00  0.00000000000E+00  0.65360143836E+03  0.65360143837E+03  0.25500000920E-02 0.  1.
       -2   -1    0    0    0  501  0.00000000000E+00  0.00000000000E+00 -0.12404193673E+04  0.12404193673E+04  0.25500000920E-02 0. -1.
    10030    2    1    2    0    0  0.00000000000E+00  0.00000000000E+00 -0.58681792892E+03  0.18940208056E+04  0.18008219042E+04 0.  0.
        2    1    3    3  502    0  0.60420950602E+03 -0.64767018019E+03 -0.12318697397E+03  0.89427111104E+03  0.25500000920E-02 0. -1.
       -2    1    3    3    0  502 -0.60420950602E+03  0.64767018019E+03 -0.46363095495E+03  0.99974969461E+03  0.25500000920E-02 0.  1.
</event>
<event>
 5   0  0.4987456E-06  0.1800054E+04  0.7818609E-02  0.8706271E-01
        1   -1    0    0  501    0  0.00000000000E+00  0.00000000000E+00  0.85352474051E+03  0.85352474052E+03  0.50400001928E-02 0. -1.
       -1   -1    0    0    0  501  0.00000000000E+00  0.00000000000E+00 -0.94906278940E+03  0.94906278941E+03  0.50400001928E-02 0.  1.
    10030    2    1    2    0    0  0.00000000000E+00  0.00000000000E+00 -0.95538048891E+02  0.18025875299E+04  0.18000539670E+04 0.  0.
        3    1    3    3  502    0 -0.16996253477E+03  0.61448822815E+03  0.58839317630E+03  0.86757684724E+03  0.10100000352E+00 0. -1.
       -3    1    3    3    0  502  0.16996253477E+03 -0.61448822815E+03 -0.68393122519E+03  0.93501068269E+03  0.10100000352E+00 0.  1.
</event>
<event>
 5   0  0.9999162E-06  0.1800352E+04  0.7818609E-02  0.8706112E-01
       -2   -1    0    0    0  501  0.00000000000E+00  0.00000000000E+00  0.44143031864E+03  0.44143031865E+03  0.25500000920E-02 0. -1.
        2   -1    0    0  501    0  0.00000000000E+00  0.00000000000E+00 -0.18356620315E+04  0.18356620315E+04  0.25500000920E-02 0.  1.
    10030    2    1    2    0    0  0.00000000000E+00  0.00000000000E+00 -0.13942317129E+04  0.22770923502E+04  0.18003520495E+04 0.  0.
        1    1    3    3  502    0 -0.64974601121E+03  0.61463284783E+03 -0.82593636202E+03  0.12174211641E+04  0.50400001928E-02 0.  1.
       -1    1    3    3    0  502  0.64974601121E+03 -0.61463284783E+03 -0.56829535089E+03  0.10596711861E+04  0.50400001928E-02 0. -1.
</event>
<event>
 5   0  0.4953155E-06  0.1800366E+04  0.7818609E-02  0.8706105E-01
       -1   -1    0    0    0  501  0.00000000000E+00  0.00000000000E+00  0.45095876522E+03  0.45095876525E+03  0.50400001928E-02 0. -1.
        1   -1    0    0  501    0  0.00000000000E+00  0.00000000000E+00 -0.17969040581E+04  0.17969040582E+04  0.50400001928E-02 0.  1.
    10030    2    1    2    0    0  0.00000000000E+00  0.00000000000E+00 -0.13459452929E+04  0.22478628234E+04  0.18003662242E+04 0.  0.
        2    1    3    3  502    0  0.38913858299E+03 -0.28255476965E+03 -0.16230786914E+04  0.16928232256E+04  0.25500000920E-02 0.  1.
       -2    1    3    3    0  502 -0.38913858299E+03  0.28255476965E+03  0.27713339845E+03  0.55503959783E+03  0.25500000920E-02 0. -1.
</event>
<event>
 5   0  0.4983159E-06  0.1799876E+04  0.7818609E-02  0.8706365E-01
        1   -1    0    0  501    0  0.00000000000E+00  0.00000000000E+00  0.10307310604E+04  0.10307310605E+04  0.50400001928E-02 0.  1.
       -1   -1    0    0    0  501  0.00000000000E+00  0.00000000000E+00 -0.78574162753E+03  0.78574162755E+03  0.50400001928E-02 0. -1.
    10030    2    1    2    0    0  0.00000000000E+00  0.00000000000E+00  0.24498943291E+03  0.18164726880E+04  0.17998758857E+04 0.  0.
        4    1    3    3  502    0 -0.68652223508E+03 -0.13786843536E+03 -0.44801984741E+03  0.83129049153E+03  0.12699999809E+01 0. -1.
       -4    1    3    3    0  502  0.68652223508E+03  0.13786843536E+03  0.69300928032E+03  0.98518219647E+03  0.12699999809E+01 0.  1.
</event>
<event>
 5   0  0.1035018E-05  0.1799738E+04  0.7818609E-02  0.8706439E-01
       -2   -1    0    0    0  501  0.00000000000E+00  0.00000000000E+00  0.85277957839E+03  0.85277957839E+03  0.25500000920E-02 0.  1.
        2   -1    0    0  501    0  0.00000000000E+00  0.00000000000E+00 -0.94955895392E+03  0.94955895393E+03  0.25500000920E-02 0. -1.
    10030    2    1    2    0    0  0.00000000000E+00  0.00000000000E+00 -0.96779375538E+02  0.18023385323E+04  0.17997382970E+04 0.  0.
        3    1    3    3  502    0  0.79317858878E+03 -0.38782260945E+02 -0.47223649266E+03  0.92392838070E+03  0.10100000352E+00 0. -1.
       -3    1    3    3    0  502 -0.79317858878E+03  0.38782260945E+02  0.37545711713E+03  0.87841015162E+03  0.10100000352E+00 0.  1.
</event>
<event>
 5   0  0.1000316E-05  0.1800159E+04  0.7818609E-02  0.8706215E-01
       -2   -1    0    0    0  501  0.00000000000E+00  0.00000000000E+00  0.52426380009E+03  0.52426380009E+03  0.25500000920E-02 0.  1.
        2   -1    0    0  501    0  0.00000000000E+00  0.00000000000E+00 -0.15452968422E+04  0.15452968422E+04  0.25500000920E-02 0. -1.
    10030    2    1    2    0    0  0.00000000000E+00  0.00000000000E+00 -0.10210330421E+04  0.20695606423E+04  0.18001590982E+04 0.  0.
        5    1    3    3  502    0 -0.15808970642E+03  0.35495263137E+03  0.42285648634E+03  0.57429384798E+03  0.46999998093E+01 0.  1.
       -5    1    3    3    0  502  0.15808970642E+03 -0.35495263137E+03 -0.14438895284E+04  0.14952667943E+04  0.46999998093E+01 0. -1.
</event>
<event>
 5   0  0.3626125E-06  0.1799947E+04  0.7818609E-02  0.8706327E-01
       -3   -1    0    0    0  501  0.00000000000E+00  0.00000000000E+00  0.45725568374E+03  0.45725569489E+03  0.10100000352E+00 0. -1.
        3   -1    0    0  501    0  0.00000000000E+00  0.00000000000E+00 -0.17713342661E+04  0.17713342690E+04  0.10100000352E+00 0.  1.
    10030    2    1    2    0    0  0.00000000000E+00  0.00000000000E+00 -0.13140785824E+04  0.22285899639E+04  0.17999474177E+04 0.  0.
        5    1    3    3  502    0 -0.47237469253E+03  0.70474829593E+03 -0.28534392206E+03  0.89512639030E+03  0.46999998093E+01 0. -1.
       -5    1    3    3    0  502  0.47237469253E+03 -0.70474829593E+03 -0.10287346604E+04  0.13334635736E+04  0.46999998093E+01 0.  1.
</event>
<event>
 5   0  0.1000316E-05  0.1805035E+04  0.7818609E-02  0.8703626E-01
        2   -1    0    0  501    0  0.00000000000E+00  0.00000000000E+00  0.70819713827E+03  0.70819713828E+03  0.25500000920E-02 0. -1.
       -2   -1    0    0    0  501  0.00000000000E+00  0.00000000000E+00 -0.11501572784E+04  0.11501572784E+04  0.25500000920E-02 0.  1.
    10030    2    1    2    0    0  0.00000000000E+00  0.00000000000E+00 -0.44196014010E+03  0.18583544167E+04  0.18050352829E+04 0.  0.
        5    1    3    3  502    0 -0.26008242464E+03 -0.46226369823E+03  0.53078471245E+03  0.75038996214E+03  0.46999998093E+01 0. -1.
       -5    1    3    3    0  502  0.26008242464E+03  0.46226369823E+03 -0.97274485255E+03  0.11079644545E+04  0.46999998093E+01 0.  1.
</event>
<event>
 5   0  0.9999162E-06  0.1804999E+04  0.7818609E-02  0.8703646E-01
       -2   -1    0    0    0  501  0.00000000000E+00  0.00000000000E+00  0.35809693629E+03  0.35809693630E+03  0.25500000920E-02 0. -1.
        2   -1    0    0  501    0  0.00000000000E+00  0.00000000000E+00 -0.22745381533E+04  0.22745381533E+04  0.25500000920E-02 0.  1.
    10030    2    1    2    0    0  0.00000000000E+00  0.00000000000E+00 -0.19164412170E+04  0.26326350896E+04  0.18049987747E+04 0.  0.
        1    1    3    3  502    0  0.68428095091E+03 -0.34475917611E+03 -0.26269270798E+03  0.81000417785E+03  0.50400001928E-02 0. -1.
       -1    1    3    3    0  502 -0.68428095091E+03  0.34475917611E+03 -0.16537485090E+04  0.18226309118E+04  0.50400001928E-02 0.  1.
</event>
<event>
 5   0  0.4983159E-06  0.1798613E+04  0.7818609E-02  0.8707037E-01
        1   -1    0    0  501    0  0.00000000000E+00  0.00000000000E+00  0.12954044313E+04  0.12954044313E+04  0.50400001928E-02 0. -1.
       -1   -1    0    0    0  501  0.00000000000E+00  0.00000000000E+00 -0.62432428816E+03  0.62432428818E+03  0.50400001928E-02 0.  1.
    10030    2    1    2    0    0  0.00000000000E+00  0.00000000000E+00  0.67108014316E+03  0.19197287195E+04  0.17986132986E+04 0.  0.
        4    1    3    3  502    0 -0.47524601114E+03  0.69982476119E+03  0.98053571852E+01  0.84599717814E+03  0.12699999809E+01 0.  1.
       -4    1    3    3    0  502  0.47524601114E+03 -0.69982476119E+03  0.66127478597E+03  0.10737315414E+04  0.12699999809E+01 0. -1.
</event>
<event>
 5   0  0.3626125E-06  0.1801554E+04  0.7818609E-02  0.8705473E-01
        3   -1    0    0  501    0  0.00000000000E+00  0.00000000000E+00  0.10300974394E+04  0.10300974444E+04  0.10100000352E+00 0.  1.
       -3   -1    0    0    0  501  0.00000000000E+00  0.00000000000E+00 -0.78769187187E+03  0.78769187835E+03  0.10100000352E+00 0. -1.
    10030    2    1    2    0    0  0.00000000000E+00  0.00000000000E+00  0.24240556753E+03  0.18177893227E+04  0.18015542075E+04 0.  0.
        2    1    3    3  502    0 -0.60403666383E+03 -0.57636440164E+03  0.46239674750E+03  0.95439350733E+03  0.25500000920E-02 0.  1.
       -2    1    3    3    0  502  0.60403666383E+03  0.57636440164E+03 -0.21999117997E+03  0.86339581537E+03  0.25500000920E-02 0. -1.
</event>
<event>
 5   0  0.1000316E-05  0.1802581E+04  0.7818609E-02  0.8704928E-01
        2   -1    0    0  501    0  0.00000000000E+00  0.00000000000E+00  0.12067336798E+04  0.12067336798E+04  0.25500000920E-02 0.  1.
       -2   -1    0    0    0  501  0.00000000000E+00  0.00000000000E+00 -0.67315998807E+03  0.67315998807E+03  0.25500000920E-02 0. -1.
    10030    2    1    2    0    0  0.00000000000E+00  0.00000000000E+00  0.53357369176E+03  0.18798936679E+04  0.18025812931E+04 0.  0.
        5    1    3    3  502    0 -0.80340710768E+03  0.40347517265E+03  0.20043787219E+03  0.92111488221E+03  0.46999998093E+01 0.  1.
       -5    1    3    3    0  502  0.80340710768E+03 -0.40347517265E+03  0.33313581957E+03  0.95877878569E+03  0.46999998093E+01 0. -1.
</event>
<event>
 5   0  0.9589963E-06  0.1798857E+04  0.7818609E-02  0.8706908E-01
       -2   -1    0    0    0  501  0.00000000000E+00  0.00000000000E+00  0.77516232130E+03  0.77516232131E+03  0.25500000920E-02 0.  1.
        2   -1    0    0  501    0  0.00000000000E+00  0.00000000000E+00 -0.10436153442E+04  0.10436153442E+04  0.25500000920E-02 0. -1.
    10030    2    1    2    0    0  0.00000000000E+00  0.00000000000E+00 -0.26845302286E+03  0.18187776655E+04  0.17988566288E+04 0.  0.
        2    1    3    3  502    0  0.42079332190E+03  0.79422436530E+03 -0.10051161022E+03  0.90441248664E+03  0.25500000920E-02 0. -1.
       -2    1    3    3    0  502 -0.42079332190E+03 -0.79422436530E+03 -0.16794141265E+03  0.91436517884E+03  0.25500000920E-02 0.  1.
</event>
<event>
 5   0  0.1035018E-05  0.1799671E+04  0.7818609E-02  0.8706474E-01
       -2   -1    0    0    0  501  0.00000000000E+00  0.00000000000E+00  0.52837609502E+03  0.52837609503E+03  0.25500000920E-02 0. -1.
        2   -1    0    0  501    0  0.00000000000E+00  0.00000000000E+00 -0.15324391056E+04  0.15324391056E+04  0.25500000920E-02 0.  1.
    10030    2    1    2    0    0  0.00000000000E+00  0.00000000000E+00 -0.10040630106E+04  0.20608152007E+04  0.17996712928E+04 0.  0.
        3    1    3    3  502    0  0.86782322945E+02 -0.81048103232E+03 -0.65546870490E+02  0.81774511785E+03  0.10100000352E+00 0. -1.
       -3    1    3    3    0  502 -0.86782322945E+02  0.81048103232E+03 -0.93851614012E+03  0.12430700828E+04  0.10100000352E+00 0.  1.
</event>
<event>
 5   0  0.4994123E-06  0.1799923E+04  0.7818609E-02  0.8706340E-01
        1   -1    0    0  501    0  0.00000000000E+00  0.00000000000E+00  0.14310869334E+04  0.14310869334E+04  0.50400001928E-02 0. -1.
       -1   -1    0    0    0  501  0.00000000000E+00  0.00000000000E+00 -0.56595519022E+03  0.56595519024E+03  0.50400001928E-02 0.  1.
    10030    2    1    2    0    0  0.00000000000E+00  0.00000000000E+00  0.86513174321E+03  0.19970421237E+04  0.17999234180E+04 0.  0.
        1    1    3    3  502    0  0.53103036158E+03 -0.45823375764E+03  0.10581982366E+04  0.12695491048E+04  0.50400001928E-02 0. -1.
       -1    1    3    3    0  502 -0.53103036158E+03  0.45823375764E+03 -0.19306649342E+03  0.72749301884E+03  0.50400001928E-02 0.  1.
</event>
<event>
 5   0  0.1035018E-05  0.1800542E+04  0.7818609E-02  0.8706011E-01
       -2   -1    0    0    0  501  0.00000000000E+00  0.00000000000E+00  0.26678099257E+03  0.26678099258E+03  0.25500000920E-02 0.  1.
        2   -1    0    0  501    0  0.00000000000E+00  0.00000000000E+00 -0.30380273464E+04  0.30380273464E+04  0.25500000920E-02 0. -1.
    10030    2    1    2    0    0  0.00000000000E+00  0.00000000000E+00 -0.27712463539E+04  0.33048083390E+04  0.18005420861E+04 0.  0.
        3    1    3    3  502    0  0.56126270333E+03 -0.18752526704E+03 -0.14034463673E+03  0.60817610541E+03  0.10100000352E+00 0. -1.
       -3    1    3    3    0  502 -0.56126270333E+03  0.18752526704E+03 -0.26309017171E+04  0.26966322336E+04  0.10100000352E+00 0.  1.
</event>
<event>
 5   0  0.1000316E-05  0.1796970E+04  0.7818609E-02  0.8707912E-01
        2   -1    0    0  501    0  0.00000000000E+00  0.00000000000E+00  0.14197960141E+04  0.14197960141E+04  0.25500000920E-02 0.  1.
       -2   -1    0    0    0  501  0.00000000000E+00  0.00000000000E+00 -0.56858564637E+03  0.56858564638E+03  0.25500000920E-02 0. -1.
    10030    2    1    2    0    0  0.00000000000E+00  0.00000000000E+00  0.85121036770E+03  0.19883816605E+04  0.17969703775E+04 0.  0.
        5    1    3    3  502    0 -0.24888933591E+03 -0.83486214570E+03  0.18239031768E+03  0.89007248123E+03  0.46999998093E+01 0. -1.
       -5    1    3    3    0  502  0.24888933591E+03  0.83486214570E+03  0.66882005002E+03  0.10983091792E+04  0.46999998093E+01 0.  1.
</event>
<event>
 5   0  0.4994123E-06  0.1800688E+04  0.7818609E-02  0.8705933E-01
        1   -1    0    0  501    0  0.00000000000E+00  0.00000000000E+00  0.11355181206E+04  0.11355181206E+04  0.50400001928E-02 0.  1.
       -1   -1    0    0    0  501  0.00000000000E+00  0.00000000000E+00 -0.71387646110E+03  0.71387646112E+03  0.50400001928E-02 0. -1.
    10030    2    1    2    0    0  0.00000000000E+00  0.00000000000E+00  0.42164165951E+03  0.18493945817E+04  0.18006883767E+04 0.  0.
        1    1    3    3  502    0  0.81431383538E+03  0.19307953093E+03 -0.13017313671E+03  0.84695441040E+03  0.50400001928E-02 0. -1.
       -1    1    3    3    0  502 -0.81431383538E+03 -0.19307953093E+03  0.55181479622E+03  0.10024401713E+04  0.50400001928E-02 0.  1.
</event>
<event>
 5   0  0.4953155E-06  0.1799990E+04  0.7818609E-02  0.8706305E-01
       -1   -1    0    0    0  501  0.00000000000E+00  0.00000000000E+00  0.29284404294E+04  0.29284404294E+04  0.50400001928E-02 0. -1.
        1   -1    0    0  501    0  0.00000000000E+00  0.00000000000E+00 -0.27659466601E+03  0.27659466605E+03  0.50400001928E-02 0.  1.
    10030    2    1    2    0    0  0.00000000000E+00  0.00000000000E+00  0.26518457633E+04  0.32050350954E+04  0.17999900028E+04 0.  0.
        2    1    3    3  502    0  0.32961003660E+02 -0.89530492123E+03  0.11734391677E+04  0.14763525358E+04  0.25500000920E-02 0.  1.
       -2    1    3    3    0  502 -0.32961003660E+02  0.89530492123E+03  0.14784065956E+04  0.17286825596E+04  0.25500000920E-02 0. -1.
</event>
<event>
 5   0  0.1036381E-05  0.1799824E+04  0.7818609E-02  0.8706393E-01
       -2   -1    0    0    0  501  0.00000000000E+00  0.00000000000E+00  0.52756124184E+03  0.52756124185E+03  0.25500000920E-02 0. -1.
        2   -1    0    0  501    0  0.00000000000E+00  0.00000000000E+00 -0.15350657771E+04  0.15350657771E+04  0.25500000920E-02 0.  1.
    10030    2    1    2    0    0  0.00000000000E+00  0.00000000000E+00 -0.10075045352E+04  0.20626270189E+04  0.17998235554E+04 0.  0.
        4    1    3    3  502    0  0.42194790669E+03  0.53690010759E+03 -0.11754564571E+04  0.13594120998E+04  0.12699999809E+01 0.  1.
       -4    1    3    3    0  502 -0.42194790669E+03 -0.53690010759E+03  0.16795192194E+03  0.70321491912E+03  0.12699999809E+01 0. -1.
</event>
<event>
 5   0  0.1036381E-05  0.1799370E+04  0.7818609E-02  0.8706635E-01
       -2   -1    0    0    0  501  0.00000000000E+00  0.00000000000E+00  0.58277730903E+03  0.58277730904E+03  0.25500000920E-02 0.  1.
        2   -1    0    0  501    0  0.00000000000E+00  0.00000000000E+00 -0.13889230939E+04  0.13889230939E+04  0.25500000920E-02 0. -1.
    10030    2    1    2    0    0  0.00000000000E+00  0.00000000000E+00 -0.80614578490E+03  0.19717004030E+04  0.17993697376E+04 0.  0.
        4    1    3    3  502    0  0.39586231720E+03  0.18862547138E+03  0.45775041554E+03  0.63389557378E+03  0.12699999809E+01 0.  1.
       -4    1    3    3    0  502 -0.39586231720E+03 -0.18862547138E+03 -0.12638962004E+04  0.13378048292E+04  0.12699999809E+01 0. -1.
</event>
<event>
 5   0  0.9589963E-06  0.1800064E+04  0.7818609E-02  0.8706265E-01
        2   -1    0    0  501    0  0.00000000000E+00  0.00000000000E+00  0.10867620064E+04  0.10867620064E+04  0.25500000920E-02 0. -1.
       -2   -1    0    0    0  501  0.00000000000E+00  0.00000000000E+00 -0.74538641673E+03  0.74538641674E+03  0.25500000920E-02 0.  1.
    10030    2    1    2    0    0  0.00000000000E+00  0.00000000000E+00  0.34137558967E+03  0.18321484231E+04  0.18000640409E+04 0.  0.
        2    1    3    3  502    0 -0.48706728217E+03  0.72834572434E+03 -0.38735789627E+02  0.87705330107E+03  0.25500000920E-02 0.  1.
       -2    1    3    3    0  502  0.48706728217E+03 -0.72834572434E+03  0.38011137929E+03  0.95509512207E+03  0.25500000920E-02 0. -1.
</event>
<event>
 5   0  0.9999162E-06  0.1803825E+04  0.7818609E-02  0.8704268E-01
        2   -1    0    0  501    0  0.00000000000E+00  0.00000000000E+00  0.11298446788E+04  0.11298446788E+04  0.25500000920E-02 0.  1.
       -2   -1    0    0    0  501  0.00000000000E+00  0.00000000000E+00 -0.71996303220E+03  0.71996303220E+03  0.25500000920E-02 0. -1.
    10030    2    1    2    0    0  0.00000000000E+00  0.00000000000E+00  0.40988164664E+03  0.18498077110E+04  0.18038252697E+04 0.  0.
        1    1    3    3  502    0  0.67114829447E+03 -0.39512237432E+03  0.67138135497E+03  0.10282580647E+04  0.50400001928E-02 0.  1.
       -1    1    3    3    0  502 -0.67114829447E+03  0.39512237432E+03 -0.26149970834E+03  0.82154964630E+03  0.50400001928E-02 0. -1.
</event>
<event>
 5   0  0.1036381E-05  0.1802729E+04  0.7818609E-02  0.8704849E-01
        2   -1    0    0  501    0  0.00000000000E+00  0.00000000000E+00  0.57368509685E+03  0.57368509686E+03  0.25500000920E-02 0. -1.
       -2   -1    0    0    0  501  0.00000000000E+00  0.00000000000E+00 -0.14162093425E+04  0.14162093425E+04  0.25500000920E-02 0.  1.
    10030    2    1    2    0    0  0.00000000000E+00  0.00000000000E+00 -0.84252424568E+03  0.19898944394E+04  0.18027292574E+04 0.  0.
        4    1    3    3  502    0 -0.64692490303E+03  0.54912648663E+03 -0.75680414710E+03  0.11370162085E+04  0.12699999809E+01 0.  1.
       -4    1    3    3    0  502  0.64692490303E+03 -0.54912648663E+03 -0.85720098577E+02  0.85287823087E+03  0.12699999809E+01 0. -1.
</event>
<event>
 5   0  0.1000316E-05  0.1800727E+04  0.7818609E-02  0.8705913E-01
       -2   -1    0    0    0  501  0.00000000000E+00  0.00000000000E+00  0.56037094092E+03  0.56037094092E+03  0.25500000920E-02 0. -1.
        2   -1    0    0  501    0  0.00000000000E+00  0.00000000000E+00 -0.14466391572E+04  0.14466391572E+04  0.25500000920E-02 0.  1.
    10030    2    1    2    0    0  0.00000000000E+00  0.00000000000E+00 -0.88626821630E+03  0.20070100981E+04  0.18007271261E+04 0.  0.
        5    1    3    3  502    0 -0.80923293094E+03 -0.17012742332E+03 -0.46203430477E+02  0.82822588928E+03  0.46999998093E+01 0. -1.
       -5    1    3    3    0  502  0.80923293094E+03  0.17012742332E+03 -0.84006478582E+03  0.11787842089E+04  0.46999998093E+01 0.  1.
</event>
<event>
 5   0  0.4987456E-06  0.1800038E+04  0.7818609E-02  0.8706279E-01
        1   -1    0    0  501    0  0.00000000000E+00  0.00000000000E+00  0.59587018581E+03  0.59587018583E+03  0.50400001928E-02 0.  1.
       -1   -1    0    0    0  501  0.00000000000E+00  0.00000000000E+00 -0.13594132150E+04  0.13594132150E+04  0.50400001928E-02 0. -1.
    10030    2    1    2    0    0  0.00000000000E+00  0.00000000000E+00 -0.76354302917E+03  0.19552834008E+04  0.18000375607E+04 0.  0.
        3    1    3    3  502    0 -0.76702503610E+02 -0.89661403655E+03 -0.39838043182E+03  0.98412752388E+03  0.10100000352E+00 0. -1.
       -3    1    3    3    0  502  0.76702503610E+02  0.89661403655E+03 -0.36516259735E+03  0.97115587693E+03  0.10100000352E+00 0.  1.
</event>
<event>
 5   0  0.4987456E-06  0.1801340E+04  0.7818609E-02  0.8705587E-01
        1   -1    0    0  501    0  0.00000000000E+00  0.00000000000E+00  0.99858500122E+03  0.99858500123E+03  0.50400001928E-02 0. -1.
       -1   -1    0    0    0  501  0.00000000000E+00  0.00000000000E+00 -0.81235582162E+03  0.81235582163E+03  0.50400001928E-02 0.  1.
    10030    2    1    2    0    0  0.00000000000E+00  0.00000000000E+00  0.18622917960E+03  0.18109408229E+04  0.18013398781E+04 0.  0.
        3    1    3    3  502    0 -0.64279535133E+03  0.63056090891E+03  0.11355533242E+03  0.90757244739E+03  0.10100000352E+00 0. -1.
       -3    1    3    3    0  502  0.64279535133E+03 -0.63056090891E+03  0.72673847179E+02  0.90336837547E+03  0.10100000352E+00 0.  1.
</event>
<event>
 5   0  0.4983159E-06  0.1801147E+04  0.7818609E-02  0.8705690E-01
        1   -1    0    0  501    0  0.00000000000E+00  0.00000000000E+00  0.17429433117E+04  0.17429433117E+04  0.50400001928E-02 0. -1.
       -1   -1    0    0    0  501  0.00000000000E+00  0.00000000000E+00 -0.46532346680E+03  0.46532346683E+03  0.50400001928E-02 0.  1.
    10030    2    1    2    0    0  0.00000000000E+00  0.00000000000E+00  0.12776198449E+04  0.22082667786E+04  0.18011467728E+04 0.  0.
        4    1    3    3  502    0 -0.15390603763E+03 -0.81186945396E+03  0.19980810385E+03  0.85014349962E+03  0.12699999809E+01 0.  1.
       -4    1    3    3    0  502  0.15390603763E+03  0.81186945396E+03  0.10778117411E+04  0.13581232789E+04  0.12699999809E+01 0. -1.
</event>
<event>
 5   0  0.4994123E-06  0.1800543E+04  0.7818609E-02  0.8706011E-01
       -1   -1    0    0    0  501  0.00000000000E+00  0.00000000000E+00  0.75766411585E+03  0.75766411586E+03  0.50400001928E-02 0.  1.
        1   -1    0    0  501    0  0.00000000000E+00  0.00000000000E+00 -0.10697205540E+04  0.10697205540E+04  0.50400001928E-02 0. -1.
    10030    2    1    2    0    0  0.00000000000E+00  0.00000000000E+00 -0.31205643818E+03  0.18273846699E+04  0.18005431156E+04 0.  0.
        1    1    3    3  502    0  0.17033934139E+03  0.69798073078E+03  0.39454976656E+03  0.81967195272E+03  0.50400001928E-02 0.  1.
       -1    1    3    3    0  502 -0.17033934139E+03 -0.69798073078E+03 -0.70660620473E+03  0.10077127172E+04  0.50400001928E-02 0. -1.
</event>
<event>
 5   0  0.9999162E-06  0.1798115E+04  0.7818609E-02  0.8707302E-01
        2   -1    0    0  501    0  0.00000000000E+00  0.00000000000E+00  0.75077318033E+03  0.75077318033E+03  0.25500000920E-02 0. -1.
       -2   -1    0    0    0  501  0.00000000000E+00  0.00000000000E+00 -0.10766298598E+04  0.10766298598E+04  0.25500000920E-02 0.  1.
    10030    2    1    2    0    0  0.00000000000E+00  0.00000000000E+00 -0.32585667949E+03  0.18274030402E+04  0.17981154845E+04 0.  0.
        1    1    3    3  502    0  0.16118838142E+03 -0.10983826317E+03  0.72901047611E+03  0.75465383631E+03  0.50400001928E-02 0. -1.
       -1    1    3    3    0  502 -0.16118838142E+03  0.10983826317E+03 -0.10548671556E+04  0.10727492038E+04  0.50400001928E-02 0.  1.
</event>
<event>
 5   0  0.1036381E-05  0.1798799E+04  0.7818609E-02  0.8706938E-01
        2   -1    0    0  501    0  0.00000000000E+00  0.00000000000E+00  0.12081965881E+04  0.12081965881E+04  0.25500000920E-02 0.  1.
       -2   -1    0    0    0  501  0.00000000000E+00  0.00000000000E+00 -0.66952661535E+03  0.66952661535E+03  0.25500000920E-02 0. -1.
    10030    2    1    2    0    0  0.00000000000E+00  0.00000000000E+00  0.53866997273E+03  0.18777232034E+04  0.17987993466E+04 0.  0.
        4    1    3    3  502    0  0.21036599923E+03  0.42342760324E+03 -0.52933126433E+03  0.70974501697E+03  0.12699999809E+01 0. -1.
       -4    1    3    3    0  502 -0.21036599923E+03 -0.42342760324E+03  0.10680012371E+04  0.11679781865E+04  0.12699999809E+01 0.  1.
</event>
<event>
 5   0  0.9589963E-06  0.1799714E+04  0.7818609E-02  0.8706452E-01
       -2   -1    0    0    0  501  0.00000000000E+00  0.00000000000E+00  0.76194426467E+03  0.76194426468E+03  0.25500000920E-02 0.  1.
        2   -1    0    0  501    0  0.00000000000E+00  0.00000000000E+00 -0.10627320690E+04  0.10627320690E+04  0.25500000920E-02 0. -1.
    10030    2    1    2    0    0  0.00000000000E+00  0.00000000000E+00 -0.30078780431E+03  0.18246763337E+04  0.17997139827E+04 0.  0.
        2    1    3    3  502    0 -0.28186656368E+03 -0.42105168665E+03 -0.90435436881E+03  0.10366243808E+04  0.25500000920E-02 0. -1.
       -2    1    3    3    0  502  0.28186656368E+03  0.42105168665E+03  0.60356656450E+03  0.78805195282E+03  0.25500000920E-02 0.  1.
</event>
<event>
 5   0  0.4981384E-06  0.1799382E+04  0.7818609E-02  0.8706628E-01
       -1   -1    0    0    0  501  0.00000000000E+00  0.00000000000E+00  0.11827423700E+04  0.11827423700E+04  0.50400001928E-02 0.  1.
        1   -1    0    0  501    0  0.00000000000E+00  0.00000000000E+00 -0.68437864388E+03  0.68437864390E+03  0.50400001928E-02 0. -1.
    10030    2    1    2    0    0  0.00000000000E+00  0.00000000000E+00  0.49836372614E+03  0.18671210139E+04  0.17993816930E+04 0.  0.
        5    1    3    3  502    0 -0.15855368100E+03  0.47149060633E+03 -0.52869196853E+03  0.72593384630E+03  0.46999998093E+01 0. -1.
       -5    1    3    3    0  502  0.15855368100E+03 -0.47149060633E+03  0.10270556947E+04  0.11411871676E+04  0.46999998093E+01 0.  1.
</event>
<event>
 5   0  0.4987456E-06  0.1800346E+04  0.7818609E-02  0.8706116E-01
       -1   -1    0    0    0  501  0.00000000000E+00  0.00000000000E+00  0.62179967184E+03  0.62179967186E+03  0.50400001928E-02 0. -1.
        1   -1    0    0  501    0  0.00000000000E+00  0.00000000000E+00 -0.13031708863E+04  0.13031708863E+04  0.50400001928E-02 0.  1.
    10030    2    1    2    0    0  0.00000000000E+00  0.00000000000E+00 -0.68137121442E+03  0.19249705581E+04  0.18003457773E+04 0.  0.
        3    1    3    3  502    0 -0.77281759120E+03  0.11403215002E+02 -0.83407616400E+03  0.11371280140E+04  0.10100000352E+00 0.  1.
       -3    1    3    3    0  502  0.77281759120E+03 -0.11403215002E+02  0.15270494958E+03  0.78784254417E+03  0.10100000352E+00 0. -1.
</event>
<event>
 5   0  0.9999162E-06  0.1800241E+04  0.7818609E-02  0.8706171E-01
       -2   -1    0    0    0  501  0.00000000000E+00  0.00000000000E+00  0.64962812538E+03  0.64962812538E+03  0.25500000920E-02 0.  1.
        2   -1    0    0  501    0  0.00000000000E+00  0.00000000000E+00 -0.12472014119E+04  0.12472014119E+04  0.25500000920E-02 0. -1.
    10030    2    1    2    0    0  0.00000000000E+00  0.00000000000E+00 -0.59757328648E+03  0.18968295372E+04  0.18002412229E+04 0.  0.
        1    1    3    3  502    0  0.63193633764E+03 -0.11559946387E+03 -0.96309821710E+03  0.11576981242E+04  0.50400001928E-02 0. -1.
       -1    1    3    3    0  502 -0.63193633764E+03  0.11559946387E+03  0.36552493062E+03  0.73913141308E+03  0.50400001928E-02 0.  1.
</event>
<event>
 5   0  0.4983159E-06  0.1800071E+04  0.7818609E-02  0.8706262E-01
       -1   -1    0    0    0  501  0.00000000000E+00  0.00000000000E+00  0.39078825023E+03  0.39078825026E+03  0.50400001928E-02 0.  1.
        1   -1    0    0  501    0  0.00000000000E+00  0.00000000000E+00 -0.20728973782E+04  0.20728973782E+04  0.50400001928E-02 0. -1.
    10030    2    1    2    0    0  0.00000000000E+00  0.00000000000E+00 -0.16821091280E+04  0.24636856285E+04  0.18000710424E+04 0.  0.
        4    1    3    3  502    0 -0.87701427771E+03 -0.17876762659E+03 -0.97053892691E+03  0.13202497223E+04  0.12699999809E+01 0. -1.
       -4    1    3    3    0  502  0.87701427771E+03  0.17876762659E+03 -0.71157020107E+03  0.11434359062E+04  0.12699999809E+01 0.  1.
</event>
<event>
 5   0  0.4987456E-06  0.1800084E+04  0.7818609E-02  0.8706255E-01
        1   -1    0    0  501    0  0.00000000000E+00  0.00000000000E+00  0.78535587491E+03  0.78535587493E+03  0.50400001928E-02 0. -1.
       -1   -1    0    0    0  501  0.00000000000E+00  0.00000000000E+00 -0.10314752648E+04  0.10314752649E+04  0.50400001928E-02 0.  1.
    10030    2    1    2    0    0  0.00000000000E+00  0.00000000000E+00 -0.24611938993E+03  0.18168311398E+04  0.18000835082E+04 0.  0.
        3    1    3    3  502    0  0.16276901504E+03  0.53612636386E+03 -0.83399220448E+03  0.10047229656E+04  0.10100000352E+00 0.  1.
       -3    1    3    3    0  502 -0.16276901504E+03 -0.53612636386E+03  0.58787281454E+03  0.81210817418E+03  0.10100000352E+00 0. -1.
</event>
<event>
 5   0  0.4994123E-06  0.1798631E+04  0.7818609E-02  0.8707028E-01
       -1   -1    0    0    0  501  0.00000000000E+00  0.00000000000E+00  0.84014455020E+03  0.84014455021E+03  0.50400001928E-02 0.  1.
        1   -1    0    0  501    0  0.00000000000E+00  0.00000000000E+00 -0.96265424365E+03  0.96265424366E+03  0.50400001928E-02 0. -1.
    10030    2    1    2    0    0  0.00000000000E+00  0.00000000000E+00 -0.12250969345E+03  0.18027987939E+04  0.17986313870E+04 0.  0.
        1    1    3    3  502    0  0.96450781789E+02 -0.66047250993E+03 -0.66534691880E+03  0.94245064171E+03  0.50400001928E-02 0. -1.
       -1    1    3    3    0  502 -0.96450781789E+02  0.66047250993E+03  0.54283722535E+03  0.86034815216E+03  0.50400001928E-02 0.  1.
</event>
<event>
 5   0  0.4981384E-06  0.1800345E+04  0.7818609E-02  0.8706116E-01
       -1   -1    0    0    0  501  0.00000000000E+00  0.00000000000E+00  0.46316430142E+03  0.46316430145E+03  0.50400001928E-02 0. -1.
        1   -1    0    0  501    0  0.00000000000E+00  0.00000000000E+00 -0.17495106677E+04  0.17495106678E+04  0.50400001928E-02 0.  1.
    10030    2    1    2    0    0  0.00000000000E+00  0.00000000000E+00 -0.12863463663E+04  0.22126749692E+04  0.18003453961E+04 0.  0.
        5    1    3    3  502    0  0.34176576906E+02 -0.19937576327E+03  0.43485330542E+03  0.47962299843E+03  0.46999998093E+01 0. -1.
       -5    1    3    3    0  502 -0.34176576906E+02  0.19937576327E+03 -0.17211996717E+04  0.17330519708E+04  0.46999998093E+01 0.  1.
</event>
<event>
 5   0  0.4987456E-06  0.1798825E+04  0.7818609E-02  0.8706924E-01
       -1   -1    0    0    0  501  0.00000000000E+00  0.00000000000E+00  0.62105057353E+03  0.62105057355E+03  0.50400001928E-02 0.  1.
        1   -1    0    0  501    0  0.00000000000E+00  0.00000000000E+00 -0.13025398478E+04  0.13025398479E+04  0.50400001928E-02 0. -1.
    10030    2    1    2    0    0  0.00000000000E+00  0.00000000000E+00 -0.68148927431E+03  0.19235904214E+04  0.17988253051E+04 0.  0.
        3    1    3    3  502    0  0.53805390746E+03 -0.72067679185E+03 -0.33205292774E+03  0.95871591343E+03  0.10100000352E+00 0. -1.
       -3    1    3    3    0  502 -0.53805390746E+03  0.72067679185E+03 -0.34943634657E+03  0.96487450798E+03  0.10100000352E+00 0.  1.
</event>
<event>
 5   0  0.1036381E-05  0.1799240E+04  0.7818609E-02  0.8706704E-01
        2   -1    0    0  501    0  0.00000000000E+00  0.00000000000E+00  0.25591314677E+04  0.25591314677E+04  0.25500000920E-02 0.  1.
       -2   -1    0    0    0  501  0.00000000000E+00  0.00000000000E+00 -0.31624649460E+03  0.31624649461E+03  0.25500000920E-02 0. -1.
    10030    2    1    2    0    0  0.00000000000E+00  0.00000000000E+00  0.22428849731E+04  0.28753779623E+04  0.17992402351E+04 0.  0.
        4    1    3    3  502    0  0.77955469133E+03  0.32641899125E+03  0.16141672501E+04  0.18220297470E+04  0.12699999809E+01 0.  1.
       -4    1    3    3    0  502 -0.77955469133E+03 -0.32641899125E+03  0.62871772297E+03  0.10533482153E+04  0.12699999809E+01 0. -1.
</event>
<event>
 5   0  0.9999162E-06  0.1799163E+04  0.7818609E-02  0.8706745E-01
        2   -1    0    0  501    0  0.00000000000E+00  0.00000000000E+00  0.22180417268E+04  0.22180417268E+04  0.25500000920E-02 0.  1.
       -2   -1    0    0    0  501  0.00000000000E+00  0.00000000000E+00 -0.36484759079E+03  0.36484759080E+03  0.25500000920E-02 0. -1.
    10030    2    1    2    0    0  0.00000000000E+00  0.00000000000E+00  0.18531941360E+04  0.25828893176E+04  0.17991633392E+04 0.  0.
        1    1    3    3  502    0  0.44180719979E+03 -0.78338062458E+03  0.89904332607E+03  0.12716751578E+04  0.50400001928E-02 0.  1.
       -1    1    3    3    0  502 -0.44180719979E+03  0.78338062458E+03  0.95415080998E+03  0.13112141598E+04  0.50400001928E-02 0. -1.
</event>
<event>
 5   0  0.4983159E-06  0.1799141E+04  0.7818609E-02  0.8706756E-01
       -1   -1    0    0    0  501  0.00000000000E+00  0.00000000000E+00  0.62032505554E+03  0.62032505556E+03  0.50400001928E-02 0. -1.
        1   -1    0    0  501    0  0.00000000000E+00  0.00000000000E+00 -0.13045211704E+04  0.13045211704E+04  0.50400001928E-02 0.  1.
    10030    2    1    2    0    0  0.00000000000E+00  0.00000000000E+00 -0.68419611485E+03  0.19248462260E+04  0.17991410923E+04 0.  0.
        4    1    3    3  502    0  0.14163902444E+03 -0.31901478416E+03  0.54492218388E+03  0.64712737938E+03  0.12699999809E+01 0. -1.
       -4    1    3    3    0  502 -0.14163902444E+03  0.31901478416E+03 -0.12291182987E+04  0.12777188466E+04  0.12699999809E+01 0.  1.
</event>
<event>
 5   0  0.1000316E-05  0.1801209E+04  0.7818609E-02  0.8705657E-01
       -2   -1    0    0    0  501  0.00000000000E+00  0.00000000000E+00  0.46583928507E+03  0.46583928508E+03  0.25500000920E-02 0.  1.
        2   -1    0    0  501    0  0.00000000000E+00  0.00000000000E+00 -0.17411343035E+04  0.17411343035E+04  0.25500000920E-02 0. -1.
    10030    2    1    2    0    0  0.00000000000E+00  0.00000000000E+00 -0.12752950184E+04  0.22069735886E+04  0.18012093262E+04 0.  0.
        5    1    3    3  502    0 -0.86594524969E+03  0.32522208501E+02 -0.93814636398E+03  0.12771294217E+04  0.46999998093E+01 0. -1.
       -5    1    3    3    0  502  0.86594524969E+03 -0.32522208501E+02 -0.33714865445E+03  0.92984416690E+03  0.46999998093E+01 0.  1.
</event>
<event>
 5   0  0.4983159E-06  0.1799772E+04  0.7818609E-02  0.8706421E-01
       -1   -1    0    0    0  501  0.00000000000E+00  0.00000000000E+00  0.81395931454E+03  0.81395931455E+03  0.50400001928E-02 0. -1.
        1   -1    0    0  501    0  0.00000000000E+00  0.00000000000E+00 -0.99488396223E+03  0.99488396225E+03  0.50400001928E-02 0.  1.
    10030    2    1    2    0    0  0.00000000000E+00  0.00000000000E+00 -0.18092464769E+03  0.18088432768E+04  0.17997722833E+04 0.  0.
        4    1    3    3  502    0 -0.82253981871E+03  0.29101425231E+03  0.13094872778E+03  0.88227559788E+03  0.12699999809E+01 0.  1.
       -4    1    3    3    0  502  0.82253981871E+03 -0.29101425231E+03 -0.31187337547E+03  0.92656767893E+03  0.12699999809E+01 0. -1.
</event>
<event>
 5   0  0.4994123E-06  0.1798656E+04  0.7818609E-02  0.8707015E-01
       -1   -1    0    0    0  501  0.00000000000E+00  0.00000000000E+00  0.39165679710E+03  0.39165679713E+03  0.50400001928E-02 0. -1.
        1   -1    0    0  501    0  0.00000000000E+00  0.00000000000E+00 -0.20650488780E+04  0.20650488780E+04  0.50400001928E-02 0.  1.
    10030    2    1    2    0    0  0.00000000000E+00  0.00000000000E+00 -0.16733920809E+04  0.24567056752E+04  0.17986555306E+04 0.  0.
        1    1    3    3  502    0 -0.67248498242E+03  0.39351669113E+03 -0.22327736315E+03  0.81052095513E+03  0.50400001928E-02 0. -1.
       -1    1    3    3    0  502  0.67248498242E+03 -0.39351669113E+03 -0.14501147178E+04  0.16461847200E+04  0.50400001928E-02 0.  1.
</event>
<event>
 5   0  0.4994123E-06  0.1799635E+04  0.7818609E-02  0.8706493E-01
       -1   -1    0    0    0  501  0.00000000000E+00  0.00000000000E+00  0.32242833392E+03  0.32242833396E+03  0.50400001928E-02 0.  1.
        1   -1    0    0  501    0  0.00000000000E+00  0.00000000000E+00 -0.25111684127E+04  0.25111684127E+04  0.50400001928E-02 0. -1.
    10030    2    1    2    0    0  0.00000000000E+00  0.00000000000E+00 -0.21887400788E+04  0.28335967467E+04  0.17996353492E+04 0.  0.
        1    1    3    3  502    0  0.47099603276E+03 -0.57906815951E+03 -0.30315083320E+03  0.80564112602E+03  0.50400001928E-02 0.  1.
       -1    1    3    3    0  502 -0.47099603276E+03  0.57906815951E+03 -0.18855892456E+04  0.20279556207E+04  0.50400001928E-02 0. -1.
</event>
<event>
 5   0  0.4987456E-06  0.1799163E+04  0.7818609E-02  0.8706745E-01
       -1   -1    0    0    0  501  0.00000000000E+00  0.00000000000E+00  0.12414135156E+04  0.12414135157E+04  0.50400001928E-02 0.  1.
        1   -1    0    0  501    0  0.00000000000E+00  0.00000000000E+00 -0.65187552370E+03  0.65187552372E+03  0.50400001928E-02 0. -1.
    10030    2    1    2    0    0  0.00000000000E+00  0.00000000000E+00  0.58953799195E+03  0.18932890394E+04  0.17991632340E+04 0.  0.
        3    1    3    3  502    0 -0.38465040256E+03  0.75975419978E+03  0.59987670761E+03  0.10416498696E+04  0.10100000352E+00 0.  1.
       -3    1    3    3    0  502  0.38465040256E+03 -0.75975419978E+03 -0.10338715655E+02  0.85163916979E+03  0.10100000352E+00 0. -1.
</event>
<event>
 5   0  0.1000316E-05  0.1801154E+04  0.7818609E-02  0.8705686E-01
       -2   -1    0    0    0  501  0.00000000000E+00  0.00000000000E+00  0.39081121179E+03  0.39081121179E+03  0.25500000920E-02 0.  1.
        2   -1    0    0  501    0  0.00000000000E+00  0.00000000000E+00 -0.20752712247E+04  0.20752712247E+04  0.25500000920E-02 0. -1.
    10030    2    1    2    0    0  0.00000000000E+00  0.00000000000E+00 -0.16844600130E+04  0.24660824365E+04  0.18011543656E+04 0.  0.
        5    1    3    3  502    0  0.12133892805E+03  0.71797981245E+03 -0.11670154595E+03  0.73746829584E+03  0.46999998093E+01 0.  1.
       -5    1    3    3    0  502 -0.12133892805E+03 -0.71797981245E+03 -0.15677584670E+04  0.17286141407E+04  0.46999998093E+01 0. -1.
</event>
<event>
 5   0  0.9999162E-06  0.1799841E+04  0.7818609E-02  0.8706384E-01
       -2   -1    0    0    0  501  0.00000000000E+00  0.00000000000E+00  0.15675270394E+04  0.15675270394E+04  0.25500000920E-02 0. -1.
        2   -1    0    0  501    0  0.00000000000E+00  0.00000000000E+00 -0.51664637433E+03  0.51664637434E+03  0.25500000920E-02 0.  1.
    10030    2    1    2    0    0  0.00000000000E+00  0.00000000000E+00  0.10508806650E+04  0.20841734137E+04  0.17998412836E+04 0.  0.
        1    1    3    3  502    0  0.30154003608E+03  0.26620888967E+03  0.14576389518E+04  0.15121193340E+04  0.50400001928E-02 0. -1.
       -1    1    3    3    0  502 -0.30154003608E+03 -0.26620888967E+03 -0.40675828675E+03  0.57205407976E+03  0.50400001928E-02 0.  1.
</event>
<event>
 5   0  0.4983159E-06  0.1799808E+04  0.7818609E-02  0.8706402E-01
       -1   -1    0    0    0  501  0.00000000000E+00  0.00000000000E+00  0.47948417083E+03  0.47948417086E+03  0.50400001928E-02 0. -1.
        1   -1    0    0  501    0  0.00000000000E+00  0.00000000000E+00 -0.16889552176E+04  0.16889552176E+04  0.50400001928E-02 0.  1.
    10030    2    1    2    0    0  0.00000000000E+00  0.00000000000E+00 -0.12094710468E+04  0.21684393885E+04  0.17998080921E+04 0.  0.
        4    1    3    3  502    0 -0.57780014276E+03  0.13759544267E+03  0.20977795032E+03  0.62991579767E+03  0.12699999809E+01 0. -1.
       -4    1    3    3    0  502  0.57780014276E+03 -0.13759544267E+03 -0.14192489971E+04  0.15385235908E+04  0.12699999809E+01 0.  1.
</event>
<event>
 5   0  0.4987456E-06  0.1800468E+04  0.7818609E-02  0.8706051E-01
        1   -1    0    0  501    0  0.00000000000E+00  0.00000000000E+00  0.23492708154E+04  0.23492708154E+04  0.50400001928E-02 0.  1.
       -1   -1    0    0    0  501  0.00000000000E+00  0.00000000000E+00 -0.34496713777E+03  0.34496713781E+03  0.50400001928E-02 0. -1.
    10030    2    1    2    0    0  0.00000000000E+00  0.00000000000E+00  0.20043036776E+04  0.26942379532E+04  0.18004679715E+04 0.  0.
        3    1    3    3  502    0  0.31687669787E+03  0.68873672412E+03  0.17285691890E+04  0.18875170379E+04  0.10100000352E+00 0.  1.
       -3    1    3    3    0  502 -0.31687669787E+03 -0.68873672412E+03  0.27573448857E+03  0.80672091530E+03  0.10100000352E+00 0. -1.
</event>
<event>
 5   0  0.1000316E-05  0.1806406E+04  0.7818609E-02  0.8702900E-01
        2   -1    0    0  501    0  0.00000000000E+00  0.00000000000E+00  0.15128716042E+04  0.15128716042E+04  0.25500000920E-02 0.  1.
       -2   -1    0    0    0  501  0.00000000000E+00  0.00000000000E+00 -0.53922351029E+03  0.53922351030E+03  0.25500000920E-02 0. -1.
    10030    2    1    2    0    0  0.00000000000E+00  0.00000000000E+00  0.97364809394E+03  0.20520951145E+04  0.18064063076E+04 0.  0.
        5    1    3    3  502    0 -0.40247878560E+03  0.46895915317E+03 -0.26142786556E+03  0.67102792720E+03  0.46999998093E+01 0. -1.
       -5    1    3    3    0  502  0.40247878560E+03 -0.46895915317E+03  0.12350759595E+04  0.13810671873E+04  0.46999998093E+01 0.  1.
</event>
<event>
 5   0  0.4987456E-06  0.1799779E+04  0.7818609E-02  0.8706417E-01
        1   -1    0    0  501    0  0.00000000000E+00  0.00000000000E+00  0.60514619690E+03  0.60514619692E+03  0.50400001928E-02 0. -1.
       -1   -1    0    0    0  501  0.00000000000E+00  0.00000000000E+00 -0.13381907484E+04  0.13381907484E+04  0.50400001928E-02 0.  1.
    10030    2    1    2    0    0  0.00000000000E+00  0.00000000000E+00 -0.73304455153E+03  0.19433369454E+04  0.17997789222E+04 0.  0.
        3    1    3    3  502    0  0.93640917659E+02 -0.69320760909E+03 -0.97780200749E+03  0.12022488040E+04  0.10100000352E+00 0.  1.
       -3    1    3    3    0  502 -0.93640917659E+02  0.69320760909E+03  0.24475745596E+03  0.74108814132E+03  0.10100000352E+00 0. -1.
</event>
<event>
 5   0  0.4987456E-06  0.1799288E+04  0.7818609E-02  0.8706678E-01
       -1   -1    0    0    0  501  0.00000000000E+00  0.00000000000E+00  0.88765280999E+03  0.88765281000E+03  0.50400001928E-02 0.  1.
        1   -1    0    0  501    0  0.00000000000E+00  0.00000000000E+00 -0.91179760914E+03  0.91179760915E+03  0.50400001928E-02 0. -1.
    10030    2    1    2    0    0  0.00000000000E+00  0.00000000000E+00 -0.24144799149E+02  0.17994504192E+04  0.17992884259E+04 0.  0.
        3    1    3    3  502    0 -0.16400795408E+03  0.41677618512E+02  0.87159306495E+03  0.88786829764E+03  0.10100000352E+00 0.  1.
       -3    1    3    3    0  502  0.16400795408E+03 -0.41677618512E+02 -0.89573786410E+03  0.91158212152E+03  0.10100000352E+00 0. -1.
</event>
<event>
 5   0  0.1036381E-05  0.1800197E+04  0.7818609E-02  0.8706195E-01
       -2   -1    0    0    0  501  0.00000000000E+00  0.00000000000E+00  0.77954232781E+03  0.77954232781E+03  0.25500000920E-02 0. -1.
        2   -1    0    0  501    0  0.00000000000E+00  0.00000000000E+00 -0.10392983485E+04  0.10392983485E+04  0.25500000920E-02 0.  1.
    10030    2    1    2    0    0  0.00000000000E+00  0.00000000000E+00 -0.25975602066E+03  0.18188406763E+04  0.18001967158E+04 0.  0.
        4    1    3    3  502    0 -0.15690725945E+03 -0.22839810584E+03 -0.99512907638E+03  0.10329903554E+04  0.12699999809E+01 0.  1.
       -4    1    3    3    0  502  0.15690725945E+03  0.22839810584E+03  0.73537305572E+03  0.78585032086E+03  0.12699999809E+01 0. -1.
</event>
<event>
 5   0  0.9589963E-06  0.1799516E+04  0.7818609E-02  0.8706557E-01
       -2   -1    0    0    0  501  0.00000000000E+00  0.00000000000E+00  0.10411229176E+04  0.10411229176E+04  0.25500000920E-02 0.  1.
        2   -1    0    0  501    0  0.00000000000E+00  0.00000000000E+00 -0.77758814468E+03  0.77758814469E+03  0.25500000920E-02 0. -1.
    10030    2    1    2    0    0  0.00000000000E+00  0.00000000000E+00  0.26353477292E+03  0.18187110623E+04  0.17995164216E+04 0.  0.
        2    1    3    3  502    0  0.71318839845E+03  0.98351220163E+02  0.67720361439E+03  0.98839030223E+03  0.25500000920E-02 0.  1.
       -2    1    3    3    0  502 -0.71318839845E+03 -0.98351220163E+02 -0.41366884147E+03  0.83032076007E+03  0.25500000920E-02 0. -1.
</event>
<event>
 5   0  0.4953155E-06  0.1799961E+04  0.7818609E-02  0.8706320E-01
        1   -1    0    0  501    0  0.00000000000E+00  0.00000000000E+00  0.90671971766E+03  0.90671971768E+03  0.50400001928E-02 0.  1.
       -1   -1    0    0    0  501  0.00000000000E+00  0.00000000000E+00 -0.89329121751E+03  0.89329121753E+03  0.50400001928E-02 0. -1.
    10030    2    1    2    0    0  0.00000000000E+00  0.00000000000E+00  0.13428500150E+02  0.18000109352E+04  0.17999608446E+04 0.  0.
        2    1    3    3  502    0  0.17984412988E+03  0.43057282719E+03 -0.76287060704E+03  0.89426418561E+03  0.25500000920E-02 0. -1.
       -2    1    3    3    0  502 -0.17984412988E+03 -0.43057282719E+03  0.77629910719E+03  0.90574674960E+03  0.25500000920E-02 0.  1.
</event>
<event>
 5   0  0.9589963E-06  0.1800292E+04  0.7818609E-02  0.8706144E-01
        2   -1    0    0  501    0  0.00000000000E+00  0.00000000000E+00  0.94281794516E+03  0.94281794516E+03  0.25500000920E-02 0.  1.
       -2   -1    0    0    0  501  0.00000000000E+00  0.00000000000E+00 -0.85940546334E+03  0.85940546335E+03  0.25500000920E-02 0. -1.
    10030    2    1    2    0    0  0.00000000000E+00  0.00000000000E+00  0.83412481815E+02  0.18022234085E+04  0.18002920796E+04 0.  0.
        2    1    3    3  502    0  0.40888628014E+03  0.31094616682E+03  0.78167943433E+03  0.93535995575E+03  0.25500000920E-02 0.  1.
       -2    1    3    3    0  502 -0.40888628014E+03 -0.31094616682E+03 -0.69826695252E+03  0.86686345276E+03  0.25500000920E-02 0. -1.
</event>
<event>
 5   0  0.4953155E-06  0.1800630E+04  0.7818609E-02  0.8705964E-01
       -1   -1    0    0    0  501  0.00000000000E+00  0.00000000000E+00  0.63534945280E+03  0.63534945282E+03  0.50400001928E-02 0. -1.
        1   -1    0    0  501    0  0.00000000000E+00  0.00000000000E+00 -0.12757817946E+04  0.12757817946E+04  0.50400001928E-02 0.  1.
    10030    2    1    2    0    0  0.00000000000E+00  0.00000000000E+00 -0.64043234181E+03  0.19111312474E+04  0.18006301843E+04 0.  0.
        2    1    3    3  502    0 -0.31356223396E+03  0.83922713267E+03 -0.22561850500E+03  0.92386533899E+03  0.25500000920E-02 0.  1.
       -2    1    3    3    0  502  0.31356223396E+03 -0.83922713267E+03 -0.41481383681E+03  0.98726590846E+03  0.25500000920E-02 0. -1.
</event>
<event>
 5   0  0.3626125E-06  0.1799831E+04  0.7818609E-02  0.8706389E-01
       -3   -1    0    0    0  501  0.00000000000E+00  0.00000000000E+00  0.82067736377E+03  0.82067736999E+03  0.10100000352E+00 0.  1.
        3   -1    0    0  501    0  0.00000000000E+00  0.00000000000E+00 -0.98680447525E+03  0.98680448042E+03  0.10100000352E+00 0. -1.
    10030    2    1    2    0    0  0.00000000000E+00  0.00000000000E+00 -0.16612711148E+03  0.18074818504E+04  0.17998312205E+04 0.  0.
        3    1    3    3  502    0 -0.39553605331E+02  0.71374034693E+03 -0.63206671425E+03  0.95420024732E+03  0.10100000352E+00 0. -1.
       -3    1    3    3    0  502  0.39553605331E+02 -0.71374034693E+03  0.46593960277E+03  0.85328160308E+03  0.10100000352E+00 0.  1.
</event>
<event>
 5   0  0.4994123E-06  0.1802542E+04  0.7818609E-02  0.8704949E-01
       -1   -1    0    0    0  501  0.00000000000E+00  0.00000000000E+00  0.13703438112E+04  0.13703438112E+04  0.50400001928E-02 0.  1.
        1   -1    0    0  501    0  0.00000000000E+00  0.00000000000E+00 -0.59276330086E+03  0.59276330088E+03  0.50400001928E-02 0. -1.
    10030    2    1    2    0    0  0.00000000000E+00  0.00000000000E+00  0.77758051033E+03  0.19631071121E+04  0.18025421170E+04 0.  0.
        1    1    3    3  502    0 -0.88582487148E+03 -0.67445854273E+02  0.22342664003E+03  0.91605355175E+03  0.50400001928E-02 0. -1.
       -1    1    3    3    0  502  0.88582487148E+03  0.67445854273E+02  0.55415387030E+03  0.10470535603E+04  0.50400001928E-02 0.  1.
</event>
<event>
 5   0  0.9589963E-06  0.1798760E+04  0.7818609E-02  0.8706959E-01
        2   -1    0    0  501    0  0.00000000000E+00  0.00000000000E+00  0.12545752311E+04  0.12545752311E+04  0.25500000920E-02 0. -1.
       -2   -1    0    0    0  501  0.00000000000E+00  0.00000000000E+00 -0.64474787427E+03  0.64474787427E+03  0.25500000920E-02 0.  1.
    10030    2    1    2    0    0  0.00000000000E+00  0.00000000000E+00  0.60982735683E+03  0.18993231054E+04  0.17987603658E+04 0.  0.
        2    1    3    3  502    0 -0.48354028788E+03 -0.42828307253E+03 -0.35589084416E+03  0.73749297840E+03  0.25500000920E-02 0.  1.
       -2    1    3    3    0  502  0.48354028788E+03  0.42828307253E+03  0.96571820099E+03  0.11618301270E+04  0.25500000920E-02 0. -1.
</event>
<event>
 5   0  0.1036381E-05  0.1800324E+04  0.7818609E-02  0.8706127E-01
       -2   -1    0    0    0  501  0.00000000000E+00  0.00000000000E+00  0.71937359944E+03  0.71937359945E+03  0.25500000920E-02 0.  1.
        2   -1    0    0  501    0  0.00000000000E+00  0.00000000000E+00 -0.11263852810E+04  0.11263852810E+04  0.25500000920E-02 0. -1.
    10030    2    1    2    0    0  0.00000000000E+00  0.00000000000E+00 -0.40701168160E+03  0.18457588805E+04  0.18003242308E+04 0.  0.
        4    1    3    3  502    0  0.67169053824E+03  0.39029612958E+03 -0.66972490506E+03  0.10256862626E+04  0.12699999809E+01 0.  1.
       -4    1    3    3    0  502 -0.67169053824E+03 -0.39029612958E+03  0.26271322347E+03  0.82007261789E+03  0.12699999809E+01 0. -1.
</event>
<event>
 5   0  0.9999162E-06  0.1799335E+04  0.7818609E-02  0.8706653E-01
        2   -1    0    0  501    0  0.00000000000E+00  0.00000000000E+00  0.99958037992E+03  0.99958037993E+03  0.25500000920E-02 0.  1.
       -2   -1    0    0    0  501  0.00000000000E+00  0.00000000000E+00 -0.80974158486E+03  0.80974158486E+03  0.25500000920E-02 0. -1.
    10030    2    1    2    0    0  0.00000000000E+00  0.00000000000E+00  0.18983879506E+03  0.18093219648E+04  0.17993352117E+04 0.  0.
        1    1    3    3  502    0  0.34322410855E+02 -0.52081621425E+02 -0.80756476482E+03  0.80996998252E+03  0.50400001928E-02 0. -1.
       -1    1    3    3    0  502 -0.34322410855E+02  0.52081621425E+02  0.99740355988E+03  0.99935198227E+03  0.50400001928E-02 0.  1.
</event>
<event>
 5   0  0.9999162E-06  0.1799986E+04  0.7818609E-02  0.8706307E-01
        2   -1    0    0  501    0  0.00000000000E+00  0.00000000000E+00  0.14414316845E+04  0.14414316845E+04  0.25500000920E-02 0. -1.
       -2   -1    0    0    0  501  0.00000000000E+00  0.00000000000E+00 -0.56193267964E+03  0.56193267965E+03  0.25500000920E-02 0.  1.
    10030    2    1    2    0    0  0.00000000000E+00  0.00000000000E+00  0.87949900483E+03  0.20033643641E+04  0.17999861877E+04 0.  0.
        1    1    3    3  502    0 -0.57300827482E+03  0.59014725023E+03  0.33279508487E+02  0.82323738113E+03  0.50400001928E-02 0.  1.
       -1    1    3    3    0  502  0.57300827482E+03 -0.59014725023E+03  0.84621949634E+03  0.11801269830E+04  0.50400001928E-02 0. -1.
</event>
<event>
 5   0  0.4953155E-06  0.1799038E+04  0.7818609E-02  0.8706811E-01
        1   -1    0    0  501    0  0.00000000000E+00  0.00000000000E+00  0.17609203071E+04  0.17609203071E+04  0.50400001928E-02 0.  1.
       -1   -1    0    0    0  501  0.00000000000E+00  0.00000000000E+00 -0.45949499659E+03  0.45949499662E+03  0.50400001928E-02 0. -1.
    10030    2    1    2    0    0  0.00000000000E+00  0.00000000000E+00  0.13014253105E+04  0.22204153037E+04  0.17990375989E+04 0.  0.
        2    1    3    3  502    0 -0.70816874472E+03  0.36461930451E+03  0.13486630175E+03  0.80786083429E+03  0.25500000920E-02 0. -1.
       -2    1    3    3    0  502  0.70816874472E+03 -0.36461930451E+03  0.11665590087E+04  0.14125544694E+04  0.25500000920E-02 0.  1.
</event>
<event>
 5   0  0.3626125E-06  0.1798018E+04  0.7818609E-02  0.8707354E-01
        4   -1    0    0  501    0  0.00000000000E+00  0.00000000000E+00  0.13822314112E+04  0.13822319946E+04  0.12699999809E+01 0. -1.
       -4   -1    0    0    0  501  0.00000000000E+00  0.00000000000E+00 -0.58471755829E+03  0.58471893750E+03  0.12699999809E+01 0.  1.
    10030    2    1    2    0    0  0.00000000000E+00  0.00000000000E+00  0.79751385290E+03  0.19669509321E+04  0.17980176929E+04 0.  0.
        5    1    3    3  502    0  0.70776160944E+03  0.55090722462E+03  0.33159172506E+03  0.95624287085E+03  0.46999998093E+01 0. -1.
       -5    1    3    3    0  502 -0.70776160944E+03 -0.55090722462E+03  0.46592212783E+03  0.10107080613E+04  0.46999998093E+01 0.  1.
</event>
<event>
 5   0  0.9999162E-06  0.1799739E+04  0.7818609E-02  0.8706438E-01
        2   -1    0    0  501    0  0.00000000000E+00  0.00000000000E+00  0.17323374998E+04  0.17323374998E+04  0.25500000920E-02 0.  1.
       -2   -1    0    0    0  501  0.00000000000E+00  0.00000000000E+00 -0.46744086333E+03  0.46744086334E+03  0.25500000920E-02 0. -1.
    10030    2    1    2    0    0  0.00000000000E+00  0.00000000000E+00  0.12648966365E+04  0.21997783631E+04  0.17997392439E+04 0.  0.
        1    1    3    3  502    0 -0.14201899179E+03 -0.17706129083E+03 -0.43187649239E+03  0.48789076590E+03  0.50400001928E-02 0. -1.
       -1    1    3    3    0  502  0.14201899179E+03  0.17706129083E+03  0.16967731289E+04  0.17118875972E+04  0.50400001928E-02 0.  1.
</event>
<event>
 5   0  0.1000316E-05  0.1799465E+04  0.7818609E-02  0.8706584E-01
        2   -1    0    0  501    0  0.00000000000E+00  0.00000000000E+00  0.78002915834E+03  0.78002915834E+03  0.25500000920E-02 0. -1.
       -2   -1    0    0    0  501  0.00000000000E+00  0.00000000000E+00 -0.10378060097E+04  0.10378060097E+04  0.25500000920E-02 0.  1.
    10030    2    1    2    0    0  0.00000000000E+00  0.00000000000E+00 -0.25777685136E+03  0.18178351681E+04  0.17994654187E+04 0.  0.
        5    1    3    3  502    0 -0.68701107372E+03 -0.22689625729E+03 -0.66916650131E+03  0.98553134068E+03  0.46999998093E+01 0.  1.
       -5    1    3    3    0  502  0.68701107372E+03  0.22689625729E+03  0.41138964995E+03  0.83230382738E+03  0.46999998093E+01 0. -1.
</event>
<event>
 5   0  0.1036381E-05  0.1799922E+04  0.7818609E-02  0.8706341E-01
        2   -1    0    0  501    0  0.00000000000E+00  0.00000000000E+00  0.13111721554E+04  0.13111721554E+04  0.25500000920E-02 0. -1.
       -2   -1    0    0    0  501  0.00000000000E+00  0.00000000000E+00 -0.61771440026E+03  0.61771440027E+03  0.25500000920E-02 0.  1.
    10030    2    1    2    0    0  0.00000000000E+00  0.00000000000E+00  0.69345775511E+03  0.19288865556E+04  0.17999221334E+04 0.  0.
        4    1    3    3  502    0  0.56972456937E+03 -0.69638478276E+03  0.36790469527E+03  0.97205623721E+03  0.12699999809E+01 0. -1.
       -4    1    3    3    0  502 -0.56972456937E+03  0.69638478276E+03  0.32555305985E+03  0.95683031843E+03  0.12699999809E+01 0.  1.
</event>
<event>
 5   0  0.4994123E-06  0.1799119E+04  0.7818609E-02  0.8706768E-01
        1   -1    0    0  501    0  0.00000000000E+00  0.00000000000E+00  0.84471598174E+03  0.84471598175E+03  0.50400001928E-02 0.  1.
       -1   -1    0    0    0  501  0.00000000000E+00  0.00000000000E+00 -0.95796390823E+03  0.95796390825E+03  0.50400001928E-02 0. -1.
    10030    2    1    2    0    0  0.00000000000E+00  0.00000000000E+00 -0.11324792650E+03  0.18026798900E+04  0.17991191436E+04 0.  0.
        1    1    3    3  502    0  0.21748434113E+03  0.19266876371E+03  0.79640505755E+03  0.84775096984E+03  0.50400001928E-02 0.  1.
       -1    1    3    3    0  502 -0.21748434113E+03 -0.19266876371E+03 -0.90965298405E+03  0.95492892016E+03  0.50400001928E-02 0. -1.
</event>
<event>
 5   0  0.1035018E-05  0.1799131E+04  0.7818609E-02  0.8706762E-01
       -2   -1    0    0    0  501  0.00000000000E+00  0.00000000000E+00  0.33030018697E+03  0.33030018698E+03  0.25500000920E-02 0.  1.
        2   -1    0    0  501    0  0.00000000000E+00  0.00000000000E+00 -0.24499482221E+04  0.24499482221E+04  0.25500000920E-02 0. -1.
    10030    2    1    2    0    0  0.00000000000E+00  0.00000000000E+00 -0.21196480351E+04  0.27802484091E+04  0.17991312969E+04 0.  0.
        3    1    3    3  502    0 -0.13802129358E+03 -0.35387660316E+03  0.20029600575E+03  0.42941475040E+03  0.10100000352E+00 0.  1.
       -3    1    3    3    0  502  0.13802129358E+03  0.35387660316E+03 -0.23199440409E+04  0.23508336587E+04  0.10100000352E+00 0. -1.
</event>
<event>
 5   0  0.9999162E-06  0.1800419E+04  0.7818609E-02  0.8706076E-01
       -2   -1    0    0    0  501  0.00000000000E+00  0.00000000000E+00  0.28655599025E+03  0.28655599026E+03  0.25500000920E-02 0. -1.
        2   -1    0    0  501    0  0.00000000000E+00  0.00000000000E+00 -0.28279902785E+04  0.28279902785E+04  0.25500000920E-02 0.  1.
    10030    2    1    2    0    0  0.00000000000E+00  0.00000000000E+00 -0.25414342882E+04  0.31145462688E+04  0.18004194563E+04 0.  0.
        1    1    3    3  502    0  0.73767228409E+03 -0.17699893580E+03 -0.43231574007E+03  0.87314713602E+03  0.50400001928E-02 0. -1.
       -1    1    3    3    0  502 -0.73767228409E+03  0.17699893580E+03 -0.21091185482E+04  0.22413991327E+04  0.50400001928E-02 0.  1.
</event>
<event>
 5   0  0.4983159E-06  0.1799964E+04  0.7818609E-02  0.8706319E-01
       -1   -1    0    0    0  501  0.00000000000E+00  0.00000000000E+00  0.31274475146E+03  0.31274475150E+03  0.50400001928E-02 0. -1.
        1   -1    0    0  501    0  0.00000000000E+00  0.00000000000E+00 -0.25898670731E+04  0.25898670732E+04  0.50400001928E-02 0.  1.
    10030    2    1    2    0    0  0.00000000000E+00  0.00000000000E+00 -0.22771223217E+04  0.29026118247E+04  0.17999637043E+04 0.  0.
        4    1    3    3  502    0  0.40065461705E+01  0.59043224685E+03 -0.22338672450E+04  0.23105823447E+04  0.12699999809E+01 0.  1.
       -4    1    3    3    0  502 -0.40065461705E+01 -0.59043224685E+03 -0.43255076661E+02  0.59202947992E+03  0.12699999809E+01 0. -1.
</event>
<event>
 5   0  0.1035018E-05  0.1800127E+04  0.7818609E-02  0.8706232E-01
       -2   -1    0    0    0  501  0.00000000000E+00  0.00000000000E+00  0.73247450669E+03  0.73247450669E+03  0.25500000920E-02 0.  1.
        2   -1    0    0  501    0  0.00000000000E+00  0.00000000000E+00 -0.11059965603E+04  0.11059965603E+04  0.25500000920E-02 0. -1.
    10030    2    1    2    0    0  0.00000000000E+00  0.00000000000E+00 -0.37352205358E+03  0.18384710670E+04  0.18001269787E+04 0.  0.
        3    1    3    3  502    0 -0.34700136169E+02 -0.23748326103E+03 -0.10727133226E+04  0.10992344069E+04  0.10100000352E+00 0. -1.
       -3    1    3    3    0  502  0.34700136169E+02  0.23748326103E+03  0.69919126900E+03  0.73923666005E+03  0.10100000352E+00 0.  1.
</event>
<event>
 5   0  0.9999162E-06  0.1800410E+04  0.7818609E-02  0.8706081E-01
        2   -1    0    0  501    0  0.00000000000E+00  0.00000000000E+00  0.39198135220E+03  0.39198135221E+03  0.25500000920E-02 0. -1.
       -2   -1    0    0    0  501  0.00000000000E+00  0.00000000000E+00 -0.20673670521E+04  0.20673670521E+04  0.25500000920E-02 0.  1.
    10030    2    1    2    0    0  0.00000000000E+00  0.00000000000E+00 -0.16753856999E+04  0.24593484043E+04  0.18004103228E+04 0.  0.
        1    1    3    3  502    0 -0.85355980534E+03  0.77914116437E+02 -0.12136125672E+04  0.14857625699E+04  0.50400001928E-02 0.  1.
       -1    1    3    3    0  502  0.85355980534E+03 -0.77914116437E+02 -0.46177313265E+03  0.97358583437E+03  0.50400001928E-02 0. -1.
</event>
<event>
 5   0  0.4953155E-06  0.1799415E+04  0.7818609E-02  0.8706611E-01
        1   -1    0    0  501    0  0.00000000000E+00  0.00000000000E+00  0.21925896966E+04  0.21925896966E+04  0.50400001928E-02 0. -1.
       -1   -1    0    0    0  501  0.00000000000E+00  0.00000000000E+00 -0.36918594925E+03  0.36918594929E+03  0.50400001928E-02 0.  1.
    10030    2    1    2    0    0  0.00000000000E+00  0.00000000000E+00  0.18234037474E+04  0.25617756459E+04  0.17994146921E+04 0.  0.
        2    1    3    3  502    0 -0.88784797965E+03  0.14500250728E+03  0.89294684863E+03  0.12675384951E+04  0.25500000920E-02 0.  1.
       -2    1    3    3    0  502  0.88784797965E+03 -0.14500250728E+03  0.93045689872E+03  0.12942371508E+04  0.25500000920E-02 0. -1.
</event>
<event>
 5   0  0.1000316E-05  0.1799934E+04  0.7818609E-02  0.8706335E-01
       -2   -1    0    0    0  501  0.00000000000E+00  0.00000000000E+00  0.12738169526E+04  0.12738169526E+04  0.25500000920E-02 0.  1.
        2   -1    0    0  501    0  0.00000000000E+00  0.00000000000E+00 -0.63583722742E+03  0.63583722743E+03  0.25500000920E-02 0. -1.
    10030    2    1    2    0    0  0.00000000000E+00  0.00000000000E+00  0.63797972521E+03  0.19096541801E+04  0.17999335981E+04 0.  0.
        5    1    3    3  502    0  0.13555879150E+03 -0.25910708034E+03 -0.58401296230E+03  0.65315074459E+03  0.46999998093E+01 0. -1.
       -5    1    3    3    0  502 -0.13555879150E+03  0.25910708034E+03  0.12219926875E+04  0.12565034355E+04  0.46999998093E+01 0.  1.
</event>
<event>
 5   0  0.4994123E-06  0.1799056E+04  0.7818609E-02  0.8706801E-01
        1   -1    0    0  501    0  0.00000000000E+00  0.00000000000E+00  0.11838630842E+04  0.11838630842E+04  0.50400001928E-02 0. -1.
       -1   -1    0    0    0  501  0.00000000000E+00  0.00000000000E+00 -0.68348355326E+03  0.68348355328E+03  0.50400001928E-02 0.  1.
    10030    2    1    2    0    0  0.00000000000E+00  0.00000000000E+00  0.50037953092E+03  0.18673466375E+04  0.17990563609E+04 0.  0.
        1    1    3    3  502    0  0.50423268824E+03 -0.50915673247E+03  0.81457583885E+03  0.10849078207E+04  0.50400001928E-02 0. -1.
       -1    1    3    3    0  502 -0.50423268824E+03  0.50915673247E+03 -0.31419630792E+03  0.78243881680E+03  0.50400001928E-02 0.  1.
</event>
<event>
 5   0  0.9999162E-06  0.1801079E+04  0.7818609E-02  0.8705726E-01
        2   -1    0    0  501    0  0.00000000000E+00  0.00000000000E+00  0.10317335186E+04  0.10317335186E+04  0.25500000920E-02 0.  1.
       -2   -1    0    0    0  501  0.00000000000E+00  0.00000000000E+00 -0.78602803931E+03  0.78602803931E+03  0.25500000920E-02 0. -1.
    10030    2    1    2    0    0  0.00000000000E+00  0.00000000000E+00  0.24570547926E+03  0.18177615579E+04  0.18010790929E+04 0.  0.
        1    1    3    3  502    0 -0.51646256969E+03 -0.73573907108E+03  0.17744542622E+03  0.91626003183E+03  0.50400001928E-02 0.  1.
       -1    1    3    3    0  502  0.51646256969E+03  0.73573907108E+03  0.68260053039E+02  0.90150152605E+03  0.50400001928E-02 0. -1.
</event>
<event>
 5   0  0.9589963E-06  0.1799806E+04  0.7818609E-02  0.8706403E-01
        2   -1    0    0  501    0  0.00000000000E+00  0.00000000000E+00  0.18538026020E+04  0.18538026020E+04  0.25500000920E-02 0. -1.
       -2   -1    0    0    0  501  0.00000000000E+00  0.00000000000E+00 -0.43684538031E+03  0.43684538031E+03  0.25500000920E-02 0.  1.
    10030    2    1    2    0    0  0.00000000000E+00  0.00000000000E+00  0.14169572217E+04  0.22906479823E+04  0.17998056592E+04 0.  0.
        2    1    3    3  502    0  0.23221322142E+03 -0.22152476385E+03  0.17784936706E+04  0.18072177339E+04  0.25500000920E-02 0. -1.
       -2    1    3    3    0  502 -0.23221322142E+03  0.22152476385E+03 -0.36153644892E+03  0.48343024844E+03  0.25500000920E-02 0.  1.
</event>
<event>
 5   0  0.4981384E-06  0.1799604E+04  0.7818609E-02  0.8706510E-01
       -1   -1    0    0    0  501  0.00000000000E+00  0.00000000000E+00  0.90298924913E+03  0.90298924914E+03  0.50400001928E-02 0.  1.
        1   -1    0    0  501    0  0.00000000000E+00  0.00000000000E+00 -0.89662559124E+03  0.89662559125E+03  0.50400001928E-02 0. -1.
    10030    2    1    2    0    0  0.00000000000E+00  0.00000000000E+00  0.63636578885E+01  0.17996148404E+04  0.17996035890E+04 0.  0.
        5    1    3    3  502    0  0.29249112808E+03 -0.68784112485E+03 -0.49776511860E+03  0.89803601060E+03  0.46999998093E+01 0. -1.
       -5    1    3    3    0  502 -0.29249112808E+03  0.68784112485E+03  0.50412877649E+03  0.90157882979E+03  0.46999998093E+01 0.  1.
</event>
<event>
 5   0  0.4987456E-06  0.1799789E+04  0.7818609E-02  0.8706411E-01
        1   -1    0    0  501    0  0.00000000000E+00  0.00000000000E+00  0.16214744101E+04  0.16214744101E+04  0.50400001928E-02 0.  1.
       -1   -1    0    0    0  501  0.00000000000E+00  0.00000000000E+00 -0.49942843816E+03  0.49942843818E+03  0.50400001928E-02 0. -1.
    10030    2    1    2    0    0  0.00000000000E+00  0.00000000000E+00  0.11220459719E+04  0.21209028483E+04  0.17997893568E+04 0.  0.
        3    1    3    3  502    0  0.86432766820E+03  0.29917030143E+02  0.26794733070E+03  0.90540219181E+03  0.10100000352E+00 0. -1.
       -3    1    3    3    0  502 -0.86432766820E+03 -0.29917030143E+02  0.85409864123E+03  0.12155006565E+04  0.10100000352E+00 0.  1.
</event>
<event>
 5   0  0.1035018E-05  0.1799749E+04  0.7818609E-02  0.8706433E-01
       -2   -1    0    0    0  501  0.00000000000E+00  0.00000000000E+00  0.93580278113E+03  0.93580278114E+03  0.25500000920E-02 0. -1.
        2   -1    0    0  501    0  0.00000000000E+00  0.00000000000E+00 -0.86532549775E+03  0.86532549775E+03  0.25500000920E-02 0.  1.
    10030    2    1    2    0    0  0.00000000000E+00  0.00000000000E+00  0.70477283385E+02  0.18011282789E+04  0.17997488796E+04 0.  0.
        3    1    3    3  502    0  0.82758692082E+03  0.86139472750E+02 -0.30773947507E+03  0.88714357067E+03  0.10100000352E+00 0.  1.
       -3    1    3    3    0  502 -0.82758692082E+03 -0.86139472750E+02  0.37821675845E+03  0.91398470821E+03  0.10100000352E+00 0. -1.
</event>
<event>
 5   0  0.1000316E-05  0.1799790E+04  0.7818609E-02  0.8706411E-01
       -2   -1    0    0    0  501  0.00000000000E+00  0.00000000000E+00  0.68177671993E+03  0.68177671994E+03  0.25500000920E-02 0.  1.
        2   -1    0    0  501    0  0.00000000000E+00  0.00000000000E+00 -0.11877951655E+04  0.11877951655E+04  0.25500000920E-02 0. -1.
    10030    2    1    2    0    0  0.00000000000E+00  0.00000000000E+00 -0.50601844554E+03  0.18695718854E+04  0.17997900898E+04 0.  0.
        5    1    3    3  502    0  0.65360521008E+03  0.30618563668E+03  0.30526640700E+03  0.78368302521E+03  0.46999998093E+01 0.  1.
       -5    1    3    3    0  502 -0.65360521008E+03 -0.30618563668E+03 -0.81128485253E+03  0.10858888602E+04  0.46999998093E+01 0. -1.
</event>
<event>
 5   0  0.4981384E-06  0.1800718E+04  0.7818609E-02  0.8705918E-01
       -1   -1    0    0    0  501  0.00000000000E+00  0.00000000000E+00  0.49808100726E+03  0.49808100728E+03  0.50400001928E-02 0. -1.
        1   -1    0    0  501    0  0.00000000000E+00  0.00000000000E+00 -0.16275395340E+04  0.16275395340E+04  0.50400001928E-02 0.  1.
    10030    2    1    2    0    0  0.00000000000E+00  0.00000000000E+00 -0.11294585268E+04  0.21256205413E+04  0.18007182239E+04 0.  0.
        5    1    3    3  502    0  0.32953811567E+03 -0.32563530354E+03  0.34656728893E+03  0.57858853803E+03  0.46999998093E+01 0. -1.
       -5    1    3    3    0  502 -0.32953811567E+03  0.32563530354E+03 -0.14760258157E+04  0.15470320033E+04  0.46999998093E+01 0.  1.
</event>
<event>
 5   0  0.9999162E-06  0.1799984E+04  0.7818609E-02  0.8706308E-01
        2   -1    0    0  501    0  0.00000000000E+00  0.00000000000E+00  0.19107709524E+04  0.19107709524E+04  0.25500000920E-02 0.  1.
       -2   -1    0    0    0  501  0.00000000000E+00  0.00000000000E+00 -0.42390517728E+03  0.42390517729E+03  0.25500000920E-02 0. -1.
    10030    2    1    2    0    0  0.00000000000E+00  0.00000000000E+00  0.14868657751E+04  0.23346761297E+04  0.17999841103E+04 0.  0.
        1    1    3    3  502    0 -0.37101932666E+03  0.42512637704E+02  0.18055314536E+04  0.18437479478E+04  0.50400001928E-02 0.  1.
       -1    1    3    3    0  502  0.37101932666E+03 -0.42512637704E+02 -0.31866567846E+03  0.49092818189E+03  0.50400001928E-02 0. -1.
</event>
<event>
 5   0  0.4994123E-06  0.1810076E+04  0.7818609E-02  0.8700959E-01
       -1   -1    0    0    0  501  0.00000000000E+00  0.00000000000E+00  0.65929366760E+03  0.65929366762E+03  0.50400001928E-02 0. -1.
        1   -1    0    0  501    0  0.00000000000E+00  0.00000000000E+00 -0.12423807944E+04  0.12423807944E+04  0.50400001928E-02 0.  1.
    10030    2    1    2    0    0  0.00000000000E+00  0.00000000000E+00 -0.58308712682E+03  0.19016744620E+04  0.18100760100E+04 0.  0.
        1    1    3    3  502    0 -0.10549713682E+03 -0.87566558635E+03 -0.78361579694E+02  0.88547185285E+03  0.50400001928E-02 0. -1.
       -1    1    3    3    0  502  0.10549713682E+03  0.87566558635E+03 -0.50472554712E+03  0.10162026092E+04  0.50400001928E-02 0.  1.
</event>
<event>
 5   0  0.1035018E-05  0.1799323E+04  0.7818609E-02  0.8706660E-01
       -2   -1    0    0    0  501  0.00000000000E+00  0.00000000000E+00  0.80963553485E+03  0.80963553485E+03  0.25500000920E-02 0.  1.
        2   -1    0    0  501    0  0.00000000000E+00  0.00000000000E+00 -0.99969721914E+03  0.99969721914E+03  0.25500000920E-02 0. -1.
    10030    2    1    2    0    0  0.00000000000E+00  0.00000000000E+00 -0.19006168430E+03  0.18093327540E+04  0.17993225311E+04 0.  0.
        3    1    3    3  502    0  0.77920104887E+03 -0.37685225834E+03 -0.34179059894E+03  0.93058730000E+03  0.10100000352E+00 0. -1.
       -3    1    3    3    0  502 -0.77920104887E+03  0.37685225834E+03  0.15172891465E+03  0.87874545400E+03  0.10100000352E+00 0.  1.
</event>
<event>
 5   0  0.1036381E-05  0.1799862E+04  0.7818609E-02  0.8706373E-01
        2   -1    0    0  501    0  0.00000000000E+00  0.00000000000E+00  0.16890560833E+04  0.16890560833E+04  0.25500000920E-02 0.  1.
       -2   -1    0    0    0  501  0.00000000000E+00  0.00000000000E+00 -0.47948399662E+03  0.47948399663E+03  0.25500000920E-02 0. -1.
    10030    2    1    2    0    0  0.00000000000E+00  0.00000000000E+00  0.12095720866E+04  0.21685400799E+04  0.17998615073E+04 0.  0.
        4    1    3    3  502    0  0.72874853152E+03  0.47664804902E+03  0.33108382948E+03  0.93160393938E+03  0.12699999809E+01 0.  1.
       -4    1    3    3    0  502 -0.72874853152E+03 -0.47664804902E+03  0.87848825716E+03  0.12369361405E+04  0.12699999809E+01 0. -1.
</event>
<event>
 5   0  0.9589963E-06  0.1799479E+04  0.7818609E-02  0.8706577E-01
        2   -1    0    0  501    0  0.00000000000E+00  0.00000000000E+00  0.16657404893E+04  0.16657404893E+04  0.25500000920E-02 0.  1.
       -2   -1    0    0    0  501  0.00000000000E+00  0.00000000000E+00 -0.48598876844E+03  0.48598876845E+03  0.25500000920E-02 0. -1.
    10030    2    1    2    0    0  0.00000000000E+00  0.00000000000E+00  0.11797517209E+04  0.21517292578E+04  0.17994790012E+04 0.  0.
        2    1    3    3  502    0  0.12742375885E+03  0.53796667372E+03  0.14386792002E+04  0.15412471565E+04  0.25500000920E-02 0.  1.
       -2    1    3    3    0  502 -0.12742375885E+03 -0.53796667372E+03 -0.25892747934E+03  0.61048210123E+03  0.25500000920E-02 0. -1.
</event>
<event>
 5   0  0.9589963E-06  0.1798885E+04  0.7818609E-02  0.8706893E-01
       -2   -1    0    0    0  501  0.00000000000E+00  0.00000000000E+00  0.95623001812E+03  0.95623001812E+03  0.25500000920E-02 0.  1.
        2   -1    0    0  501    0  0.00000000000E+00  0.00000000000E+00 -0.84602719727E+03  0.84602719727E+03  0.25500000920E-02 0. -1.
    10030    2    1    2    0    0  0.00000000000E+00  0.00000000000E+00  0.11020282085E+03  0.18022572154E+04  0.17988847680E+04 0.  0.
        2    1    3    3  502    0  0.58008159321E+03 -0.13722634699E+02  0.74364061080E+03  0.94323079017E+03  0.25500000920E-02 0.  1.
       -2    1    3    3    0  502 -0.58008159321E+03  0.13722634699E+02 -0.63343778995E+03  0.85902642522E+03  0.25500000920E-02 0. -1.
</event>
<event>
 5   0  0.9999162E-06  0.1796846E+04  0.7818609E-02  0.8707978E-01
        2   -1    0    0  501    0  0.00000000000E+00  0.00000000000E+00  0.11515690303E+04  0.11515690303E+04  0.25500000920E-02 0. -1.
       -2   -1    0    0    0  501  0.00000000000E+00  0.00000000000E+00 -0.70092541160E+03  0.70092541160E+03  0.25500000920E-02 0.  1.
    10030    2    1    2    0    0  0.00000000000E+00  0.00000000000E+00  0.45064361866E+03  0.18524944419E+04  0.17968461220E+04 0.  0.
        1    1    3    3  502    0  0.56974981959E+03 -0.12260402770E+03  0.93025005522E+03  0.10977302810E+04  0.50400001928E-02 0. -1.
       -1    1    3    3    0  502 -0.56974981959E+03  0.12260402770E+03 -0.47960643656E+03  0.75476416088E+03  0.50400001928E-02 0.  1.
</event>
<event>
 5   0  0.4981384E-06  0.1801082E+04  0.7818609E-02  0.8705724E-01
        1   -1    0    0  501    0  0.00000000000E+00  0.00000000000E+00  0.57646171637E+03  0.57646171639E+03  0.50400001928E-02 0.  1.
       -1   -1    0    0    0  501  0.00000000000E+00  0.00000000000E+00 -0.14068136301E+04  0.14068136301E+04  0.50400001928E-02 0. -1.
    10030    2    1    2    0    0  0.00000000000E+00  0.00000000000E+00 -0.83035191371E+03  0.19832753465E+04  0.18010821190E+04 0.  0.
        5    1    3    3  502    0 -0.48057740279E+03 -0.21242844499E+03 -0.12205067002E+04  0.13288111903E+04  0.46999998093E+01 0. -1.
       -5    1    3    3    0  502  0.48057740279E+03  0.21242844499E+03  0.39015478647E+03  0.65446415617E+03  0.46999998093E+01 0.  1.
</event>
<event>
 5   0  0.4994123E-06  0.1799585E+04  0.7818609E-02  0.8706520E-01
        1   -1    0    0  501    0  0.00000000000E+00  0.00000000000E+00  0.18052078910E+04  0.18052078910E+04  0.50400001928E-02 0. -1.
       -1   -1    0    0    0  501  0.00000000000E+00  0.00000000000E+00 -0.44849491013E+03  0.44849491015E+03  0.50400001928E-02 0.  1.
    10030    2    1    2    0    0  0.00000000000E+00  0.00000000000E+00  0.13567129809E+04  0.22537028012E+04  0.17995850087E+04 0.  0.
        1    1    3    3  502    0 -0.59667106010E+03 -0.32394272971E+03  0.14178466195E+04  0.15720191737E+04  0.50400001928E-02 0. -1.
       -1    1    3    3    0  502  0.59667106010E+03  0.32394272971E+03 -0.61133638645E+02  0.68168362742E+03  0.50400001928E-02 0.  1.
</event>
<event>
 5   0  0.9999162E-06  0.1792208E+04  0.7818609E-02  0.8710454E-01
       -2   -1    0    0    0  501  0.00000000000E+00  0.00000000000E+00  0.48661407314E+03  0.48661407315E+03  0.25500000920E-02 0.  1.
        2   -1    0    0  501    0  0.00000000000E+00  0.00000000000E+00 -0.16501837415E+04  0.16501837415E+04  0.25500000920E-02 0. -1.
    10030    2    1    2    0    0  0.00000000000E+00  0.00000000000E+00 -0.11635696683E+04  0.21367978146E+04  0.17922082824E+04 0.  0.
        1    1    3    3  502    0  0.12472711602E+02 -0.42674828620E+03  0.35756498319E+03  0.55688633090E+03  0.50400001928E-02 0.  1.
       -1    1    3    3    0  502 -0.12472711602E+02  0.42674828620E+03 -0.15211346515E+04  0.15799114837E+04  0.50400001928E-02 0. -1.
</event>
<event>
 5   0  0.4953155E-06  0.1799286E+04  0.7818609E-02  0.8706679E-01
        1   -1    0    0  501    0  0.00000000000E+00  0.00000000000E+00  0.80777492912E+03  0.80777492913E+03  0.50400001928E-02 0. -1.
       -1   -1    0    0    0  501  0.00000000000E+00  0.00000000000E+00 -0.10019587821E+04  0.10019587821E+04  0.50400001928E-02 0.  1.
    10030    2    1    2    0    0  0.00000000000E+00  0.00000000000E+00 -0.19418385299E+03  0.18097337113E+04  0.17992856185E+04 0.  0.
        2    1    3    3  502    0 -0.43633788026E+03 -0.71521718287E+03 -0.42676161108E+03  0.94024030818E+03  0.25500000920E-02 0.  1.
       -2    1    3    3    0  502  0.43633788026E+03  0.71521718287E+03  0.23257775809E+03  0.86949340307E+03  0.25500000920E-02 0. -1.
</event>
<event>
 5   0  0.4987456E-06  0.1800752E+04  0.7818609E-02  0.8705900E-01
       -1   -1    0    0    0  501  0.00000000000E+00  0.00000000000E+00  0.83902677716E+03  0.83902677718E+03  0.50400001928E-02 0.  1.
        1   -1    0    0  501    0  0.00000000000E+00  0.00000000000E+00 -0.96621113144E+03  0.96621113145E+03  0.50400001928E-02 0. -1.
    10030    2    1    2    0    0  0.00000000000E+00  0.00000000000E+00 -0.12718435428E+03  0.18052379086E+04  0.18007520781E+04 0.  0.
        3    1    3    3  502    0  0.69270474382E+03  0.31700992392E+03  0.41754281450E+03  0.86872156996E+03  0.10100000352E+00 0.  1.
       -3    1    3    3    0  502 -0.69270474382E+03 -0.31700992392E+03 -0.54472716877E+03  0.93651633866E+03  0.10100000352E+00 0. -1.
</event>
<event>
 5   0  0.4983159E-06  0.1799692E+04  0.7818609E-02  0.8706463E-01
       -1   -1    0    0    0  501  0.00000000000E+00  0.00000000000E+00  0.52063227834E+03  0.52063227837E+03  0.50400001928E-02 0.  1.
        1   -1    0    0  501    0  0.00000000000E+00  0.00000000000E+00 -0.15552675504E+04  0.15552675504E+04  0.50400001928E-02 0. -1.
    10030    2    1    2    0    0  0.00000000000E+00  0.00000000000E+00 -0.10346352720E+04  0.20758998288E+04  0.17996916272E+04 0.  0.
        4    1    3    3  502    0 -0.86090647598E+03  0.18261609676E+03 -0.30086875427E+03  0.93007108297E+03  0.12699999809E+01 0. -1.
       -4    1    3    3    0  502  0.86090647598E+03 -0.18261609676E+03 -0.73376651776E+03  0.11458287458E+04  0.12699999809E+01 0.  1.
</event>
<event>
 5   0  0.9999162E-06  0.1801102E+04  0.7818609E-02  0.8705713E-01
        2   -1    0    0  501    0  0.00000000000E+00  0.00000000000E+00  0.13569531781E+04  0.13569531781E+04  0.25500000920E-02 0. -1.
       -2   -1    0    0    0  501  0.00000000000E+00  0.00000000000E+00 -0.59765698790E+03  0.59765698791E+03  0.25500000920E-02 0.  1.
    10030    2    1    2    0    0  0.00000000000E+00  0.00000000000E+00  0.75929619023E+03  0.19546101660E+04  0.18011024948E+04 0.  0.
        1    1    3    3  502    0  0.65177816019E+03 -0.29174158189E+02  0.10533010940E+04  0.12389951962E+04  0.50400001928E-02 0. -1.
       -1    1    3    3    0  502 -0.65177816019E+03  0.29174158189E+02 -0.29400490375E+03  0.71561496984E+03  0.50400001928E-02 0.  1.
</event>
<event>
 5   0  0.4953155E-06  0.1799965E+04  0.7818609E-02  0.8706318E-01
       -1   -1    0    0    0  501  0.00000000000E+00  0.00000000000E+00  0.16278414159E+04  0.16278414159E+04  0.50400001928E-02 0. -1.
        1   -1    0    0  501    0  0.00000000000E+00  0.00000000000E+00 -0.49757203887E+03  0.49757203890E+03  0.50400001928E-02 0.  1.
    10030    2    1    2    0    0  0.00000000000E+00  0.00000000000E+00  0.11302693771E+04  0.21254134548E+04  0.17999648578E+04 0.  0.
        2    1    3    3  502    0  0.68964656649E+03 -0.57146359158E+03  0.46094650985E+03  0.10073007039E+04  0.25500000920E-02 0.  1.
       -2    1    3    3    0  502 -0.68964656649E+03  0.57146359158E+03  0.66932286720E+03  0.11181127509E+04  0.25500000920E-02 0. -1.
</event>
<event>
 5   0  0.4981384E-06  0.1800213E+04  0.7818609E-02  0.8706186E-01
       -1   -1    0    0    0  501  0.00000000000E+00  0.00000000000E+00  0.16341176912E+04  0.16341176912E+04  0.50400001928E-02 0.  1.
        1   -1    0    0  501    0  0.00000000000E+00  0.00000000000E+00 -0.49579745080E+03  0.49579745083E+03  0.50400001928E-02 0. -1.
    10030    2    1    2    0    0  0.00000000000E+00  0.00000000000E+00  0.11383202404E+04  0.21299151421E+04  0.18002126382E+04 0.  0.
        5    1    3    3  502    0  0.35596448767E+03  0.66540644009E+03  0.11496171674E+04  0.13751793223E+04  0.46999998093E+01 0.  1.
       -5    1    3    3    0  502 -0.35596448767E+03 -0.66540644009E+03 -0.11296926992E+02  0.75473581971E+03  0.46999998093E+01 0. -1.
</event>
<event>
 5   0  0.4981384E-06  0.1794139E+04  0.7818609E-02  0.8709423E-01
       -1   -1    0    0    0  501  0.00000000000E+00  0.00000000000E+00  0.70254757874E+03  0.70254757875E+03  0.50400001928E-02 0.  1.
        1   -1    0    0  501    0  0.00000000000E+00  0.00000000000E+00 -0.11454504996E+04  0.11454504996E+04  0.50400001928E-02 0. -1.
    10030    2    1    2    0    0  0.00000000000E+00  0.00000000000E+00 -0.44290292084E+03  0.18479980783E+04  0.17941387628E+04 0.  0.
        5    1    3    3  502    0 -0.57450485361E+03  0.52711916541E+03  0.23548843110E+03  0.81448593146E+03  0.46999998093E+01 0.  1.
       -5    1    3    3    0  502  0.57450485361E+03 -0.52711916541E+03 -0.67839135193E+03  0.10335121469E+04  0.46999998093E+01 0. -1.
</event>
<event>
 5   0  0.9999162E-06  0.1800493E+04  0.7818609E-02  0.8706037E-01
        2   -1    0    0  501    0  0.00000000000E+00  0.00000000000E+00  0.74091500823E+03  0.74091500823E+03  0.25500000920E-02 0. -1.
       -2   -1    0    0    0  501  0.00000000000E+00  0.00000000000E+00 -0.10938418830E+04  0.10938418830E+04  0.25500000920E-02 0.  1.
    10030    2    1    2    0    0  0.00000000000E+00  0.00000000000E+00 -0.35292687481E+03  0.18347568913E+04  0.18004931189E+04 0.  0.
        1    1    3    3  502    0  0.50838944670E+03  0.73828935971E+03 -0.91737588476E+02  0.90108090277E+03  0.50400001928E-02 0. -1.
       -1    1    3    3    0  502 -0.50838944670E+03 -0.73828935971E+03 -0.26118928633E+03  0.93367598850E+03  0.50400001928E-02 0.  1.
</event>
<event>
 5   0  0.4981384E-06  0.1800178E+04  0.7818609E-02  0.8706205E-01
        1   -1    0    0  501    0  0.00000000000E+00  0.00000000000E+00  0.19853096830E+04  0.19853096831E+04  0.50400001928E-02 0.  1.
       -1   -1    0    0    0  501  0.00000000000E+00  0.00000000000E+00 -0.40807732806E+03  0.40807732809E+03  0.50400001928E-02 0. -1.
    10030    2    1    2    0    0  0.00000000000E+00  0.00000000000E+00  0.15772323550E+04  0.23933870111E+04  0.18001776255E+04 0.  0.
        5    1    3    3  502    0  0.28111116613E+03  0.45788370679E+03  0.17486946673E+04  0.18293813452E+04  0.46999998093E+01 0.  1.
       -5    1    3    3    0  502 -0.28111116613E+03 -0.45788370679E+03 -0.17146231233E+03  0.56400566594E+03  0.46999998093E+01 0. -1.
</event>
<event>
 5   0  0.9589963E-06  0.1800605E+04  0.7818609E-02  0.8705978E-01
        2   -1    0    0  501    0  0.00000000000E+00  0.00000000000E+00  0.96608898206E+03  0.96608898207E+03  0.25500000920E-02 0.  1.
       -2   -1    0    0    0  501  0.00000000000E+00  0.00000000000E+00 -0.83899584679E+03  0.83899584679E+03  0.25500000920E-02 0. -1.
    10030    2    1    2    0    0  0.00000000000E+00  0.00000000000E+00  0.12709313527E+03  0.18050848289E+04  0.18006050578E+04 0.  0.
        2    1    3    3  502    0  0.91266472020E+02 -0.76785174856E+03  0.52579979068E+03  0.93508892442E+03  0.25500000920E-02 0.  1.
       -2    1    3    3    0  502 -0.91266472020E+02  0.76785174856E+03 -0.39870665541E+03  0.86999590444E+03  0.25500000920E-02 0. -1.
</event>
<event>
 5   0  0.4953155E-06  0.1799696E+04  0.7818609E-02  0.8706461E-01
       -1   -1    0    0    0  501  0.00000000000E+00  0.00000000000E+00  0.62787460389E+03  0.62787460391E+03  0.50400001928E-02 0. -1.
        1   -1    0    0  501    0  0.00000000000E+00  0.00000000000E+00 -0.12896302838E+04  0.12896302839E+04  0.50400001928E-02 0.  1.
    10030    2    1    2    0    0  0.00000000000E+00  0.00000000000E+00 -0.66175567996E+03  0.19175048878E+04  0.17996956450E+04 0.  0.
        2    1    3    3  502    0  0.32352716369E+03  0.83929469106E+03 -0.30390885319E+03  0.94944509854E+03  0.25500000920E-02 0.  1.
       -2    1    3    3    0  502 -0.32352716369E+03 -0.83929469106E+03 -0.35784682677E+03  0.96805978923E+03  0.25500000920E-02 0. -1.
</event>
<event>
 5   0  0.1000316E-05  0.1797722E+04  0.7818609E-02  0.8707512E-01
       -2   -1    0    0    0  501  0.00000000000E+00  0.00000000000E+00  0.66195319193E+03  0.66195319194E+03  0.25500000920E-02 0. -1.
        2   -1    0    0  501    0  0.00000000000E+00  0.00000000000E+00 -0.12205565586E+04  0.12205565586E+04  0.25500000920E-02 0.  1.
    10030    2    1    2    0    0  0.00000000000E+00  0.00000000000E+00 -0.55860336663E+03  0.18825097505E+04  0.17977222365E+04 0.  0.
        5    1    3    3  502    0  0.41602355547E+03 -0.26869687262E+03  0.50617983578E+03  0.70817633695E+03  0.46999998093E+01 0. -1.
       -5    1    3    3    0  502 -0.41602355547E+03  0.26869687262E+03 -0.10647832024E+04  0.11743334136E+04  0.46999998093E+01 0.  1.
</event>
<event>
 5   0  0.1036381E-05  0.1800331E+04  0.7818609E-02  0.8706123E-01
        2   -1    0    0  501    0  0.00000000000E+00  0.00000000000E+00  0.81687519985E+03  0.81687519985E+03  0.25500000920E-02 0.  1.
       -2   -1    0    0    0  501  0.00000000000E+00  0.00000000000E+00 -0.99194840776E+03  0.99194840776E+03  0.25500000920E-02 0. -1.
    10030    2    1    2    0    0  0.00000000000E+00  0.00000000000E+00 -0.17507320791E+03  0.18088236076E+04  0.18003311405E+04 0.  0.
        4    1    3    3  502    0  0.55971679116E+02  0.66307166173E+03  0.52154046558E+03  0.84546018687E+03  0.12699999809E+01 0.  1.
       -4    1    3    3    0  502 -0.55971679116E+02 -0.66307166173E+03 -0.69661367349E+03  0.96336342075E+03  0.12699999809E+01 0. -1.
</event>
<event>
 5   0  0.1036381E-05  0.1799258E+04  0.7818609E-02  0.8706694E-01
        2   -1    0    0  501    0  0.00000000000E+00  0.00000000000E+00  0.86588566293E+03  0.86588566293E+03  0.25500000920E-02 0. -1.
       -2   -1    0    0    0  501  0.00000000000E+00  0.00000000000E+00 -0.93468685811E+03  0.93468685811E+03  0.25500000920E-02 0.  1.
    10030    2    1    2    0    0  0.00000000000E+00  0.00000000000E+00 -0.68801195184E+02  0.18005725210E+04  0.17992575689E+04 0.  0.
        4    1    3    3  502    0 -0.68410516835E+03 -0.42576324976E+03 -0.43476311320E+03  0.91558440556E+03  0.12699999809E+01 0.  1.
       -4    1    3    3    0  502  0.68410516835E+03  0.42576324976E+03  0.36596191802E+03  0.88498811548E+03  0.12699999809E+01 0. -1.
</event>
<event>
 5   0  0.4981384E-06  0.1798459E+04  0.7818609E-02  0.8707119E-01
       -1   -1    0    0    0  501  0.00000000000E+00  0.00000000000E+00  0.52759722742E+03  0.52759722744E+03  0.50400001928E-02 0. -1.
        1   -1    0    0  501    0  0.00000000000E+00  0.00000000000E+00 -0.15326343804E+04  0.15326343805E+04  0.50400001928E-02 0.  1.
    10030    2    1    2    0    0  0.00000000000E+00  0.00000000000E+00 -0.10050371530E+04  0.20602316079E+04  0.17984589512E+04 0.  0.
        5    1    3    3  502    0  0.55135950557E+03  0.45814508675E+03  0.11935717112E+03  0.72674785806E+03  0.46999998093E+01 0. -1.
       -5    1    3    3    0  502 -0.55135950557E+03 -0.45814508675E+03 -0.11243943242E+04  0.13334837498E+04  0.46999998093E+01 0.  1.
</event>
<event>
 5   0  0.3626125E-06  0.1800723E+04  0.7818609E-02  0.8705915E-01
       -3   -1    0    0    0  501  0.00000000000E+00  0.00000000000E+00  0.21420723952E+04  0.21420723976E+04  0.10100000352E+00 0.  1.
        3   -1    0    0  501    0  0.00000000000E+00  0.00000000000E+00 -0.37844229154E+03  0.37844230502E+03  0.10100000352E+00 0. -1.
    10030    2    1    2    0    0  0.00000000000E+00  0.00000000000E+00  0.17636301037E+04  0.25205147026E+04  0.18007229725E+04 0.  0.
        4    1    3    3  502    0 -0.84900879159E+03  0.27692191792E+03  0.72131906158E+03  0.11479566535E+04  0.12699999809E+01 0.  1.
       -4    1    3    3    0  502  0.84900879159E+03 -0.27692191792E+03  0.10423110421E+04  0.13725580491E+04  0.12699999809E+01 0. -1.
</event>
<event>
 5   0  0.4981384E-06  0.1799632E+04  0.7818609E-02  0.8706495E-01
        1   -1    0    0  501    0  0.00000000000E+00  0.00000000000E+00  0.95693556952E+03  0.95693556953E+03  0.50400001928E-02 0. -1.
       -1   -1    0    0    0  501  0.00000000000E+00  0.00000000000E+00 -0.84610603663E+03  0.84610603665E+03  0.50400001928E-02 0.  1.
    10030    2    1    2    0    0  0.00000000000E+00  0.00000000000E+00  0.11082953289E+03  0.18030416062E+04  0.17996321425E+04 0.  0.
        5    1    3    3  502    0  0.18623979348E+03 -0.44792207148E+03  0.81469446194E+03  0.94819227961E+03  0.46999998093E+01 0. -1.
       -5    1    3    3    0  502 -0.18623979348E+03  0.44792207148E+03 -0.70386492905E+03  0.85484932657E+03  0.46999998093E+01 0.  1.
</event>
<event>
 5   0  0.1036381E-05  0.1800552E+04  0.7818609E-02  0.8706006E-01
        2   -1    0    0  501    0  0.00000000000E+00  0.00000000000E+00  0.72882466455E+03  0.72882466456E+03  0.25500000920E-02 0.  1.
       -2   -1    0    0    0  501  0.00000000000E+00  0.00000000000E+00 -0.11120602329E+04  0.11120602329E+04  0.25500000920E-02 0. -1.
    10030    2    1    2    0    0  0.00000000000E+00  0.00000000000E+00 -0.38323556837E+03  0.18408848975E+04  0.18005520556E+04 0.  0.
        4    1    3    3  502    0 -0.28128521358E+03 -0.38896243616E+03  0.58707420993E+03  0.75833428578E+03  0.12699999809E+01 0.  1.
       -4    1    3    3    0  502  0.28128521358E+03  0.38896243616E+03 -0.97030977830E+03  0.10825506117E+04  0.12699999809E+01 0. -1.
</event>
<event>
 5   0  0.1000316E-05  0.1799340E+04  0.7818609E-02  0.8706650E-01
        2   -1    0    0  501    0  0.00000000000E+00  0.00000000000E+00  0.10618554009E+04  0.10618554009E+04  0.25500000920E-02 0.  1.
       -2   -1    0    0    0  501  0.00000000000E+00  0.00000000000E+00 -0.76225650844E+03  0.76225650845E+03  0.25500000920E-02 0. -1.
    10030    2    1    2    0    0  0.00000000000E+00  0.00000000000E+00  0.29959889245E+03  0.18241119093E+04  0.17993400906E+04 0.  0.
        5    1    3    3  502    0 -0.71436759015E+03  0.28647113698E+03 -0.32244343688E+03  0.83449303541E+03  0.46999998093E+01 0. -1.
       -5    1    3    3    0  502  0.71436759015E+03 -0.28647113698E+03  0.62204232933E+03  0.98961887393E+03  0.46999998093E+01 0.  1.
</event>
<event>
 5   0  0.4987456E-06  0.1801032E+04  0.7818609E-02  0.8705751E-01
        1   -1    0    0  501    0  0.00000000000E+00  0.00000000000E+00  0.15083870768E+04  0.15083870768E+04  0.50400001928E-02 0.  1.
       -1   -1    0    0    0  501  0.00000000000E+00  0.00000000000E+00 -0.53761326968E+03  0.53761326970E+03  0.50400001928E-02 0. -1.
    10030    2    1    2    0    0  0.00000000000E+00  0.00000000000E+00  0.97077380710E+03  0.20460003465E+04  0.18010318246E+04 0.  0.
        3    1    3    3  502    0 -0.42538362353E+03  0.63341096197E+02 -0.41340580674E+03  0.59654647168E+03  0.10100000352E+00 0. -1.
       -3    1    3    3    0  502  0.42538362353E+03 -0.63341096197E+02  0.13841796138E+04  0.14494538748E+04  0.10100000352E+00 0.  1.
</event>
<event>
 5   0  0.1036381E-05  0.1801935E+04  0.7818609E-02  0.8705271E-01
       -2   -1    0    0    0  501  0.00000000000E+00  0.00000000000E+00  0.15608722969E+04  0.15608722969E+04  0.25500000920E-02 0.  1.
        2   -1    0    0  501    0  0.00000000000E+00  0.00000000000E+00 -0.52005690332E+03  0.52005690333E+03  0.25500000920E-02 0. -1.
    10030    2    1    2    0    0  0.00000000000E+00  0.00000000000E+00  0.10408153936E+04  0.20809292002E+04  0.18019349746E+04 0.  0.
        4    1    3    3  502    0 -0.40978445012E+03  0.79878461577E+03  0.43275734851E+03  0.99662465028E+03  0.12699999809E+01 0.  1.
       -4    1    3    3    0  502  0.40978445012E+03 -0.79878461577E+03  0.60805804506E+03  0.10843045499E+04  0.12699999809E+01 0. -1.
</event>
<event>
 5   0  0.9999162E-06  0.1796454E+04  0.7818609E-02  0.8708188E-01
        2   -1    0    0  501    0  0.00000000000E+00  0.00000000000E+00  0.13686131160E+04  0.13686131160E+04  0.25500000920E-02 0.  1.
       -2   -1    0    0    0  501  0.00000000000E+00  0.00000000000E+00 -0.58951027285E+03  0.58951027286E+03  0.25500000920E-02 0. -1.
    10030    2    1    2    0    0  0.00000000000E+00  0.00000000000E+00  0.77910284318E+03  0.19581233889E+04  0.17964537194E+04 0.  0.
        1    1    3    3  502    0 -0.78254418293E+03 -0.10705802051E+03 -0.76699294660E+02  0.79354873815E+03  0.50400001928E-02 0.  1.
       -1    1    3    3    0  502  0.78254418293E+03  0.10705802051E+03  0.85580213784E+03  0.11645746507E+04  0.50400001928E-02 0. -1.
</event>
<event>
 5   0  0.4987456E-06  0.1799922E+04  0.7818609E-02  0.8706341E-01
        1   -1    0    0  501    0  0.00000000000E+00  0.00000000000E+00  0.15635140437E+04  0.15635140437E+04  0.50400001928E-02 0. -1.
       -1   -1    0    0    0  501  0.00000000000E+00  0.00000000000E+00 -0.51801898226E+03  0.51801898228E+03  0.50400001928E-02 0.  1.
    10030    2    1    2    0    0  0.00000000000E+00  0.00000000000E+00  0.10454950614E+04  0.20815330260E+04  0.17999221691E+04 0.  0.
        3    1    3    3  502    0  0.56411731121E+03  0.70039723129E+03  0.56188504184E+03  0.10604241759E+04  0.10100000352E+00 0.  1.
       -3    1    3    3    0  502 -0.56411731121E+03 -0.70039723129E+03  0.48361001957E+03  0.10211088500E+04  0.10100000352E+00 0. -1.
</event>
<event>
 5   0  0.1035018E-05  0.1800766E+04  0.7818609E-02  0.8705892E-01
       -2   -1    0    0    0  501  0.00000000000E+00  0.00000000000E+00  0.11786895357E+04  0.11786895357E+04  0.25500000920E-02 0. -1.
        2   -1    0    0  501    0  0.00000000000E+00  0.00000000000E+00 -0.68778887489E+03  0.68778887490E+03  0.25500000920E-02 0.  1.
    10030    2    1    2    0    0  0.00000000000E+00  0.00000000000E+00  0.49090066084E+03  0.18664784106E+04  0.18007660033E+04 0.  0.
        3    1    3    3  502    0  0.40482331366E+03  0.72636741574E+03 -0.11239897191E+03  0.83912161039E+03  0.10100000352E+00 0. -1.
       -3    1    3    3    0  502 -0.40482331366E+03 -0.72636741574E+03  0.60329963275E+03  0.10273568002E+04  0.10100000352E+00 0.  1.
</event>
<event>
 5   0  0.4987456E-06  0.1800495E+04  0.7818609E-02  0.8706036E-01
        1   -1    0    0  501    0  0.00000000000E+00  0.00000000000E+00  0.16728245703E+04  0.16728245703E+04  0.50400001928E-02 0. -1.
       -1   -1    0    0    0  501  0.00000000000E+00  0.00000000000E+00 -0.48447747342E+03  0.48447747345E+03  0.50400001928E-02 0.  1.
    10030    2    1    2    0    0  0.00000000000E+00  0.00000000000E+00  0.11883470969E+04  0.21573020438E+04  0.18004952889E+04 0.  0.
        3    1    3    3  502    0 -0.55352996092E+03  0.14943127083E+03 -0.23743053826E+03  0.62056296460E+03  0.10100000352E+00 0.  1.
       -3    1    3    3    0  502  0.55352996092E+03 -0.14943127083E+03  0.14257776352E+04  0.15367390792E+04  0.10100000352E+00 0. -1.
</event>
<event>
 5   0  0.4981384E-06  0.1800186E+04  0.7818609E-02  0.8706200E-01
       -1   -1    0    0    0  501  0.00000000000E+00  0.00000000000E+00  0.63119763978E+03  0.63119763980E+03  0.50400001928E-02 0.  1.
        1   -1    0    0  501    0  0.00000000000E+00  0.00000000000E+00 -0.12835404593E+04  0.12835404593E+04  0.50400001928E-02 0. -1.
    10030    2    1    2    0    0  0.00000000000E+00  0.00000000000E+00 -0.65234281952E+03  0.19147380991E+04  0.18001863331E+04 0.  0.
        5    1    3    3  502    0 -0.58992086460E+03 -0.83169378195E+02 -0.10438061702E+04  0.12018640451E+04  0.46999998093E+01 0. -1.
       -5    1    3    3    0  502  0.58992086460E+03  0.83169378195E+02  0.39146335068E+03  0.71287405401E+03  0.46999998093E+01 0.  1.
</event>
<event>
 5   0  0.4994123E-06  0.1800810E+04  0.7818609E-02  0.8705869E-01
        1   -1    0    0  501    0  0.00000000000E+00  0.00000000000E+00  0.85377502401E+03  0.85377502402E+03  0.50400001928E-02 0.  1.
       -1   -1    0    0    0  501  0.00000000000E+00  0.00000000000E+00 -0.94958222673E+03  0.94958222674E+03  0.50400001928E-02 0. -1.
    10030    2    1    2    0    0  0.00000000000E+00  0.00000000000E+00 -0.95807202721E+02  0.18033572508E+04  0.18008104714E+04 0.  0.
        1    1    3    3  502    0  0.76577811724E+03 -0.28330861398E+03 -0.42797915017E+03  0.92187095008E+03  0.50400001928E-02 0. -1.
       -1    1    3    3    0  502 -0.76577811724E+03  0.28330861398E+03  0.33217194745E+03  0.88148630068E+03  0.50400001928E-02 0.  1.
</event>
<event>
 5   0  0.4994123E-06  0.1799832E+04  0.7818609E-02  0.8706389E-01
        1   -1    0    0  501    0  0.00000000000E+00  0.00000000000E+00  0.92166625407E+03  0.92166625409E+03  0.50400001928E-02 0. -1.
       -1   -1    0    0    0  501  0.00000000000E+00  0.00000000000E+00 -0.87867909657E+03  0.87867909659E+03  0.50400001928E-02 0.  1.
    10030    2    1    2    0    0  0.00000000000E+00  0.00000000000E+00  0.42987157502E+02  0.18003453507E+04  0.17998320716E+04 0.  0.
        1    1    3    3  502    0  0.70553213537E+03 -0.34124160548E+02  0.57924457638E+03  0.91349019243E+03  0.50400001928E-02 0. -1.
       -1    1    3    3    0  502 -0.70553213537E+03  0.34124160548E+02 -0.53625741888E+03  0.88685515824E+03  0.50400001928E-02 0.  1.
</event>
<event>
 5   0  0.1035018E-05  0.1800917E+04  0.7818609E-02  0.8705812E-01
       -2   -1    0    0    0  501  0.00000000000E+00  0.00000000000E+00  0.13462469713E+04  0.13462469713E+04  0.25500000920E-02 0. -1.
        2   -1    0    0  501    0  0.00000000000E+00  0.00000000000E+00 -0.60228556541E+03  0.60228556542E+03  0.25500000920E-02 0.  1.
    10030    2    1    2    0    0  0.00000000000E+00  0.00000000000E+00  0.74396140588E+03  0.19485325367E+04  0.18009165648E+04 0.  0.
        3    1    3    3  502    0 -0.37946378859E+03 -0.38123094105E+03  0.11533192907E+04  0.12725860260E+04  0.10100000352E+00 0. -1.
       -3    1    3    3    0  502  0.37946378859E+03  0.38123094105E+03 -0.40935788478E+03  0.67594651068E+03  0.10100000352E+00 0.  1.
</event>
<event>
 5   0  0.4994123E-06  0.1799662E+04  0.7818609E-02  0.8706479E-01
       -1   -1    0    0    0  501  0.00000000000E+00  0.00000000000E+00  0.76076594636E+03  0.76076594638E+03  0.50400001928E-02 0. -1.
        1   -1    0    0  501    0  0.00000000000E+00  0.00000000000E+00 -0.10643166272E+04  0.10643166272E+04  0.50400001928E-02 0.  1.
    10030    2    1    2    0    0  0.00000000000E+00  0.00000000000E+00 -0.30355068084E+03  0.18250825736E+04  0.17996620195E+04 0.  0.
        1    1    3    3  502    0 -0.46026056220E+03 -0.63974660777E+03 -0.59216769715E+03  0.98578805473E+03  0.50400001928E-02 0.  1.
       -1    1    3    3    0  502  0.46026056220E+03  0.63974660777E+03  0.28861701631E+03  0.83929451887E+03  0.50400001928E-02 0. -1.
</event>
<event>
 5   0  0.4953155E-06  0.1802542E+04  0.7818609E-02  0.8704949E-01
        1   -1    0    0  501    0  0.00000000000E+00  0.00000000000E+00  0.10409559631E+04  0.10409559631E+04  0.50400001928E-02 0. -1.
       -1   -1    0    0    0  501  0.00000000000E+00  0.00000000000E+00 -0.78032988038E+03  0.78032988040E+03  0.50400001928E-02 0.  1.
    10030    2    1    2    0    0  0.00000000000E+00  0.00000000000E+00  0.26062608269E+03  0.18212858435E+04  0.18025415858E+04 0.  0.
        2    1    3    3  502    0  0.18824264279E+03  0.12661661854E+03  0.10116345004E+04  0.10367600605E+04  0.25500000920E-02 0. -1.
       -2    1    3    3    0  502 -0.18824264279E+03 -0.12661661854E+03 -0.75100841772E+03  0.78452578297E+03  0.25500000920E-02 0.  1.
</event>
<event>
 5   0  0.4981384E-06  0.1800544E+04  0.7818609E-02  0.8706010E-01
       -1   -1    0    0    0  501  0.00000000000E+00  0.00000000000E+00  0.29774902621E+03  0.29774902625E+03  0.50400001928E-02 0.  1.
        1   -1    0    0  501    0  0.00000000000E+00  0.00000000000E+00 -0.27220550183E+04  0.27220550183E+04  0.50400001928E-02 0. -1.
    10030    2    1    2    0    0  0.00000000000E+00  0.00000000000E+00 -0.24243059921E+04  0.30198040445E+04  0.18005435080E+04 0.  0.
        5    1    3    3  502    0  0.71581128057E+03 -0.34897594898E+03 -0.50795015267E+03  0.94456627610E+03  0.46999998093E+01 0.  1.
       -5    1    3    3    0  502 -0.71581128057E+03  0.34897594898E+03 -0.19163558394E+04  0.20752377684E+04  0.46999998093E+01 0. -1.
</event>
<event>
 5   0  0.1036381E-05  0.1799087E+04  0.7818609E-02  0.8706785E-01
        2   -1    0    0  501    0  0.00000000000E+00  0.00000000000E+00  0.20527477020E+04  0.20527477020E+04  0.25500000920E-02 0.  1.
       -2   -1    0    0    0  501  0.00000000000E+00  0.00000000000E+00 -0.39419308691E+03  0.39419308692E+03  0.25500000920E-02 0. -1.
    10030    2    1    2    0    0  0.00000000000E+00  0.00000000000E+00  0.16585546151E+04  0.24469407889E+04  0.17990874946E+04 0.  0.
        4    1    3    3  502    0  0.64158926723E+03  0.24221451020E+02 -0.27644505371E+02  0.64264243409E+03  0.12699999809E+01 0. -1.
       -4    1    3    3    0  502 -0.64158926723E+03 -0.24221451020E+02  0.16861991204E+04  0.18042983548E+04  0.12699999809E+01 0.  1.
</event>
<event>
 5   0  0.1035018E-05  0.1800516E+04  0.7818609E-02  0.8706025E-01
       -2   -1    0    0    0  501  0.00000000000E+00  0.00000000000E+00  0.44724425538E+03  0.44724425539E+03  0.25500000920E-02 0. -1.
        2   -1    0    0  501    0  0.00000000000E+00  0.00000000000E+00 -0.18121301210E+04  0.18121301210E+04  0.25500000920E-02 0.  1.
    10030    2    1    2    0    0  0.00000000000E+00  0.00000000000E+00 -0.13648858656E+04  0.22593743764E+04  0.18005163555E+04 0.  0.
        3    1    3    3  502    0  0.72523899229E+03  0.13482880684E+03 -0.34870382119E+02  0.73848923949E+03  0.10100000352E+00 0. -1.
       -3    1    3    3    0  502 -0.72523899229E+03 -0.13482880684E+03 -0.13300154835E+04  0.15208851369E+04  0.10100000352E+00 0.  1.
</event>
<event>
 5   0  0.4983159E-06  0.1799873E+04  0.7818609E-02  0.8706367E-01
       -1   -1    0    0    0  501  0.00000000000E+00  0.00000000000E+00  0.94583438597E+03  0.94583438598E+03  0.50400001928E-02 0. -1.
        1   -1    0    0  501    0  0.00000000000E+00  0.00000000000E+00 -0.85626551798E+03  0.85626551800E+03  0.50400001928E-02 0.  1.
    10030    2    1    2    0    0  0.00000000000E+00  0.00000000000E+00  0.89568867988E+02  0.18020999040E+04  0.17998726293E+04 0.  0.
        4    1    3    3  502    0 -0.41776925501E+02 -0.85269187051E+01  0.94482158711E+03  0.94578404735E+03  0.12699999809E+01 0. -1.
       -4    1    3    3    0  502  0.41776925501E+02  0.85269187051E+01 -0.85525271912E+03  0.85631585663E+03  0.12699999809E+01 0.  1.
</event>
<event>
 5   0  0.4953155E-06  0.1794162E+04  0.7818609E-02  0.8709410E-01
        1   -1    0    0  501    0  0.00000000000E+00  0.00000000000E+00  0.10804121759E+04  0.10804121759E+04  0.50400001928E-02 0.  1.
       -1   -1    0    0    0  501  0.00000000000E+00  0.00000000000E+00 -0.74485883713E+03  0.74485883714E+03  0.50400001928E-02 0. -1.
    10030    2    1    2    0    0  0.00000000000E+00  0.00000000000E+00  0.33555333873E+03  0.18252710130E+04  0.17941622635E+04 0.  0.
        2    1    3    3  502    0  0.11164532598E+03 -0.81385986504E+03 -0.19892001627E+03  0.84522288872E+03  0.25500000920E-02 0. -1.
       -2    1    3    3    0  502 -0.11164532598E+03  0.81385986504E+03  0.53447335500E+03  0.98004812430E+03  0.25500000920E-02 0.  1.
</event>
<event>
 5   0  0.4983159E-06  0.1800533E+04  0.7818609E-02  0.8706016E-01
       -1   -1    0    0    0  501  0.00000000000E+00  0.00000000000E+00  0.50165598968E+03  0.50165598970E+03  0.50400001928E-02 0. -1.
        1   -1    0    0  501    0  0.00000000000E+00  0.00000000000E+00 -0.16156093366E+04  0.16156093366E+04  0.50400001928E-02 0.  1.
    10030    2    1    2    0    0  0.00000000000E+00  0.00000000000E+00 -0.11139533469E+04  0.21172653263E+04  0.18005333662E+04 0.  0.
        4    1    3    3  502    0  0.14885302040E+03  0.21505475876E+03 -0.15699484466E+04  0.15915858471E+04  0.12699999809E+01 0.  1.
       -4    1    3    3    0  502 -0.14885302040E+03 -0.21505475876E+03  0.45599509970E+03  0.52567947915E+03  0.12699999809E+01 0. -1.
</event>
<event>
 5   0  0.4994123E-06  0.1799943E+04  0.7818609E-02  0.8706330E-01
       -1   -1    0    0    0  501  0.00000000000E+00  0.00000000000E+00  0.48065547518E+03  0.48065547520E+03  0.50400001928E-02 0.  1.
        1   -1    0    0  501    0  0.00000000000E+00  0.00000000000E+00 -0.16850926887E+04  0.16850926887E+04  0.50400001928E-02 0. -1.
    10030    2    1    2    0    0  0.00000000000E+00  0.00000000000E+00 -0.12044372135E+04  0.21657481639E+04  0.17999433625E+04 0.  0.
        1    1    3    3  502    0  0.10356220354E+03  0.73357150835E+03 -0.12170412294E+04  0.14247952982E+04  0.50400001928E-02 0. -1.
       -1    1    3    3    0  502 -0.10356220354E+03 -0.73357150835E+03  0.12604015871E+02  0.74095286565E+03  0.50400001928E-02 0.  1.
</event>
<event>
 5   0  0.3626125E-06  0.1801516E+04  0.7818609E-02  0.8705493E-01
       -3   -1    0    0    0  501  0.00000000000E+00  0.00000000000E+00  0.72692070853E+03  0.72692071555E+03  0.10100000352E+00 0.  1.
        3   -1    0    0  501    0  0.00000000000E+00  0.00000000000E+00 -0.11161676365E+04  0.11161676411E+04  0.10100000352E+00 0. -1.
    10030    2    1    2    0    0  0.00000000000E+00  0.00000000000E+00 -0.38924692801E+03  0.18430883567E+04  0.18015164500E+04 0.  0.
        3    1    3    3  502    0  0.76875911697E+03  0.29296737055E+02  0.28471413848E+03  0.82031154422E+03  0.10100000352E+00 0. -1.
       -3    1    3    3    0  502 -0.76875911697E+03 -0.29296737055E+02 -0.67396106649E+03  0.10227768124E+04  0.10100000352E+00 0.  1.
</event>
<event>
 5   0  0.4994123E-06  0.1799745E+04  0.7818609E-02  0.8706435E-01
        1   -1    0    0  501    0  0.00000000000E+00  0.00000000000E+00  0.11395358815E+04  0.11395358815E+04  0.50400001928E-02 0.  1.
       -1   -1    0    0    0  501  0.00000000000E+00  0.00000000000E+00 -0.71061419003E+03  0.71061419005E+03  0.50400001928E-02 0. -1.
    10030    2    1    2    0    0  0.00000000000E+00  0.00000000000E+00  0.42892169145E+03  0.18501500715E+04  0.17997448346E+04 0.  0.
        1    1    3    3  502    0 -0.13430974637E+03 -0.41427640413E+03 -0.59506198215E+03  0.73740274587E+03  0.50400001928E-02 0. -1.
       -1    1    3    3    0  502  0.13430974637E+03  0.41427640413E+03  0.10239836736E+04  0.11127473257E+04  0.50400001928E-02 0.  1.
</event>
<event>
 5   0  0.1036381E-05  0.1799995E+04  0.7818609E-02  0.8706302E-01
       -2   -1    0    0    0  501  0.00000000000E+00  0.00000000000E+00  0.46908826844E+03  0.46908826845E+03  0.25500000920E-02 0.  1.
        2   -1    0    0  501    0  0.00000000000E+00  0.00000000000E+00 -0.17267444854E+04  0.17267444854E+04  0.25500000920E-02 0. -1.
    10030    2    1    2    0    0  0.00000000000E+00  0.00000000000E+00 -0.12576562170E+04  0.21958327539E+04  0.17999950897E+04 0.  0.
        4    1    3    3  502    0  0.89659839281E+03 -0.64583209034E+02 -0.68248058036E+03  0.11286456593E+04  0.12699999809E+01 0.  1.
       -4    1    3    3    0  502 -0.89659839281E+03  0.64583209034E+02 -0.57517563662E+03  0.10671870945E+04  0.12699999809E+01 0. -1.
</event>
<event>
 5   0  0.1036381E-05  0.1799542E+04  0.7818609E-02  0.8706543E-01
       -2   -1    0    0    0  501  0.00000000000E+00  0.00000000000E+00  0.65173522576E+03  0.65173522576E+03  0.25500000920E-02 0. -1.
        2   -1    0    0  501    0  0.00000000000E+00  0.00000000000E+00 -0.12422034333E+04  0.12422034333E+04  0.25500000920E-02 0.  1.
    10030    2    1    2    0    0  0.00000000000E+00  0.00000000000E+00 -0.59046820755E+03  0.18939386591E+04  0.17995418695E+04 0.  0.
        4    1    3    3  502    0 -0.21668978209E+03  0.14174735850E+02 -0.12142100657E+04  0.12334760157E+04  0.12699999809E+01 0.  1.
       -4    1    3    3    0  502  0.21668978209E+03 -0.14174735850E+02  0.62374185813E+03  0.66046264337E+03  0.12699999809E+01 0. -1.
</event>
<event>
 5   0  0.4994123E-06  0.1800184E+04  0.7818609E-02  0.8706202E-01
        1   -1    0    0  501    0  0.00000000000E+00  0.00000000000E+00  0.22701327967E+04  0.22701327967E+04  0.50400001928E-02 0.  1.
       -1   -1    0    0    0  501  0.00000000000E+00  0.00000000000E+00 -0.35688030605E+03  0.35688030608E+03  0.50400001928E-02 0. -1.
    10030    2    1    2    0    0  0.00000000000E+00  0.00000000000E+00  0.19132524906E+04  0.26270131028E+04  0.18001840876E+04 0.  0.
        1    1    3    3  502    0  0.63103402151E+03  0.64087372371E+03  0.90518461721E+03  0.12760416362E+04  0.50400001928E-02 0.  1.
       -1    1    3    3    0  502 -0.63103402151E+03 -0.64087372371E+03  0.10080678734E+04  0.13509714666E+04  0.50400001928E-02 0. -1.
</event>
<event>
 5   0  0.4983159E-06  0.1799631E+04  0.7818609E-02  0.8706496E-01
        1   -1    0    0  501    0  0.00000000000E+00  0.00000000000E+00  0.12258664165E+04  0.12258664165E+04  0.50400001928E-02 0.  1.
       -1   -1    0    0    0  501  0.00000000000E+00  0.00000000000E+00 -0.66048607907E+03  0.66048607909E+03  0.50400001928E-02 0. -1.
    10030    2    1    2    0    0  0.00000000000E+00  0.00000000000E+00  0.56538033740E+03  0.18863524956E+04  0.17996307431E+04 0.  0.
        4    1    3    3  502    0  0.37618497014E+03 -0.63131114827E+03  0.82693852969E+03  0.11062991650E+04  0.12699999809E+01 0.  1.
       -4    1    3    3    0  502 -0.37618497014E+03  0.63131114827E+03 -0.26155819230E+03  0.78005333058E+03  0.12699999809E+01 0. -1.
</event>
<event>
 5   0  0.1036381E-05  0.1798893E+04  0.7818609E-02  0.8706888E-01
       -2   -1    0    0    0  501  0.00000000000E+00  0.00000000000E+00  0.11217359024E+04  0.11217359024E+04  0.25500000920E-02 0.  1.
        2   -1    0    0  501    0  0.00000000000E+00  0.00000000000E+00 -0.72120715299E+03  0.72120715300E+03  0.25500000920E-02 0. -1.
    10030    2    1    2    0    0  0.00000000000E+00  0.00000000000E+00  0.40052874936E+03  0.18429430554E+04  0.17988929446E+04 0.  0.
        4    1    3    3  502    0  0.63591168277E+03 -0.46921898805E+02  0.85016172028E+03  0.10627144002E+04  0.12699999809E+01 0.  1.
       -4    1    3    3    0  502 -0.63591168277E+03  0.46921898805E+02 -0.44963297092E+03  0.78022865515E+03  0.12699999809E+01 0. -1.
</event>
<event>
 5   0  0.1036381E-05  0.1799086E+04  0.7818609E-02  0.8706786E-01
       -2   -1    0    0    0  501  0.00000000000E+00  0.00000000000E+00  0.82077465718E+03  0.82077465719E+03  0.25500000920E-02 0.  1.
        2   -1    0    0  501    0  0.00000000000E+00  0.00000000000E+00 -0.98587083161E+03  0.98587083161E+03  0.25500000920E-02 0. -1.
    10030    2    1    2    0    0  0.00000000000E+00  0.00000000000E+00 -0.16509617442E+03  0.18066454888E+04  0.17990862057E+04 0.  0.
        4    1    3    3  502    0  0.15921286929E+03 -0.87230573151E+02 -0.96728245456E+03  0.98417217520E+03  0.12699999809E+01 0. -1.
       -4    1    3    3    0  502 -0.15921286929E+03  0.87230573151E+02  0.80218628014E+03  0.82247331360E+03  0.12699999809E+01 0.  1.
</event>
<event>
 5   0  0.1000316E-05  0.1799099E+04  0.7818609E-02  0.8706779E-01
       -2   -1    0    0    0  501  0.00000000000E+00  0.00000000000E+00  0.84996152700E+03  0.84996152700E+03  0.25500000920E-02 0.  1.
        2   -1    0    0  501    0  0.00000000000E+00  0.00000000000E+00 -0.95203000531E+03  0.95203000531E+03  0.25500000920E-02 0. -1.
    10030    2    1    2    0    0  0.00000000000E+00  0.00000000000E+00 -0.10206847831E+03  0.18019915323E+04  0.17990985266E+04 0.  0.
        5    1    3    3  502    0  0.33457861952E+02 -0.15811672679E+03  0.83528782962E+03  0.85079267517E+03  0.46999998093E+01 0.  1.
       -5    1    3    3    0  502 -0.33457861952E+02  0.15811672679E+03 -0.93735630793E+03  0.95119885715E+03  0.46999998093E+01 0. -1.
</event>
<event>
 5   0  0.9999162E-06  0.1799639E+04  0.7818609E-02  0.8706492E-01
       -2   -1    0    0    0  501  0.00000000000E+00  0.00000000000E+00  0.78375628213E+03  0.78375628213E+03  0.25500000920E-02 0.  1.
        2   -1    0    0  501    0  0.00000000000E+00  0.00000000000E+00 -0.10330697687E+04  0.10330697687E+04  0.25500000920E-02 0. -1.
    10030    2    1    2    0    0  0.00000000000E+00  0.00000000000E+00 -0.24931348657E+03  0.18168260508E+04  0.17996387650E+04 0.  0.
        1    1    3    3  502    0 -0.98873719707E+02 -0.34667468219E+03 -0.95697921299E+03  0.10226282618E+04  0.50400001928E-02 0. -1.
       -1    1    3    3    0  502  0.98873719707E+02  0.34667468219E+03  0.70766572642E+03  0.79419778903E+03  0.50400001928E-02 0.  1.
</event>
<event>
 5   0  0.4981384E-06  0.1800152E+04  0.7818609E-02  0.8706219E-01
        1   -1    0    0  501    0  0.00000000000E+00  0.00000000000E+00  0.67651763829E+03  0.67651763831E+03  0.50400001928E-02 0.  1.
       -1   -1    0    0    0  501  0.00000000000E+00  0.00000000000E+00 -0.11975095911E+04  0.11975095911E+04  0.50400001928E-02 0. -1.
    10030    2    1    2    0    0  0.00000000000E+00  0.00000000000E+00 -0.52099195284E+03  0.18740272295E+04  0.18001515052E+04 0.  0.
        5    1    3    3  502    0  0.57177561984E+03  0.54468670998E+03 -0.71007920114E+03  0.10620007219E+04  0.46999998093E+01 0. -1.
       -5    1    3    3    0  502 -0.57177561984E+03 -0.54468670998E+03  0.18908724830E+03  0.81202650753E+03  0.46999998093E+01 0.  1.
</event>
<event>
 5   0  0.1000316E-05  0.1800178E+04  0.7818609E-02  0.8706205E-01
        2   -1    0    0  501    0  0.00000000000E+00  0.00000000000E+00  0.15347020222E+04  0.15347020222E+04  0.25500000920E-02 0. -1.
       -2   -1    0    0    0  501  0.00000000000E+00  0.00000000000E+00 -0.52789395001E+03  0.52789395002E+03  0.25500000920E-02 0.  1.
    10030    2    1    2    0    0  0.00000000000E+00  0.00000000000E+00  0.10068080722E+04  0.20625959722E+04  0.18001776719E+04 0.  0.
        5    1    3    3  502    0  0.63748954653E+03 -0.80127259522E+01 -0.22457317815E+03  0.67595290372E+03  0.46999998093E+01 0.  1.
       -5    1    3    3    0  502 -0.63748954653E+03  0.80127259522E+01  0.12313812504E+04  0.13866430685E+04  0.46999998093E+01 0. -1.
</event>
<event>
 5   0  0.4953155E-06  0.1799467E+04  0.7818609E-02  0.8706583E-01
        1   -1    0    0  501    0  0.00000000000E+00  0.00000000000E+00  0.15835009282E+04  0.15835009282E+04  0.50400001928E-02 0. -1.
       -1   -1    0    0    0  501  0.00000000000E+00  0.00000000000E+00 -0.51122218049E+03  0.51122218051E+03  0.50400001928E-02 0.  1.
    10030    2    1    2    0    0  0.00000000000E+00  0.00000000000E+00  0.10722787477E+04  0.20947231087E+04  0.17994674738E+04 0.  0.
        2    1    3    3  502    0  0.44485262771E+03  0.11771001912E+03  0.14361552048E+04  0.15080753566E+04  0.25500000920E-02 0. -1.
       -2    1    3    3    0  502 -0.44485262771E+03 -0.11771001912E+03 -0.36387645710E+03  0.58664775208E+03  0.25500000920E-02 0.  1.
</event>
<event>
 5   0  0.1000316E-05  0.1799358E+04  0.7818609E-02  0.8706641E-01
        2   -1    0    0  501    0  0.00000000000E+00  0.00000000000E+00  0.90020042155E+03  0.90020042155E+03  0.25500000920E-02 0.  1.
       -2   -1    0    0    0  501  0.00000000000E+00  0.00000000000E+00 -0.89915824930E+03  0.89915824931E+03  0.25500000920E-02 0. -1.
    10030    2    1    2    0    0  0.00000000000E+00  0.00000000000E+00  0.10421722442E+01  0.17993586709E+04  0.17993583691E+04 0.  0.
        5    1    3    3  502    0  0.36457251797E+03 -0.78558747680E+03 -0.24307645166E+03  0.89953824594E+03  0.46999998093E+01 0.  1.
       -5    1    3    3    0  502 -0.36457251797E+03  0.78558747680E+03  0.24411862390E+03  0.89982042492E+03  0.46999998093E+01 0. -1.
</event>
<event>
 5   0  0.4987456E-06  0.1799981E+04  0.7818609E-02  0.8706309E-01
        1   -1    0    0  501    0  0.00000000000E+00  0.00000000000E+00  0.58202225472E+03  0.58202225474E+03  0.50400001928E-02 0.  1.
       -1   -1    0    0    0  501  0.00000000000E+00  0.00000000000E+00 -0.13916704786E+04  0.13916704786E+04  0.50400001928E-02 0. -1.
    10030    2    1    2    0    0  0.00000000000E+00  0.00000000000E+00 -0.80964822391E+03  0.19736927334E+04  0.17999813219E+04 0.  0.
        3    1    3    3  502    0 -0.77567707212E+03  0.26521357730E+03 -0.81211425885E+03  0.11539249289E+04  0.10100000352E+00 0.  1.
       -3    1    3    3    0  502  0.77567707212E+03 -0.26521357730E+03  0.24660349398E+01  0.81976780452E+03  0.10100000352E+00 0. -1.
</event>
<event>
 5   0  0.4983159E-06  0.1800590E+04  0.7818609E-02  0.8705986E-01
        1   -1    0    0  501    0  0.00000000000E+00  0.00000000000E+00  0.14151557463E+04  0.14151557463E+04  0.50400001928E-02 0.  1.
       -1   -1    0    0    0  501  0.00000000000E+00  0.00000000000E+00 -0.57275073935E+03  0.57275073937E+03  0.50400001928E-02 0. -1.
    10030    2    1    2    0    0  0.00000000000E+00  0.00000000000E+00  0.84240500699E+03  0.19879064857E+04  0.18005904588E+04 0.  0.
        4    1    3    3  502    0 -0.89177029110E+01 -0.88687730130E+03  0.25052707596E+03  0.92162698619E+03  0.12699999809E+01 0.  1.
       -4    1    3    3    0  502  0.89177029110E+01  0.88687730130E+03  0.59187793103E+03  0.10662794995E+04  0.12699999809E+01 0. -1.
</event>
<event>
 5   0  0.4987456E-06  0.1798653E+04  0.7818609E-02  0.8707016E-01
        1   -1    0    0  501    0  0.00000000000E+00  0.00000000000E+00  0.14292414997E+04  0.14292414997E+04  0.50400001928E-02 0.  1.
       -1   -1    0    0    0  501  0.00000000000E+00  0.00000000000E+00 -0.56588632282E+03  0.56588632284E+03  0.50400001928E-02 0. -1.
    10030    2    1    2    0    0  0.00000000000E+00  0.00000000000E+00  0.86335517688E+03  0.19951278226E+04  0.17986530702E+04 0.  0.
        3    1    3    3  502    0  0.40771795380E+03  0.16305948278E+03 -0.43888830846E+03  0.62084239729E+03  0.10100000352E+00 0. -1.
       -3    1    3    3    0  502 -0.40771795380E+03 -0.16305948278E+03  0.13022434853E+04  0.13742854253E+04  0.10100000352E+00 0.  1.
</event>
<event>
 5   0  0.4987456E-06  0.1800955E+04  0.7818609E-02  0.8705792E-01
        1   -1    0    0  501    0  0.00000000000E+00  0.00000000000E+00  0.12973377860E+04  0.12973377860E+04  0.50400001928E-02 0.  1.
       -1   -1    0    0    0  501  0.00000000000E+00  0.00000000000E+00 -0.62501827132E+03  0.62501827134E+03  0.50400001928E-02 0. -1.
    10030    2    1    2    0    0  0.00000000000E+00  0.00000000000E+00  0.67231951470E+03  0.19223560574E+04  0.18009551026E+04 0.  0.
        3    1    3    3  502    0 -0.73799638470E+02 -0.88860168102E+03  0.20198647942E+03  0.91425263588E+03  0.10100000352E+00 0. -1.
       -3    1    3    3    0  502  0.73799638470E+02  0.88860168102E+03  0.47033303528E+03  0.10081034215E+04  0.10100000352E+00 0.  1.
</event>
<event>
 5   0  0.9589963E-06  0.1798915E+04  0.7818609E-02  0.8706877E-01
       -2   -1    0    0    0  501  0.00000000000E+00  0.00000000000E+00  0.48161996122E+03  0.48161996123E+03  0.25500000920E-02 0.  1.
        2   -1    0    0  501    0  0.00000000000E+00  0.00000000000E+00 -0.16797962582E+04  0.16797962582E+04  0.25500000920E-02 0. -1.
    10030    2    1    2    0    0  0.00000000000E+00  0.00000000000E+00 -0.11981762970E+04  0.21614162194E+04  0.17989145713E+04 0.  0.
        2    1    3    3  502    0  0.75655799182E+03 -0.88603072955E+02 -0.24377628645E+02  0.76211860515E+03  0.25500000920E-02 0.  1.
       -2    1    3    3    0  502 -0.75655799182E+03  0.88603072955E+02 -0.11737986683E+04  0.13992976143E+04  0.25500000920E-02 0. -1.
</event>
<event>
 5   0  0.4981384E-06  0.1801324E+04  0.7818609E-02  0.8705595E-01
       -1   -1    0    0    0  501  0.00000000000E+00  0.00000000000E+00  0.14390827592E+04  0.14390827592E+04  0.50400001928E-02 0.  1.
        1   -1    0    0  501    0  0.00000000000E+00  0.00000000000E+00 -0.56368715809E+03  0.56368715812E+03  0.50400001928E-02 0. -1.
    10030    2    1    2    0    0  0.00000000000E+00  0.00000000000E+00  0.87539560111E+03  0.20027699173E+04  0.18013244803E+04 0.  0.
        5    1    3    3  502    0  0.77301847235E+03 -0.21207427366E+03 -0.18881228447E+02  0.80181771428E+03  0.46999998093E+01 0. -1.
       -5    1    3    3    0  502 -0.77301847235E+03  0.21207427366E+03  0.89427682956E+03  0.12009522031E+04  0.46999998093E+01 0.  1.
</event>
<event>
 5   0  0.4953155E-06  0.1800134E+04  0.7818609E-02  0.8706228E-01
       -1   -1    0    0    0  501  0.00000000000E+00  0.00000000000E+00  0.91563052060E+03  0.91563052061E+03  0.50400001928E-02 0.  1.
        1   -1    0    0  501    0  0.00000000000E+00  0.00000000000E+00 -0.88476802430E+03  0.88476802432E+03  0.50400001928E-02 0. -1.
    10030    2    1    2    0    0  0.00000000000E+00  0.00000000000E+00  0.30862496299E+02  0.18003985449E+04  0.18001340025E+04 0.  0.
        2    1    3    3  502    0  0.22837891023E+03 -0.17211743163E+03  0.86898461776E+03  0.91483091488E+03  0.25500000920E-02 0.  1.
       -2    1    3    3    0  502 -0.22837891023E+03  0.17211743163E+03 -0.83812212146E+03  0.88556763005E+03  0.25500000920E-02 0. -1.
</event>
<event>
 5   0  0.4987456E-06  0.1799579E+04  0.7818609E-02  0.8706523E-01
        1   -1    0    0  501    0  0.00000000000E+00  0.00000000000E+00  0.14184141960E+04  0.14184141960E+04  0.50400001928E-02 0.  1.
       -1   -1    0    0    0  501  0.00000000000E+00  0.00000000000E+00 -0.57079329605E+03  0.57079329607E+03  0.50400001928E-02 0. -1.
    10030    2    1    2    0    0  0.00000000000E+00  0.00000000000E+00  0.84762089998E+03  0.19892074921E+04  0.17995791888E+04 0.  0.
        3    1    3    3  502    0 -0.61850205135E+03  0.55638046564E+03  0.80274134468E+03  0.11560699316E+04  0.10100000352E+00 0.  1.
       -3    1    3    3    0  502  0.61850205135E+03 -0.55638046564E+03  0.44879555297E+02  0.83313756052E+03  0.10100000352E+00 0. -1.
</event>
<event>
 5   0  0.9999162E-06  0.1799794E+04  0.7818609E-02  0.8706409E-01
       -2   -1    0    0    0  501  0.00000000000E+00  0.00000000000E+00  0.72091879563E+03  0.72091879564E+03  0.25500000920E-02 0.  1.
        2   -1    0    0  501    0  0.00000000000E+00  0.00000000000E+00 -0.11233093981E+04  0.11233093981E+04  0.25500000920E-02 0. -1.
    10030    2    1    2    0    0  0.00000000000E+00  0.00000000000E+00 -0.40239060242E+03  0.18442281937E+04  0.17997942753E+04 0.  0.
        1    1    3    3  502    0  0.70716199153E+03 -0.35958990646E+02  0.36789313652E+03  0.79794516804E+03  0.50400001928E-02 0.  1.
       -1    1    3    3    0  502 -0.70716199153E+03  0.35958990646E+02 -0.77028373894E+03  0.10462830257E+04  0.50400001928E-02 0. -1.
</event>
<event>
 5   0  0.9589963E-06  0.1799954E+04  0.7818609E-02  0.8706324E-01
       -2   -1    0    0    0  501  0.00000000000E+00  0.00000000000E+00  0.71785052488E+03  0.71785052488E+03  0.25500000920E-02 0. -1.
        2   -1    0    0  501    0  0.00000000000E+00  0.00000000000E+00 -0.11283114108E+04  0.11283114108E+04  0.25500000920E-02 0.  1.
    10030    2    1    2    0    0  0.00000000000E+00  0.00000000000E+00 -0.41046088593E+03  0.18461619357E+04  0.17999543755E+04 0.  0.
        2    1    3    3  502    0 -0.25014913009E+03  0.45358728259E+01 -0.10919255621E+04  0.11202216721E+04  0.25500000920E-02 0.  1.
       -2    1    3    3    0  502  0.25014913009E+03 -0.45358728259E+01  0.68146467618E+03  0.72594026360E+03  0.25500000920E-02 0. -1.
</event>
<event>
 5   0  0.4987456E-06  0.1800959E+04  0.7818609E-02  0.8705790E-01
        1   -1    0    0  501    0  0.00000000000E+00  0.00000000000E+00  0.93324414644E+03  0.93324414646E+03  0.50400001928E-02 0. -1.
       -1   -1    0    0    0  501  0.00000000000E+00  0.00000000000E+00 -0.86886479546E+03  0.86886479548E+03  0.50400001928E-02 0.  1.
    10030    2    1    2    0    0  0.00000000000E+00  0.00000000000E+00  0.64379350978E+02  0.18021089419E+04  0.18009586163E+04 0.  0.
        3    1    3    3  502    0 -0.24289352850E+03  0.45192372616E+03 -0.70830370938E+03  0.87460075199E+03  0.10100000352E+00 0.  1.
       -3    1    3    3    0  502  0.24289352850E+03 -0.45192372616E+03  0.77268306036E+03  0.92750818995E+03  0.10100000352E+00 0. -1.
</event>
<event>
 5   0  0.9999162E-06  0.1799542E+04  0.7818609E-02  0.8706543E-01
        2   -1    0    0  501    0  0.00000000000E+00  0.00000000000E+00  0.14957393305E+04  0.14957393305E+04  0.25500000920E-02 0.  1.
       -2   -1    0    0    0  501  0.00000000000E+00  0.00000000000E+00 -0.54126250523E+03  0.54126250523E+03  0.25500000920E-02 0. -1.
    10030    2    1    2    0    0  0.00000000000E+00  0.00000000000E+00  0.95447682530E+03  0.20370018358E+04  0.17995417386E+04 0.  0.
        1    1    3    3  502    0  0.41536300720E+03  0.66022279128E+03 -0.30462478423E+02  0.78060779172E+03  0.50400001928E-02 0. -1.
       -1    1    3    3    0  502 -0.41536300720E+03 -0.66022279128E+03  0.98493930373E+03  0.12563940440E+04  0.50400001928E-02 0.  1.
</event>
<event>
 5   0  0.4994123E-06  0.1799753E+04  0.7818609E-02  0.8706431E-01
       -1   -1    0    0    0  501  0.00000000000E+00  0.00000000000E+00  0.71248606165E+03  0.71248606167E+03  0.50400001928E-02 0. -1.
        1   -1    0    0  501    0  0.00000000000E+00  0.00000000000E+00 -0.11365528855E+04  0.11365528855E+04  0.50400001928E-02 0.  1.
    10030    2    1    2    0    0  0.00000000000E+00  0.00000000000E+00 -0.42406682384E+03  0.18490389472E+04  0.17997534156E+04 0.  0.
        1    1    3    3  502    0  0.19416384183E+03  0.50681482383E+03  0.52540921884E+03  0.75539109764E+03  0.50400001928E-02 0. -1.
       -1    1    3    3    0  502 -0.19416384183E+03 -0.50681482383E+03 -0.94947604268E+03  0.10936478495E+04  0.50400001928E-02 0.  1.
</event>
<event>
 5   0  0.4987456E-06  0.1800452E+04  0.7818609E-02  0.8706059E-01
        1   -1    0    0  501    0  0.00000000000E+00  0.00000000000E+00  0.10860403009E+04  0.10860403009E+04  0.50400001928E-02 0.  1.
       -1   -1    0    0    0  501  0.00000000000E+00  0.00000000000E+00 -0.74620318109E+03  0.74620318111E+03  0.50400001928E-02 0. -1.
    10030    2    1    2    0    0  0.00000000000E+00  0.00000000000E+00  0.33983711978E+03  0.18322434820E+04  0.18004518625E+04 0.  0.
        3    1    3    3  502    0  0.16521741363E+03  0.62271355733E+03  0.80977981490E+03  0.10348006219E+04  0.10100000352E+00 0.  1.
       -3    1    3    3    0  502 -0.16521741363E+03 -0.62271355733E+03 -0.46994269511E+03  0.79744286011E+03  0.10100000352E+00 0. -1.
</event>
<event>
 5   0  0.1036381E-05  0.1799614E+04  0.7818609E-02  0.8706505E-01
        2   -1    0    0  501    0  0.00000000000E+00  0.00000000000E+00  0.16022346362E+04  0.16022346362E+04  0.25500000920E-02 0.  1.
       -2   -1    0    0    0  501  0.00000000000E+00  0.00000000000E+00 -0.50532699443E+03  0.50532699444E+03  0.25500000920E-02 0. -1.
    10030    2    1    2    0    0  0.00000000000E+00  0.00000000000E+00  0.10969076417E+04  0.21075616306E+04  0.17996137509E+04 0.  0.
        4    1    3    3  502    0  0.47181094478E+03 -0.72457619087E+03  0.25676627252E+03  0.90196826751E+03  0.12699999809E+01 0. -1.
       -4    1    3    3    0  502 -0.47181094478E+03  0.72457619087E+03  0.84014136920E+03  0.12055933631E+04  0.12699999809E+01 0.  1.
</event>
<event>
 5   0  0.3626125E-06  0.1800308E+04  0.7818609E-02  0.8706136E-01
       -4   -1    0    0    0  501  0.00000000000E+00  0.00000000000E+00  0.67281740539E+03  0.67281860401E+03  0.12699999809E+01 0. -1.
        4   -1    0    0  501    0  0.00000000000E+00  0.00000000000E+00 -0.12043015195E+04  0.12043021892E+04  0.12699999809E+01 0.  1.
    10030    2    1    2    0    0  0.00000000000E+00  0.00000000000E+00 -0.53148411415E+03  0.18771207932E+04  0.18003075039E+04 0.  0.
        4    1    3    3  502    0 -0.36975707796E+03  0.64344886232E+03 -0.79691751116E+03  0.10889563203E+04  0.12699999809E+01 0.  1.
       -4    1    3    3    0  502  0.36975707796E+03 -0.64344886232E+03  0.26543339701E+03  0.78816447285E+03  0.12699999809E+01 0. -1.
</event>
<event>
 5   0  0.9999162E-06  0.1800184E+04  0.7818609E-02  0.8706202E-01
       -2   -1    0    0    0  501  0.00000000000E+00  0.00000000000E+00  0.52936512082E+03  0.52936512082E+03  0.25500000920E-02 0. -1.
        2   -1    0    0  501    0  0.00000000000E+00  0.00000000000E+00 -0.15304478601E+04  0.15304478601E+04  0.25500000920E-02 0.  1.
    10030    2    1    2    0    0  0.00000000000E+00  0.00000000000E+00 -0.10010827393E+04  0.20598129810E+04  0.18001841199E+04 0.  0.
        1    1    3    3  502    0  0.27169296974E+03  0.23876417367E+03 -0.14436344511E+04  0.14882559689E+04  0.50400001928E-02 0.  1.
       -1    1    3    3    0  502 -0.27169296974E+03 -0.23876417367E+03  0.44255171179E+03  0.57155701209E+03  0.50400001928E-02 0. -1.
</event>
<event>
 5   0  0.1000316E-05  0.1795804E+04  0.7818609E-02  0.8708534E-01
       -2   -1    0    0    0  501  0.00000000000E+00  0.00000000000E+00  0.50581638497E+03  0.50581638497E+03  0.25500000920E-02 0.  1.
        2   -1    0    0  501    0  0.00000000000E+00  0.00000000000E+00 -0.15939140462E+04  0.15939140462E+04  0.25500000920E-02 0. -1.
    10030    2    1    2    0    0  0.00000000000E+00  0.00000000000E+00 -0.10880976613E+04  0.20997304312E+04  0.17958038209E+04 0.  0.
        5    1    3    3  502    0 -0.35138645230E+03  0.40597552536E+02 -0.15090000451E+04  0.15499109091E+04  0.46999998093E+01 0. -1.
       -5    1    3    3    0  502  0.35138645230E+03 -0.40597552536E+02  0.42090238384E+03  0.54981952207E+03  0.46999998093E+01 0.  1.
</event>
<event>
 5   0  0.1036381E-05  0.1800672E+04  0.7818609E-02  0.8705942E-01
        2   -1    0    0  501    0  0.00000000000E+00  0.00000000000E+00  0.13754301483E+04  0.13754301483E+04  0.25500000920E-02 0. -1.
       -2   -1    0    0    0  501  0.00000000000E+00  0.00000000000E+00 -0.58934634125E+03  0.58934634125E+03  0.25500000920E-02 0.  1.
    10030    2    1    2    0    0  0.00000000000E+00  0.00000000000E+00  0.78608380707E+03  0.19647764896E+04  0.18006717919E+04 0.  0.
        4    1    3    3  502    0  0.84428949708E+03 -0.15114065337E+03  0.94351999331E+02  0.86288595113E+03  0.12699999809E+01 0.  1.
       -4    1    3    3    0  502 -0.84428949708E+03  0.15114065337E+03  0.69173180774E+03  0.11018905384E+04  0.12699999809E+01 0. -1.
</event>
<event>
 5   0  0.4987456E-06  0.1799936E+04  0.7818609E-02  0.8706333E-01
       -1   -1    0    0    0  501  0.00000000000E+00  0.00000000000E+00  0.68290471674E+03  0.68290471676E+03  0.50400001928E-02 0.  1.
        1   -1    0    0  501    0  0.00000000000E+00  0.00000000000E+00 -0.11860259192E+04  0.11860259192E+04  0.50400001928E-02 0. -1.
    10030    2    1    2    0    0  0.00000000000E+00  0.00000000000E+00 -0.50312120243E+03  0.18689306359E+04  0.17999363260E+04 0.  0.
        3    1    3    3  502    0 -0.30425576444E+03  0.65775197794E+03 -0.80561867271E+03  0.10836192554E+04  0.10100000352E+00 0. -1.
       -3    1    3    3    0  502  0.30425576444E+03 -0.65775197794E+03  0.30249747028E+03  0.78531138054E+03  0.10100000352E+00 0.  1.
</event>
<event>
 5   0  0.4987456E-06  0.1800076E+04  0.7818609E-02  0.8706259E-01
       -1   -1    0    0    0  501  0.00000000000E+00  0.00000000000E+00  0.41855767548E+03  0.41855767551E+03  0.50400001928E-02 0.  1.
        1   -1    0    0  501    0  0.00000000000E+00  0.00000000000E+00 -0.19353797600E+04  0.19353797600E+04  0.50400001928E-02 0. -1.
    10030    2    1    2    0    0  0.00000000000E+00  0.00000000000E+00 -0.15168220845E+04  0.23539374355E+04  0.18000756135E+04 0.  0.
        3    1    3    3  502    0 -0.26337351768E+03  0.85296342683E+03 -0.90840136104E+03  0.12736189620E+04  0.10100000352E+00 0.  1.
       -3    1    3    3    0  502  0.26337351768E+03 -0.85296342683E+03 -0.60842072346E+03  0.10803184735E+04  0.10100000352E+00 0. -1.
</event>
<event>
 5   0  0.1035018E-05  0.1799349E+04  0.7818609E-02  0.8706646E-01
        2   -1    0    0  501    0  0.00000000000E+00  0.00000000000E+00  0.15568633852E+04  0.15568633852E+04  0.25500000920E-02 0.  1.
       -2   -1    0    0    0  501  0.00000000000E+00  0.00000000000E+00 -0.51990068292E+03  0.51990068293E+03  0.25500000920E-02 0. -1.
    10030    2    1    2    0    0  0.00000000000E+00  0.00000000000E+00  0.10369627023E+04  0.20767640682E+04  0.17993491459E+04 0.  0.
        3    1    3    3  502    0 -0.73993467297E+03  0.51022565372E+03  0.47259234237E+03  0.10154688918E+04  0.10100000352E+00 0.  1.
       -3    1    3    3    0  502  0.73993467297E+03 -0.51022565372E+03  0.56437035995E+03  0.10612951764E+04  0.10100000352E+00 0. -1.
</event>
<event>
 5   0  0.1036381E-05  0.1799484E+04  0.7818609E-02  0.8706574E-01
        2   -1    0    0  501    0  0.00000000000E+00  0.00000000000E+00  0.14710911648E+04  0.14710911648E+04  0.25500000920E-02 0. -1.
       -2   -1    0    0    0  501  0.00000000000E+00  0.00000000000E+00 -0.55029614264E+03  0.55029614265E+03  0.25500000920E-02 0.  1.
    10030    2    1    2    0    0  0.00000000000E+00  0.00000000000E+00  0.92079502219E+03  0.20213873075E+04  0.17994841411E+04 0.  0.
        4    1    3    3  502    0  0.75486705773E+03 -0.16001061437E+03 -0.59378756318E+02  0.77392190896E+03  0.12699999809E+01 0.  1.
       -4    1    3    3    0  502 -0.75486705773E+03  0.16001061437E+03  0.98017377851E+03  0.12474653985E+04  0.12699999809E+01 0. -1.
</event>
<event>
 5   0  0.4953155E-06  0.1800222E+04  0.7818609E-02  0.8706181E-01
        1   -1    0    0  501    0  0.00000000000E+00  0.00000000000E+00  0.47562263725E+03  0.47562263728E+03  0.50400001928E-02 0. -1.
       -1   -1    0    0    0  501  0.00000000000E+00  0.00000000000E+00 -0.17034514851E+04  0.17034514852E+04  0.50400001928E-02 0.  1.
    10030    2    1    2    0    0  0.00000000000E+00  0.00000000000E+00 -0.12278288479E+04  0.21790741224E+04  0.18002223061E+04 0.  0.
        2    1    3    3  502    0 -0.12481994184E+03 -0.57329519031E+03  0.21234567083E+03  0.62396961227E+03  0.25500000920E-02 0. -1.
       -2    1    3    3    0  502  0.12481994184E+03  0.57329519031E+03 -0.14401745187E+04  0.15551045102E+04  0.25500000920E-02 0.  1.
</event>
<event>
 5   0  0.4994123E-06  0.1799422E+04  0.7818609E-02  0.8706607E-01
        1   -1    0    0  501    0  0.00000000000E+00  0.00000000000E+00  0.70975071572E+03  0.70975071574E+03  0.50400001928E-02 0.  1.
       -1   -1    0    0    0  501  0.00000000000E+00  0.00000000000E+00 -0.11405124985E+04  0.11405124986E+04  0.50400001928E-02 0. -1.
    10030    2    1    2    0    0  0.00000000000E+00  0.00000000000E+00 -0.43076178283E+03  0.18502632143E+04  0.17994216428E+04 0.  0.
        1    1    3    3  502    0 -0.50721658328E+03 -0.72249909393E+02 -0.97586580987E+03  0.11021809247E+04  0.50400001928E-02 0. -1.
       -1    1    3    3    0  502  0.50721658328E+03  0.72249909393E+02  0.54510402705E+03  0.74808228965E+03  0.50400001928E-02 0.  1.
</event>
<event>
 5   0  0.4953155E-06  0.1800125E+04  0.7818609E-02  0.8706233E-01
        1   -1    0    0  501    0  0.00000000000E+00  0.00000000000E+00  0.16699355193E+04  0.16699355193E+04  0.50400001928E-02 0.  1.
       -1   -1    0    0    0  501  0.00000000000E+00  0.00000000000E+00 -0.48511613027E+03  0.48511613029E+03  0.50400001928E-02 0. -1.
    10030    2    1    2    0    0  0.00000000000E+00  0.00000000000E+00  0.11848193890E+04  0.21550516496E+04  0.18001251700E+04 0.  0.
        2    1    3    3  502    0 -0.26792753600E+01  0.11401860394E+03 -0.47643057998E+03  0.48989133296E+03  0.25500000920E-02 0. -1.
       -2    1    3    3    0  502  0.26792753600E+01 -0.11401860394E+03  0.16612499690E+04  0.16651603166E+04  0.25500000920E-02 0.  1.
</event>
<event>
 5   0  0.1036381E-05  0.1799084E+04  0.7818609E-02  0.8706787E-01
       -2   -1    0    0    0  501  0.00000000000E+00  0.00000000000E+00  0.12003782119E+04  0.12003782119E+04  0.25500000920E-02 0. -1.
        2   -1    0    0  501    0  0.00000000000E+00  0.00000000000E+00 -0.67410051364E+03  0.67410051364E+03  0.25500000920E-02 0.  1.
    10030    2    1    2    0    0  0.00000000000E+00  0.00000000000E+00  0.52627769829E+03  0.18744787256E+04  0.17990837326E+04 0.  0.
        4    1    3    3  502    0 -0.56241365940E+02 -0.77501231791E+03 -0.20902662547E+03  0.80467442311E+03  0.12699999809E+01 0.  1.
       -4    1    3    3    0  502  0.56241365940E+02  0.77501231791E+03  0.73530432376E+03  0.10698043025E+04  0.12699999809E+01 0. -1.
</event>
<event>
 5   0  0.1036381E-05  0.1800198E+04  0.7818609E-02  0.8706194E-01
        2   -1    0    0  501    0  0.00000000000E+00  0.00000000000E+00  0.11615644835E+04  0.11615644835E+04  0.25500000920E-02 0.  1.
       -2   -1    0    0    0  501  0.00000000000E+00  0.00000000000E+00 -0.69748862649E+03  0.69748862650E+03  0.25500000920E-02 0. -1.
    10030    2    1    2    0    0  0.00000000000E+00  0.00000000000E+00  0.46407585705E+03  0.18590531100E+04  0.18001977849E+04 0.  0.
        4    1    3    3  502    0 -0.79837121507E+03 -0.17401422008E+02 -0.19684342495E+03  0.82246480374E+03  0.12699999809E+01 0. -1.
       -4    1    3    3    0  502  0.79837121507E+03  0.17401422008E+02  0.66091928200E+03  0.10365883063E+04  0.12699999809E+01 0.  1.
</event>
<event>
 5   0  0.1000316E-05  0.1800091E+04  0.7818609E-02  0.8706251E-01
        2   -1    0    0  501    0  0.00000000000E+00  0.00000000000E+00  0.11745007825E+04  0.11745007825E+04  0.25500000920E-02 0. -1.
       -2   -1    0    0    0  501  0.00000000000E+00  0.00000000000E+00 -0.68972427726E+03  0.68972427727E+03  0.25500000920E-02 0.  1.
    10030    2    1    2    0    0  0.00000000000E+00  0.00000000000E+00  0.48477650522E+03  0.18642250598E+04  0.18000907792E+04 0.  0.
        5    1    3    3  502    0  0.13948181825E+03  0.81079422709E+03  0.62038147694E+03  0.10304065815E+04  0.46999998093E+01 0.  1.
       -5    1    3    3    0  502 -0.13948181825E+03 -0.81079422709E+03 -0.13560497172E+03  0.83381847824E+03  0.46999998093E+01 0. -1.
</event>
<event>
 5   0  0.4987456E-06  0.1799814E+04  0.7818609E-02  0.8706398E-01
       -1   -1    0    0    0  501  0.00000000000E+00  0.00000000000E+00  0.60281435534E+03  0.60281435536E+03  0.50400001928E-02 0. -1.
        1   -1    0    0  501    0  0.00000000000E+00  0.00000000000E+00 -0.13434202596E+04  0.13434202596E+04  0.50400001928E-02 0.  1.
    10030    2    1    2    0    0  0.00000000000E+00  0.00000000000E+00 -0.74060590422E+03  0.19462346149E+04  0.17998144546E+04 0.  0.
        3    1    3    3  502    0 -0.46091765330E+02  0.47311735038E+03  0.45597276700E+03  0.65869238079E+03  0.10100000352E+00 0. -1.
       -3    1    3    3    0  502  0.46091765330E+02 -0.47311735038E+03 -0.11965786712E+04  0.12875422341E+04  0.10100000352E+00 0.  1.
</event>
<event>
 5   0  0.4953155E-06  0.1799639E+04  0.7818609E-02  0.8706492E-01
        1   -1    0    0  501    0  0.00000000000E+00  0.00000000000E+00  0.84857125167E+03  0.84857125168E+03  0.50400001928E-02 0.  1.
       -1   -1    0    0    0  501  0.00000000000E+00  0.00000000000E+00 -0.95416242689E+03  0.95416242690E+03  0.50400001928E-02 0. -1.
    10030    2    1    2    0    0  0.00000000000E+00  0.00000000000E+00 -0.10559117522E+03  0.18027336786E+04  0.17996386358E+04 0.  0.
        2    1    3    3  502    0  0.13549132683E+03 -0.88581286064E+03 -0.13449860413E+03  0.90615241446E+03  0.25500000920E-02 0. -1.
       -2    1    3    3    0  502 -0.13549132683E+03  0.88581286064E+03  0.28907428907E+02  0.89658126412E+03  0.25500000920E-02 0.  1.
</event>
<event>
 5   0  0.9999162E-06  0.1799899E+04  0.7818609E-02  0.8706353E-01
       -2   -1    0    0    0  501  0.00000000000E+00  0.00000000000E+00  0.47343020175E+03  0.47343020176E+03  0.25500000920E-02 0.  1.
        2   -1    0    0  501    0  0.00000000000E+00  0.00000000000E+00 -0.17107252366E+04  0.17107252366E+04  0.25500000920E-02 0. -1.
    10030    2    1    2    0    0  0.00000000000E+00  0.00000000000E+00 -0.12372950348E+04  0.21841554383E+04  0.17998988793E+04 0.  0.
        1    1    3    3  502    0 -0.86198156596E+02  0.91643548874E+00  0.46840871885E+03  0.47627480510E+03  0.50400001928E-02 0.  1.
       -1    1    3    3    0  502  0.86198156596E+02 -0.91643548874E+00 -0.17057037537E+04  0.17078806333E+04  0.50400001928E-02 0. -1.
</event>
<event>
 5   0  0.4983159E-06  0.1800596E+04  0.7818609E-02  0.8705983E-01
       -1   -1    0    0    0  501  0.00000000000E+00  0.00000000000E+00  0.14119616982E+04  0.14119616982E+04  0.50400001928E-02 0. -1.
        1   -1    0    0  501    0  0.00000000000E+00  0.00000000000E+00 -0.57404990309E+03  0.57404990312E+03  0.50400001928E-02 0.  1.
    10030    2    1    2    0    0  0.00000000000E+00  0.00000000000E+00  0.83791179513E+03  0.19860116013E+04  0.18005959859E+04 0.  0.
        4    1    3    3  502    0  0.42888053499E+03 -0.76578163540E+02 -0.45003978350E+03  0.62637061557E+03  0.12699999809E+01 0.  1.
       -4    1    3    3    0  502 -0.42888053499E+03  0.76578163540E+02  0.12879515786E+04  0.13596409858E+04  0.12699999809E+01 0. -1.
</event>
<event>
 5   0  0.1036381E-05  0.1799973E+04  0.7818609E-02  0.8706314E-01
        2   -1    0    0  501    0  0.00000000000E+00  0.00000000000E+00  0.14894261328E+04  0.14894261328E+04  0.25500000920E-02 0. -1.
       -2   -1    0    0    0  501  0.00000000000E+00  0.00000000000E+00 -0.54381711907E+03  0.54381711908E+03  0.25500000920E-02 0.  1.
    10030    2    1    2    0    0  0.00000000000E+00  0.00000000000E+00  0.94560901372E+03  0.20332432519E+04  0.17999726982E+04 0.  0.
        4    1    3    3  502    0  0.22309570688E+03  0.30098314141E+03  0.13971510023E+04  0.14465113487E+04  0.12699999809E+01 0. -1.
       -4    1    3    3    0  502 -0.22309570688E+03 -0.30098314141E+03 -0.45154198857E+03  0.58673190316E+03  0.12699999809E+01 0.  1.
</event>
<event>
 5   0  0.3626125E-06  0.1798847E+04  0.7818609E-02  0.8706913E-01
       -3   -1    0    0    0  501  0.00000000000E+00  0.00000000000E+00  0.50389894956E+03  0.50389895968E+03  0.10100000352E+00 0. -1.
        3   -1    0    0  501    0  0.00000000000E+00  0.00000000000E+00 -0.16054064749E+04  0.16054064781E+04  0.10100000352E+00 0.  1.
    10030    2    1    2    0    0  0.00000000000E+00  0.00000000000E+00 -0.11015075253E+04  0.21093054377E+04  0.17988470200E+04 0.  0.
        5    1    3    3  502    0 -0.63118010662E+03 -0.63742940312E+03 -0.62707100565E+03  0.10945066044E+04  0.46999998093E+01 0. -1.
       -5    1    3    3    0  502  0.63118010662E+03  0.63742940312E+03 -0.47443651968E+03  0.10147988333E+04  0.46999998093E+01 0.  1.
</event>
<event>
 5   0  0.9589963E-06  0.1798499E+04  0.7818609E-02  0.8707098E-01
        2   -1    0    0  501    0  0.00000000000E+00  0.00000000000E+00  0.16474213062E+04  0.16474213062E+04  0.25500000920E-02 0. -1.
       -2   -1    0    0    0  501  0.00000000000E+00  0.00000000000E+00 -0.49085803345E+03  0.49085803346E+03  0.25500000920E-02 0.  1.
    10030    2    1    2    0    0  0.00000000000E+00  0.00000000000E+00  0.11565632727E+04  0.21382793396E+04  0.17984993551E+04 0.  0.
        2    1    3    3  502    0 -0.64217841249E+03 -0.16078960122E+03 -0.14530699886E+03  0.67776141322E+03  0.25500000920E-02 0.  1.
       -2    1    3    3    0  502  0.64217841249E+03  0.16078960122E+03  0.13018702716E+04  0.14605179264E+04  0.25500000920E-02 0. -1.
</event>
<event>
 5   0  0.4983159E-06  0.1796052E+04  0.7818609E-02  0.8708402E-01
        1   -1    0    0  501    0  0.00000000000E+00  0.00000000000E+00  0.87895472215E+03  0.87895472216E+03  0.50400001928E-02 0. -1.
       -1   -1    0    0    0  501  0.00000000000E+00  0.00000000000E+00 -0.91751118989E+03  0.91751118991E+03  0.50400001928E-02 0.  1.
    10030    2    1    2    0    0  0.00000000000E+00  0.00000000000E+00 -0.38556467746E+02  0.17964659121E+04  0.17960521073E+04 0.  0.
        4    1    3    3  502    0 -0.73464498657E+03 -0.91622074937E+02  0.48912158870E+03  0.88732147632E+03  0.12699999809E+01 0. -1.
       -4    1    3    3    0  502  0.73464498657E+03  0.91622074937E+02 -0.52767805645E+03  0.90914443575E+03  0.12699999809E+01 0.  1.
</event>
<event>
 5   0  0.1036381E-05  0.1798339E+04  0.7818609E-02  0.8707183E-01
        2   -1    0    0  501    0  0.00000000000E+00  0.00000000000E+00  0.11218354392E+04  0.11218354392E+04  0.25500000920E-02 0.  1.
       -2   -1    0    0    0  501  0.00000000000E+00  0.00000000000E+00 -0.72069877738E+03  0.72069877738E+03  0.25500000920E-02 0. -1.
    10030    2    1    2    0    0  0.00000000000E+00  0.00000000000E+00  0.40113666179E+03  0.18425342166E+04  0.17983385993E+04 0.  0.
        4    1    3    3  502    0 -0.39290752199E+03 -0.90562233217E+02  0.10240149887E+04  0.11005390265E+04  0.12699999809E+01 0.  1.
       -4    1    3    3    0  502  0.39290752199E+03  0.90562233217E+02 -0.62287832694E+03  0.74199519001E+03  0.12699999809E+01 0. -1.
</event>
<event>
 5   0  0.4987456E-06  0.1812019E+04  0.7818609E-02  0.8699934E-01
       -1   -1    0    0    0  501  0.00000000000E+00  0.00000000000E+00  0.11224979386E+04  0.11224979386E+04  0.50400001928E-02 0.  1.
        1   -1    0    0  501    0  0.00000000000E+00  0.00000000000E+00 -0.73127394601E+03  0.73127394603E+03  0.50400001928E-02 0. -1.
    10030    2    1    2    0    0  0.00000000000E+00  0.00000000000E+00  0.39122399254E+03  0.18537718846E+04  0.18120193122E+04 0.  0.
        3    1    3    3  502    0 -0.14080520985E+03  0.81911646070E+03 -0.17335829049E+03  0.84901766200E+03  0.10100000352E+00 0. -1.
       -3    1    3    3    0  502  0.14080520985E+03 -0.81911646070E+03  0.56458228303E+03  0.10047542226E+04  0.10100000352E+00 0.  1.
</event>
<event>
 5   0  0.1000316E-05  0.1798471E+04  0.7818609E-02  0.8707113E-01
       -2   -1    0    0    0  501  0.00000000000E+00  0.00000000000E+00  0.11297607000E+04  0.11297607000E+04  0.25500000920E-02 0. -1.
        2   -1    0    0  501    0  0.00000000000E+00  0.00000000000E+00 -0.71574853793E+03  0.71574853793E+03  0.25500000920E-02 0.  1.
    10030    2    1    2    0    0  0.00000000000E+00  0.00000000000E+00  0.41401216204E+03  0.18455092379E+04  0.17984710943E+04 0.  0.
        5    1    3    3  502    0  0.86643299611E+03  0.19262424778E+03  0.59039575188E+02  0.88956056512E+03  0.46999998093E+01 0.  1.
       -5    1    3    3    0  502 -0.86643299611E+03 -0.19262424778E+03  0.35497258685E+03  0.95594867279E+03  0.46999998093E+01 0. -1.
</event>
<event>
 5   0  0.1000316E-05  0.1801742E+04  0.7818609E-02  0.8705374E-01
       -2   -1    0    0    0  501  0.00000000000E+00  0.00000000000E+00  0.50914537864E+03  0.50914537865E+03  0.25500000920E-02 0.  1.
        2   -1    0    0  501    0  0.00000000000E+00  0.00000000000E+00 -0.15939816262E+04  0.15939816262E+04  0.25500000920E-02 0. -1.
    10030    2    1    2    0    0  0.00000000000E+00  0.00000000000E+00 -0.10848362476E+04  0.21031270049E+04  0.18017418002E+04 0.  0.
        5    1    3    3  502    0 -0.36288664874E+03 -0.44173417119E+03  0.27026850642E+03  0.63236299180E+03  0.46999998093E+01 0.  1.
       -5    1    3    3    0  502  0.36288664874E+03  0.44173417119E+03 -0.13551047540E+04  0.14707640131E+04  0.46999998093E+01 0. -1.
</event>
<event>
 5   0  0.9999162E-06  0.1798262E+04  0.7818609E-02  0.8707224E-01
       -2   -1    0    0    0  501  0.00000000000E+00  0.00000000000E+00  0.75744270067E+03  0.75744270068E+03  0.25500000920E-02 0.  1.
        2   -1    0    0  501    0  0.00000000000E+00  0.00000000000E+00 -0.10673234483E+04  0.10673234483E+04  0.25500000920E-02 0. -1.
    10030    2    1    2    0    0  0.00000000000E+00  0.00000000000E+00 -0.30988074758E+03  0.18247661489E+04  0.17982617775E+04 0.  0.
        1    1    3    3  502    0 -0.28603380147E+03  0.77940379882E+03  0.19532940703E+03  0.85290045989E+03  0.50400001928E-02 0.  1.
       -1    1    3    3    0  502  0.28603380147E+03 -0.77940379882E+03 -0.50521015462E+03  0.97186568905E+03  0.50400001928E-02 0. -1.
</event>
<event>
 5   0  0.4983159E-06  0.1799352E+04  0.7818609E-02  0.8706644E-01
       -1   -1    0    0    0  501  0.00000000000E+00  0.00000000000E+00  0.10948308607E+04  0.10948308607E+04  0.50400001928E-02 0. -1.
        1   -1    0    0  501    0  0.00000000000E+00  0.00000000000E+00 -0.73930752423E+03  0.73930752425E+03  0.50400001928E-02 0.  1.
    10030    2    1    2    0    0  0.00000000000E+00  0.00000000000E+00  0.35552333651E+03  0.18341383850E+04  0.17993517645E+04 0.  0.
        4    1    3    3  502    0  0.22965225492E+03 -0.60551589981E+03  0.81435557999E+03  0.10404644572E+04  0.12699999809E+01 0. -1.
       -4    1    3    3    0  502 -0.22965225492E+03  0.60551589981E+03 -0.45883224348E+03  0.79367392780E+03  0.12699999809E+01 0.  1.
</event>
<event>
 5   0  0.4987456E-06  0.1800283E+04  0.7818609E-02  0.8706149E-01
        1   -1    0    0  501    0  0.00000000000E+00  0.00000000000E+00  0.14158362542E+04  0.14158362542E+04  0.50400001928E-02 0.  1.
       -1   -1    0    0    0  501  0.00000000000E+00  0.00000000000E+00 -0.57228005295E+03  0.57228005297E+03  0.50400001928E-02 0. -1.
    10030    2    1    2    0    0  0.00000000000E+00  0.00000000000E+00  0.84355620127E+03  0.19881163072E+04  0.18002831406E+04 0.  0.
        3    1    3    3  502    0 -0.19713805257E+02 -0.69513381100E+03 -0.20939103357E+03  0.72625358137E+03  0.10100000352E+00 0. -1.
       -3    1    3    3    0  502  0.19713805257E+02  0.69513381100E+03  0.10529472348E+04  0.12618627258E+04  0.10100000352E+00 0.  1.
</event>
<event>
 5   0  0.4987456E-06  0.1799088E+04  0.7818609E-02  0.8706785E-01
        1   -1    0    0  501    0  0.00000000000E+00  0.00000000000E+00  0.28359586531E+04  0.28359586531E+04  0.50400001928E-02 0.  1.
       -1   -1    0    0    0  501  0.00000000000E+00  0.00000000000E+00 -0.28532823289E+03  0.28532823293E+03  0.50400001928E-02 0. -1.
    10030    2    1    2    0    0  0.00000000000E+00  0.00000000000E+00  0.25506304202E+04  0.31212868860E+04  0.17990876255E+04 0.  0.
        3    1    3    3  502    0  0.67122866980E+03 -0.18293316015E+02  0.23138059949E+04  0.24092697576E+04  0.10100000352E+00 0.  1.
       -3    1    3    3    0  502 -0.67122866980E+03  0.18293316015E+02  0.23682442531E+03  0.71201712844E+03  0.10100000352E+00 0. -1.
</event>
<event>
 5   0  0.1036381E-05  0.1799379E+04  0.7818609E-02  0.8706630E-01
       -2   -1    0    0    0  501  0.00000000000E+00  0.00000000000E+00  0.59444971343E+03  0.59444971343E+03  0.25500000920E-02 0. -1.
        2   -1    0    0  501    0  0.00000000000E+00  0.00000000000E+00 -0.13616643592E+04  0.13616643592E+04  0.25500000920E-02 0.  1.
    10030    2    1    2    0    0  0.00000000000E+00  0.00000000000E+00 -0.76721464579E+03  0.19561140727E+04  0.17993787685E+04 0.  0.
        4    1    3    3  502    0  0.57188208474E+03  0.44754707522E+03  0.19377950508E+03  0.75159803943E+03  0.12699999809E+01 0. -1.
       -4    1    3    3    0  502 -0.57188208474E+03 -0.44754707522E+03 -0.96099415087E+03  0.12045160332E+04  0.12699999809E+01 0.  1.
</event>
<event>
 5   0  0.4981384E-06  0.1800643E+04  0.7818609E-02  0.8705958E-01
        1   -1    0    0  501    0  0.00000000000E+00  0.00000000000E+00  0.17009688719E+04  0.17009688719E+04  0.50400001928E-02 0. -1.
       -1   -1    0    0    0  501  0.00000000000E+00  0.00000000000E+00 -0.47653947513E+03  0.47653947515E+03  0.50400001928E-02 0.  1.
    10030    2    1    2    0    0  0.00000000000E+00  0.00000000000E+00  0.12244293968E+04  0.21775083471E+04  0.18006430112E+04 0.  0.
        5    1    3    3  502    0 -0.72772020851E+03 -0.44283310067E+03  0.96453039651E+03  0.12868639527E+04  0.46999998093E+01 0. -1.
       -5    1    3    3    0  502  0.72772020851E+03  0.44283310067E+03  0.25989900028E+03  0.89064439440E+03  0.46999998093E+01 0.  1.
</event>
<event>
 5   0  0.4983159E-06  0.1801492E+04  0.7818609E-02  0.8705506E-01
       -1   -1    0    0    0  501  0.00000000000E+00  0.00000000000E+00  0.47374491566E+03  0.47374491568E+03  0.50400001928E-02 0.  1.
        1   -1    0    0  501    0  0.00000000000E+00  0.00000000000E+00 -0.17126168402E+04  0.17126168402E+04  0.50400001928E-02 0. -1.
    10030    2    1    2    0    0  0.00000000000E+00  0.00000000000E+00 -0.12388719245E+04  0.21863617559E+04  0.18014921821E+04 0.  0.
        4    1    3    3  502    0 -0.51593505882E+03 -0.10385752234E+03 -0.15066109059E+04  0.15958864009E+04  0.12699999809E+01 0. -1.
       -4    1    3    3    0  502  0.51593505882E+03  0.10385752234E+03  0.26773898133E+03  0.59047535502E+03  0.12699999809E+01 0.  1.
</event>
<event>
 5   0  0.4953155E-06  0.1798623E+04  0.7818609E-02  0.8707032E-01
       -1   -1    0    0    0  501  0.00000000000E+00  0.00000000000E+00  0.76070239822E+03  0.76070239823E+03  0.50400001928E-02 0. -1.
        1   -1    0    0  501    0  0.00000000000E+00  0.00000000000E+00 -0.10631770141E+04  0.10631770141E+04  0.50400001928E-02 0.  1.
    10030    2    1    2    0    0  0.00000000000E+00  0.00000000000E+00 -0.30247461587E+03  0.18238794123E+04  0.17986231449E+04 0.  0.
        2    1    3    3  502    0 -0.79441048180E+03 -0.38780693921E+03  0.16245684932E+02  0.88416410127E+03  0.25500000920E-02 0.  1.
       -2    1    3    3    0  502  0.79441048180E+03  0.38780693921E+03 -0.31872030080E+03  0.93971531106E+03  0.25500000920E-02 0. -1.
</event>
<event>
 5   0  0.1035018E-05  0.1800390E+04  0.7818609E-02  0.8706092E-01
       -2   -1    0    0    0  501  0.00000000000E+00  0.00000000000E+00  0.14118459652E+04  0.14118459652E+04  0.25500000920E-02 0.  1.
        2   -1    0    0  501    0  0.00000000000E+00  0.00000000000E+00 -0.57396556692E+03  0.57396556692E+03  0.25500000920E-02 0. -1.
    10030    2    1    2    0    0  0.00000000000E+00  0.00000000000E+00  0.83788039826E+03  0.19858115321E+04  0.18003899242E+04 0.  0.
        3    1    3    3  502    0  0.51470441771E+03 -0.51665446801E+03 -0.16314006085E+03  0.74730660814E+03  0.10100000352E+00 0. -1.
       -3    1    3    3    0  502 -0.51470441771E+03  0.51665446801E+03  0.10010204591E+04  0.12385049240E+04  0.10100000352E+00 0.  1.
</event>
<event>
 5   0  0.1036381E-05  0.1800079E+04  0.7818609E-02  0.8706257E-01
       -2   -1    0    0    0  501  0.00000000000E+00  0.00000000000E+00  0.80066251703E+03  0.80066251704E+03  0.25500000920E-02 0.  1.
        2   -1    0    0  501    0  0.00000000000E+00  0.00000000000E+00 -0.10117513723E+04  0.10117513724E+04  0.25500000920E-02 0. -1.
    10030    2    1    2    0    0  0.00000000000E+00  0.00000000000E+00 -0.21108885532E+03  0.18124138894E+04  0.18000793320E+04 0.  0.
        4    1    3    3  502    0  0.62987031101E+03 -0.13749558151E+03 -0.73788301425E+03  0.97985437655E+03  0.12699999809E+01 0. -1.
       -4    1    3    3    0  502 -0.62987031101E+03  0.13749558151E+03  0.52679415893E+03  0.83255951284E+03  0.12699999809E+01 0.  1.
</event>
<event>
 5   0  0.9999162E-06  0.1800363E+04  0.7818609E-02  0.8706106E-01
       -2   -1    0    0    0  501  0.00000000000E+00  0.00000000000E+00  0.85029928549E+03  0.85029928549E+03  0.25500000920E-02 0. -1.
        2   -1    0    0  501    0  0.00000000000E+00  0.00000000000E+00 -0.95299049281E+03  0.95299049282E+03  0.25500000920E-02 0.  1.
    10030    2    1    2    0    0  0.00000000000E+00  0.00000000000E+00 -0.10269120733E+03  0.18032897783E+04  0.18003634468E+04 0.  0.
        1    1    3    3  502    0 -0.32745700140E+03  0.70626907925E+03 -0.50405706005E+03  0.92742526377E+03  0.50400001928E-02 0.  1.
       -1    1    3    3    0  502  0.32745700140E+03 -0.70626907925E+03  0.40136585272E+03  0.87586451454E+03  0.50400001928E-02 0. -1.
</event>
<event>
 5   0  0.1035018E-05  0.1800253E+04  0.7818609E-02  0.8706165E-01
        2   -1    0    0  501    0  0.00000000000E+00  0.00000000000E+00  0.14210919514E+04  0.14210919514E+04  0.25500000920E-02 0.  1.
       -2   -1    0    0    0  501  0.00000000000E+00  0.00000000000E+00 -0.57014432969E+03  0.57014432970E+03  0.25500000920E-02 0. -1.
    10030    2    1    2    0    0  0.00000000000E+00  0.00000000000E+00  0.85094762170E+03  0.19912362811E+04  0.18002527801E+04 0.  0.
        3    1    3    3  502    0  0.44981274128E+03 -0.34218878325E+03  0.12003687793E+04  0.13267667022E+04  0.10100000352E+00 0.  1.
       -3    1    3    3    0  502 -0.44981274128E+03  0.34218878325E+03 -0.34942115763E+03  0.66446957884E+03  0.10100000352E+00 0. -1.
</event>
<event>
 5   0  0.4981384E-06  0.1800301E+04  0.7818609E-02  0.8706139E-01
       -1   -1    0    0    0  501  0.00000000000E+00  0.00000000000E+00  0.20820255738E+04  0.20820255738E+04  0.50400001928E-02 0.  1.
        1   -1    0    0  501    0  0.00000000000E+00  0.00000000000E+00 -0.38917454076E+03  0.38917454079E+03  0.50400001928E-02 0. -1.
    10030    2    1    2    0    0  0.00000000000E+00  0.00000000000E+00  0.16928510330E+04  0.24712001146E+04  0.18003014709E+04 0.  0.
        5    1    3    3  502    0 -0.21631519974E+03  0.79574453548E+03  0.13418159160E+04  0.15749583086E+04  0.46999998093E+01 0. -1.
       -5    1    3    3    0  502  0.21631519974E+03 -0.79574453548E+03  0.35103511698E+03  0.89624180595E+03  0.46999998093E+01 0.  1.
</event>
<event>
 5   0  0.4983159E-06  0.1800276E+04  0.7818609E-02  0.8706153E-01
        1   -1    0    0  501    0  0.00000000000E+00  0.00000000000E+00  0.82235987752E+03  0.82235987754E+03  0.50400001928E-02 0. -1.
       -1   -1    0    0    0  501  0.00000000000E+00  0.00000000000E+00 -0.98527256882E+03  0.98527256884E+03  0.50400001928E-02 0.  1.
    10030    2    1    2    0    0  0.00000000000E+00  0.00000000000E+00 -0.16291269130E+03  0.18076324464E+04  0.18002762333E+04 0.  0.
        4    1    3    3  502    0  0.51602439804E+03  0.16308532454E+03  0.64076644205E+03  0.83872596753E+03  0.12699999809E+01 0. -1.
       -4    1    3    3    0  502 -0.51602439804E+03 -0.16308532454E+03 -0.80367913335E+03  0.96890647884E+03  0.12699999809E+01 0.  1.
</event>
<event>
 5   0  0.4981384E-06  0.1801138E+04  0.7818609E-02  0.8705694E-01
       -1   -1    0    0    0  501  0.00000000000E+00  0.00000000000E+00  0.72211349798E+03  0.72211349800E+03  0.50400001928E-02 0. -1.
        1   -1    0    0  501    0  0.00000000000E+00  0.00000000000E+00 -0.11231264282E+04  0.11231264283E+04  0.50400001928E-02 0.  1.
    10030    2    1    2    0    0  0.00000000000E+00  0.00000000000E+00 -0.40101293026E+03  0.18452399262E+04  0.18011382554E+04 0.  0.
        5    1    3    3  502    0  0.50910195954E+03  0.37070953869E+03  0.45898871999E+03  0.77929654327E+03  0.46999998093E+01 0. -1.
       -5    1    3    3    0  502 -0.50910195954E+03 -0.37070953869E+03 -0.86000165025E+03  0.10659433830E+04  0.46999998093E+01 0.  1.
</event>
<event>
 5   0  0.4994123E-06  0.1800203E+04  0.7818609E-02  0.8706191E-01
       -1   -1    0    0    0  501  0.00000000000E+00  0.00000000000E+00  0.17614975649E+04  0.17614975650E+04  0.50400001928E-02 0.  1.
        1   -1    0    0  501    0  0.00000000000E+00  0.00000000000E+00 -0.45993988035E+03  0.45993988037E+03  0.50400001928E-02 0. -1.
    10030    2    1    2    0    0  0.00000000000E+00  0.00000000000E+00  0.13015576846E+04  0.22214374453E+04  0.18002032988E+04 0.  0.
        1    1    3    3  502    0  0.41943973535E+03 -0.47646608621E+03 -0.13669150089E+03  0.64933365025E+03  0.50400001928E-02 0. -1.
       -1    1    3    3    0  502 -0.41943973535E+03  0.47646608621E+03  0.14382491855E+04  0.15721037951E+04  0.50400001928E-02 0.  1.
</event>
<event>
 5   0  0.1036381E-05  0.1799940E+04  0.7818609E-02  0.8706331E-01
       -2   -1    0    0    0  501  0.00000000000E+00  0.00000000000E+00  0.84732884310E+03  0.84732884311E+03  0.25500000920E-02 0.  1.
        2   -1    0    0  501    0  0.00000000000E+00  0.00000000000E+00 -0.95588199788E+03  0.95588199789E+03  0.25500000920E-02 0. -1.
    10030    2    1    2    0    0  0.00000000000E+00  0.00000000000E+00 -0.10855315478E+03  0.18032108410E+04  0.17999404295E+04 0.  0.
        4    1    3    3  502    0 -0.15008694336E+03  0.79690018687E+03  0.33677709370E+03  0.87806401939E+03  0.12699999809E+01 0.  1.
       -4    1    3    3    0  502  0.15008694336E+03 -0.79690018687E+03 -0.44533024848E+03  0.92514682160E+03  0.12699999809E+01 0. -1.
</event>
<event>
 5   0  0.9999162E-06  0.1798963E+04  0.7818609E-02  0.8706851E-01
       -2   -1    0    0    0  501  0.00000000000E+00  0.00000000000E+00  0.66527480517E+03  0.66527480518E+03  0.25500000920E-02 0. -1.
        2   -1    0    0  501    0  0.00000000000E+00  0.00000000000E+00 -0.12161392302E+04  0.12161392302E+04  0.25500000920E-02 0.  1.
    10030    2    1    2    0    0  0.00000000000E+00  0.00000000000E+00 -0.55086442502E+03  0.18814140354E+04  0.17989628005E+04 0.  0.
        1    1    3    3  502    0  0.32526621537E+03  0.35431925075E+03  0.51948766820E+03  0.70796022470E+03  0.50400001928E-02 0. -1.
       -1    1    3    3    0  502 -0.32526621537E+03 -0.35431925075E+03 -0.10703520932E+04  0.11734538107E+04  0.50400001928E-02 0.  1.
</event>
<event>
 5   0  0.9589963E-06  0.1800095E+04  0.7818609E-02  0.8706249E-01
        2   -1    0    0  501    0  0.00000000000E+00  0.00000000000E+00  0.21933966591E+04  0.21933966591E+04  0.25500000920E-02 0.  1.
       -2   -1    0    0    0  501  0.00000000000E+00  0.00000000000E+00 -0.36932928975E+03  0.36932928976E+03  0.25500000920E-02 0. -1.
    10030    2    1    2    0    0  0.00000000000E+00  0.00000000000E+00  0.18240673693E+04  0.25627259489E+04  0.18000951422E+04 0.  0.
        2    1    3    3  502    0 -0.49443422301E+02 -0.62638427594E+03  0.18294768254E+04  0.19343700184E+04  0.25500000920E-02 0.  1.
       -2    1    3    3    0  502  0.49443422301E+02  0.62638427594E+03 -0.54094560914E+01  0.62835593049E+03  0.25500000920E-02 0. -1.
</event>
<event>
 5   0  0.4987456E-06  0.1799311E+04  0.7818609E-02  0.8706666E-01
       -1   -1    0    0    0  501  0.00000000000E+00  0.00000000000E+00  0.85473529534E+03  0.85473529535E+03  0.50400001928E-02 0.  1.
        1   -1    0    0  501    0  0.00000000000E+00  0.00000000000E+00 -0.94693692604E+03  0.94693692606E+03  0.50400001928E-02 0. -1.
    10030    2    1    2    0    0  0.00000000000E+00  0.00000000000E+00 -0.92201630706E+02  0.18016722214E+04  0.17993114385E+04 0.  0.
        3    1    3    3  502    0  0.72349283063E+03 -0.53394807216E+03 -0.75086736396E+02  0.90231948218E+03  0.10100000352E+00 0.  1.
       -3    1    3    3    0  502 -0.72349283063E+03  0.53394807216E+03 -0.17114894310E+02  0.89935273922E+03  0.10100000352E+00 0. -1.
</event>
<event>
 5   0  0.1035018E-05  0.1799958E+04  0.7818609E-02  0.8706322E-01
        2   -1    0    0  501    0  0.00000000000E+00  0.00000000000E+00  0.77689941599E+03  0.77689941599E+03  0.25500000920E-02 0.  1.
       -2   -1    0    0    0  501  0.00000000000E+00  0.00000000000E+00 -0.10425571655E+04  0.10425571655E+04  0.25500000920E-02 0. -1.
    10030    2    1    2    0    0  0.00000000000E+00  0.00000000000E+00 -0.26565774950E+03  0.18194565815E+04  0.17999578362E+04 0.  0.
        3    1    3    3  502    0  0.51371479529E+03  0.11320867826E+03 -0.87097428613E+03  0.10175044536E+04  0.10100000352E+00 0. -1.
       -3    1    3    3    0  502 -0.51371479529E+03 -0.11320867826E+03  0.60531653663E+03  0.80195212791E+03  0.10100000352E+00 0.  1.
</event>
<event>
 5   0  0.1000316E-05  0.1799658E+04  0.7818609E-02  0.8706482E-01
        2   -1    0    0  501    0  0.00000000000E+00  0.00000000000E+00  0.96384281238E+03  0.96384281239E+03  0.25500000920E-02 0.  1.
       -2   -1    0    0    0  501  0.00000000000E+00  0.00000000000E+00 -0.84006637578E+03  0.84006637579E+03  0.25500000920E-02 0. -1.
    10030    2    1    2    0    0  0.00000000000E+00  0.00000000000E+00  0.12377643660E+03  0.18039091882E+04  0.17996576766E+04 0.  0.
        5    1    3    3  502    0 -0.12279390539E+03 -0.84731904340E+03  0.33938504591E+03  0.92099522469E+03  0.46999998093E+01 0.  1.
       -5    1    3    3    0  502  0.12279390539E+03  0.84731904340E+03 -0.21560860930E+03  0.88291396349E+03  0.46999998093E+01 0. -1.
</event>
<event>
 5   0  0.9999162E-06  0.1800686E+04  0.7818609E-02  0.8705935E-01
       -2   -1    0    0    0  501  0.00000000000E+00  0.00000000000E+00  0.96828762717E+03  0.96828762718E+03  0.25500000920E-02 0.  1.
        2   -1    0    0  501    0  0.00000000000E+00  0.00000000000E+00 -0.83716561340E+03  0.83716561341E+03  0.25500000920E-02 0. -1.
    10030    2    1    2    0    0  0.00000000000E+00  0.00000000000E+00  0.13112201377E+03  0.18054532406E+04  0.18006855421E+04 0.  0.
        1    1    3    3  502    0 -0.24809138629E+03 -0.72913923334E+03 -0.40196078231E+03  0.86877259861E+03  0.50400001928E-02 0.  1.
       -1    1    3    3    0  502  0.24809138629E+03  0.72913923334E+03  0.53308279608E+03  0.93668064198E+03  0.50400001928E-02 0. -1.
</event>
<event>
 5   0  0.4987456E-06  0.1800079E+04  0.7818609E-02  0.8706258E-01
        1   -1    0    0  501    0  0.00000000000E+00  0.00000000000E+00  0.78371997659E+03  0.78371997660E+03  0.50400001928E-02 0.  1.
       -1   -1    0    0    0  501  0.00000000000E+00  0.00000000000E+00 -0.10336227094E+04  0.10336227094E+04  0.50400001928E-02 0. -1.
    10030    2    1    2    0    0  0.00000000000E+00  0.00000000000E+00 -0.24990273278E+03  0.18173426860E+04  0.18000786267E+04 0.  0.
        3    1    3    3  502    0 -0.52117445516E+03  0.49292533083E+03 -0.67373851209E+03  0.98413504529E+03  0.10100000352E+00 0. -1.
       -3    1    3    3    0  502  0.52117445516E+03 -0.49292533083E+03  0.42383577931E+03  0.83320764069E+03  0.10100000352E+00 0.  1.
</event>
<event>
 5   0  0.4983159E-06  0.1800068E+04  0.7818609E-02  0.8706263E-01
       -1   -1    0    0    0  501  0.00000000000E+00  0.00000000000E+00  0.76155261548E+03  0.76155261550E+03  0.50400001928E-02 0.  1.
        1   -1    0    0  501    0  0.00000000000E+00  0.00000000000E+00 -0.10636973022E+04  0.10636973022E+04  0.50400001928E-02 0. -1.
    10030    2    1    2    0    0  0.00000000000E+00  0.00000000000E+00 -0.30214468668E+03  0.18252499177E+04  0.18000682905E+04 0.  0.
        4    1    3    3  502    0  0.20665587999E+03  0.12052883479E+03 -0.10308656628E+04  0.10582624818E+04  0.12699999809E+01 0. -1.
       -4    1    3    3    0  502 -0.20665587999E+03 -0.12052883479E+03  0.72872097615E+03  0.76698743584E+03  0.12699999809E+01 0.  1.
</event>
<event>
 5   0  0.4987456E-06  0.1800365E+04  0.7818609E-02  0.8706105E-01
       -1   -1    0    0    0  501  0.00000000000E+00  0.00000000000E+00  0.89901147046E+03  0.89901147048E+03  0.50400001928E-02 0.  1.
        1   -1    0    0  501    0  0.00000000000E+00  0.00000000000E+00 -0.90135519345E+03  0.90135519346E+03  0.50400001928E-02 0. -1.
    10030    2    1    2    0    0  0.00000000000E+00  0.00000000000E+00 -0.23437229827E+01  0.18003666639E+04  0.18003651384E+04 0.  0.
        3    1    3    3  502    0  0.49856299482E+03 -0.74905085509E+03 -0.27371204002E+02  0.90021743836E+03  0.10100000352E+00 0. -1.
       -3    1    3    3    0  502 -0.49856299482E+03  0.74905085509E+03  0.25027481020E+02  0.90014922558E+03  0.10100000352E+00 0.  1.
</event>
<event>
 5   0  0.1036381E-05  0.1799745E+04  0.7818609E-02  0.8706435E-01
        2   -1    0    0  501    0  0.00000000000E+00  0.00000000000E+00  0.10971831462E+04  0.10971831463E+04  0.25500000920E-02 0.  1.
       -2   -1    0    0    0  501  0.00000000000E+00  0.00000000000E+00 -0.73804471810E+03  0.73804471811E+03  0.25500000920E-02 0. -1.
    10030    2    1    2    0    0  0.00000000000E+00  0.00000000000E+00  0.35913842815E+03  0.18352278644E+04  0.17997446773E+04 0.  0.
        4    1    3    3  502    0 -0.22890806367E+03  0.73124534359E+03 -0.30159177206E+03  0.82345483423E+03  0.12699999809E+01 0. -1.
       -4    1    3    3    0  502  0.22890806367E+03 -0.73124534359E+03  0.66073020021E+03  0.10117730301E+04  0.12699999809E+01 0.  1.
</event>
<event>
 5   0  0.1000316E-05  0.1800062E+04  0.7818609E-02  0.8706266E-01
       -2   -1    0    0    0  501  0.00000000000E+00  0.00000000000E+00  0.63690107618E+03  0.63690107618E+03  0.25500000920E-02 0. -1.
        2   -1    0    0  501    0  0.00000000000E+00  0.00000000000E+00 -0.12718708745E+04  0.12718708745E+04  0.25500000920E-02 0.  1.
    10030    2    1    2    0    0  0.00000000000E+00  0.00000000000E+00 -0.63496979834E+03  0.19087719507E+04  0.18000621420E+04 0.  0.
        5    1    3    3  502    0  0.61428397444E+03 -0.65070021584E+03 -0.41962586728E+03  0.98836406786E+03  0.46999998093E+01 0.  1.
       -5    1    3    3    0  502 -0.61428397444E+03  0.65070021584E+03 -0.21534393106E+03  0.92040788284E+03  0.46999998093E+01 0. -1.
</event>
<event>
 5   0  0.9589963E-06  0.1799902E+04  0.7818609E-02  0.8706352E-01
        2   -1    0    0  501    0  0.00000000000E+00  0.00000000000E+00  0.19817825275E+04  0.19817825275E+04  0.25500000920E-02 0. -1.
       -2   -1    0    0    0  501  0.00000000000E+00  0.00000000000E+00 -0.40867845465E+03  0.40867845466E+03  0.25500000920E-02 0.  1.
    10030    2    1    2    0    0  0.00000000000E+00  0.00000000000E+00  0.15731040728E+04  0.23904609822E+04  0.17999020204E+04 0.  0.
        2    1    3    3  502    0 -0.16376835635E+03  0.88482722209E+03  0.80399696780E+03  0.12067105750E+04  0.25500000920E-02 0.  1.
       -2    1    3    3    0  502  0.16376835635E+03 -0.88482722209E+03  0.76910710504E+03  0.11837504072E+04  0.25500000920E-02 0. -1.
</event>
<event>
 5   0  0.1035018E-05  0.1795080E+04  0.7818609E-02  0.8708920E-01
        2   -1    0    0  501    0  0.00000000000E+00  0.00000000000E+00  0.64866717683E+03  0.64866717683E+03  0.25500000920E-02 0. -1.
       -2   -1    0    0    0  501  0.00000000000E+00  0.00000000000E+00 -0.12418974810E+04  0.12418974810E+04  0.25500000920E-02 0.  1.
    10030    2    1    2    0    0  0.00000000000E+00  0.00000000000E+00 -0.59323030420E+03  0.18905646579E+04  0.17950800906E+04 0.  0.
        3    1    3    3  502    0  0.17768015397E+03 -0.25733658819E+03  0.58943563770E+03  0.66725312883E+03  0.10100000352E+00 0. -1.
       -3    1    3    3    0  502 -0.17768015397E+03  0.25733658819E+03 -0.11826659419E+04  0.12233115290E+04  0.10100000352E+00 0.  1.
</event>
<event>
 5   0  0.9589963E-06  0.1800071E+04  0.7818609E-02  0.8706262E-01
        2   -1    0    0  501    0  0.00000000000E+00  0.00000000000E+00  0.21065511303E+04  0.21065511303E+04  0.25500000920E-02 0. -1.
       -2   -1    0    0    0  501  0.00000000000E+00  0.00000000000E+00 -0.38454526001E+03  0.38454526002E+03  0.25500000920E-02 0.  1.
    10030    2    1    2    0    0  0.00000000000E+00  0.00000000000E+00  0.17220058703E+04  0.24910963903E+04  0.18000713899E+04 0.  0.
        2    1    3    3  502    0 -0.49406461909E+03  0.37094845550E+03 -0.44742373558E+02  0.61943884643E+03  0.25500000920E-02 0.  1.
       -2    1    3    3    0  502  0.49406461909E+03 -0.37094845550E+03  0.17667482438E+04  0.18716575439E+04  0.25500000920E-02 0. -1.
</event>
<event>
 5   0  0.1035018E-05  0.1800574E+04  0.7818609E-02  0.8705994E-01
       -2   -1    0    0    0  501  0.00000000000E+00  0.00000000000E+00  0.43593436669E+03  0.43593436669E+03  0.25500000920E-02 0.  1.
        2   -1    0    0  501    0  0.00000000000E+00  0.00000000000E+00 -0.18592639719E+04  0.18592639719E+04  0.25500000920E-02 0. -1.
    10030    2    1    2    0    0  0.00000000000E+00  0.00000000000E+00 -0.14233296052E+04  0.22951983386E+04  0.18005744218E+04 0.  0.
        3    1    3    3  502    0  0.59774456477E+03 -0.64218971849E+03 -0.45415309503E+03  0.98790750740E+03  0.10100000352E+00 0.  1.
       -3    1    3    3    0  502 -0.59774456477E+03  0.64218971849E+03 -0.96917651018E+03  0.13072908312E+04  0.10100000352E+00 0. -1.
</event>
<event>
 5   0  0.1035018E-05  0.1801328E+04  0.7818609E-02  0.8705593E-01
        2   -1    0    0  501    0  0.00000000000E+00  0.00000000000E+00  0.73747239591E+03  0.73747239592E+03  0.25500000920E-02 0.  1.
       -2   -1    0    0    0  501  0.00000000000E+00  0.00000000000E+00 -0.10999678222E+04  0.10999678222E+04  0.25500000920E-02 0. -1.
    10030    2    1    2    0    0  0.00000000000E+00  0.00000000000E+00 -0.36249542627E+03  0.18374402181E+04  0.18013282935E+04 0.  0.
        3    1    3    3  502    0 -0.59963635411E+02  0.45053339490E+03 -0.97440911620E+03  0.10751972440E+04  0.10100000352E+00 0. -1.
       -3    1    3    3    0  502  0.59963635411E+02 -0.45053339490E+03  0.61191368993E+03  0.76224297413E+03  0.10100000352E+00 0.  1.
</event>
<event>
 5   0  0.9589963E-06  0.1802295E+04  0.7818609E-02  0.8705080E-01
       -2   -1    0    0    0  501  0.00000000000E+00  0.00000000000E+00  0.13849977288E+04  0.13849977288E+04  0.25500000920E-02 0.  1.
        2   -1    0    0  501    0  0.00000000000E+00  0.00000000000E+00 -0.58633074734E+03  0.58633074735E+03  0.25500000920E-02 0. -1.
    10030    2    1    2    0    0  0.00000000000E+00  0.00000000000E+00  0.79866698147E+03  0.19713284762E+04  0.18022949297E+04 0.  0.
        2    1    3    3  502    0  0.78909208610E+03  0.22461157922E+02 -0.76050370851E+02  0.79306650596E+03  0.25500000920E-02 0.  1.
       -2    1    3    3    0  502 -0.78909208610E+03 -0.22461157922E+02  0.87471735232E+03  0.11782619702E+04  0.25500000920E-02 0. -1.
</event>
<event>
 5   0  0.4981384E-06  0.1800715E+04  0.7818609E-02  0.8705919E-01
       -1   -1    0    0    0  501  0.00000000000E+00  0.00000000000E+00  0.37184623712E+03  0.37184623715E+03  0.50400001928E-02 0. -1.
        1   -1    0    0  501    0  0.00000000000E+00  0.00000000000E+00 -0.21800503268E+04  0.21800503268E+04  0.50400001928E-02 0.  1.
    10030    2    1    2    0    0  0.00000000000E+00  0.00000000000E+00 -0.18082040896E+04  0.25518965639E+04  0.18007148700E+04 0.  0.
        5    1    3    3  502    0  0.15670073325E+03  0.19187363780E+03 -0.21307832924E+04  0.21451410541E+04  0.46999998093E+01 0.  1.
       -5    1    3    3    0  502 -0.15670073325E+03 -0.19187363780E+03  0.32257920280E+03  0.40675550981E+03  0.46999998093E+01 0. -1.
</event>
<event>
 5   0  0.4953155E-06  0.1799095E+04  0.7818609E-02  0.8706781E-01
        1   -1    0    0  501    0  0.00000000000E+00  0.00000000000E+00  0.21344340784E+04  0.21344340784E+04  0.50400001928E-02 0.  1.
       -1   -1    0    0    0  501  0.00000000000E+00  0.00000000000E+00 -0.37911023186E+03  0.37911023189E+03  0.50400001928E-02 0. -1.
    10030    2    1    2    0    0  0.00000000000E+00  0.00000000000E+00  0.17553238465E+04  0.25135443103E+04  0.17990951041E+04 0.  0.
        2    1    3    3  502    0 -0.44633070708E+03 -0.66688777233E+03  0.30974610072E+03  0.86017035980E+03  0.25500000920E-02 0. -1.
       -2    1    3    3    0  502  0.44633070708E+03  0.66688777233E+03  0.14455777458E+04  0.16533739505E+04  0.25500000920E-02 0.  1.
</event>
<event>
 5   0  0.4953155E-06  0.1802233E+04  0.7818609E-02  0.8705113E-01
       -1   -1    0    0    0  501  0.00000000000E+00  0.00000000000E+00  0.56563994353E+03  0.56563994355E+03  0.50400001928E-02 0.  1.
        1   -1    0    0  501    0  0.00000000000E+00  0.00000000000E+00 -0.14355612526E+04  0.14355612526E+04  0.50400001928E-02 0. -1.
    10030    2    1    2    0    0  0.00000000000E+00  0.00000000000E+00 -0.86992130907E+03  0.20012011962E+04  0.18022328217E+04 0.  0.
        2    1    3    3  502    0  0.42159617503E+03 -0.73035044585E+03 -0.82321903769E+02  0.84730868307E+03  0.25500000920E-02 0.  1.
       -2    1    3    3    0  502 -0.42159617503E+03  0.73035044585E+03 -0.78759940530E+03  0.11538925131E+04  0.25500000920E-02 0. -1.
</event>
<event>
 5   0  0.4987456E-06  0.1804190E+04  0.7818609E-02  0.8704074E-01
       -1   -1    0    0    0  501  0.00000000000E+00  0.00000000000E+00  0.55389480096E+03  0.55389480098E+03  0.50400001928E-02 0. -1.
        1   -1    0    0  501    0  0.00000000000E+00  0.00000000000E+00 -0.14691880443E+04  0.14691880443E+04  0.50400001928E-02 0.  1.
    10030    2    1    2    0    0  0.00000000000E+00  0.00000000000E+00 -0.91529324336E+03  0.20230828453E+04  0.18041902554E+04 0.  0.
        3    1    3    3  502    0 -0.12271382928E+03 -0.85278759715E+03 -0.75742061503E+03  0.11471666697E+04  0.10100000352E+00 0. -1.
       -3    1    3    3    0  502  0.12271382928E+03  0.85278759715E+03 -0.15787262833E+03  0.87591617563E+03  0.10100000352E+00 0.  1.
</event>
<event>
 5   0  0.9999162E-06  0.1803140E+04  0.7818609E-02  0.8704632E-01
        2   -1    0    0  501    0  0.00000000000E+00  0.00000000000E+00  0.10856764261E+04  0.10856764261E+04  0.25500000920E-02 0.  1.
       -2   -1    0    0    0  501  0.00000000000E+00  0.00000000000E+00 -0.74868368216E+03  0.74868368217E+03  0.25500000920E-02 0. -1.
    10030    2    1    2    0    0  0.00000000000E+00  0.00000000000E+00  0.33699274396E+03  0.18343601083E+04  0.18031397332E+04 0.  0.
        1    1    3    3  502    0 -0.59884951149E+03  0.40382859367E+03  0.71740323346E+03  0.10180204663E+04  0.50400001928E-02 0.  1.
       -1    1    3    3    0  502  0.59884951149E+03 -0.40382859367E+03 -0.38041048950E+03  0.81633964195E+03  0.50400001928E-02 0. -1.
</event>
<event>
 5   0  0.4987456E-06  0.1799798E+04  0.7818609E-02  0.8706407E-01
        1   -1    0    0  501    0  0.00000000000E+00  0.00000000000E+00  0.13173161102E+04  0.13173161103E+04  0.50400001928E-02 0.  1.
       -1   -1    0    0    0  501  0.00000000000E+00  0.00000000000E+00 -0.61474876948E+03  0.61474876950E+03  0.50400001928E-02 0. -1.
    10030    2    1    2    0    0  0.00000000000E+00  0.00000000000E+00  0.70256734077E+03  0.19320648798E+04  0.17997982752E+04 0.  0.
        3    1    3    3  502    0  0.50569601425E+03  0.35871871684E+03 -0.34888418218E+03  0.71142656643E+03  0.10100000352E+00 0. -1.
       -3    1    3    3    0  502 -0.50569601425E+03 -0.35871871684E+03  0.10514515229E+04  0.12206383133E+04  0.10100000352E+00 0.  1.
</event>
<event>
 5   0  0.1035018E-05  0.1799912E+04  0.7818609E-02  0.8706346E-01
       -2   -1    0    0    0  501  0.00000000000E+00  0.00000000000E+00  0.13554355341E+04  0.13554355341E+04  0.25500000920E-02 0. -1.
        2   -1    0    0  501    0  0.00000000000E+00  0.00000000000E+00 -0.59753559108E+03  0.59753559109E+03  0.25500000920E-02 0.  1.
    10030    2    1    2    0    0  0.00000000000E+00  0.00000000000E+00  0.75789994299E+03  0.19529711252E+04  0.17999121901E+04 0.  0.
        3    1    3    3  502    0 -0.49700867998E+03  0.52045160079E+03  0.96530521809E+03  0.12040355771E+04  0.10100000352E+00 0. -1.
       -3    1    3    3    0  502  0.49700867998E+03 -0.52045160079E+03 -0.20740527511E+03  0.74893554802E+03  0.10100000352E+00 0.  1.
</event>
<event>
 5   0  0.4994123E-06  0.1800796E+04  0.7818609E-02  0.8705876E-01
        1   -1    0    0  501    0  0.00000000000E+00  0.00000000000E+00  0.16516587241E+04  0.16516587241E+04  0.50400001928E-02 0.  1.
       -1   -1    0    0    0  501  0.00000000000E+00  0.00000000000E+00 -0.49084999193E+03  0.49084999196E+03  0.50400001928E-02 0. -1.
    10030    2    1    2    0    0  0.00000000000E+00  0.00000000000E+00  0.11608087321E+04  0.21425087160E+04  0.18007961255E+04 0.  0.
        1    1    3    3  502    0  0.82564762164E+03 -0.26640436185E+03  0.86706256625E+03  0.12265654377E+04  0.50400001928E-02 0.  1.
       -1    1    3    3    0  502 -0.82564762164E+03  0.26640436185E+03  0.29374616590E+03  0.91594327835E+03  0.50400001928E-02 0. -1.
</event>
<event>
 5   0  0.1036381E-05  0.1799820E+04  0.7818609E-02  0.8706395E-01
        2   -1    0    0  501    0  0.00000000000E+00  0.00000000000E+00  0.15808887428E+04  0.15808887428E+04  0.25500000920E-02 0.  1.
       -2   -1    0    0    0  501  0.00000000000E+00  0.00000000000E+00 -0.51226741198E+03  0.51226741198E+03  0.25500000920E-02 0. -1.
    10030    2    1    2    0    0  0.00000000000E+00  0.00000000000E+00  0.10686213309E+04  0.20931561548E+04  0.17998197520E+04 0.  0.
        4    1    3    3  502    0  0.37818517975E+03 -0.28260994702E+03  0.14252966247E+04  0.15014541264E+04  0.12699999809E+01 0.  1.
       -4    1    3    3    0  502 -0.37818517975E+03  0.28260994702E+03 -0.35667529383E+03  0.59170202845E+03  0.12699999809E+01 0. -1.
</event>
<event>
 5   0  0.1036381E-05  0.1800060E+04  0.7818609E-02  0.8706267E-01
        2   -1    0    0  501    0  0.00000000000E+00  0.00000000000E+00  0.11699147082E+04  0.11699147082E+04  0.25500000920E-02 0. -1.
       -2   -1    0    0    0  501  0.00000000000E+00  0.00000000000E+00 -0.69240467736E+03  0.69240467737E+03  0.25500000920E-02 0.  1.
    10030    2    1    2    0    0  0.00000000000E+00  0.00000000000E+00  0.47751003088E+03  0.18623193856E+04  0.18000604613E+04 0.  0.
        4    1    3    3  502    0 -0.30064816404E+03  0.83029474418E+03  0.41876759402E+03  0.97731601412E+03  0.12699999809E+01 0. -1.
       -4    1    3    3    0  502  0.30064816404E+03 -0.83029474418E+03  0.58742436860E+02  0.88500337149E+03  0.12699999809E+01 0.  1.
</event>
<event>
 5   0  0.4981384E-06  0.1799617E+04  0.7818609E-02  0.8706503E-01
        1   -1    0    0  501    0  0.00000000000E+00  0.00000000000E+00  0.16839742461E+04  0.16839742461E+04  0.50400001928E-02 0.  1.
       -1   -1    0    0    0  501  0.00000000000E+00  0.00000000000E+00 -0.48080050065E+03  0.48080050068E+03  0.50400001928E-02 0. -1.
    10030    2    1    2    0    0  0.00000000000E+00  0.00000000000E+00  0.12031737454E+04  0.21647747467E+04  0.17996173600E+04 0.  0.
        5    1    3    3  502    0  0.64642516828E+02  0.64796499030E+03  0.13485496503E+04  0.14975465044E+04  0.46999998093E+01 0.  1.
       -5    1    3    3    0  502 -0.64642516828E+02 -0.64796499030E+03 -0.14537590488E+03  0.66722824232E+03  0.46999998093E+01 0. -1.
</event>
<event>
 5   0  0.4987456E-06  0.1799745E+04  0.7818609E-02  0.8706435E-01
       -1   -1    0    0    0  501  0.00000000000E+00  0.00000000000E+00  0.56899595449E+03  0.56899595451E+03  0.50400001928E-02 0.  1.
        1   -1    0    0  501    0  0.00000000000E+00  0.00000000000E+00 -0.14231568253E+04  0.14231568253E+04  0.50400001928E-02 0. -1.
    10030    2    1    2    0    0  0.00000000000E+00  0.00000000000E+00 -0.85416087083E+03  0.19921527798E+04  0.17997449555E+04 0.  0.
        3    1    3    3  502    0  0.15970549798E+03 -0.66720043912E+03 -0.10716663613E+04  0.12724508133E+04  0.10100000352E+00 0. -1.
       -3    1    3    3    0  502 -0.15970549798E+03  0.66720043912E+03  0.21750549049E+03  0.71970196654E+03  0.10100000352E+00 0.  1.
</event>
<event>
 5   0  0.4953155E-06  0.1800915E+04  0.7818609E-02  0.8705813E-01
        1   -1    0    0  501    0  0.00000000000E+00  0.00000000000E+00  0.14395014945E+04  0.14395014945E+04  0.50400001928E-02 0.  1.
       -1   -1    0    0    0  501  0.00000000000E+00  0.00000000000E+00 -0.56326686398E+03  0.56326686400E+03  0.50400001928E-02 0. -1.
    10030    2    1    2    0    0  0.00000000000E+00  0.00000000000E+00  0.87623463048E+03  0.20027683585E+04  0.18009147592E+04 0.  0.
        2    1    3    3  502    0 -0.81500139624E+03 -0.21572333897E+03  0.86340615300E+02  0.84747774998E+03  0.25500000920E-02 0. -1.
       -2    1    3    3    0  502  0.81500139624E+03  0.21572333897E+03  0.78989401518E+03  0.11552906085E+04  0.25500000920E-02 0.  1.
</event>
<event>
 5   0  0.1036381E-05  0.1799011E+04  0.7818609E-02  0.8706826E-01
       -2   -1    0    0    0  501  0.00000000000E+00  0.00000000000E+00  0.34258156274E+03  0.34258156275E+03  0.25500000920E-02 0. -1.
        2   -1    0    0  501    0  0.00000000000E+00  0.00000000000E+00 -0.23618029213E+04  0.23618029213E+04  0.25500000920E-02 0.  1.
    10030    2    1    2    0    0  0.00000000000E+00  0.00000000000E+00 -0.20192213585E+04  0.27043844840E+04  0.17990109901E+04 0.  0.
        4    1    3    3  502    0  0.47945995480E+02  0.89697343490E+03 -0.93833068190E+03  0.12989712248E+04  0.12699999809E+01 0. -1.
       -4    1    3    3    0  502 -0.47945995480E+02 -0.89697343490E+03 -0.10808906766E+04  0.14054132592E+04  0.12699999809E+01 0.  1.
</event>
<event>
 5   0  0.4987456E-06  0.1799443E+04  0.7818609E-02  0.8706596E-01
       -1   -1    0    0    0  501  0.00000000000E+00  0.00000000000E+00  0.77825347067E+03  0.77825347068E+03  0.50400001928E-02 0.  1.
        1   -1    0    0  501    0  0.00000000000E+00  0.00000000000E+00 -0.10401477081E+04  0.10401477081E+04  0.50400001928E-02 0. -1.
    10030    2    1    2    0    0  0.00000000000E+00  0.00000000000E+00 -0.26189423745E+03  0.18184011788E+04  0.17994427625E+04 0.  0.
        3    1    3    3  502    0  0.46134810918E+03 -0.72627286093E+03  0.13485298856E+03  0.87091887400E+03  0.10100000352E+00 0. -1.
       -3    1    3    3    0  502 -0.46134810918E+03  0.72627286093E+03 -0.39674722601E+03  0.94748230481E+03  0.10100000352E+00 0.  1.
</event>
<event>
 5   0  0.9589963E-06  0.1805914E+04  0.7818609E-02  0.8703161E-01
       -2   -1    0    0    0  501  0.00000000000E+00  0.00000000000E+00  0.85870005536E+03  0.85870005536E+03  0.25500000920E-02 0.  1.
        2   -1    0    0  501    0  0.00000000000E+00  0.00000000000E+00 -0.94949493116E+03  0.94949493116E+03  0.25500000920E-02 0. -1.
    10030    2    1    2    0    0  0.00000000000E+00  0.00000000000E+00 -0.90794875804E+02  0.18081949865E+04  0.18059140068E+04 0.  0.
        2    1    3    3  502    0 -0.85101791692E+02 -0.62148800732E+02  0.85252205691E+03  0.85901027113E+03  0.25500000920E-02 0.  1.
       -2    1    3    3    0  502  0.85101791692E+02  0.62148800732E+02 -0.94331693272E+03  0.94918471539E+03  0.25500000920E-02 0. -1.
</event>
<event>
 5   0  0.1036381E-05  0.1793172E+04  0.7818609E-02  0.8709939E-01
       -2   -1    0    0    0  501  0.00000000000E+00  0.00000000000E+00  0.59297807324E+03  0.59297807324E+03  0.25500000920E-02 0.  1.
        2   -1    0    0  501    0  0.00000000000E+00  0.00000000000E+00 -0.13556433056E+04  0.13556433056E+04  0.25500000920E-02 0. -1.
    10030    2    1    2    0    0  0.00000000000E+00  0.00000000000E+00 -0.76266523237E+03  0.19486213789E+04  0.17931723346E+04 0.  0.
        4    1    3    3  502    0 -0.18756601442E+03  0.56498164045E+03 -0.11098846260E+04  0.12594565335E+04  0.12699999809E+01 0. -1.
       -4    1    3    3    0  502  0.18756601442E+03 -0.56498164045E+03  0.34721939367E+03  0.68916484534E+03  0.12699999809E+01 0.  1.
</event>
<event>
 5   0  0.4981384E-06  0.1798719E+04  0.7818609E-02  0.8706981E-01
       -1   -1    0    0    0  501  0.00000000000E+00  0.00000000000E+00  0.12402443929E+04  0.12402443929E+04  0.50400001928E-02 0.  1.
        1   -1    0    0  501    0  0.00000000000E+00  0.00000000000E+00 -0.65216811027E+03  0.65216811029E+03  0.50400001928E-02 0. -1.
    10030    2    1    2    0    0  0.00000000000E+00  0.00000000000E+00  0.58807628262E+03  0.18924125032E+04  0.17987193689E+04 0.  0.
        5    1    3    3  502    0 -0.40865741362E+03 -0.46676334579E+03  0.97907387381E+03  0.11590843986E+04  0.46999998093E+01 0.  1.
       -5    1    3    3    0  502  0.40865741362E+03  0.46676334579E+03 -0.39099759119E+03  0.73332810460E+03  0.46999998093E+01 0. -1.
</event>
<event>
 5   0  0.4953155E-06  0.1799751E+04  0.7818609E-02  0.8706432E-01
       -1   -1    0    0    0  501  0.00000000000E+00  0.00000000000E+00  0.46515266279E+03  0.46515266282E+03  0.50400001928E-02 0.  1.
        1   -1    0    0  501    0  0.00000000000E+00  0.00000000000E+00 -0.17408824688E+04  0.17408824688E+04  0.50400001928E-02 0. -1.
    10030    2    1    2    0    0  0.00000000000E+00  0.00000000000E+00 -0.12757298060E+04  0.22060351317E+04  0.17997512228E+04 0.  0.
        2    1    3    3  502    0  0.31753196728E+03 -0.52722983200E+03 -0.14425531049E+04  0.15683613443E+04  0.25500000920E-02 0. -1.
       -2    1    3    3    0  502 -0.31753196728E+03  0.52722983200E+03  0.16682329884E+03  0.63767378732E+03  0.25500000920E-02 0.  1.
</event>
<event>
 5   0  0.9589963E-06  0.1799944E+04  0.7818609E-02  0.8706329E-01
       -2   -1    0    0    0  501  0.00000000000E+00  0.00000000000E+00  0.39649176803E+03  0.39649176804E+03  0.25500000920E-02 0. -1.
        2   -1    0    0  501    0  0.00000000000E+00  0.00000000000E+00 -0.20427909915E+04  0.20427909915E+04  0.25500000920E-02 0.  1.
    10030    2    1    2    0    0  0.00000000000E+00  0.00000000000E+00 -0.16462992235E+04  0.24392827595E+04  0.17999442346E+04 0.  0.
        2    1    3    3  502    0  0.72354978813E+03  0.19691379331E+02 -0.98355286141E+02  0.73046958092E+03  0.25500000920E-02 0. -1.
       -2    1    3    3    0  502 -0.72354978813E+03 -0.19691379331E+02 -0.15479439373E+04  0.17088131786E+04  0.25500000920E-02 0.  1.
</event>
<event>
 5   0  0.1035018E-05  0.1799951E+04  0.7818609E-02  0.8706326E-01
       -2   -1    0    0    0  501  0.00000000000E+00  0.00000000000E+00  0.48547189054E+03  0.48547189055E+03  0.25500000920E-02 0.  1.
        2   -1    0    0  501    0  0.00000000000E+00  0.00000000000E+00 -0.16683884802E+04  0.16683884802E+04  0.25500000920E-02 0. -1.
    10030    2    1    2    0    0  0.00000000000E+00  0.00000000000E+00 -0.11829165896E+04  0.21538603707E+04  0.17999507878E+04 0.  0.
        3    1    3    3  502    0  0.29715296209E+03 -0.52215732200E+03 -0.13932909424E+04  0.15173028083E+04  0.10100000352E+00 0. -1.
       -3    1    3    3    0  502 -0.29715296209E+03  0.52215732200E+03  0.21037435273E+03  0.63655756243E+03  0.10100000352E+00 0.  1.
</event>
<event>
 5   0  0.1000316E-05  0.1798963E+04  0.7818609E-02  0.8706851E-01
        2   -1    0    0  501    0  0.00000000000E+00  0.00000000000E+00  0.11944179077E+04  0.11944179077E+04  0.25500000920E-02 0.  1.
       -2   -1    0    0    0  501  0.00000000000E+00  0.00000000000E+00 -0.67737325353E+03  0.67737325354E+03  0.25500000920E-02 0. -1.
    10030    2    1    2    0    0  0.00000000000E+00  0.00000000000E+00  0.51704465419E+03  0.18717911613E+04  0.17989627503E+04 0.  0.
        5    1    3    3  502    0  0.36400341415E+03  0.81134260175E+03  0.11788623663E+03  0.89704768976E+03  0.46999998093E+01 0. -1.
       -5    1    3    3    0  502 -0.36400341415E+03 -0.81134260175E+03  0.39915841757E+03  0.97474347150E+03  0.46999998093E+01 0.  1.
</event>
<event>
 5   0  0.4953155E-06  0.1799524E+04  0.7818609E-02  0.8706553E-01
        1   -1    0    0  501    0  0.00000000000E+00  0.00000000000E+00  0.12579135408E+04  0.12579135408E+04  0.50400001928E-02 0.  1.
       -1   -1    0    0    0  501  0.00000000000E+00  0.00000000000E+00 -0.64358270528E+03  0.64358270530E+03  0.50400001928E-02 0. -1.
    10030    2    1    2    0    0  0.00000000000E+00  0.00000000000E+00  0.61433083551E+03  0.19014962461E+04  0.17995237143E+04 0.  0.
        2    1    3    3  502    0  0.21779255869E+03 -0.28812141733E+02  0.12291379835E+04  0.12486168029E+04  0.25500000920E-02 0.  1.
       -2    1    3    3    0  502 -0.21779255869E+03  0.28812141733E+02 -0.61480714796E+03  0.65287944318E+03  0.25500000920E-02 0. -1.
</event>
<event>
 5   0  0.9589963E-06  0.1798201E+04  0.7818609E-02  0.8707257E-01
       -2   -1    0    0    0  501  0.00000000000E+00  0.00000000000E+00  0.74118013355E+03  0.74118013356E+03  0.25500000920E-02 0. -1.
        2   -1    0    0  501    0  0.00000000000E+00  0.00000000000E+00 -0.10906680051E+04  0.10906680051E+04  0.25500000920E-02 0.  1.
    10030    2    1    2    0    0  0.00000000000E+00  0.00000000000E+00 -0.34948787156E+03  0.18318481387E+04  0.17982007204E+04 0.  0.
        2    1    3    3  502    0 -0.33254218821E+03  0.76169505461E+03 -0.52411571054E+03  0.98257872010E+03  0.25500000920E-02 0. -1.
       -2    1    3    3    0  502  0.33254218821E+03 -0.76169505461E+03  0.17462783898E+03  0.84926941857E+03  0.25500000920E-02 0.  1.
</event>
<event>
 5   0  0.4953155E-06  0.1799828E+04  0.7818609E-02  0.8706391E-01
        1   -1    0    0  501    0  0.00000000000E+00  0.00000000000E+00  0.98005597774E+03  0.98005597776E+03  0.50400001928E-02 0. -1.
       -1   -1    0    0    0  501  0.00000000000E+00  0.00000000000E+00 -0.82632525781E+03  0.82632525783E+03  0.50400001928E-02 0.  1.
    10030    2    1    2    0    0  0.00000000000E+00  0.00000000000E+00  0.15373071993E+03  0.18063812356E+04  0.17998277790E+04 0.  0.
        2    1    3    3  502    0  0.27962566186E+02 -0.20397487089E+03  0.95610161762E+03  0.97801735991E+03  0.25500000920E-02 0. -1.
       -2    1    3    3    0  502 -0.27962566186E+02  0.20397487089E+03 -0.80237089769E+03  0.82836387568E+03  0.25500000920E-02 0.  1.
</event>
<event>
 5   0  0.1000316E-05  0.1799571E+04  0.7818609E-02  0.8706527E-01
        2   -1    0    0  501    0  0.00000000000E+00  0.00000000000E+00  0.10812894521E+04  0.10812894521E+04  0.25500000920E-02 0. -1.
       -2   -1    0    0    0  501  0.00000000000E+00  0.00000000000E+00 -0.74874891929E+03  0.74874891929E+03  0.25500000920E-02 0.  1.
    10030    2    1    2    0    0  0.00000000000E+00  0.00000000000E+00  0.33254053279E+03  0.18300383714E+04  0.17995714031E+04 0.  0.
        5    1    3    3  502    0  0.63701990835E+03 -0.43340171696E+03 -0.30631326509E+03  0.82914493201E+03  0.46999998093E+01 0.  1.
       -5    1    3    3    0  502 -0.63701990835E+03  0.43340171696E+03  0.63885379788E+03  0.10008934394E+04  0.46999998093E+01 0. -1.
</event>
<event>
 5   0  0.4994123E-06  0.1801958E+04  0.7818609E-02  0.8705259E-01
       -1   -1    0    0    0  501  0.00000000000E+00  0.00000000000E+00  0.63807425667E+03  0.63807425669E+03  0.50400001928E-02 0. -1.
        1   -1    0    0  501    0  0.00000000000E+00  0.00000000000E+00 -0.12722075416E+04  0.12722075416E+04  0.50400001928E-02 0.  1.
    10030    2    1    2    0    0  0.00000000000E+00  0.00000000000E+00 -0.63413328490E+03  0.19102817983E+04  0.18019576926E+04 0.  0.
        1    1    3    3  502    0 -0.15853833562E+03  0.84918419783E+03 -0.58841184364E+03  0.10452161037E+04  0.50400001928E-02 0. -1.
       -1    1    3    3    0  502  0.15853833562E+03 -0.84918419783E+03 -0.45721441259E+02  0.86506569457E+03  0.50400001928E-02 0.  1.
</event>
<event>
 5   0  0.4953155E-06  0.1799345E+04  0.7818609E-02  0.8706648E-01
        1   -1    0    0  501    0  0.00000000000E+00  0.00000000000E+00  0.11407407155E+04  0.11407407155E+04  0.50400001928E-02 0. -1.
       -1   -1    0    0    0  501  0.00000000000E+00  0.00000000000E+00 -0.70954831102E+03  0.70954831104E+03  0.50400001928E-02 0.  1.
    10030    2    1    2    0    0  0.00000000000E+00  0.00000000000E+00  0.43119240445E+03  0.18502890265E+04  0.17993450453E+04 0.  0.
        2    1    3    3  502    0 -0.59343628245E+03  0.12685673688E+03 -0.46740103867E+03  0.76597844876E+03  0.25500000920E-02 0.  1.
       -2    1    3    3    0  502  0.59343628245E+03 -0.12685673688E+03  0.89859344311E+03  0.10843105778E+04  0.25500000920E-02 0. -1.
</event>
<event>
 5   0  0.4994123E-06  0.1800322E+04  0.7818609E-02  0.8706128E-01
       -1   -1    0    0    0  501  0.00000000000E+00  0.00000000000E+00  0.48110612049E+03  0.48110612052E+03  0.50400001928E-02 0. -1.
        1   -1    0    0  501    0  0.00000000000E+00  0.00000000000E+00 -0.16842230885E+04  0.16842230885E+04  0.50400001928E-02 0.  1.
    10030    2    1    2    0    0  0.00000000000E+00  0.00000000000E+00 -0.12031169680E+04  0.21653292090E+04  0.18003222336E+04 0.  0.
        1    1    3    3  502    0  0.34719028960E+03  0.75499525754E+03 -0.10177346219E+04  0.13139036102E+04  0.50400001928E-02 0.  1.
       -1    1    3    3    0  502 -0.34719028960E+03 -0.75499525754E+03 -0.18538234606E+03  0.85142559884E+03  0.50400001928E-02 0. -1.
</event>
<event>
 5   0  0.1000316E-05  0.1799999E+04  0.7818609E-02  0.8706300E-01
       -2   -1    0    0    0  501  0.00000000000E+00  0.00000000000E+00  0.60822401372E+03  0.60822401373E+03  0.25500000920E-02 0.  1.
        2   -1    0    0  501    0  0.00000000000E+00  0.00000000000E+00 -0.13317447566E+04  0.13317447566E+04  0.25500000920E-02 0. -1.
    10030    2    1    2    0    0  0.00000000000E+00  0.00000000000E+00 -0.72352074285E+03  0.19399687703E+04  0.17999990457E+04 0.  0.
        5    1    3    3  502    0 -0.73658258777E+03 -0.47252164900E+03 -0.13531143943E+03  0.88552915989E+03  0.46999998093E+01 0.  1.
       -5    1    3    3    0  502  0.73658258777E+03  0.47252164900E+03 -0.58820930343E+03  0.10544396104E+04  0.46999998093E+01 0. -1.
</event>
<event>
 5   0  0.4981384E-06  0.1801148E+04  0.7818609E-02  0.8705689E-01
        1   -1    0    0  501    0  0.00000000000E+00  0.00000000000E+00  0.17818867782E+04  0.17818867782E+04  0.50400001928E-02 0.  1.
       -1   -1    0    0    0  501  0.00000000000E+00  0.00000000000E+00 -0.45515438054E+03  0.45515438057E+03  0.50400001928E-02 0. -1.
    10030    2    1    2    0    0  0.00000000000E+00  0.00000000000E+00  0.13267323977E+04  0.22370411588E+04  0.18011480481E+04 0.  0.
        5    1    3    3  502    0  0.51489239066E+03  0.34553300178E+03 -0.14775592319E+03  0.63746461244E+03  0.46999998093E+01 0. -1.
       -5    1    3    3    0  502 -0.51489239066E+03 -0.34553300178E+03  0.14744883209E+04  0.15995765464E+04  0.46999998093E+01 0.  1.
</event>
<event>
 5   0  0.4987456E-06  0.1799763E+04  0.7818609E-02  0.8706426E-01
       -1   -1    0    0    0  501  0.00000000000E+00  0.00000000000E+00  0.43312793910E+03  0.43312793913E+03  0.50400001928E-02 0.  1.
        1   -1    0    0  501    0  0.00000000000E+00  0.00000000000E+00 -0.18696245072E+04  0.18696245072E+04  0.50400001928E-02 0. -1.
    10030    2    1    2    0    0  0.00000000000E+00  0.00000000000E+00 -0.14364965681E+04  0.23027524463E+04  0.17997628841E+04 0.  0.
        3    1    3    3  502    0 -0.56152928735E+03 -0.58500706293E+03 -0.12174703516E+04  0.14627995322E+04  0.10100000352E+00 0. -1.
       -3    1    3    3    0  502  0.56152928735E+03  0.58500706293E+03 -0.21902621650E+03  0.83995291412E+03  0.10100000352E+00 0.  1.
</event>
<event>
 5   0  0.9999162E-06  0.1798868E+04  0.7818609E-02  0.8706902E-01
       -2   -1    0    0    0  501  0.00000000000E+00  0.00000000000E+00  0.92556052235E+03  0.92556052235E+03  0.25500000920E-02 0.  1.
        2   -1    0    0  501    0  0.00000000000E+00  0.00000000000E+00 -0.87404463946E+03  0.87404463946E+03  0.25500000920E-02 0. -1.
    10030    2    1    2    0    0  0.00000000000E+00  0.00000000000E+00  0.51515882892E+02  0.17996051618E+04  0.17988676583E+04 0.  0.
        1    1    3    3  502    0  0.70944414563E+03  0.29275761301E+03  0.49495256653E+03  0.91323384676E+03  0.50400001928E-02 0.  1.
       -1    1    3    3    0  502 -0.70944414563E+03 -0.29275761301E+03 -0.44343668363E+03  0.88637131506E+03  0.50400001928E-02 0. -1.
</event>
<event>
 5   0  0.4987456E-06  0.1801505E+04  0.7818609E-02  0.8705499E-01
        1   -1    0    0  501    0  0.00000000000E+00  0.00000000000E+00  0.15904722785E+04  0.15904722785E+04  0.50400001928E-02 0. -1.
       -1   -1    0    0    0  501  0.00000000000E+00  0.00000000000E+00 -0.51013474627E+03  0.51013474629E+03  0.50400001928E-02 0.  1.
    10030    2    1    2    0    0  0.00000000000E+00  0.00000000000E+00  0.10803375322E+04  0.21006070248E+04  0.18015051177E+04 0.  0.
        3    1    3    3  502    0  0.54649732961E+03 -0.59282522420E+03  0.71932901966E+02  0.80949084634E+03  0.10100000352E+00 0. -1.
       -3    1    3    3    0  502 -0.54649732961E+03  0.59282522420E+03  0.10084046302E+04  0.12911161784E+04  0.10100000352E+00 0.  1.
</event>
<event>
 5   0  0.1035018E-05  0.1791729E+04  0.7818609E-02  0.8710710E-01
        2   -1    0    0  501    0  0.00000000000E+00  0.00000000000E+00  0.11673623957E+04  0.11673623957E+04  0.25500000920E-02 0.  1.
       -2   -1    0    0    0  501  0.00000000000E+00  0.00000000000E+00 -0.68750980960E+03  0.68750980961E+03  0.25500000920E-02 0. -1.
    10030    2    1    2    0    0  0.00000000000E+00  0.00000000000E+00  0.47985258613E+03  0.18548722053E+04  0.17917288840E+04 0.  0.
        3    1    3    3  502    0 -0.30753076363E+03 -0.83383804626E+03  0.12320525059E+03  0.89724054854E+03  0.10100000352E+00 0.  1.
       -3    1    3    3    0  502  0.30753076363E+03  0.83383804626E+03  0.35664733554E+03  0.95763165680E+03  0.10100000352E+00 0. -1.
</event>
<event>
 5   0  0.4994123E-06  0.1813755E+04  0.7818609E-02  0.8699019E-01
       -1   -1    0    0    0  501  0.00000000000E+00  0.00000000000E+00  0.49266708274E+03  0.49266708277E+03  0.50400001928E-02 0. -1.
        1   -1    0    0  501    0  0.00000000000E+00  0.00000000000E+00 -0.16693351750E+04  0.16693351750E+04  0.50400001928E-02 0.  1.
    10030    2    1    2    0    0  0.00000000000E+00  0.00000000000E+00 -0.11766680922E+04  0.21620022577E+04  0.18137546591E+04 0.  0.
        1    1    3    3  502    0 -0.52206111849E+03  0.73115426002E+03 -0.44092926992E+03  0.10007761910E+04  0.50400001928E-02 0. -1.
       -1    1    3    3    0  502  0.52206111849E+03 -0.73115426002E+03 -0.73573882231E+03  0.11612260667E+04  0.50400001928E-02 0.  1.
</event>
<event>
 5   0  0.4994123E-06  0.1799783E+04  0.7818609E-02  0.8706415E-01
       -1   -1    0    0    0  501  0.00000000000E+00  0.00000000000E+00  0.59580810886E+03  0.59580810888E+03  0.50400001928E-02 0.  1.
        1   -1    0    0  501    0  0.00000000000E+00  0.00000000000E+00 -0.13591709229E+04  0.13591709229E+04  0.50400001928E-02 0. -1.
    10030    2    1    2    0    0  0.00000000000E+00  0.00000000000E+00 -0.76336281400E+03  0.19549790317E+04  0.17997833838E+04 0.  0.
        1    1    3    3  502    0 -0.84098403508E+03 -0.31723053672E+03 -0.33413855661E+03  0.95892540675E+03  0.50400001928E-02 0.  1.
       -1    1    3    3    0  502  0.84098403508E+03  0.31723053672E+03 -0.42922425739E+03  0.99605362498E+03  0.50400001928E-02 0. -1.
</event>
<event>
 5   0  0.9999162E-06  0.1800249E+04  0.7818609E-02  0.8706167E-01
        2   -1    0    0  501    0  0.00000000000E+00  0.00000000000E+00  0.22715447221E+04  0.22715447222E+04  0.25500000920E-02 0. -1.
       -2   -1    0    0    0  501  0.00000000000E+00  0.00000000000E+00 -0.35668408033E+03  0.35668408034E+03  0.25500000920E-02 0.  1.
    10030    2    1    2    0    0  0.00000000000E+00  0.00000000000E+00  0.19148606418E+04  0.26282288025E+04  0.18002486941E+04 0.  0.
        1    1    3    3  502    0  0.34321926857E+03  0.35438182536E+03 -0.14172762642E+03  0.51329588405E+03  0.50400001928E-02 0.  1.
       -1    1    3    3    0  502 -0.34321926857E+03 -0.35438182536E+03  0.20565882682E+04  0.21149329184E+04  0.50400001928E-02 0. -1.
</event>
<event>
 5   0  0.4987456E-06  0.1800348E+04  0.7818609E-02  0.8706114E-01
       -1   -1    0    0    0  501  0.00000000000E+00  0.00000000000E+00  0.52630892272E+03  0.52630892275E+03  0.50400001928E-02 0. -1.
        1   -1    0    0  501    0  0.00000000000E+00  0.00000000000E+00 -0.15396156444E+04  0.15396156444E+04  0.50400001928E-02 0.  1.
    10030    2    1    2    0    0  0.00000000000E+00  0.00000000000E+00 -0.10133067217E+04  0.20659245672E+04  0.18003482455E+04 0.  0.
        3    1    3    3  502    0 -0.27735525556E+03 -0.58694274381E+03  0.20894434181E+03  0.68197175196E+03  0.10100000352E+00 0. -1.
       -3    1    3    3    0  502  0.27735525556E+03  0.58694274381E+03 -0.12222510635E+04  0.13839528152E+04  0.10100000352E+00 0.  1.
</event>
<event>
 5   0  0.4994123E-06  0.1801203E+04  0.7818609E-02  0.8705660E-01
       -1   -1    0    0    0  501  0.00000000000E+00  0.00000000000E+00  0.49464842193E+03  0.49464842196E+03  0.50400001928E-02 0. -1.
        1   -1    0    0  501    0  0.00000000000E+00  0.00000000000E+00 -0.16397160346E+04  0.16397160346E+04  0.50400001928E-02 0.  1.
    10030    2    1    2    0    0  0.00000000000E+00  0.00000000000E+00 -0.11450676127E+04  0.21343644566E+04  0.18012028747E+04 0.  0.
        1    1    3    3  502    0  0.82558474148E+03 -0.30813248855E+03 -0.35228575189E+03  0.94902109928E+03  0.50400001928E-02 0. -1.
       -1    1    3    3    0  502 -0.82558474148E+03  0.30813248855E+03 -0.79278186080E+03  0.11853433573E+04  0.50400001928E-02 0.  1.
</event>
<event>
 5   0  0.1035018E-05  0.1799697E+04  0.7818609E-02  0.8706461E-01
       -2   -1    0    0    0  501  0.00000000000E+00  0.00000000000E+00  0.38107937016E+03  0.38107937017E+03  0.25500000920E-02 0. -1.
        2   -1    0    0  501    0  0.00000000000E+00  0.00000000000E+00 -0.21248257239E+04  0.21248257239E+04  0.25500000920E-02 0.  1.
    10030    2    1    2    0    0  0.00000000000E+00  0.00000000000E+00 -0.17437463538E+04  0.25059050941E+04  0.17996969174E+04 0.  0.
        3    1    3    3  502    0  0.23867182622E+03 -0.49447818393E+03  0.12079885731E+03  0.56219684198E+03  0.10100000352E+00 0. -1.
       -3    1    3    3    0  502 -0.23867182622E+03  0.49447818393E+03 -0.18645452111E+04  0.19437082521E+04  0.10100000352E+00 0.  1.
</event>
<event>
 5   0  0.1000316E-05  0.1799860E+04  0.7818609E-02  0.8706374E-01
       -2   -1    0    0    0  501  0.00000000000E+00  0.00000000000E+00  0.39140394230E+03  0.39140394231E+03  0.25500000920E-02 0. -1.
        2   -1    0    0  501    0  0.00000000000E+00  0.00000000000E+00 -0.20691524142E+04  0.20691524142E+04  0.25500000920E-02 0.  1.
    10030    2    1    2    0    0  0.00000000000E+00  0.00000000000E+00 -0.16777484719E+04  0.24605563565E+04  0.17998604525E+04 0.  0.
        5    1    3    3  502    0  0.32150042376E+03 -0.37860924657E+03 -0.18647730690E+04  0.19297948526E+04  0.46999998093E+01 0.  1.
       -5    1    3    3    0  502 -0.32150042376E+03  0.37860924657E+03  0.18702459716E+03  0.53076150389E+03  0.46999998093E+01 0. -1.
</event>
<event>
 5   0  0.9589963E-06  0.1792404E+04  0.7818609E-02  0.8710349E-01
       -2   -1    0    0    0  501  0.00000000000E+00  0.00000000000E+00  0.69529700561E+03  0.69529700561E+03  0.25500000920E-02 0.  1.
        2   -1    0    0  501    0  0.00000000000E+00  0.00000000000E+00 -0.11551585087E+04  0.11551585087E+04  0.25500000920E-02 0. -1.
    10030    2    1    2    0    0  0.00000000000E+00  0.00000000000E+00 -0.45986150307E+03  0.18504555143E+04  0.17924042536E+04 0.  0.
        2    1    3    3  502    0 -0.62184360513E+03  0.26821611964E+03 -0.83592445880E+03  0.10758248263E+04  0.25500000920E-02 0. -1.
       -2    1    3    3    0  502  0.62184360513E+03 -0.26821611964E+03  0.37606295573E+03  0.77463068798E+03  0.25500000920E-02 0.  1.
</event>
<event>
 5   0  0.9589963E-06  0.1799355E+04  0.7818609E-02  0.8706643E-01
       -2   -1    0    0    0  501  0.00000000000E+00  0.00000000000E+00  0.97764063082E+03  0.97764063082E+03  0.25500000920E-02 0.  1.
        2   -1    0    0  501    0  0.00000000000E+00  0.00000000000E+00 -0.82793165907E+03  0.82793165908E+03  0.25500000920E-02 0. -1.
    10030    2    1    2    0    0  0.00000000000E+00  0.00000000000E+00  0.14970897174E+03  0.18055722899E+04  0.17993550283E+04 0.  0.
        2    1    3    3  502    0  0.49107990326E+02  0.37003941496E+03  0.89626636552E+03  0.97089348608E+03  0.25500000920E-02 0.  1.
       -2    1    3    3    0  502 -0.49107990326E+02 -0.37003941496E+03 -0.74655739378E+03  0.83467880382E+03  0.25500000920E-02 0. -1.
</event>
<event>
 5   0  0.1035018E-05  0.1800525E+04  0.7818609E-02  0.8706020E-01
       -2   -1    0    0    0  501  0.00000000000E+00  0.00000000000E+00  0.50275579723E+03  0.50275579723E+03  0.25500000920E-02 0.  1.
        2   -1    0    0  501    0  0.00000000000E+00  0.00000000000E+00 -0.16120609449E+04  0.16120609449E+04  0.25500000920E-02 0. -1.
    10030    2    1    2    0    0  0.00000000000E+00  0.00000000000E+00 -0.11093051477E+04  0.21148167422E+04  0.18005254628E+04 0.  0.
        3    1    3    3  502    0 -0.32435874348E+03  0.89347133735E+02  0.42614082600E+03  0.54294338431E+03  0.10100000352E+00 0.  1.
       -3    1    3    3    0  502  0.32435874348E+03 -0.89347133735E+02 -0.15354459737E+04  0.15718733579E+04  0.10100000352E+00 0. -1.
</event>
<event>
 5   0  0.4953155E-06  0.1799858E+04  0.7818609E-02  0.8706375E-01
        1   -1    0    0  501    0  0.00000000000E+00  0.00000000000E+00  0.70961413736E+03  0.70961413738E+03  0.50400001928E-02 0. -1.
       -1   -1    0    0    0  501  0.00000000000E+00  0.00000000000E+00 -0.11412854738E+04  0.11412854738E+04  0.50400001928E-02 0.  1.
    10030    2    1    2    0    0  0.00000000000E+00  0.00000000000E+00 -0.43167133642E+03  0.18508996112E+04  0.17998581133E+04 0.  0.
        2    1    3    3  502    0 -0.85180003284E+03 -0.20253779197E+03 -0.42979223227E+03  0.97534927900E+03  0.25500000920E-02 0.  1.
       -2    1    3    3    0  502  0.85180003284E+03  0.20253779197E+03 -0.18791041504E+01  0.87555033217E+03  0.25500000920E-02 0. -1.
</event>
<event>
 5   0  0.9999162E-06  0.1800180E+04  0.7818609E-02  0.8706204E-01
       -2   -1    0    0    0  501  0.00000000000E+00  0.00000000000E+00  0.79473726667E+03  0.79473726668E+03  0.25500000920E-02 0.  1.
        2   -1    0    0  501    0  0.00000000000E+00  0.00000000000E+00 -0.10194085108E+04  0.10194085108E+04  0.25500000920E-02 0. -1.
    10030    2    1    2    0    0  0.00000000000E+00  0.00000000000E+00 -0.22467124417E+03  0.18141457775E+04  0.18001799172E+04 0.  0.
        1    1    3    3  502    0  0.64360949591E+01 -0.67806619922E+03 -0.70882856520E+03  0.98094501819E+03  0.50400001928E-02 0. -1.
       -1    1    3    3    0  502 -0.64360949591E+01  0.67806619922E+03  0.48415732103E+03  0.83320075934E+03  0.50400001928E-02 0.  1.
</event>
<event>
 5   0  0.4987456E-06  0.1800931E+04  0.7818609E-02  0.8705804E-01
        1   -1    0    0  501    0  0.00000000000E+00  0.00000000000E+00  0.10855062769E+04  0.10855062769E+04  0.50400001928E-02 0. -1.
       -1   -1    0    0    0  501  0.00000000000E+00  0.00000000000E+00 -0.74696798914E+03  0.74696798916E+03  0.50400001928E-02 0.  1.
    10030    2    1    2    0    0  0.00000000000E+00  0.00000000000E+00  0.33853828773E+03  0.18324742660E+04  0.18009313600E+04 0.  0.
        3    1    3    3  502    0 -0.14550268987E+03  0.26086890209E+03  0.10336267219E+04  0.10759218499E+04  0.10100000352E+00 0. -1.
       -3    1    3    3    0  502  0.14550268987E+03 -0.26086890209E+03 -0.69508843414E+03  0.75655241610E+03  0.10100000352E+00 0.  1.
</event>
<event>
 5   0  0.4987456E-06  0.1800524E+04  0.7818609E-02  0.8706021E-01
       -1   -1    0    0    0  501  0.00000000000E+00  0.00000000000E+00  0.16798334846E+04  0.16798334846E+04  0.50400001928E-02 0. -1.
        1   -1    0    0  501    0  0.00000000000E+00  0.00000000000E+00 -0.48247131377E+03  0.48247131379E+03  0.50400001928E-02 0.  1.
    10030    2    1    2    0    0  0.00000000000E+00  0.00000000000E+00  0.11973621708E+04  0.21623047984E+04  0.18005237774E+04 0.  0.
        3    1    3    3  502    0 -0.43568669219E+03  0.49486978067E+03  0.13348355833E+04  0.14887931482E+04  0.10100000352E+00 0. -1.
       -3    1    3    3    0  502  0.43568669219E+03 -0.49486978067E+03 -0.13747341247E+03  0.67351165017E+03  0.10100000352E+00 0.  1.
</event>
<event>
 5   0  0.4983159E-06  0.1799716E+04  0.7818609E-02  0.8706451E-01
       -1   -1    0    0    0  501  0.00000000000E+00  0.00000000000E+00  0.71203629095E+03  0.71203629097E+03  0.50400001928E-02 0. -1.
        1   -1    0    0  501    0  0.00000000000E+00  0.00000000000E+00 -0.11372231684E+04  0.11372231685E+04  0.50400001928E-02 0.  1.
    10030    2    1    2    0    0  0.00000000000E+00  0.00000000000E+00 -0.42518687750E+03  0.18492594594E+04  0.17997157185E+04 0.  0.
        4    1    3    3  502    0  0.23374917111E+03 -0.26812097329E+03  0.63672908722E+03  0.72935113267E+03  0.12699999809E+01 0. -1.
       -4    1    3    3    0  502 -0.23374917111E+03  0.26812097329E+03 -0.10619159647E+04  0.11199083268E+04  0.12699999809E+01 0.  1.
</event>
<event>
 5   0  0.1036381E-05  0.1799502E+04  0.7818609E-02  0.8706565E-01
       -2   -1    0    0    0  501  0.00000000000E+00  0.00000000000E+00  0.88937413862E+03  0.88937413863E+03  0.25500000920E-02 0.  1.
        2   -1    0    0  501    0  0.00000000000E+00  0.00000000000E+00 -0.91024856787E+03  0.91024856788E+03  0.25500000920E-02 0. -1.
    10030    2    1    2    0    0  0.00000000000E+00  0.00000000000E+00 -0.20874429249E+02  0.17996227065E+04  0.17995016377E+04 0.  0.
        4    1    3    3  502    0  0.72752133747E+03  0.49143242212E+03  0.18644350134E+03  0.89752766759E+03  0.12699999809E+01 0.  1.
       -4    1    3    3    0  502 -0.72752133747E+03 -0.49143242212E+03 -0.20731793059E+03  0.90209503892E+03  0.12699999809E+01 0. -1.
</event>
<event>
 5   0  0.4987456E-06  0.1800391E+04  0.7818609E-02  0.8706092E-01
       -1   -1    0    0    0  501  0.00000000000E+00  0.00000000000E+00  0.84860136629E+03  0.84860136631E+03  0.50400001928E-02 0.  1.
        1   -1    0    0  501    0  0.00000000000E+00  0.00000000000E+00 -0.95492646471E+03  0.95492646473E+03  0.50400001928E-02 0. -1.
    10030    2    1    2    0    0  0.00000000000E+00  0.00000000000E+00 -0.10632509842E+03  0.18035278310E+04  0.18003909605E+04 0.  0.
        3    1    3    3  502    0 -0.36421932819E+03 -0.74155056861E+03 -0.41127517223E+03  0.92287607095E+03  0.10100000352E+00 0.  1.
       -3    1    3    3    0  502  0.36421932819E+03  0.74155056861E+03  0.30495007381E+03  0.88065176009E+03  0.10100000352E+00 0. -1.
</event>
<event>
 5   0  0.1000316E-05  0.1800532E+04  0.7818609E-02  0.8706017E-01
        2   -1    0    0  501    0  0.00000000000E+00  0.00000000000E+00  0.18177622994E+04  0.18177622994E+04  0.25500000920E-02 0.  1.
       -2   -1    0    0    0  501  0.00000000000E+00  0.00000000000E+00 -0.44586607629E+03  0.44586607630E+03  0.25500000920E-02 0. -1.
    10030    2    1    2    0    0  0.00000000000E+00  0.00000000000E+00  0.13718962231E+04  0.22636283757E+04  0.18005316371E+04 0.  0.
        5    1    3    3  502    0 -0.54483831820E+03 -0.68676527053E+03  0.42841805060E+03  0.97573533598E+03  0.46999998093E+01 0.  1.
       -5    1    3    3    0  502  0.54483831820E+03  0.68676527053E+03  0.94347817252E+03  0.12878930397E+04  0.46999998093E+01 0. -1.
</event>
<event>
 5   0  0.4987456E-06  0.1800439E+04  0.7818609E-02  0.8706066E-01
       -1   -1    0    0    0  501  0.00000000000E+00  0.00000000000E+00  0.10165266240E+04  0.10165266240E+04  0.50400001928E-02 0. -1.
        1   -1    0    0  501    0  0.00000000000E+00  0.00000000000E+00 -0.79722017160E+03  0.79722017162E+03  0.50400001928E-02 0.  1.
    10030    2    1    2    0    0  0.00000000000E+00  0.00000000000E+00  0.21930645235E+03  0.18137467956E+04  0.18004394237E+04 0.  0.
        3    1    3    3  502    0  0.57540511495E+03  0.63139490786E+03 -0.17642625859E+03  0.87228252929E+03  0.10100000352E+00 0.  1.
       -3    1    3    3    0  502 -0.57540511495E+03 -0.63139490786E+03  0.39573271095E+03  0.94146426629E+03  0.10100000352E+00 0. -1.
</event>
<event>
 5   0  0.9999162E-06  0.1799305E+04  0.7818609E-02  0.8706669E-01
       -2   -1    0    0    0  501  0.00000000000E+00  0.00000000000E+00  0.61369971112E+03  0.61369971112E+03  0.25500000920E-02 0.  1.
        2   -1    0    0  501    0  0.00000000000E+00  0.00000000000E+00 -0.13188443205E+04  0.13188443205E+04  0.25500000920E-02 0. -1.
    10030    2    1    2    0    0  0.00000000000E+00  0.00000000000E+00 -0.70514460941E+03  0.19325440317E+04  0.17993047307E+04 0.  0.
        1    1    3    3  502    0 -0.18332744903E+03  0.26234298518E+03 -0.12556319593E+04  0.12957794615E+04  0.50400001928E-02 0. -1.
       -1    1    3    3    0  502  0.18332744903E+03 -0.26234298518E+03  0.55048734990E+03  0.63676457020E+03  0.50400001928E-02 0.  1.
</event>
<event>
 5   0  0.4987456E-06  0.1800133E+04  0.7818609E-02  0.8706228E-01
        1   -1    0    0  501    0  0.00000000000E+00  0.00000000000E+00  0.91736589080E+03  0.91736589081E+03  0.50400001928E-02 0. -1.
       -1   -1    0    0    0  501  0.00000000000E+00  0.00000000000E+00 -0.88309379191E+03  0.88309379192E+03  0.50400001928E-02 0.  1.
    10030    2    1    2    0    0  0.00000000000E+00  0.00000000000E+00  0.34272098893E+02  0.18004596827E+04  0.18001334652E+04 0.  0.
        3    1    3    3  502    0 -0.24882794754E+02 -0.64473210995E+03  0.64480173615E+03  0.91217757932E+03  0.10100000352E+00 0. -1.
       -3    1    3    3    0  502  0.24882794754E+02  0.64473210995E+03 -0.61052963726E+03  0.88828210341E+03  0.10100000352E+00 0.  1.
</event>
<event>
 5   0  0.1000316E-05  0.1800204E+04  0.7818609E-02  0.8706191E-01
       -2   -1    0    0    0  501  0.00000000000E+00  0.00000000000E+00  0.74973377198E+03  0.74973377199E+03  0.25500000920E-02 0. -1.
        2   -1    0    0  501    0  0.00000000000E+00  0.00000000000E+00 -0.10806286949E+04  0.10806286949E+04  0.25500000920E-02 0.  1.
    10030    2    1    2    0    0  0.00000000000E+00  0.00000000000E+00 -0.33089492291E+03  0.18303624669E+04  0.18002042412E+04 0.  0.
        5    1    3    3  502    0 -0.62987799767E+03  0.88110805816E+02  0.48213055199E+03  0.79811137394E+03  0.46999998093E+01 0. -1.
       -5    1    3    3    0  502  0.62987799767E+03 -0.88110805816E+02 -0.81302547490E+03  0.10322510929E+04  0.46999998093E+01 0.  1.
</event>
<event>
 5   0  0.1035018E-05  0.1799596E+04  0.7818609E-02  0.8706514E-01
        2   -1    0    0  501    0  0.00000000000E+00  0.00000000000E+00  0.93944780933E+03  0.93944780933E+03  0.25500000920E-02 0.  1.
       -2   -1    0    0    0  501  0.00000000000E+00  0.00000000000E+00 -0.86182210348E+03  0.86182210348E+03  0.25500000920E-02 0. -1.
    10030    2    1    2    0    0  0.00000000000E+00  0.00000000000E+00  0.77625705854E+02  0.18012699128E+04  0.17995964961E+04 0.  0.
        3    1    3    3  502    0  0.78237057939E+02  0.60284787753E+03  0.70282273463E+03  0.92925045450E+03  0.10100000352E+00 0.  1.
       -3    1    3    3    0  502 -0.78237057939E+02 -0.60284787753E+03 -0.62519702877E+03  0.87201945831E+03  0.10100000352E+00 0. -1.
</event>
<event>
 5   0  0.1035018E-05  0.1806201E+04  0.7818609E-02  0.8703009E-01
        2   -1    0    0  501    0  0.00000000000E+00  0.00000000000E+00  0.10073128912E+04  0.10073128912E+04  0.25500000920E-02 0. -1.
       -2   -1    0    0    0  501  0.00000000000E+00  0.00000000000E+00 -0.80966991067E+03  0.80966991067E+03  0.25500000920E-02 0.  1.
    10030    2    1    2    0    0  0.00000000000E+00  0.00000000000E+00  0.19764298053E+03  0.18169828019E+04  0.18062014712E+04 0.  0.
        3    1    3    3  502    0 -0.11367317778E+03 -0.13922620085E+03  0.98913843968E+03  0.10053359585E+04  0.10100000352E+00 0. -1.
       -3    1    3    3    0  502  0.11367317778E+03  0.13922620085E+03 -0.79149545915E+03  0.81164684340E+03  0.10100000352E+00 0.  1.
</event>
<event>
 5   0  0.4994123E-06  0.1799762E+04  0.7818609E-02  0.8706426E-01
        1   -1    0    0  501    0  0.00000000000E+00  0.00000000000E+00  0.14232780960E+04  0.14232780960E+04  0.50400001928E-02 0.  1.
       -1   -1    0    0    0  501  0.00000000000E+00  0.00000000000E+00 -0.56895838476E+03  0.56895838478E+03  0.50400001928E-02 0. -1.
    10030    2    1    2    0    0  0.00000000000E+00  0.00000000000E+00  0.85431971125E+03  0.19922364808E+04  0.17997622139E+04 0.  0.
        1    1    3    3  502    0  0.47415446583E+03  0.40673074739E+02 -0.41826534774E+03  0.63357924336E+03  0.50400001928E-02 0. -1.
       -1    1    3    3    0  502 -0.47415446583E+03 -0.40673074739E+02  0.12725850590E+04  0.13586572374E+04  0.50400001928E-02 0.  1.
</event>
<event>
 5   0  0.4983159E-06  0.1810453E+04  0.7818609E-02  0.8700761E-01
        1   -1    0    0  501    0  0.00000000000E+00  0.00000000000E+00  0.43217121414E+03  0.43217121417E+03  0.50400001928E-02 0. -1.
       -1   -1    0    0    0  501  0.00000000000E+00  0.00000000000E+00 -0.18960881497E+04  0.18960881497E+04  0.50400001928E-02 0.  1.
    10030    2    1    2    0    0  0.00000000000E+00  0.00000000000E+00 -0.14639169356E+04  0.23282593639E+04  0.18104526703E+04 0.  0.
        4    1    3    3  502    0  0.82230581182E+03 -0.15756836757E+03 -0.28941707481E+03  0.88587724584E+03  0.12699999809E+01 0. -1.
       -4    1    3    3    0  502 -0.82230581182E+03  0.15756836757E+03 -0.11744998608E+04  0.14423821180E+04  0.12699999809E+01 0.  1.
</event>
<event>
 5   0  0.4994123E-06  0.1796673E+04  0.7818609E-02  0.8708071E-01
        1   -1    0    0  501    0  0.00000000000E+00  0.00000000000E+00  0.27891008382E+04  0.27891008382E+04  0.50400001928E-02 0. -1.
       -1   -1    0    0    0  501  0.00000000000E+00  0.00000000000E+00 -0.28934360927E+03  0.28934360931E+03  0.50400001928E-02 0.  1.
    10030    2    1    2    0    0  0.00000000000E+00  0.00000000000E+00  0.24997572289E+04  0.30784444475E+04  0.17966730400E+04 0.  0.
        1    1    3    3  502    0 -0.43072766655E+03  0.20819152314E+03  0.25526799775E+04  0.25971224655E+04  0.50400001928E-02 0. -1.
       -1    1    3    3    0  502  0.43072766655E+03 -0.20819152314E+03 -0.52922748595E+02  0.48132198203E+03  0.50400001928E-02 0.  1.
</event>
<event>
 5   0  0.3626125E-06  0.1801249E+04  0.7818609E-02  0.8705635E-01
        3   -1    0    0  501    0  0.00000000000E+00  0.00000000000E+00  0.11322731336E+04  0.11322731381E+04  0.10100000352E+00 0.  1.
       -3   -1    0    0    0  501  0.00000000000E+00  0.00000000000E+00 -0.71636836835E+03  0.71636837547E+03  0.10100000352E+00 0. -1.
    10030    2    1    2    0    0  0.00000000000E+00  0.00000000000E+00  0.41590476525E+03  0.18486415136E+04  0.18012491976E+04 0.  0.
        4    1    3    3  502    0 -0.78350414370E+03 -0.42051156776E+03  0.35459037338E+03  0.95731116551E+03  0.12699999809E+01 0. -1.
       -4    1    3    3    0  502  0.78350414370E+03  0.42051156776E+03  0.61314391867E+02  0.89133034806E+03  0.12699999809E+01 0.  1.
</event>
<event>
 5   0  0.4987456E-06  0.1799095E+04  0.7818609E-02  0.8706781E-01
        1   -1    0    0  501    0  0.00000000000E+00  0.00000000000E+00  0.80132147056E+03  0.80132147058E+03  0.50400001928E-02 0.  1.
       -1   -1    0    0    0  501  0.00000000000E+00  0.00000000000E+00 -0.10098136037E+04  0.10098136037E+04  0.50400001928E-02 0. -1.
    10030    2    1    2    0    0  0.00000000000E+00  0.00000000000E+00 -0.20849213312E+03  0.18111350743E+04  0.17990945744E+04 0.  0.
        3    1    3    3  502    0 -0.48534739624E+03 -0.48956969769E+03  0.47750092089E+03  0.83859866658E+03  0.10100000352E+00 0.  1.
       -3    1    3    3    0  502  0.48534739624E+03  0.48956969769E+03 -0.68599305401E+03  0.97253640769E+03  0.10100000352E+00 0. -1.
</event>
<event>
 5   0  0.4983159E-06  0.1799167E+04  0.7818609E-02  0.8706743E-01
        1   -1    0    0  501    0  0.00000000000E+00  0.00000000000E+00  0.87273724281E+03  0.87273724283E+03  0.50400001928E-02 0.  1.
       -1   -1    0    0    0  501  0.00000000000E+00  0.00000000000E+00 -0.92725545153E+03  0.92725545155E+03  0.50400001928E-02 0. -1.
    10030    2    1    2    0    0  0.00000000000E+00  0.00000000000E+00 -0.54518208718E+02  0.17999926944E+04  0.17991668807E+04 0.  0.
        4    1    3    3  502    0  0.72272438831E+03  0.50863447623E+03  0.14077387832E+03  0.89490696141E+03  0.12699999809E+01 0.  1.
       -4    1    3    3    0  502 -0.72272438831E+03 -0.50863447623E+03 -0.19529208703E+03  0.90508573297E+03  0.12699999809E+01 0. -1.
</event>
<event>
 5   0  0.4953155E-06  0.1798861E+04  0.7818609E-02  0.8706906E-01
        1   -1    0    0  501    0  0.00000000000E+00  0.00000000000E+00  0.49702858968E+03  0.49702858970E+03  0.50400001928E-02 0.  1.
       -1   -1    0    0    0  501  0.00000000000E+00  0.00000000000E+00 -0.16276225057E+04  0.16276225058E+04  0.50400001928E-02 0. -1.
    10030    2    1    2    0    0  0.00000000000E+00  0.00000000000E+00 -0.11305939161E+04  0.21246510955E+04  0.17988606601E+04 0.  0.
        2    1    3    3  502    0  0.74965109465E+03  0.10175169579E+03  0.92672015943E+01  0.75658182131E+03  0.25500000920E-02 0.  1.
       -2    1    3    3    0  502 -0.74965109465E+03 -0.10175169579E+03 -0.11398611177E+04  0.13680692741E+04  0.25500000920E-02 0. -1.
</event>
<event>
 5   0  0.9589963E-06  0.1795855E+04  0.7818609E-02  0.8708507E-01
       -2   -1    0    0    0  501  0.00000000000E+00  0.00000000000E+00  0.41643630145E+03  0.41643630145E+03  0.25500000920E-02 0.  1.
        2   -1    0    0  501    0  0.00000000000E+00  0.00000000000E+00 -0.19361276345E+04  0.19361276345E+04  0.25500000920E-02 0. -1.
    10030    2    1    2    0    0  0.00000000000E+00  0.00000000000E+00 -0.15196913331E+04  0.23525639360E+04  0.17958550401E+04 0.  0.
        2    1    3    3  502    0  0.43096032429E+02  0.89545192414E+03 -0.82641637177E+03  0.12192848051E+04  0.25500000920E-02 0. -1.
       -2    1    3    3    0  502 -0.43096032429E+02 -0.89545192414E+03 -0.69327496131E+03  0.11332791309E+04  0.25500000920E-02 0.  1.
</event>
<event>
 5   0  0.4981384E-06  0.1799880E+04  0.7818609E-02  0.8706363E-01
       -1   -1    0    0    0  501  0.00000000000E+00  0.00000000000E+00  0.50520605465E+03  0.50520605467E+03  0.50400001928E-02 0.  1.
        1   -1    0    0  501    0  0.00000000000E+00  0.00000000000E+00 -0.16030919093E+04  0.16030919093E+04  0.50400001928E-02 0. -1.
    10030    2    1    2    0    0  0.00000000000E+00  0.00000000000E+00 -0.10978858546E+04  0.21082979640E+04  0.17998797057E+04 0.  0.
        5    1    3    3  502    0 -0.51821896733E+03 -0.20635068196E+03  0.27828426652E+03  0.62337446614E+03  0.46999998093E+01 0.  1.
       -5    1    3    3    0  502  0.51821896733E+03  0.20635068196E+03 -0.13761701212E+04  0.14849234978E+04  0.46999998093E+01 0. -1.
</event>
<event>
 5   0  0.4987456E-06  0.1811619E+04  0.7818609E-02  0.8700145E-01
        1   -1    0    0  501    0  0.00000000000E+00  0.00000000000E+00  0.17581388301E+04  0.17581388301E+04  0.50400001928E-02 0. -1.
       -1   -1    0    0    0  501  0.00000000000E+00  0.00000000000E+00 -0.46668149063E+03  0.46668149066E+03  0.50400001928E-02 0.  1.
    10030    2    1    2    0    0  0.00000000000E+00  0.00000000000E+00  0.12914573395E+04  0.22248203208E+04  0.18116189997E+04 0.  0.
        3    1    3    3  502    0  0.76822598722E+03 -0.45511377668E+03  0.45870827807E+03  0.10038490981E+04  0.10100000352E+00 0.  1.
       -3    1    3    3    0  502 -0.76822598722E+03  0.45511377668E+03  0.83274906141E+03  0.12209712227E+04  0.10100000352E+00 0. -1.
</event>
<event>
 5   0  0.9589963E-06  0.1798621E+04  0.7818609E-02  0.8707033E-01
       -2   -1    0    0    0  501  0.00000000000E+00  0.00000000000E+00  0.47524508804E+03  0.47524508805E+03  0.25500000920E-02 0.  1.
        2   -1    0    0  501    0  0.00000000000E+00  0.00000000000E+00 -0.17017736477E+04  0.17017736477E+04  0.25500000920E-02 0. -1.
    10030    2    1    2    0    0  0.00000000000E+00  0.00000000000E+00 -0.12265285597E+04  0.21770187358E+04  0.17986212131E+04 0.  0.
        2    1    3    3  502    0 -0.22604395915E+03  0.56920084099E+03  0.18381991458E+03  0.63943352263E+03  0.25500000920E-02 0.  1.
       -2    1    3    3    0  502  0.22604395915E+03 -0.56920084099E+03 -0.14103484743E+04  0.15375852132E+04  0.25500000920E-02 0. -1.
</event>
<event>
 5   0  0.4953155E-06  0.1800573E+04  0.7818609E-02  0.8705995E-01
        1   -1    0    0  501    0  0.00000000000E+00  0.00000000000E+00  0.75244265360E+03  0.75244265362E+03  0.50400001928E-02 0.  1.
       -1   -1    0    0    0  501  0.00000000000E+00  0.00000000000E+00 -0.10771790716E+04  0.10771790716E+04  0.50400001928E-02 0. -1.
    10030    2    1    2    0    0  0.00000000000E+00  0.00000000000E+00 -0.32473641800E+03  0.18296217252E+04  0.18005726634E+04 0.  0.
        2    1    3    3  502    0 -0.41452040390E+03  0.60067086121E+03 -0.69801870698E+03  0.10098825496E+04  0.25500000920E-02 0. -1.
       -2    1    3    3    0  502  0.41452040390E+03 -0.60067086121E+03  0.37328228898E+03  0.81973917561E+03  0.25500000920E-02 0.  1.
</event>
<event>
 5   0  0.4981384E-06  0.1799267E+04  0.7818609E-02  0.8706689E-01
       -1   -1    0    0    0  501  0.00000000000E+00  0.00000000000E+00  0.72297781820E+03  0.72297781822E+03  0.50400001928E-02 0. -1.
        1   -1    0    0  501    0  0.00000000000E+00  0.00000000000E+00 -0.11194544014E+04  0.11194544014E+04  0.50400001928E-02 0.  1.
    10030    2    1    2    0    0  0.00000000000E+00  0.00000000000E+00 -0.39647658316E+03  0.18424322196E+04  0.17992672961E+04 0.  0.
        5    1    3    3  502    0  0.42721616816E+02  0.12187733043E+03 -0.11098998847E+04  0.11173983463E+04  0.46999998093E+01 0.  1.
       -5    1    3    3    0  502 -0.42721616816E+02 -0.12187733043E+03  0.71342330156E+03  0.72503387329E+03  0.46999998093E+01 0. -1.
</event>
<event>
 5   0  0.9999162E-06  0.1801232E+04  0.7818609E-02  0.8705645E-01
        2   -1    0    0  501    0  0.00000000000E+00  0.00000000000E+00  0.62206516262E+03  0.62206516263E+03  0.25500000920E-02 0.  1.
       -2   -1    0    0    0  501  0.00000000000E+00  0.00000000000E+00 -0.13038967951E+04  0.13038967951E+04  0.25500000920E-02 0. -1.
    10030    2    1    2    0    0  0.00000000000E+00  0.00000000000E+00 -0.68183163249E+03  0.19259619577E+04  0.18012315475E+04 0.  0.
        1    1    3    3  502    0 -0.81627824985E+03 -0.24282226514E+03 -0.65418143925E+03  0.10738836944E+04  0.50400001928E-02 0. -1.
       -1    1    3    3    0  502  0.81627824985E+03  0.24282226514E+03 -0.27650193241E+02  0.85207826333E+03  0.50400001928E-02 0.  1.
</event>
<event>
 5   0  0.9589963E-06  0.1799396E+04  0.7818609E-02  0.8706621E-01
        2   -1    0    0  501    0  0.00000000000E+00  0.00000000000E+00  0.12729755014E+04  0.12729755014E+04  0.25500000920E-02 0. -1.
       -2   -1    0    0    0  501  0.00000000000E+00  0.00000000000E+00 -0.63587732940E+03  0.63587732941E+03  0.25500000920E-02 0.  1.
    10030    2    1    2    0    0  0.00000000000E+00  0.00000000000E+00  0.63709817197E+03  0.19088528308E+04  0.17993957455E+04 0.  0.
        2    1    3    3  502    0  0.25924741698E+03  0.81678656325E+03  0.60927600057E+03  0.10514593468E+04  0.25500000920E-02 0.  1.
       -2    1    3    3    0  502 -0.25924741698E+03 -0.81678656325E+03  0.27822171393E+02  0.85739348397E+03  0.25500000920E-02 0. -1.
</event>
<event>
 5   0  0.1036381E-05  0.1799295E+04  0.7818609E-02  0.8706675E-01
       -2   -1    0    0    0  501  0.00000000000E+00  0.00000000000E+00  0.36894839255E+03  0.36894839256E+03  0.25500000920E-02 0. -1.
        2   -1    0    0  501    0  0.00000000000E+00  0.00000000000E+00 -0.21937087797E+04  0.21937087797E+04  0.25500000920E-02 0.  1.
    10030    2    1    2    0    0  0.00000000000E+00  0.00000000000E+00 -0.18247603872E+04  0.25626571723E+04  0.17992946707E+04 0.  0.
        4    1    3    3  502    0  0.51664953206E+03  0.64049745438E+03 -0.14302301257E+04  0.16500677421E+04  0.12699999809E+01 0.  1.
       -4    1    3    3    0  502 -0.51664953206E+03 -0.64049745438E+03 -0.39453026149E+03  0.91258943023E+03  0.12699999809E+01 0. -1.
</event>
<event>
 5   0  0.1000316E-05  0.1803190E+04  0.7818609E-02  0.8704605E-01
        2   -1    0    0  501    0  0.00000000000E+00  0.00000000000E+00  0.15721712159E+04  0.15721712159E+04  0.25500000920E-02 0.  1.
       -2   -1    0    0    0  501  0.00000000000E+00  0.00000000000E+00 -0.51703900464E+03  0.51703900465E+03  0.25500000920E-02 0. -1.
    10030    2    1    2    0    0  0.00000000000E+00  0.00000000000E+00  0.10551322112E+04  0.20892102205E+04  0.18031903289E+04 0.  0.
        5    1    3    3  502    0 -0.82204554457E+03 -0.12215064957E+03  0.12259263155E+03  0.84007779511E+03  0.46999998093E+01 0. -1.
       -5    1    3    3    0  502  0.82204554457E+03  0.12215064957E+03  0.93253957966E+03  0.12491324254E+04  0.46999998093E+01 0.  1.
</event>
<event>
 5   0  0.1036381E-05  0.1813250E+04  0.7818609E-02  0.8699285E-01
       -2   -1    0    0    0  501  0.00000000000E+00  0.00000000000E+00  0.97175082523E+03  0.97175082523E+03  0.25500000920E-02 0. -1.
        2   -1    0    0  501    0  0.00000000000E+00  0.00000000000E+00 -0.84586375647E+03  0.84586375647E+03  0.25500000920E-02 0.  1.
    10030    2    1    2    0    0  0.00000000000E+00  0.00000000000E+00  0.12588706876E+03  0.18176145817E+04  0.18132499038E+04 0.  0.
        4    1    3    3  502    0  0.70350293160E+03  0.56737107547E+03 -0.89289740778E+01  0.90382943719E+03  0.12699999809E+01 0.  1.
       -4    1    3    3    0  502 -0.70350293160E+03 -0.56737107547E+03  0.13481604284E+03  0.91378514452E+03  0.12699999809E+01 0. -1.
</event>
<event>
 5   0  0.9999162E-06  0.1799993E+04  0.7818609E-02  0.8706303E-01
        2   -1    0    0  501    0  0.00000000000E+00  0.00000000000E+00  0.20272695785E+04  0.20272695785E+04  0.25500000920E-02 0. -1.
       -2   -1    0    0    0  501  0.00000000000E+00  0.00000000000E+00 -0.39954893025E+03  0.39954893026E+03  0.25500000920E-02 0.  1.
    10030    2    1    2    0    0  0.00000000000E+00  0.00000000000E+00  0.16277206482E+04  0.24268185088E+04  0.17999926571E+04 0.  0.
        1    1    3    3  502    0 -0.57176552922E+03 -0.26771401160E+03 -0.50913004981E+02  0.63338672746E+03  0.50400001928E-02 0.  1.
       -1    1    3    3    0  502  0.57176552922E+03  0.26771401160E+03  0.16786336532E+04  0.17934317813E+04  0.50400001928E-02 0. -1.
</event>
<event>
 5   0  0.4953155E-06  0.1799999E+04  0.7818609E-02  0.8706300E-01
       -1   -1    0    0    0  501  0.00000000000E+00  0.00000000000E+00  0.72155748327E+03  0.72155748329E+03  0.50400001928E-02 0.  1.
        1   -1    0    0  501    0  0.00000000000E+00  0.00000000000E+00 -0.11225710394E+04  0.11225710394E+04  0.50400001928E-02 0. -1.
    10030    2    1    2    0    0  0.00000000000E+00  0.00000000000E+00 -0.40101355614E+03  0.18441285227E+04  0.17999994822E+04 0.  0.
        2    1    3    3  502    0  0.48197367885E+03 -0.51554175746E+03  0.37168122442E+03  0.79763955731E+03  0.25500000920E-02 0.  1.
       -2    1    3    3    0  502 -0.48197367885E+03  0.51554175746E+03 -0.77269478056E+03  0.10464889654E+04  0.25500000920E-02 0. -1.
</event>
<event>
 5   0  0.9589963E-06  0.1799334E+04  0.7818609E-02  0.8706654E-01
       -2   -1    0    0    0  501  0.00000000000E+00  0.00000000000E+00  0.85831392187E+03  0.85831392188E+03  0.25500000920E-02 0. -1.
        2   -1    0    0  501    0  0.00000000000E+00  0.00000000000E+00 -0.94301205905E+03  0.94301205905E+03  0.25500000920E-02 0.  1.
    10030    2    1    2    0    0  0.00000000000E+00  0.00000000000E+00 -0.84698137174E+02  0.18013259809E+04  0.17993336309E+04 0.  0.
        2    1    3    3  502    0  0.41358067545E+03  0.33133334681E+03 -0.77018201969E+03  0.93488561079E+03  0.25500000920E-02 0.  1.
       -2    1    3    3    0  502 -0.41358067545E+03 -0.33133334681E+03  0.68548388251E+03  0.86644037014E+03  0.25500000920E-02 0. -1.
</event>
<event>
 5   0  0.1035018E-05  0.1800111E+04  0.7818609E-02  0.8706241E-01
        2   -1    0    0  501    0  0.00000000000E+00  0.00000000000E+00  0.16396392038E+04  0.16396392038E+04  0.25500000920E-02 0. -1.
       -2   -1    0    0    0  501  0.00000000000E+00  0.00000000000E+00 -0.49407181179E+03  0.49407181180E+03  0.25500000920E-02 0.  1.
    10030    2    1    2    0    0  0.00000000000E+00  0.00000000000E+00  0.11455673920E+04  0.21337110156E+04  0.18001105656E+04 0.  0.
        3    1    3    3  502    0  0.53176567953E+03  0.56519349708E+03  0.32348163571E+02  0.77670125593E+03  0.10100000352E+00 0.  1.
       -3    1    3    3    0  502 -0.53176567953E+03 -0.56519349708E+03  0.11132192284E+04  0.13570097596E+04  0.10100000352E+00 0. -1.
</event>
<event>
 5   0  0.3626125E-06  0.1799743E+04  0.7818609E-02  0.8706436E-01
       -4   -1    0    0    0  501  0.00000000000E+00  0.00000000000E+00  0.93324062692E+03  0.93324149106E+03  0.12699999809E+01 0.  1.
        4   -1    0    0  501    0  0.00000000000E+00  0.00000000000E+00 -0.86769389230E+03  0.86769482172E+03  0.12699999809E+01 0. -1.
    10030    2    1    2    0    0  0.00000000000E+00  0.00000000000E+00  0.65546734620E+02  0.18009363128E+04  0.17997431006E+04 0.  0.
        4    1    3    3  502    0  0.41299677600E+03 -0.10230529497E+03 -0.76068012839E+03  0.87158968615E+03  0.12699999809E+01 0. -1.
       -4    1    3    3    0  502 -0.41299677600E+03  0.10230529497E+03  0.82622686301E+03  0.92934662663E+03  0.12699999809E+01 0.  1.
</event>
<event>
 5   0  0.9999162E-06  0.1799708E+04  0.7818609E-02  0.8706455E-01
        2   -1    0    0  501    0  0.00000000000E+00  0.00000000000E+00  0.27943571290E+04  0.27943571290E+04  0.25500000920E-02 0. -1.
       -2   -1    0    0    0  501  0.00000000000E+00  0.00000000000E+00 -0.28977577437E+03  0.28977577438E+03  0.25500000920E-02 0.  1.
    10030    2    1    2    0    0  0.00000000000E+00  0.00000000000E+00  0.25045813546E+04  0.30841329034E+04  0.17997077551E+04 0.  0.
        1    1    3    3  502    0  0.46287329171E+03  0.68920843823E+03  0.65747384376E+03  0.10590239897E+04  0.50400001928E-02 0.  1.
       -1    1    3    3    0  502 -0.46287329171E+03 -0.68920843823E+03  0.18471075109E+04  0.20251089137E+04  0.50400001928E-02 0. -1.
</event>
<event>
 5   0  0.4994123E-06  0.1799210E+04  0.7818609E-02  0.8706720E-01
       -1   -1    0    0    0  501  0.00000000000E+00  0.00000000000E+00  0.41180171809E+03  0.41180171812E+03  0.50400001928E-02 0. -1.
        1   -1    0    0  501    0  0.00000000000E+00  0.00000000000E+00 -0.19652403133E+04  0.19652403133E+04  0.50400001928E-02 0.  1.
    10030    2    1    2    0    0  0.00000000000E+00  0.00000000000E+00 -0.15534385952E+04  0.23770420314E+04  0.17992102018E+04 0.  0.
        1    1    3    3  502    0  0.62505169473E+03 -0.53188002433E+03 -0.12634068630E+04  0.15065798628E+04  0.50400001928E-02 0.  1.
       -1    1    3    3    0  502 -0.62505169473E+03  0.53188002433E+03 -0.29003173220E+03  0.87046216867E+03  0.50400001928E-02 0. -1.
</event>
<event>
 5   0  0.9589963E-06  0.1799443E+04  0.7818609E-02  0.8706596E-01
        2   -1    0    0  501    0  0.00000000000E+00  0.00000000000E+00  0.10480516526E+04  0.10480516526E+04  0.25500000920E-02 0.  1.
       -2   -1    0    0    0  501  0.00000000000E+00  0.00000000000E+00 -0.77238410327E+03  0.77238410328E+03  0.25500000920E-02 0. -1.
    10030    2    1    2    0    0  0.00000000000E+00  0.00000000000E+00  0.27566754932E+03  0.18204357559E+04  0.17994426202E+04 0.  0.
        2    1    3    3  502    0  0.26410338352E+02  0.36604780519E+03 -0.69321801320E+03  0.78437217919E+03  0.25500000920E-02 0. -1.
       -2    1    3    3    0  502 -0.26410338352E+02 -0.36604780519E+03  0.96888556252E+03  0.10360635767E+04  0.25500000920E-02 0.  1.
</event>
<event>
 5   0  0.4981384E-06  0.1800485E+04  0.7818609E-02  0.8706042E-01
        1   -1    0    0  501    0  0.00000000000E+00  0.00000000000E+00  0.95652203357E+03  0.95652203358E+03  0.50400001928E-02 0. -1.
       -1   -1    0    0    0  501  0.00000000000E+00  0.00000000000E+00 -0.84727422103E+03  0.84727422104E+03  0.50400001928E-02 0.  1.
    10030    2    1    2    0    0  0.00000000000E+00  0.00000000000E+00  0.10924781254E+03  0.18037962546E+04  0.18004848913E+04 0.  0.
        5    1    3    3  502    0  0.81584168413E+03  0.28264550802E+03 -0.20065492050E+03  0.88643703888E+03  0.46999998093E+01 0. -1.
       -5    1    3    3    0  502 -0.81584168413E+03 -0.28264550802E+03  0.30990273304E+03  0.91735921575E+03  0.46999998093E+01 0.  1.
</event>
<event>
 5   0  0.1000316E-05  0.1800403E+04  0.7818609E-02  0.8706085E-01
        2   -1    0    0  501    0  0.00000000000E+00  0.00000000000E+00  0.14048072880E+04  0.14048072880E+04  0.25500000920E-02 0. -1.
       -2   -1    0    0    0  501  0.00000000000E+00  0.00000000000E+00 -0.57684967972E+03  0.57684967973E+03  0.25500000920E-02 0.  1.
    10030    2    1    2    0    0  0.00000000000E+00  0.00000000000E+00  0.82795760832E+03  0.19816569678E+04  0.18004028818E+04 0.  0.
        5    1    3    3  502    0  0.48621462219E+03 -0.60067909833E+03 -0.94147173732E+02  0.77852798172E+03  0.46999998093E+01 0.  1.
       -5    1    3    3    0  502 -0.48621462219E+03  0.60067909833E+03  0.92210478205E+03  0.12031289861E+04  0.46999998093E+01 0. -1.
</event>
<event>
 5   0  0.4983159E-06  0.1801590E+04  0.7818609E-02  0.8705455E-01
        1   -1    0    0  501    0  0.00000000000E+00  0.00000000000E+00  0.66337453663E+03  0.66337453664E+03  0.50400001928E-02 0.  1.
       -1   -1    0    0    0  501  0.00000000000E+00  0.00000000000E+00 -0.12231871625E+04  0.12231871625E+04  0.50400001928E-02 0. -1.
    10030    2    1    2    0    0  0.00000000000E+00  0.00000000000E+00 -0.55981262589E+03  0.18865616992E+04  0.18015895395E+04 0.  0.
        4    1    3    3  502    0 -0.54393955269E+02 -0.12974735114E+03  0.65179793159E+03  0.66680974349E+03  0.12699999809E+01 0.  1.
       -4    1    3    3    0  502  0.54393955269E+02  0.12974735114E+03 -0.12116105575E+04  0.12197519557E+04  0.12699999809E+01 0. -1.
</event>
<event>
 5   0  0.1036381E-05  0.1796603E+04  0.7818609E-02  0.8708108E-01
       -2   -1    0    0    0  501  0.00000000000E+00  0.00000000000E+00  0.94662184834E+03  0.94662184834E+03  0.25500000920E-02 0. -1.
        2   -1    0    0  501    0  0.00000000000E+00  0.00000000000E+00 -0.85244759262E+03  0.85244759262E+03  0.25500000920E-02 0.  1.
    10030    2    1    2    0    0  0.00000000000E+00  0.00000000000E+00  0.94174255721E+02  0.17990694410E+04  0.17966029230E+04 0.  0.
        4    1    3    3  502    0 -0.33484687371E+03 -0.30398698254E+03  0.82430563314E+03  0.94021907240E+03  0.12699999809E+01 0. -1.
       -4    1    3    3    0  502  0.33484687371E+03  0.30398698254E+03 -0.73013137742E+03  0.85885036856E+03  0.12699999809E+01 0.  1.
</event>
<event>
 5   0  0.4994123E-06  0.1799672E+04  0.7818609E-02  0.8706474E-01
        1   -1    0    0  501    0  0.00000000000E+00  0.00000000000E+00  0.86761843668E+03  0.86761843669E+03  0.50400001928E-02 0.  1.
       -1   -1    0    0    0  501  0.00000000000E+00  0.00000000000E+00 -0.93324995292E+03  0.93324995293E+03  0.50400001928E-02 0. -1.
    10030    2    1    2    0    0  0.00000000000E+00  0.00000000000E+00 -0.65631516244E+02  0.18008683896E+04  0.17996720426E+04 0.  0.
        1    1    3    3  502    0 -0.27344369591E+03 -0.67831246121E+02 -0.88797869242E+03  0.93160007031E+03  0.50400001928E-02 0. -1.
       -1    1    3    3    0  502  0.27344369591E+03  0.67831246121E+02  0.82234717618E+03  0.86926831932E+03  0.50400001928E-02 0.  1.
</event>
<event>
 5   0  0.9999162E-06  0.1801729E+04  0.7818609E-02  0.8705381E-01
       -2   -1    0    0    0  501  0.00000000000E+00  0.00000000000E+00  0.63229084776E+03  0.63229084776E+03  0.25500000920E-02 0. -1.
        2   -1    0    0  501    0  0.00000000000E+00  0.00000000000E+00 -0.12835180619E+04  0.12835180619E+04  0.25500000920E-02 0.  1.
    10030    2    1    2    0    0  0.00000000000E+00  0.00000000000E+00 -0.65122721411E+03  0.19158089096E+04  0.18017288625E+04 0.  0.
        1    1    3    3  502    0 -0.15318276088E+01 -0.30972250155E+03 -0.12251234382E+04  0.12636683953E+04  0.50400001928E-02 0.  1.
       -1    1    3    3    0  502  0.15318276088E+01  0.30972250155E+03  0.57389622405E+03  0.65214051436E+03  0.50400001928E-02 0. -1.
</event>
<event>
 5   0  0.4983159E-06  0.1798970E+04  0.7818609E-02  0.8706847E-01
        1   -1    0    0  501    0  0.00000000000E+00  0.00000000000E+00  0.14604119391E+04  0.14604119391E+04  0.50400001928E-02 0.  1.
       -1   -1    0    0    0  501  0.00000000000E+00  0.00000000000E+00 -0.55400352161E+03  0.55400352163E+03  0.50400001928E-02 0. -1.
    10030    2    1    2    0    0  0.00000000000E+00  0.00000000000E+00  0.90640841752E+03  0.20144154608E+04  0.17989701024E+04 0.  0.
        4    1    3    3  502    0  0.25322392537E+03  0.68814308559E+03  0.10365644252E+04  0.12696970832E+04  0.12699999809E+01 0.  1.
       -4    1    3    3    0  502 -0.25322392537E+03 -0.68814308559E+03 -0.13015600768E+03  0.74471837755E+03  0.12699999809E+01 0. -1.
</event>
<event>
 5   0  0.1035018E-05  0.1802412E+04  0.7818609E-02  0.8705018E-01
       -2   -1    0    0    0  501  0.00000000000E+00  0.00000000000E+00  0.77313109247E+03  0.77313109248E+03  0.25500000920E-02 0. -1.
        2   -1    0    0  501    0  0.00000000000E+00  0.00000000000E+00 -0.10504978867E+04  0.10504978867E+04  0.25500000920E-02 0.  1.
    10030    2    1    2    0    0  0.00000000000E+00  0.00000000000E+00 -0.27736679422E+03  0.18236289792E+04  0.18024123599E+04 0.  0.
        3    1    3    3  502    0  0.39163249532E+03 -0.27388331464E+03  0.63436841625E+03  0.79423634969E+03  0.10100000352E+00 0. -1.
       -3    1    3    3    0  502 -0.39163249532E+03  0.27388331464E+03 -0.91173521047E+03  0.10293926295E+04  0.10100000352E+00 0.  1.
</event>
<event>
 5   0  0.4987456E-06  0.1799236E+04  0.7818609E-02  0.8706706E-01
       -1   -1    0    0    0  501  0.00000000000E+00  0.00000000000E+00  0.38853258026E+03  0.38853258029E+03  0.50400001928E-02 0.  1.
        1   -1    0    0  501    0  0.00000000000E+00  0.00000000000E+00 -0.20829988448E+04  0.20829988448E+04  0.50400001928E-02 0. -1.
    10030    2    1    2    0    0  0.00000000000E+00  0.00000000000E+00 -0.16944662646E+04  0.24715314251E+04  0.17992364113E+04 0.  0.
        3    1    3    3  502    0  0.71651980975E+03 -0.69314816558E+02 -0.10608542416E+03  0.72763954605E+03  0.10100000352E+00 0.  1.
       -3    1    3    3    0  502 -0.71651980975E+03  0.69314816558E+02 -0.15883808404E+04  0.17438918791E+04  0.10100000352E+00 0. -1.
</event>
<event>
 5   0  0.9999162E-06  0.1800965E+04  0.7818609E-02  0.8705786E-01
        2   -1    0    0  501    0  0.00000000000E+00  0.00000000000E+00  0.19618708467E+04  0.19618708467E+04  0.25500000920E-02 0.  1.
       -2   -1    0    0    0  501  0.00000000000E+00  0.00000000000E+00 -0.41331409307E+03  0.41331409308E+03  0.25500000920E-02 0. -1.
    10030    2    1    2    0    0  0.00000000000E+00  0.00000000000E+00  0.15485567537E+04  0.23751849398E+04  0.18009651521E+04 0.  0.
        1    1    3    3  502    0 -0.10139934802E+03 -0.60699492362E+02 -0.40304223375E+03  0.42001106933E+03  0.50400001928E-02 0. -1.
       -1    1    3    3    0  502  0.10139934802E+03  0.60699492362E+02  0.19515989874E+04  0.19551738705E+04  0.50400001928E-02 0.  1.
</event>
<event>
 5   0  0.4983159E-06  0.1798995E+04  0.7818609E-02  0.8706834E-01
        1   -1    0    0  501    0  0.00000000000E+00  0.00000000000E+00  0.11980960166E+04  0.11980960166E+04  0.50400001928E-02 0.  1.
       -1   -1    0    0    0  501  0.00000000000E+00  0.00000000000E+00 -0.67531810809E+03  0.67531810810E+03  0.50400001928E-02 0. -1.
    10030    2    1    2    0    0  0.00000000000E+00  0.00000000000E+00  0.52277790855E+03  0.18734141247E+04  0.17989952032E+04 0.  0.
        4    1    3    3  502    0 -0.67359054839E+02 -0.40331088358E+03 -0.57293861989E+03  0.70388719703E+03  0.12699999809E+01 0. -1.
       -4    1    3    3    0  502  0.67359054839E+02  0.40331088358E+03  0.10957165284E+04  0.11695269277E+04  0.12699999809E+01 0.  1.
</event>
<event>
 5   0  0.1035018E-05  0.1799323E+04  0.7818609E-02  0.8706660E-01
        2   -1    0    0  501    0  0.00000000000E+00  0.00000000000E+00  0.19768423135E+04  0.19768423135E+04  0.25500000920E-02 0. -1.
       -2   -1    0    0    0  501  0.00000000000E+00  0.00000000000E+00 -0.40943605482E+03  0.40943605483E+03  0.25500000920E-02 0.  1.
    10030    2    1    2    0    0  0.00000000000E+00  0.00000000000E+00  0.15674062587E+04  0.23862783683E+04  0.17993226702E+04 0.  0.
        3    1    3    3  502    0 -0.11436527739E+03 -0.17197332673E+03 -0.37757181366E+03  0.43036580539E+03  0.10100000352E+00 0.  1.
       -3    1    3    3    0  502  0.11436527739E+03  0.17197332673E+03  0.19449780723E+04  0.19559125629E+04  0.10100000352E+00 0. -1.
</event>
<event>
 5   0  0.4983159E-06  0.1801462E+04  0.7818609E-02  0.8705523E-01
       -1   -1    0    0    0  501  0.00000000000E+00  0.00000000000E+00  0.74046593840E+03  0.74046593842E+03  0.50400001928E-02 0. -1.
        1   -1    0    0  501    0  0.00000000000E+00  0.00000000000E+00 -0.10956830179E+04  0.10956830179E+04  0.50400001928E-02 0.  1.
    10030    2    1    2    0    0  0.00000000000E+00  0.00000000000E+00 -0.35521707949E+03  0.18361489563E+04  0.18014615778E+04 0.  0.
        4    1    3    3  502    0  0.28838677314E+03 -0.69332811484E+03 -0.68462371992E+03  0.10161604482E+04  0.12699999809E+01 0.  1.
       -4    1    3    3    0  502 -0.28838677314E+03  0.69332811484E+03  0.32940664043E+03  0.81998850810E+03  0.12699999809E+01 0. -1.
</event>
<event>
 5   0  0.3626125E-06  0.1799360E+04  0.7818609E-02  0.8706640E-01
       -3   -1    0    0    0  501  0.00000000000E+00  0.00000000000E+00  0.64114123528E+03  0.64114124323E+03  0.10100000352E+00 0. -1.
        3   -1    0    0  501    0  0.00000000000E+00  0.00000000000E+00 -0.12624733792E+04  0.12624733832E+04  0.10100000352E+00 0.  1.
    10030    2    1    2    0    0  0.00000000000E+00  0.00000000000E+00 -0.62133214389E+03  0.19036146264E+04  0.17993596119E+04 0.  0.
        4    1    3    3  502    0  0.52656148485E+03  0.21782880561E+03  0.42588039858E+03  0.71140151299E+03  0.12699999809E+01 0. -1.
       -4    1    3    3    0  502 -0.52656148485E+03 -0.21782880561E+03 -0.10472125425E+04  0.11922131135E+04  0.12699999809E+01 0.  1.
</event>
<event>
 5   0  0.4983159E-06  0.1800148E+04  0.7818609E-02  0.8706221E-01
        1   -1    0    0  501    0  0.00000000000E+00  0.00000000000E+00  0.11010010888E+04  0.11010010888E+04  0.50400001928E-02 0. -1.
       -1   -1    0    0    0  501  0.00000000000E+00  0.00000000000E+00 -0.73581510695E+03  0.73581510697E+03  0.50400001928E-02 0.  1.
    10030    2    1    2    0    0  0.00000000000E+00  0.00000000000E+00  0.36518598186E+03  0.18368161958E+04  0.18001480316E+04 0.  0.
        4    1    3    3  502    0 -0.86216625239E+03 -0.14580036398E+03 -0.35162635582E+02  0.87511508771E+03  0.12699999809E+01 0.  1.
       -4    1    3    3    0  502  0.86216625239E+03  0.14580036398E+03  0.40034861744E+03  0.96170110808E+03  0.12699999809E+01 0. -1.
</event>
<event>
 5   0  0.4981384E-06  0.1799445E+04  0.7818609E-02  0.8706595E-01
       -1   -1    0    0    0  501  0.00000000000E+00  0.00000000000E+00  0.17992637737E+04  0.17992637737E+04  0.50400001928E-02 0. -1.
        1   -1    0    0  501    0  0.00000000000E+00  0.00000000000E+00 -0.44990663970E+03  0.44990663973E+03  0.50400001928E-02 0.  1.
    10030    2    1    2    0    0  0.00000000000E+00  0.00000000000E+00  0.13493571340E+04  0.22491704134E+04  0.17994451572E+04 0.  0.
        5    1    3    3  502    0 -0.90777685869E+02 -0.14674078590E+03  0.17783732677E+04  0.17867308179E+04  0.46999998093E+01 0. -1.
       -5    1    3    3    0  502  0.90777685869E+02  0.14674078590E+03 -0.42901613371E+03  0.46243959549E+03  0.46999998093E+01 0.  1.
</event>
<event>
 5   0  0.9589963E-06  0.1800197E+04  0.7818609E-02  0.8706195E-01
        2   -1    0    0  501    0  0.00000000000E+00  0.00000000000E+00  0.16134755126E+04  0.16134755126E+04  0.25500000920E-02 0. -1.
       -2   -1    0    0    0  501  0.00000000000E+00  0.00000000000E+00 -0.50213181182E+03  0.50213181183E+03  0.25500000920E-02 0.  1.
    10030    2    1    2    0    0  0.00000000000E+00  0.00000000000E+00  0.11113437008E+04  0.21156073245E+04  0.18001970809E+04 0.  0.
        2    1    3    3  502    0  0.51362849836E+03  0.64081855193E+03  0.98861264008E+03  0.12852305641E+04  0.25500000920E-02 0.  1.
       -2    1    3    3    0  502 -0.51362849836E+03 -0.64081855193E+03  0.12273106073E+03  0.83037676034E+03  0.25500000920E-02 0. -1.
</event>
<event>
 5   0  0.1036381E-05  0.1799678E+04  0.7818609E-02  0.8706471E-01
       -2   -1    0    0    0  501  0.00000000000E+00  0.00000000000E+00  0.10125233493E+04  0.10125233493E+04  0.25500000920E-02 0. -1.
        2   -1    0    0  501    0  0.00000000000E+00  0.00000000000E+00 -0.79969493646E+03  0.79969493646E+03  0.25500000920E-02 0.  1.
    10030    2    1    2    0    0  0.00000000000E+00  0.00000000000E+00  0.21282841285E+03  0.18122182858E+04  0.17996775217E+04 0.  0.
        4    1    3    3  502    0 -0.16322882215E+03 -0.39077901102E+03  0.90589652702E+03  0.10000010072E+04  0.12699999809E+01 0. -1.
       -4    1    3    3    0  502  0.16322882215E+03  0.39077901102E+03 -0.69306811417E+03  0.81221727857E+03  0.12699999809E+01 0.  1.
</event>
<event>
 5   0  0.1000316E-05  0.1800571E+04  0.7818609E-02  0.8705996E-01
       -2   -1    0    0    0  501  0.00000000000E+00  0.00000000000E+00  0.64368360644E+03  0.64368360645E+03  0.25500000920E-02 0.  1.
        2   -1    0    0  501    0  0.00000000000E+00  0.00000000000E+00 -0.12591809593E+04  0.12591809593E+04  0.25500000920E-02 0. -1.
    10030    2    1    2    0    0  0.00000000000E+00  0.00000000000E+00 -0.61549735289E+03  0.19028645658E+04  0.18005711772E+04 0.  0.
        5    1    3    3  502    0 -0.60075443130E+03  0.65864682308E+03 -0.44046388244E+03  0.99436011888E+03  0.46999998093E+01 0. -1.
       -5    1    3    3    0  502  0.60075443130E+03 -0.65864682308E+03 -0.17503347044E+03  0.90850444691E+03  0.46999998093E+01 0.  1.
</event>
<event>
 5   0  0.1000316E-05  0.1800034E+04  0.7818609E-02  0.8706282E-01
       -2   -1    0    0    0  501  0.00000000000E+00  0.00000000000E+00  0.32361456899E+03  0.32361456900E+03  0.25500000920E-02 0.  1.
        2   -1    0    0  501    0  0.00000000000E+00  0.00000000000E+00 -0.25030712866E+04  0.25030712866E+04  0.25500000920E-02 0. -1.
    10030    2    1    2    0    0  0.00000000000E+00  0.00000000000E+00 -0.21794567177E+04  0.28266858556E+04  0.18000337059E+04 0.  0.
        5    1    3    3  502    0 -0.21978603821E+03  0.30120777119E+03 -0.23760526565E+04  0.24051362415E+04  0.46999998093E+01 0. -1.
       -5    1    3    3    0  502  0.21978603821E+03 -0.30120777119E+03  0.19659593880E+03  0.42154961412E+03  0.46999998093E+01 0.  1.
</event>
<event>
 5   0  0.4983159E-06  0.1799471E+04  0.7818609E-02  0.8706581E-01
       -1   -1    0    0    0  501  0.00000000000E+00  0.00000000000E+00  0.70934856566E+03  0.70934856568E+03  0.50400001928E-02 0.  1.
        1   -1    0    0  501    0  0.00000000000E+00  0.00000000000E+00 -0.11412215564E+04  0.11412215564E+04  0.50400001928E-02 0. -1.
    10030    2    1    2    0    0  0.00000000000E+00  0.00000000000E+00 -0.43187299070E+03  0.18505701221E+04  0.17994708935E+04 0.  0.
        4    1    3    3  502    0 -0.15057809591E+03 -0.26846288625E+03  0.65351579215E+03  0.72237842420E+03  0.12699999809E+01 0.  1.
       -4    1    3    3    0  502  0.15057809591E+03  0.26846288625E+03 -0.10853887829E+04  0.11281916979E+04  0.12699999809E+01 0. -1.
</event>
<event>
 5   0  0.4994123E-06  0.1801908E+04  0.7818609E-02  0.8705285E-01
       -1   -1    0    0    0  501  0.00000000000E+00  0.00000000000E+00  0.67402972997E+03  0.67402972999E+03  0.50400001928E-02 0.  1.
        1   -1    0    0  501    0  0.00000000000E+00  0.00000000000E+00 -0.12042764064E+04  0.12042764064E+04  0.50400001928E-02 0. -1.
    10030    2    1    2    0    0  0.00000000000E+00  0.00000000000E+00 -0.53024667647E+03  0.18783061364E+04  0.18019079900E+04 0.  0.
        1    1    3    3  502    0  0.12181124134E+03 -0.76490249813E+03 -0.74485804989E+03  0.10745823955E+04  0.50400001928E-02 0. -1.
       -1    1    3    3    0  502 -0.12181124134E+03  0.76490249813E+03  0.21461137342E+03  0.80372374096E+03  0.50400001928E-02 0.  1.
</event>
<event>
 5   0  0.1035018E-05  0.1800420E+04  0.7818609E-02  0.8706076E-01
        2   -1    0    0  501    0  0.00000000000E+00  0.00000000000E+00  0.16832186101E+04  0.16832186101E+04  0.25500000920E-02 0. -1.
       -2   -1    0    0    0  501  0.00000000000E+00  0.00000000000E+00 -0.48144528561E+03  0.48144528562E+03  0.25500000920E-02 0.  1.
    10030    2    1    2    0    0  0.00000000000E+00  0.00000000000E+00  0.12017733245E+04  0.21646638958E+04  0.18004195783E+04 0.  0.
        3    1    3    3  502    0  0.79171712279E+03  0.17800464254E+03  0.13233085967E+03  0.82220017144E+03  0.10100000352E+00 0.  1.
       -3    1    3    3    0  502 -0.79171712279E+03 -0.17800464254E+03  0.10694424649E+04  0.13424637243E+04  0.10100000352E+00 0. -1.
</event>
<event>
 5   0  0.9999162E-06  0.1799597E+04  0.7818609E-02  0.8706514E-01
        2   -1    0    0  501    0  0.00000000000E+00  0.00000000000E+00  0.12867067103E+04  0.12867067103E+04  0.25500000920E-02 0.  1.
       -2   -1    0    0    0  501  0.00000000000E+00  0.00000000000E+00 -0.62923230416E+03  0.62923230416E+03  0.25500000920E-02 0. -1.
    10030    2    1    2    0    0  0.00000000000E+00  0.00000000000E+00  0.65747440616E+03  0.19159390145E+04  0.17995970973E+04 0.  0.
        1    1    3    3  502    0 -0.43367434006E+03  0.31183610892E+03  0.10996504976E+04  0.12225164248E+04  0.50400001928E-02 0.  1.
       -1    1    3    3    0  502  0.43367434006E+03 -0.31183610892E+03 -0.44217609141E+03  0.69342258969E+03  0.50400001928E-02 0. -1.
</event>
<event>
 5   0  0.1000316E-05  0.1799878E+04  0.7818609E-02  0.8706364E-01
       -2   -1    0    0    0  501  0.00000000000E+00  0.00000000000E+00  0.57764058229E+03  0.57764058230E+03  0.25500000920E-02 0.  1.
        2   -1    0    0  501    0  0.00000000000E+00  0.00000000000E+00 -0.14020659339E+04  0.14020659339E+04  0.25500000920E-02 0. -1.
    10030    2    1    2    0    0  0.00000000000E+00  0.00000000000E+00 -0.82442535165E+03  0.19797065162E+04  0.17998779764E+04 0.  0.
        5    1    3    3  502    0  0.26344835646E+03  0.24963853062E+03  0.49355872214E+03  0.61265547797E+03  0.46999998093E+01 0.  1.
       -5    1    3    3    0  502 -0.26344835646E+03 -0.24963853062E+03 -0.13179840738E+04  0.13670510383E+04  0.46999998093E+01 0. -1.
</event>
<event>
 5   0  0.4987456E-06  0.1801038E+04  0.7818609E-02  0.8705748E-01
        1   -1    0    0  501    0  0.00000000000E+00  0.00000000000E+00  0.94759946223E+03  0.94759946224E+03  0.50400001928E-02 0. -1.
       -1   -1    0    0    0  501  0.00000000000E+00  0.00000000000E+00 -0.85577756484E+03  0.85577756485E+03  0.50400001928E-02 0.  1.
    10030    2    1    2    0    0  0.00000000000E+00  0.00000000000E+00  0.91821897389E+02  0.18033770271E+04  0.18010378788E+04 0.  0.
        3    1    3    3  502    0  0.64989671930E+03  0.90154171075E+02 -0.57168899283E+03  0.87024240017E+03  0.10100000352E+00 0.  1.
       -3    1    3    3    0  502 -0.64989671930E+03 -0.90154171075E+02  0.66351089022E+03  0.93313462692E+03  0.10100000352E+00 0. -1.
</event>
<event>
 5   0  0.9589963E-06  0.1800673E+04  0.7818609E-02  0.8705942E-01
        2   -1    0    0  501    0  0.00000000000E+00  0.00000000000E+00  0.72558448504E+03  0.72558448504E+03  0.25500000920E-02 0. -1.
       -2   -1    0    0    0  501  0.00000000000E+00  0.00000000000E+00 -0.11171765165E+04  0.11171765165E+04  0.25500000920E-02 0.  1.
    10030    2    1    2    0    0  0.00000000000E+00  0.00000000000E+00 -0.39159203145E+03  0.18427610015E+04  0.18006731490E+04 0.  0.
        2    1    3    3  502    0 -0.74806042808E+03 -0.50098868483E+03 -0.19100896638E+03  0.92036323896E+03  0.25500000920E-02 0. -1.
       -2    1    3    3    0  502  0.74806042808E+03  0.50098868483E+03 -0.20058306507E+03  0.92239776257E+03  0.25500000920E-02 0.  1.
</event>
<event>
 5   0  0.4994123E-06  0.1800806E+04  0.7818609E-02  0.8705871E-01
        1   -1    0    0  501    0  0.00000000000E+00  0.00000000000E+00  0.98332824259E+03  0.98332824260E+03  0.50400001928E-02 0.  1.
       -1   -1    0    0    0  501  0.00000000000E+00  0.00000000000E+00 -0.82447088417E+03  0.82447088419E+03  0.50400001928E-02 0. -1.
    10030    2    1    2    0    0  0.00000000000E+00  0.00000000000E+00  0.15885735842E+03  0.18077991268E+04  0.18008059369E+04 0.  0.
        1    1    3    3  502    0  0.15428497567E+03  0.25329600407E+03  0.93288470723E+03  0.97889560036E+03  0.50400001928E-02 0.  1.
       -1    1    3    3    0  502 -0.15428497567E+03 -0.25329600407E+03 -0.77402734881E+03  0.82890352643E+03  0.50400001928E-02 0. -1.
</event>
<event>
 5   0  0.1035018E-05  0.1805507E+04  0.7818609E-02  0.8703376E-01
       -2   -1    0    0    0  501  0.00000000000E+00  0.00000000000E+00  0.62554337177E+03  0.62554337177E+03  0.25500000920E-02 0.  1.
        2   -1    0    0  501    0  0.00000000000E+00  0.00000000000E+00 -0.13028094400E+04  0.13028094400E+04  0.25500000920E-02 0. -1.
    10030    2    1    2    0    0  0.00000000000E+00  0.00000000000E+00 -0.67726606819E+03  0.19283528117E+04  0.18055069203E+04 0.  0.
        3    1    3    3  502    0  0.17459003002E+03  0.85683795838E+03 -0.99070942081E+02  0.88003865101E+03  0.10100000352E+00 0. -1.
       -3    1    3    3    0  502 -0.17459003002E+03 -0.85683795838E+03 -0.57819512611E+03  0.10483141607E+04  0.10100000352E+00 0.  1.
</event>
<event>
 5   0  0.9589963E-06  0.1799512E+04  0.7818609E-02  0.8706559E-01
       -2   -1    0    0    0  501  0.00000000000E+00  0.00000000000E+00  0.10198164747E+04  0.10198164747E+04  0.25500000920E-02 0.  1.
        2   -1    0    0  501    0  0.00000000000E+00  0.00000000000E+00 -0.79382998375E+03  0.79382998376E+03  0.25500000920E-02 0. -1.
    10030    2    1    2    0    0  0.00000000000E+00  0.00000000000E+00  0.22598649097E+03  0.18136464585E+04  0.17995120400E+04 0.  0.
        2    1    3    3  502    0  0.60584568667E+03 -0.60293981502E+03  0.39622634804E+03  0.94211503304E+03  0.25500000920E-02 0.  1.
       -2    1    3    3    0  502 -0.60584568667E+03  0.60293981502E+03 -0.17023985707E+03  0.87153142544E+03  0.25500000920E-02 0. -1.
</event>
<event>
 5   0  0.4994123E-06  0.1799915E+04  0.7818609E-02  0.8706344E-01
        1   -1    0    0  501    0  0.00000000000E+00  0.00000000000E+00  0.27048502651E+04  0.27048502651E+04  0.50400001928E-02 0. -1.
       -1   -1    0    0    0  501  0.00000000000E+00  0.00000000000E+00 -0.29943392643E+03  0.29943392648E+03  0.50400001928E-02 0.  1.
    10030    2    1    2    0    0  0.00000000000E+00  0.00000000000E+00  0.24054163386E+04  0.30042841916E+04  0.17999154817E+04 0.  0.
        1    1    3    3  502    0 -0.10977420118E+03 -0.60148188816E+03  0.10046223195E+03  0.61961560431E+03  0.50400001928E-02 0.  1.
       -1    1    3    3    0  502  0.10977420118E+03  0.60148188816E+03  0.23049541067E+04  0.23846685872E+04  0.50400001928E-02 0. -1.
</event>
<event>
 5   0  0.1000316E-05  0.1800728E+04  0.7818609E-02  0.8705912E-01
       -2   -1    0    0    0  501  0.00000000000E+00  0.00000000000E+00  0.12565039088E+04  0.12565039088E+04  0.25500000920E-02 0.  1.
        2   -1    0    0  501    0  0.00000000000E+00  0.00000000000E+00 -0.64516730982E+03  0.64516730982E+03  0.25500000920E-02 0. -1.
    10030    2    1    2    0    0  0.00000000000E+00  0.00000000000E+00  0.61133659897E+03  0.19016712186E+04  0.18007279046E+04 0.  0.
        5    1    3    3  502    0  0.23582127960E+03 -0.83776994533E+03  0.62172161876E+02  0.87255809258E+03  0.46999998093E+01 0. -1.
       -5    1    3    3    0  502 -0.23582127960E+03  0.83776994533E+03  0.54916443709E+03  0.10291131260E+04  0.46999998093E+01 0.  1.
</event>
<event>
 5   0  0.9589963E-06  0.1799808E+04  0.7818609E-02  0.8706402E-01
       -2   -1    0    0    0  501  0.00000000000E+00  0.00000000000E+00  0.22050130739E+04  0.22050130739E+04  0.25500000920E-02 0.  1.
        2   -1    0    0  501    0  0.00000000000E+00  0.00000000000E+00 -0.36726622410E+03  0.36726622411E+03  0.25500000920E-02 0. -1.
    10030    2    1    2    0    0  0.00000000000E+00  0.00000000000E+00  0.18377468498E+04  0.25722792980E+04  0.17998075739E+04 0.  0.
        2    1    3    3  502    0  0.46389814586E+03 -0.98094716972E+01  0.20208658506E+04  0.20734503856E+04  0.25500000920E-02 0.  1.
       -2    1    3    3    0  502 -0.46389814586E+03  0.98094716972E+01 -0.18311900073E+03  0.49882891246E+03  0.25500000920E-02 0. -1.
</event>
<event>
 5   0  0.1000316E-05  0.1799806E+04  0.7818609E-02  0.8706403E-01
       -2   -1    0    0    0  501  0.00000000000E+00  0.00000000000E+00  0.79865588716E+03  0.79865588717E+03  0.25500000920E-02 0. -1.
        2   -1    0    0  501    0  0.00000000000E+00  0.00000000000E+00 -0.10139848664E+04  0.10139848664E+04  0.25500000920E-02 0.  1.
    10030    2    1    2    0    0  0.00000000000E+00  0.00000000000E+00 -0.21532897923E+03  0.18126407536E+04  0.17998055262E+04 0.  0.
        5    1    3    3  502    0 -0.24837983878E+03 -0.49343335961E+03 -0.82310636538E+03  0.99130984229E+03  0.46999998093E+01 0.  1.
       -5    1    3    3    0  502  0.24837983878E+03  0.49343335961E+03  0.60777738615E+03  0.82133091127E+03  0.46999998093E+01 0. -1.
</event>
<event>
 5   0  0.4994123E-06  0.1799443E+04  0.7818609E-02  0.8706596E-01
       -1   -1    0    0    0  501  0.00000000000E+00  0.00000000000E+00  0.90846800330E+03  0.90846800332E+03  0.50400001928E-02 0.  1.
        1   -1    0    0  501    0  0.00000000000E+00  0.00000000000E+00 -0.89105961534E+03  0.89105961535E+03  0.50400001928E-02 0. -1.
    10030    2    1    2    0    0  0.00000000000E+00  0.00000000000E+00  0.17408387961E+02  0.17995276187E+04  0.17994434135E+04 0.  0.
        1    1    3    3  502    0 -0.12806315229E+03 -0.87443151491E+03 -0.16002982381E+03  0.89813149916E+03  0.50400001928E-02 0. -1.
       -1    1    3    3    0  502  0.12806315229E+03  0.87443151491E+03  0.17743821177E+03  0.90139611951E+03  0.50400001928E-02 0.  1.
</event>
<event>
 5   0  0.1036381E-05  0.1799875E+04  0.7818609E-02  0.8706366E-01
        2   -1    0    0  501    0  0.00000000000E+00  0.00000000000E+00  0.16282757627E+04  0.16282757627E+04  0.25500000920E-02 0. -1.
       -2   -1    0    0    0  501  0.00000000000E+00  0.00000000000E+00 -0.49738975232E+03  0.49738975233E+03  0.25500000920E-02 0.  1.
    10030    2    1    2    0    0  0.00000000000E+00  0.00000000000E+00  0.11308860103E+04  0.21256655150E+04  0.17998751938E+04 0.  0.
        4    1    3    3  502    0 -0.74180266306E+03  0.32894664709E+03  0.10589768340E+03  0.81834773770E+03  0.12699999809E+01 0.  1.
       -4    1    3    3    0  502  0.74180266306E+03 -0.32894664709E+03  0.10249883269E+04  0.13073177773E+04  0.12699999809E+01 0. -1.
</event>
<event>
 5   0  0.1035018E-05  0.1799671E+04  0.7818609E-02  0.8706475E-01
        2   -1    0    0  501    0  0.00000000000E+00  0.00000000000E+00  0.87280903842E+03  0.87280903842E+03  0.25500000920E-02 0.  1.
       -2   -1    0    0    0  501  0.00000000000E+00  0.00000000000E+00 -0.92769841633E+03  0.92769841634E+03  0.25500000920E-02 0. -1.
    10030    2    1    2    0    0  0.00000000000E+00  0.00000000000E+00 -0.54889377914E+02  0.18005074548E+04  0.17996705951E+04 0.  0.
        3    1    3    3  502    0  0.97003128192E+02 -0.85567783782E+03  0.23365441276E+03  0.89229398957E+03  0.10100000352E+00 0.  1.
       -3    1    3    3    0  502 -0.97003128192E+02  0.85567783782E+03 -0.28854379067E+03  0.90821346519E+03  0.10100000352E+00 0. -1.
</event>
<event>
 5   0  0.1000316E-05  0.1799926E+04  0.7818609E-02  0.8706339E-01
       -2   -1    0    0    0  501  0.00000000000E+00  0.00000000000E+00  0.11471796533E+04  0.11471796533E+04  0.25500000920E-02 0. -1.
        2   -1    0    0  501    0  0.00000000000E+00  0.00000000000E+00 -0.70602132052E+03  0.70602132052E+03  0.25500000920E-02 0.  1.
    10030    2    1    2    0    0  0.00000000000E+00  0.00000000000E+00  0.44115833276E+03  0.18532009738E+04  0.17999258803E+04 0.  0.
        5    1    3    3  502    0 -0.11021275181E+01 -0.76338698529E+02  0.11438267384E+04  0.11463814849E+04  0.46999998093E+01 0. -1.
       -5    1    3    3    0  502  0.11021275181E+01  0.76338698529E+02 -0.70266840562E+03  0.70681948886E+03  0.46999998093E+01 0.  1.
</event>
<event>
 5   0  0.1035018E-05  0.1799068E+04  0.7818609E-02  0.8706795E-01
        2   -1    0    0  501    0  0.00000000000E+00  0.00000000000E+00  0.11000320174E+04  0.11000320174E+04  0.25500000920E-02 0. -1.
       -2   -1    0    0    0  501  0.00000000000E+00  0.00000000000E+00 -0.73558001264E+03  0.73558001264E+03  0.25500000920E-02 0.  1.
    10030    2    1    2    0    0  0.00000000000E+00  0.00000000000E+00  0.36445200473E+03  0.18356120300E+04  0.17990681646E+04 0.  0.
        3    1    3    3  502    0 -0.51347390874E+03  0.23519356534E+03 -0.53213138266E+03  0.77597376679E+03  0.10100000352E+00 0.  1.
       -3    1    3    3    0  502  0.51347390874E+03 -0.23519356534E+03  0.89658338739E+03  0.10596382632E+04  0.10100000352E+00 0. -1.
</event>
<event>
 5   0  0.4987456E-06  0.1799780E+04  0.7818609E-02  0.8706417E-01
       -1   -1    0    0    0  501  0.00000000000E+00  0.00000000000E+00  0.28105027914E+03  0.28105027919E+03  0.50400001928E-02 0. -1.
        1   -1    0    0  501    0  0.00000000000E+00  0.00000000000E+00 -0.28813416249E+04  0.28813416249E+04  0.50400001928E-02 0.  1.
    10030    2    1    2    0    0  0.00000000000E+00  0.00000000000E+00 -0.26002913457E+04  0.31623919041E+04  0.17997798399E+04 0.  0.
        3    1    3    3  502    0  0.84588308920E+03  0.26047176920E+02 -0.18377296287E+04  0.20232268421E+04  0.10100000352E+00 0.  1.
       -3    1    3    3    0  502 -0.84588308920E+03 -0.26047176920E+02 -0.76256171704E+03  0.11391650620E+04  0.10100000352E+00 0. -1.
</event>
<event>
 5   0  0.4987456E-06  0.1800043E+04  0.7818609E-02  0.8706277E-01
        1   -1    0    0  501    0  0.00000000000E+00  0.00000000000E+00  0.88005098399E+03  0.88005098401E+03  0.50400001928E-02 0. -1.
       -1   -1    0    0    0  501  0.00000000000E+00  0.00000000000E+00 -0.92044530863E+03  0.92044530865E+03  0.50400001928E-02 0.  1.
    10030    2    1    2    0    0  0.00000000000E+00  0.00000000000E+00 -0.40394324641E+02  0.18004962927E+04  0.18000431101E+04 0.  0.
        3    1    3    3  502    0  0.25657983728E+03 -0.37236778539E+03 -0.79856260039E+03  0.91771085720E+03  0.10100000352E+00 0.  1.
       -3    1    3    3    0  502 -0.25657983728E+03  0.37236778539E+03  0.75816827575E+03  0.88278543545E+03  0.10100000352E+00 0. -1.
</event>
<event>
 5   0  0.1036381E-05  0.1799687E+04  0.7818609E-02  0.8706466E-01
       -2   -1    0    0    0  501  0.00000000000E+00  0.00000000000E+00  0.11625689595E+04  0.11625689595E+04  0.25500000920E-02 0. -1.
        2   -1    0    0  501    0  0.00000000000E+00  0.00000000000E+00 -0.69649048593E+03  0.69649048594E+03  0.25500000920E-02 0.  1.
    10030    2    1    2    0    0  0.00000000000E+00  0.00000000000E+00  0.46607847353E+03  0.18590594454E+04  0.17996868833E+04 0.  0.
        4    1    3    3  502    0  0.40804543847E+03  0.14213774538E+03  0.10483903468E+04  0.11339436276E+04  0.12699999809E+01 0. -1.
       -4    1    3    3    0  502 -0.40804543847E+03 -0.14213774538E+03 -0.58231187327E+03  0.72511581776E+03  0.12699999809E+01 0.  1.
</event>
<event>
 5   0  0.4981384E-06  0.1800040E+04  0.7818609E-02  0.8706278E-01
        1   -1    0    0  501    0  0.00000000000E+00  0.00000000000E+00  0.16566575844E+04  0.16566575844E+04  0.50400001928E-02 0.  1.
       -1   -1    0    0    0  501  0.00000000000E+00  0.00000000000E+00 -0.48895809424E+03  0.48895809427E+03  0.50400001928E-02 0. -1.
    10030    2    1    2    0    0  0.00000000000E+00  0.00000000000E+00  0.11676994902E+04  0.21456156787E+04  0.18000401499E+04 0.  0.
        5    1    3    3  502    0  0.41486468198E+03 -0.74950877425E+03  0.91275461067E+03  0.12518063653E+04  0.46999998093E+01 0.  1.
       -5    1    3    3    0  502 -0.41486468198E+03  0.74950877425E+03  0.25494487951E+03  0.89380931334E+03  0.46999998093E+01 0. -1.
</event>
<event>
 5   0  0.3626125E-06  0.1799652E+04  0.7818609E-02  0.8706484E-01
        3   -1    0    0  501    0  0.00000000000E+00  0.00000000000E+00  0.57631882218E+03  0.57631883103E+03  0.10100000352E+00 0.  1.
       -3   -1    0    0    0  501  0.00000000000E+00  0.00000000000E+00 -0.14049294179E+04  0.14049294216E+04  0.10100000352E+00 0. -1.
    10030    2    1    2    0    0  0.00000000000E+00  0.00000000000E+00 -0.82861059576E+03  0.19812482526E+04  0.17996524995E+04 0.  0.
        5    1    3    3  502    0 -0.45895198451E+03  0.20198845351E+03  0.40823353894E+03  0.64661655697E+03  0.46999998093E+01 0.  1.
       -5    1    3    3    0  502  0.45895198451E+03 -0.20198845351E+03 -0.12368441347E+04  0.13346316956E+04  0.46999998093E+01 0. -1.
</event>
<event>
 5   0  0.4987456E-06  0.1800489E+04  0.7818609E-02  0.8706040E-01
        1   -1    0    0  501    0  0.00000000000E+00  0.00000000000E+00  0.81964173682E+03  0.81964173683E+03  0.50400001928E-02 0. -1.
       -1   -1    0    0    0  501  0.00000000000E+00  0.00000000000E+00 -0.98877346248E+03  0.98877346250E+03  0.50400001928E-02 0.  1.
    10030    2    1    2    0    0  0.00000000000E+00  0.00000000000E+00 -0.16913172566E+03  0.18084151993E+04  0.18004888204E+04 0.  0.
        3    1    3    3  502    0  0.21433217074E+03  0.84603540769E+03 -0.30627684058E+03  0.92494308136E+03  0.10100000352E+00 0. -1.
       -3    1    3    3    0  502 -0.21433217074E+03 -0.84603540769E+03  0.13714511492E+03  0.88347211797E+03  0.10100000352E+00 0.  1.
</event>
<event>
 5   0  0.3626125E-06  0.1800060E+04  0.7818609E-02  0.8706267E-01
       -3   -1    0    0    0  501  0.00000000000E+00  0.00000000000E+00  0.89578371763E+03  0.89578372332E+03  0.10100000352E+00 0.  1.
        3   -1    0    0  501    0  0.00000000000E+00  0.00000000000E+00 -0.90429680179E+03  0.90429680743E+03  0.10100000352E+00 0. -1.
    10030    2    1    2    0    0  0.00000000000E+00  0.00000000000E+00 -0.85130841615E+01  0.18000805308E+04  0.18000604003E+04 0.  0.
        1    1    3    3  502    0 -0.49491826546E+03 -0.39930617188E+03  0.63266882723E+03  0.89702806721E+03  0.50400001928E-02 0.  1.
       -1    1    3    3    0  502  0.49491826546E+03  0.39930617188E+03 -0.64118191139E+03  0.90305246354E+03  0.50400001928E-02 0. -1.
</event>
<event>
 5   0  0.4987456E-06  0.1800046E+04  0.7818609E-02  0.8706275E-01
       -1   -1    0    0    0  501  0.00000000000E+00  0.00000000000E+00  0.61596042856E+03  0.61596042858E+03  0.50400001928E-02 0. -1.
        1   -1    0    0  501    0  0.00000000000E+00  0.00000000000E+00 -0.13150867970E+04  0.13150867970E+04  0.50400001928E-02 0.  1.
    10030    2    1    2    0    0  0.00000000000E+00  0.00000000000E+00 -0.69912636840E+03  0.19310472256E+04  0.18000460295E+04 0.  0.
        3    1    3    3  502    0 -0.14079005709E+03 -0.29358057392E+02  0.60355378987E+03  0.62045219250E+03  0.10100000352E+00 0. -1.
       -3    1    3    3    0  502  0.14079005709E+03  0.29358057392E+02 -0.13026801583E+04  0.13105950331E+04  0.10100000352E+00 0.  1.
</event>
<event>
 5   0  0.9999162E-06  0.1801236E+04  0.7818609E-02  0.8705643E-01
        2   -1    0    0  501    0  0.00000000000E+00  0.00000000000E+00  0.61367223040E+03  0.61367223041E+03  0.25500000920E-02 0. -1.
       -2   -1    0    0    0  501  0.00000000000E+00  0.00000000000E+00 -0.13217356244E+04  0.13217356244E+04  0.25500000920E-02 0.  1.
    10030    2    1    2    0    0  0.00000000000E+00  0.00000000000E+00 -0.70806339400E+03  0.19354078548E+04  0.18012356299E+04 0.  0.
        1    1    3    3  502    0 -0.84616912102E+03  0.29482187180E+03 -0.45127343241E+03  0.10032795365E+04  0.50400001928E-02 0. -1.
       -1    1    3    3    0  502  0.84616912102E+03 -0.29482187180E+03 -0.25678996159E+03  0.93212831835E+03  0.50400001928E-02 0.  1.
</event>
<event>
 5   0  0.4953155E-06  0.1798697E+04  0.7818609E-02  0.8706993E-01
       -1   -1    0    0    0  501  0.00000000000E+00  0.00000000000E+00  0.95667963309E+03  0.95667963311E+03  0.50400001928E-02 0.  1.
        1   -1    0    0  501    0  0.00000000000E+00  0.00000000000E+00 -0.84545323954E+03  0.84545323956E+03  0.50400001928E-02 0. -1.
    10030    2    1    2    0    0  0.00000000000E+00  0.00000000000E+00  0.11122639355E+03  0.18021328727E+04  0.17986971897E+04 0.  0.
        2    1    3    3  502    0 -0.53585316795E+03  0.27854645054E+03  0.72329524957E+03  0.94227531049E+03  0.25500000920E-02 0.  1.
       -2    1    3    3    0  502  0.53585316795E+03 -0.27854645054E+03 -0.61206885602E+03  0.85985756217E+03  0.25500000920E-02 0. -1.
</event>
<event>
 5   0  0.4987456E-06  0.1798202E+04  0.7818609E-02  0.8707256E-01
       -1   -1    0    0    0  501  0.00000000000E+00  0.00000000000E+00  0.15968517305E+04  0.15968517305E+04  0.50400001928E-02 0. -1.
        1   -1    0    0  501    0  0.00000000000E+00  0.00000000000E+00 -0.50623541786E+03  0.50623541789E+03  0.50400001928E-02 0.  1.
    10030    2    1    2    0    0  0.00000000000E+00  0.00000000000E+00  0.10906163126E+04  0.21030871484E+04  0.17982023280E+04 0.  0.
        3    1    3    3  502    0 -0.79171051182E+03  0.29068883890E+03  0.18090872839E+03  0.86257377296E+03  0.10100000352E+00 0.  1.
       -3    1    3    3    0  502  0.79171051182E+03 -0.29068883890E+03  0.90970758425E+03  0.12405133754E+04  0.10100000352E+00 0. -1.
</event>
<event>
 5   0  0.4953155E-06  0.1800399E+04  0.7818609E-02  0.8706087E-01
        1   -1    0    0  501    0  0.00000000000E+00  0.00000000000E+00  0.85577810792E+03  0.85577810794E+03  0.50400001928E-02 0. -1.
       -1   -1    0    0    0  501  0.00000000000E+00  0.00000000000E+00 -0.94692702824E+03  0.94692702825E+03  0.50400001928E-02 0.  1.
    10030    2    1    2    0    0  0.00000000000E+00  0.00000000000E+00 -0.91148920314E+02  0.18027051362E+04  0.18003993119E+04 0.  0.
        2    1    3    3  502    0  0.21445211035E+02  0.63811416035E+03  0.58983251735E+03  0.86922492903E+03  0.25500000920E-02 0. -1.
       -2    1    3    3    0  502 -0.21445211035E+02 -0.63811416035E+03 -0.68098143766E+03  0.93348020716E+03  0.25500000920E-02 0.  1.
</event>
<event>
 5   0  0.4987456E-06  0.1799407E+04  0.7818609E-02  0.8706615E-01
        1   -1    0    0  501    0  0.00000000000E+00  0.00000000000E+00  0.61077991038E+03  0.61077991040E+03  0.50400001928E-02 0. -1.
       -1   -1    0    0    0  501  0.00000000000E+00  0.00000000000E+00 -0.13252999492E+04  0.13252999492E+04  0.50400001928E-02 0.  1.
    10030    2    1    2    0    0  0.00000000000E+00  0.00000000000E+00 -0.71452003883E+03  0.19360798596E+04  0.17994072182E+04 0.  0.
        3    1    3    3  502    0 -0.86198226338E+03 -0.44912452573E+02 -0.63038295627E+03  0.10688373274E+04  0.10100000352E+00 0.  1.
       -3    1    3    3    0  502  0.86198226338E+03  0.44912452573E+02 -0.84137082566E+02  0.86724253219E+03  0.10100000352E+00 0. -1.
</event>
<event>
 5   0  0.1000316E-05  0.1799198E+04  0.7818609E-02  0.8706726E-01
        2   -1    0    0  501    0  0.00000000000E+00  0.00000000000E+00  0.74058826519E+03  0.74058826519E+03  0.25500000920E-02 0.  1.
       -2   -1    0    0    0  501  0.00000000000E+00  0.00000000000E+00 -0.10927506243E+04  0.10927506243E+04  0.25500000920E-02 0. -1.
    10030    2    1    2    0    0  0.00000000000E+00  0.00000000000E+00 -0.35216235909E+03  0.18333388895E+04  0.17991979203E+04 0.  0.
        5    1    3    3  502    0 -0.51233398192E+03  0.12539069770E+03 -0.91863920793E+03  0.10593059145E+04  0.46999998093E+01 0.  1.
       -5    1    3    3    0  502  0.51233398192E+03 -0.12539069770E+03  0.56647684884E+03  0.77403297499E+03  0.46999998093E+01 0. -1.
</event>
<event>
 5   0  0.9999162E-06  0.1800230E+04  0.7818609E-02  0.8706177E-01
        2   -1    0    0  501    0  0.00000000000E+00  0.00000000000E+00  0.20929656418E+04  0.20929656418E+04  0.25500000920E-02 0. -1.
       -2   -1    0    0    0  501  0.00000000000E+00  0.00000000000E+00 -0.38710964180E+03  0.38710964181E+03  0.25500000920E-02 0.  1.
    10030    2    1    2    0    0  0.00000000000E+00  0.00000000000E+00  0.17058560000E+04  0.24800752836E+04  0.18002301852E+04 0.  0.
        1    1    3    3  502    0 -0.47217972165E+03  0.25646980759E+03  0.18477704097E+04  0.19243144074E+04  0.50400001928E-02 0. -1.
       -1    1    3    3    0  502  0.47217972165E+03 -0.25646980759E+03 -0.14191440970E+03  0.55576087615E+03  0.50400001928E-02 0.  1.
</event>
<event>
 5   0  0.4994123E-06  0.1798782E+04  0.7818609E-02  0.8706947E-01
       -1   -1    0    0    0  501  0.00000000000E+00  0.00000000000E+00  0.89678577473E+03  0.89678577475E+03  0.50400001928E-02 0. -1.
        1   -1    0    0  501    0  0.00000000000E+00  0.00000000000E+00 -0.90200393007E+03  0.90200393008E+03  0.50400001928E-02 0.  1.
    10030    2    1    2    0    0  0.00000000000E+00  0.00000000000E+00 -0.52181553384E+01  0.17987897048E+04  0.17987821361E+04 0.  0.
        1    1    3    3  502    0 -0.70382428696E+03 -0.55705429980E+03  0.54190575047E+02  0.89923008084E+03  0.50400001928E-02 0. -1.
       -1    1    3    3    0  502  0.70382428696E+03  0.55705429980E+03 -0.59408730385E+02  0.89955962399E+03  0.50400001928E-02 0.  1.
</event>
<event>
 5   0  0.9589963E-06  0.1799994E+04  0.7818609E-02  0.8706303E-01
       -2   -1    0    0    0  501  0.00000000000E+00  0.00000000000E+00  0.36240078924E+03  0.36240078925E+03  0.25500000920E-02 0. -1.
        2   -1    0    0  501    0  0.00000000000E+00  0.00000000000E+00 -0.22350785325E+04  0.22350785325E+04  0.25500000920E-02 0.  1.
    10030    2    1    2    0    0  0.00000000000E+00  0.00000000000E+00 -0.18726777433E+04  0.25974793218E+04  0.17999935824E+04 0.  0.
        2    1    3    3  502    0 -0.54362489115E+03  0.63135538880E+03 -0.44515795543E+03  0.94461804690E+03  0.25500000920E-02 0. -1.
       -2    1    3    3    0  502  0.54362489115E+03 -0.63135538880E+03 -0.14275197879E+04  0.16528612749E+04  0.25500000920E-02 0.  1.
</event>
<event>
 5   0  0.1000316E-05  0.1799166E+04  0.7818609E-02  0.8706743E-01
        2   -1    0    0  501    0  0.00000000000E+00  0.00000000000E+00  0.97366608017E+03  0.97366608017E+03  0.25500000920E-02 0. -1.
       -2   -1    0    0    0  501  0.00000000000E+00  0.00000000000E+00 -0.83113696741E+03  0.83113696742E+03  0.25500000920E-02 0.  1.
    10030    2    1    2    0    0  0.00000000000E+00  0.00000000000E+00  0.14252911276E+03  0.18048030476E+04  0.17991663327E+04 0.  0.
        5    1    3    3  502    0  0.35217272593E+03 -0.47136519465E+03 -0.61132080762E+03  0.84849631434E+03  0.46999998093E+01 0.  1.
       -5    1    3    3    0  502 -0.35217272593E+03  0.47136519465E+03  0.75384992038E+03  0.95630673325E+03  0.46999998093E+01 0. -1.
</event>
<event>
 5   0  0.4953155E-06  0.1794585E+04  0.7818609E-02  0.8709184E-01
        1   -1    0    0  501    0  0.00000000000E+00  0.00000000000E+00  0.11036174900E+04  0.11036174900E+04  0.50400001928E-02 0.  1.
       -1   -1    0    0    0  501  0.00000000000E+00  0.00000000000E+00 -0.72954086342E+03  0.72954086344E+03  0.50400001928E-02 0. -1.
    10030    2    1    2    0    0  0.00000000000E+00  0.00000000000E+00  0.37407662659E+03  0.18331583535E+04  0.17945852519E+04 0.  0.
        2    1    3    3  502    0  0.34643987176E+03  0.52313820008E+03 -0.46818461798E+03  0.78287355150E+03  0.25500000920E-02 0. -1.
       -2    1    3    3    0  502 -0.34643987176E+03 -0.52313820008E+03  0.84226124457E+03  0.10502848020E+04  0.25500000920E-02 0.  1.
</event>
<event>
 5   0  0.9589963E-06  0.1797854E+04  0.7818609E-02  0.8707441E-01
        2   -1    0    0  501    0  0.00000000000E+00  0.00000000000E+00  0.86695462659E+03  0.86695462659E+03  0.25500000920E-02 0. -1.
       -2   -1    0    0    0  501  0.00000000000E+00  0.00000000000E+00 -0.93207887891E+03  0.93207887891E+03  0.25500000920E-02 0.  1.
    10030    2    1    2    0    0  0.00000000000E+00  0.00000000000E+00 -0.65124252321E+02  0.17990335055E+04  0.17978543839E+04 0.  0.
        2    1    3    3  502    0  0.47345583146E+03  0.68233757030E+03  0.31164765002E+03  0.88705650437E+03  0.25500000920E-02 0.  1.
       -2    1    3    3    0  502 -0.47345583146E+03 -0.68233757030E+03 -0.37677190234E+03  0.91197700113E+03  0.25500000920E-02 0. -1.
</event>
<event>
 5   0  0.1035018E-05  0.1800109E+04  0.7818609E-02  0.8706241E-01
        2   -1    0    0  501    0  0.00000000000E+00  0.00000000000E+00  0.11844763111E+04  0.11844763111E+04  0.25500000920E-02 0.  1.
       -2   -1    0    0    0  501  0.00000000000E+00  0.00000000000E+00 -0.68392949523E+03  0.68392949524E+03  0.25500000920E-02 0. -1.
    10030    2    1    2    0    0  0.00000000000E+00  0.00000000000E+00  0.50054681587E+03  0.18684058063E+04  0.18001092029E+04 0.  0.
        3    1    3    3  502    0  0.25670323717E+03 -0.67918603078E+03  0.80234451104E+03  0.10821030177E+04  0.10100000352E+00 0.  1.
       -3    1    3    3    0  502 -0.25670323717E+03  0.67918603078E+03 -0.30179769516E+03  0.78630278862E+03  0.10100000352E+00 0. -1.
</event>
<event>
 5   0  0.3626125E-06  0.1800197E+04  0.7818609E-02  0.8706195E-01
        3   -1    0    0  501    0  0.00000000000E+00  0.00000000000E+00  0.53516387947E+03  0.53516388900E+03  0.10100000352E+00 0.  1.
       -3   -1    0    0    0  501  0.00000000000E+00  0.00000000000E+00 -0.15138861843E+04  0.15138861877E+04  0.10100000352E+00 0. -1.
    10030    2    1    2    0    0  0.00000000000E+00  0.00000000000E+00 -0.97872230483E+03  0.20490500767E+04  0.18001968967E+04 0.  0.
        2    1    3    3  502    0  0.62281756024E+03  0.13552327879E+03  0.23403184225E+03  0.67899865658E+03  0.25500000920E-02 0.  1.
       -2    1    3    3    0  502 -0.62281756024E+03 -0.13552327879E+03 -0.12127541471E+04  0.13700514201E+04  0.25500000920E-02 0. -1.
</event>
<event>
 5   0  0.4981384E-06  0.1800346E+04  0.7818609E-02  0.8706116E-01
       -1   -1    0    0    0  501  0.00000000000E+00  0.00000000000E+00  0.96000047055E+03  0.96000047056E+03  0.50400001928E-02 0. -1.
        1   -1    0    0  501    0  0.00000000000E+00  0.00000000000E+00 -0.84407364712E+03  0.84407364714E+03  0.50400001928E-02 0.  1.
    10030    2    1    2    0    0  0.00000000000E+00  0.00000000000E+00  0.11592682343E+03  0.18040741177E+04  0.18003456318E+04 0.  0.
        5    1    3    3  502    0  0.29747158109E+03  0.84934002096E+03  0.78528967136E+02  0.90335856748E+03  0.46999998093E+01 0.  1.
       -5    1    3    3    0  502 -0.29747158109E+03 -0.84934002096E+03  0.37397856293E+02  0.90071555022E+03  0.46999998093E+01 0. -1.
</event>
<event>
 5   0  0.9999162E-06  0.1801183E+04  0.7818609E-02  0.8705671E-01
       -2   -1    0    0    0  501  0.00000000000E+00  0.00000000000E+00  0.85913797432E+03  0.85913797432E+03  0.25500000920E-02 0. -1.
        2   -1    0    0  501    0  0.00000000000E+00  0.00000000000E+00 -0.94404490430E+03  0.94404490431E+03  0.25500000920E-02 0.  1.
    10030    2    1    2    0    0  0.00000000000E+00  0.00000000000E+00 -0.84906929984E+02  0.18031828786E+04  0.18011827523E+04 0.  0.
        1    1    3    3  502    0 -0.33195511963E+03 -0.40214351001E+03 -0.77753801129E+03  0.93620455196E+03  0.50400001928E-02 0.  1.
       -1    1    3    3    0  502  0.33195511963E+03  0.40214351001E+03  0.69263108130E+03  0.86697832666E+03  0.50400001928E-02 0. -1.
</event>
<event>
 5   0  0.4983159E-06  0.1799875E+04  0.7818609E-02  0.8706366E-01
        1   -1    0    0  501    0  0.00000000000E+00  0.00000000000E+00  0.90720921516E+03  0.90720921517E+03  0.50400001928E-02 0.  1.
       -1   -1    0    0    0  501  0.00000000000E+00  0.00000000000E+00 -0.89272388059E+03  0.89272388060E+03  0.50400001928E-02 0. -1.
    10030    2    1    2    0    0  0.00000000000E+00  0.00000000000E+00  0.14485334569E+02  0.17999330958E+04  0.17998748080E+04 0.  0.
        4    1    3    3  502    0  0.37408826794E+03  0.81129626708E+03  0.11560693045E+03  0.90083863175E+03  0.12699999809E+01 0.  1.
       -4    1    3    3    0  502 -0.37408826794E+03 -0.81129626708E+03 -0.10112159588E+03  0.89909446403E+03  0.12699999809E+01 0. -1.
</event>
<event>
 5   0  0.4953155E-06  0.1801231E+04  0.7818609E-02  0.8705645E-01
       -1   -1    0    0    0  501  0.00000000000E+00  0.00000000000E+00  0.75282712598E+03  0.75282712599E+03  0.50400001928E-02 0.  1.
        1   -1    0    0  501    0  0.00000000000E+00  0.00000000000E+00 -0.10774158229E+04  0.10774158229E+04  0.50400001928E-02 0. -1.
    10030    2    1    2    0    0  0.00000000000E+00  0.00000000000E+00 -0.32458869692E+03  0.18302429489E+04  0.18012305321E+04 0.  0.
        2    1    3    3  502    0  0.22372322488E+03 -0.43931413872E+03  0.60354224265E+03  0.77930240119E+03  0.25500000920E-02 0.  1.
       -2    1    3    3    0  502 -0.22372322488E+03  0.43931413872E+03 -0.92813093957E+03  0.10509405477E+04  0.25500000920E-02 0. -1.
</event>
<event>
 5   0  0.1036381E-05  0.1799482E+04  0.7818609E-02  0.8706575E-01
        2   -1    0    0  501    0  0.00000000000E+00  0.00000000000E+00  0.66124629479E+03  0.66124629479E+03  0.25500000920E-02 0.  1.
       -2   -1    0    0    0  501  0.00000000000E+00  0.00000000000E+00 -0.12242551344E+04  0.12242551344E+04  0.25500000920E-02 0. -1.
    10030    2    1    2    0    0  0.00000000000E+00  0.00000000000E+00 -0.56300883961E+03  0.18855014292E+04  0.17994823383E+04 0.  0.
        4    1    3    3  502    0  0.55906291185E+03 -0.64145866892E+03 -0.58790726762E+03  0.10342422983E+04  0.12699999809E+01 0.  1.
       -4    1    3    3    0  502 -0.55906291185E+03  0.64145866892E+03  0.24898428007E+02  0.85125913091E+03  0.12699999809E+01 0. -1.
</event>
<event>
 5   0  0.9589963E-06  0.1800463E+04  0.7818609E-02  0.8706053E-01
       -2   -1    0    0    0  501  0.00000000000E+00  0.00000000000E+00  0.55905454224E+03  0.55905454225E+03  0.25500000920E-02 0. -1.
        2   -1    0    0  501    0  0.00000000000E+00  0.00000000000E+00 -0.14496201564E+04  0.14496201564E+04  0.25500000920E-02 0.  1.
    10030    2    1    2    0    0  0.00000000000E+00  0.00000000000E+00 -0.89056561414E+03  0.20086746986E+04  0.18004629771E+04 0.  0.
        2    1    3    3  502    0 -0.32065028717E+03 -0.83706156619E+03 -0.53814335797E+03  0.10455079847E+04  0.25500000920E-02 0.  1.
       -2    1    3    3    0  502  0.32065028717E+03  0.83706156619E+03 -0.35242225618E+03  0.96316671398E+03  0.25500000920E-02 0. -1.
</event>
<event>
 5   0  0.1000316E-05  0.1797493E+04  0.7818609E-02  0.8707634E-01
       -2   -1    0    0    0  501  0.00000000000E+00  0.00000000000E+00  0.72243622810E+03  0.72243622810E+03  0.25500000920E-02 0.  1.
        2   -1    0    0  501    0  0.00000000000E+00  0.00000000000E+00 -0.11180848386E+04  0.11180848387E+04  0.25500000920E-02 0. -1.
    10030    2    1    2    0    0  0.00000000000E+00  0.00000000000E+00 -0.39564861055E+03  0.18405210668E+04  0.17974926910E+04 0.  0.
        5    1    3    3  502    0  0.47152871375E+03  0.47452745793E+03  0.41671532525E+03  0.78815568799E+03  0.46999998093E+01 0.  1.
       -5    1    3    3    0  502 -0.47152871375E+03 -0.47452745793E+03 -0.81236393581E+03  0.10523653788E+04  0.46999998093E+01 0. -1.
</event>
<event>
 5   0  0.4953155E-06  0.1800491E+04  0.7818609E-02  0.8706038E-01
        1   -1    0    0  501    0  0.00000000000E+00  0.00000000000E+00  0.12313986500E+04  0.12313986500E+04  0.50400001928E-02 0.  1.
       -1   -1    0    0    0  501  0.00000000000E+00  0.00000000000E+00 -0.65814772679E+03  0.65814772680E+03  0.50400001928E-02 0. -1.
    10030    2    1    2    0    0  0.00000000000E+00  0.00000000000E+00  0.57325092325E+03  0.18895463769E+04  0.18004912911E+04 0.  0.
        2    1    3    3  502    0 -0.15399928934E+03 -0.32977799128E+03  0.11507427687E+04  0.12069292541E+04  0.25500000920E-02 0.  1.
       -2    1    3    3    0  502  0.15399928934E+03  0.32977799128E+03 -0.57749184548E+03  0.68261712274E+03  0.25500000920E-02 0. -1.
</event>
<event>
 5   0  0.1036381E-05  0.1800663E+04  0.7818609E-02  0.8705947E-01
       -2   -1    0    0    0  501  0.00000000000E+00  0.00000000000E+00  0.41766499407E+03  0.41766499408E+03  0.25500000920E-02 0.  1.
        2   -1    0    0  501    0  0.00000000000E+00  0.00000000000E+00 -0.19407820086E+04  0.19407820086E+04  0.25500000920E-02 0. -1.
    10030    2    1    2    0    0  0.00000000000E+00  0.00000000000E+00 -0.15231170146E+04  0.23584470027E+04  0.18006628848E+04 0.  0.
        4    1    3    3  502    0  0.87779659292E+03 -0.70634556760E+02 -0.10068696492E+04  0.13376487590E+04  0.12699999809E+01 0. -1.
       -4    1    3    3    0  502 -0.87779659292E+03  0.70634556760E+02 -0.51624736538E+03  0.10207982437E+04  0.12699999809E+01 0.  1.
</event>
<event>
 5   0  0.1035018E-05  0.1799083E+04  0.7818609E-02  0.8706787E-01
        2   -1    0    0  501    0  0.00000000000E+00  0.00000000000E+00  0.19284463366E+04  0.19284463366E+04  0.25500000920E-02 0.  1.
       -2   -1    0    0    0  501  0.00000000000E+00  0.00000000000E+00 -0.41959950934E+03  0.41959950934E+03  0.25500000920E-02 0. -1.
    10030    2    1    2    0    0  0.00000000000E+00  0.00000000000E+00  0.15088468273E+04  0.23480458459E+04  0.17990832517E+04 0.  0.
        3    1    3    3  502    0 -0.20974251036E+03  0.66387256578E+03  0.11004682802E+02  0.69630440002E+03  0.10100000352E+00 0. -1.
       -3    1    3    3    0  502  0.20974251036E+03 -0.66387256578E+03  0.14978421445E+04  0.16517414459E+04  0.10100000352E+00 0.  1.
</event>
<event>
 5   0  0.4987456E-06  0.1799189E+04  0.7818609E-02  0.8706731E-01
        1   -1    0    0  501    0  0.00000000000E+00  0.00000000000E+00  0.10721602412E+04  0.10721602412E+04  0.50400001928E-02 0. -1.
       -1   -1    0    0    0  501  0.00000000000E+00  0.00000000000E+00 -0.75480366871E+03  0.75480366872E+03  0.50400001928E-02 0.  1.
    10030    2    1    2    0    0  0.00000000000E+00  0.00000000000E+00  0.31735657248E+03  0.18269639099E+04  0.17991892435E+04 0.  0.
        3    1    3    3  502    0  0.12336504976E+03 -0.16353567408E+01  0.10635285901E+04  0.10706608623E+04  0.10100000352E+00 0. -1.
       -3    1    3    3    0  502 -0.12336504976E+03  0.16353567408E+01 -0.74617201758E+03  0.75630304767E+03  0.10100000352E+00 0.  1.
</event>
<event>
 5   0  0.1035018E-05  0.1803209E+04  0.7818609E-02  0.8704595E-01
        2   -1    0    0  501    0  0.00000000000E+00  0.00000000000E+00  0.18592273416E+04  0.18592273416E+04  0.25500000920E-02 0.  1.
       -2   -1    0    0    0  501  0.00000000000E+00  0.00000000000E+00 -0.43721984894E+03  0.43721984895E+03  0.25500000920E-02 0. -1.
    10030    2    1    2    0    0  0.00000000000E+00  0.00000000000E+00  0.14220074927E+04  0.22964471906E+04  0.18032094692E+04 0.  0.
        3    1    3    3  502    0 -0.46386015684E+03 -0.71409460041E+03  0.10883517599E+04  0.13818852727E+04  0.10100000352E+00 0. -1.
       -3    1    3    3    0  502  0.46386015684E+03  0.71409460041E+03  0.33365573281E+03  0.91456191790E+03  0.10100000352E+00 0.  1.
</event>
<event>
 5   0  0.4953155E-06  0.1803486E+04  0.7818609E-02  0.8704448E-01
        1   -1    0    0  501    0  0.00000000000E+00  0.00000000000E+00  0.76217524377E+03  0.76217524378E+03  0.50400001928E-02 0. -1.
       -1   -1    0    0    0  501  0.00000000000E+00  0.00000000000E+00 -0.10668680483E+04  0.10668680483E+04  0.50400001928E-02 0.  1.
    10030    2    1    2    0    0  0.00000000000E+00  0.00000000000E+00 -0.30469280455E+03  0.18290432921E+04  0.18034859742E+04 0.  0.
        2    1    3    3  502    0  0.46536374900E+03  0.35220741488E+03  0.54480081711E+03  0.79838675610E+03  0.25500000920E-02 0. -1.
       -2    1    3    3    0  502 -0.46536374900E+03 -0.35220741488E+03 -0.84949362167E+03  0.10306565360E+04  0.25500000920E-02 0.  1.
</event>
<event>
 5   0  0.4994123E-06  0.1800056E+04  0.7818609E-02  0.8706270E-01
        1   -1    0    0  501    0  0.00000000000E+00  0.00000000000E+00  0.12834774789E+04  0.12834774790E+04  0.50400001928E-02 0.  1.
       -1   -1    0    0    0  501  0.00000000000E+00  0.00000000000E+00 -0.63113744176E+03  0.63113744178E+03  0.50400001928E-02 0. -1.
    10030    2    1    2    0    0  0.00000000000E+00  0.00000000000E+00  0.65234003718E+03  0.19146149207E+04  0.18000563243E+04 0.  0.
        1    1    3    3  502    0  0.76230527210E+02  0.78632929534E+03  0.78480293285E+03  0.11135710563E+04  0.50400001928E-02 0. -1.
       -1    1    3    3    0  502 -0.76230527210E+02 -0.78632929534E+03 -0.13246289567E+03  0.80104386443E+03  0.50400001928E-02 0.  1.
</event>
<event>
 5   0  0.1036381E-05  0.1800627E+04  0.7818609E-02  0.8705966E-01
       -2   -1    0    0    0  501  0.00000000000E+00  0.00000000000E+00  0.42706318879E+03  0.42706318880E+03  0.25500000920E-02 0. -1.
        2   -1    0    0  501    0  0.00000000000E+00  0.00000000000E+00 -0.18979963337E+04  0.18979963337E+04  0.25500000920E-02 0.  1.
    10030    2    1    2    0    0  0.00000000000E+00  0.00000000000E+00 -0.14709331449E+04  0.23250595225E+04  0.18006269648E+04 0.  0.
        4    1    3    3  502    0 -0.81910521336E+03  0.29609616356E+03 -0.10297935859E+04  0.13487337510E+04  0.12699999809E+01 0.  1.
       -4    1    3    3    0  502  0.81910521336E+03 -0.29609616356E+03 -0.44113955898E+03  0.97632577146E+03  0.12699999809E+01 0. -1.
</event>
<event>
 5   0  0.1036381E-05  0.1800049E+04  0.7818609E-02  0.8706273E-01
       -2   -1    0    0    0  501  0.00000000000E+00  0.00000000000E+00  0.48867201418E+03  0.48867201419E+03  0.25500000920E-02 0.  1.
        2   -1    0    0  501    0  0.00000000000E+00  0.00000000000E+00 -0.16576434479E+04  0.16576434479E+04  0.25500000920E-02 0. -1.
    10030    2    1    2    0    0  0.00000000000E+00  0.00000000000E+00 -0.11689714337E+04  0.21463154621E+04  0.18000488466E+04 0.  0.
        4    1    3    3  502    0  0.67108668645E+03 -0.28077635537E+03 -0.12163825883E+04  0.14173146850E+04  0.12699999809E+01 0. -1.
       -4    1    3    3    0  502 -0.67108668645E+03  0.28077635537E+03  0.47411154559E+02  0.72900077705E+03  0.12699999809E+01 0.  1.
</event>
<event>
 5   0  0.1036381E-05  0.1799709E+04  0.7818609E-02  0.8706454E-01
        2   -1    0    0  501    0  0.00000000000E+00  0.00000000000E+00  0.53875317888E+03  0.53875317888E+03  0.25500000920E-02 0. -1.
       -2   -1    0    0    0  501  0.00000000000E+00  0.00000000000E+00 -0.15029853202E+04  0.15029853202E+04  0.25500000920E-02 0.  1.
    10030    2    1    2    0    0  0.00000000000E+00  0.00000000000E+00 -0.96423214135E+03  0.20417384991E+04  0.17997089977E+04 0.  0.
        4    1    3    3  502    0 -0.62105310862E+03  0.34781793490E+03 -0.11066507653E+04  0.13158122240E+04  0.12699999809E+01 0.  1.
       -4    1    3    3    0  502  0.62105310862E+03 -0.34781793490E+03  0.14241862394E+03  0.72592627512E+03  0.12699999809E+01 0. -1.
</event>
<event>
 5   0  0.4994123E-06  0.1799601E+04  0.7818609E-02  0.8706512E-01
        1   -1    0    0  501    0  0.00000000000E+00  0.00000000000E+00  0.22299210385E+04  0.22299210385E+04  0.50400001928E-02 0. -1.
       -1   -1    0    0    0  501  0.00000000000E+00  0.00000000000E+00 -0.36308050553E+03  0.36308050557E+03  0.50400001928E-02 0.  1.
    10030    2    1    2    0    0  0.00000000000E+00  0.00000000000E+00  0.18668405330E+04  0.25930015441E+04  0.17996009091E+04 0.  0.
        1    1    3    3  502    0 -0.16344773477E+03 -0.83820464582E+03  0.52501730358E+03  0.10024696301E+04  0.50400001928E-02 0.  1.
       -1    1    3    3    0  502  0.16344773477E+03  0.83820464582E+03  0.13418232294E+04  0.15905319139E+04  0.50400001928E-02 0. -1.
</event>
<event>
 5   0  0.1035018E-05  0.1799457E+04  0.7818609E-02  0.8706588E-01
        2   -1    0    0  501    0  0.00000000000E+00  0.00000000000E+00  0.14142348867E+04  0.14142348867E+04  0.25500000920E-02 0.  1.
       -2   -1    0    0    0  501  0.00000000000E+00  0.00000000000E+00 -0.57240254588E+03  0.57240254588E+03  0.25500000920E-02 0. -1.
    10030    2    1    2    0    0  0.00000000000E+00  0.00000000000E+00  0.84183234086E+03  0.19866374326E+04  0.17994573067E+04 0.  0.
        3    1    3    3  502    0 -0.78468141363E+03  0.28761014479E+03  0.78885009136E+03  0.11492297391E+04  0.10100000352E+00 0. -1.
       -3    1    3    3    0  502  0.78468141363E+03 -0.28761014479E+03  0.52982249509E+02  0.83740769357E+03  0.10100000352E+00 0.  1.
</event>
<event>
 5   0  0.9999162E-06  0.1800518E+04  0.7818609E-02  0.8706024E-01
        2   -1    0    0  501    0  0.00000000000E+00  0.00000000000E+00  0.70272054087E+03  0.70272054088E+03  0.25500000920E-02 0. -1.
       -2   -1    0    0    0  501  0.00000000000E+00  0.00000000000E+00 -0.11533268576E+04  0.11533268577E+04  0.25500000920E-02 0.  1.
    10030    2    1    2    0    0  0.00000000000E+00  0.00000000000E+00 -0.45060631677E+03  0.18560473985E+04  0.18005182290E+04 0.  0.
        1    1    3    3  502    0  0.83386478880E+03 -0.32916851295E+03 -0.14039744149E+03  0.90741051213E+03  0.50400001928E-02 0. -1.
       -1    1    3    3    0  502 -0.83386478880E+03  0.32916851295E+03 -0.31020887528E+03  0.94863688640E+03  0.50400001928E-02 0.  1.
</event>
<event>
 5   0  0.4953155E-06  0.1798935E+04  0.7818609E-02  0.8706866E-01
        1   -1    0    0  501    0  0.00000000000E+00  0.00000000000E+00  0.13843986260E+04  0.13843986260E+04  0.50400001928E-02 0. -1.
       -1   -1    0    0    0  501  0.00000000000E+00  0.00000000000E+00 -0.58439945390E+03  0.58439945392E+03  0.50400001928E-02 0.  1.
    10030    2    1    2    0    0  0.00000000000E+00  0.00000000000E+00  0.79999917208E+03  0.19687980799E+04  0.17989350194E+04 0.  0.
        2    1    3    3  502    0 -0.21243777065E+03  0.87299154009E+03  0.35359592679E+03  0.96554342984E+03  0.25500000920E-02 0. -1.
       -2    1    3    3    0  502  0.21243777065E+03 -0.87299154009E+03  0.44640324528E+03  0.10032546501E+04  0.25500000920E-02 0.  1.
</event>
<event>
 5   0  0.4994123E-06  0.1800245E+04  0.7818609E-02  0.8706169E-01
        1   -1    0    0  501    0  0.00000000000E+00  0.00000000000E+00  0.94507953852E+03  0.94507953854E+03  0.50400001928E-02 0. -1.
       -1   -1    0    0    0  501  0.00000000000E+00  0.00000000000E+00 -0.85730389734E+03  0.85730389736E+03  0.50400001928E-02 0.  1.
    10030    2    1    2    0    0  0.00000000000E+00  0.00000000000E+00  0.87775641180E+02  0.18023834359E+04  0.18002448408E+04 0.  0.
        1    1    3    3  502    0  0.15354354505E+03  0.88665774908E+03  0.21889293859E+02  0.90012039497E+03  0.50400001928E-02 0. -1.
       -1    1    3    3    0  502 -0.15354354505E+03 -0.88665774908E+03  0.65886347321E+02  0.90226304093E+03  0.50400001928E-02 0.  1.
</event>
<event>
 5   0  0.4953155E-06  0.1800354E+04  0.7818609E-02  0.8706111E-01
       -1   -1    0    0    0  501  0.00000000000E+00  0.00000000000E+00  0.42446754347E+03  0.42446754350E+03  0.50400001928E-02 0. -1.
        1   -1    0    0  501    0  0.00000000000E+00  0.00000000000E+00 -0.19090232058E+04  0.19090232058E+04  0.50400001928E-02 0.  1.
    10030    2    1    2    0    0  0.00000000000E+00  0.00000000000E+00 -0.14845556624E+04  0.23334907493E+04  0.18003537326E+04 0.  0.
        2    1    3    3  502    0 -0.62757826025E+03  0.14889913974E+03 -0.15561529164E+04  0.16845288141E+04  0.25500000920E-02 0.  1.
       -2    1    3    3    0  502  0.62757826025E+03 -0.14889913974E+03  0.71597253992E+02  0.64896193520E+03  0.25500000920E-02 0. -1.
</event>
<event>
 5   0  0.1035018E-05  0.1799389E+04  0.7818609E-02  0.8706624E-01
       -2   -1    0    0    0  501  0.00000000000E+00  0.00000000000E+00  0.38027538572E+03  0.38027538573E+03  0.25500000920E-02 0. -1.
        2   -1    0    0  501    0  0.00000000000E+00  0.00000000000E+00 -0.21285901922E+04  0.21285901922E+04  0.25500000920E-02 0.  1.
    10030    2    1    2    0    0  0.00000000000E+00  0.00000000000E+00 -0.17483148065E+04  0.25088655779E+04  0.17993892924E+04 0.  0.
        3    1    3    3  502    0 -0.82656222640E+03 -0.61749967929E+02 -0.13620230277E+04  0.15944042495E+04  0.10100000352E+00 0. -1.
       -3    1    3    3    0  502  0.82656222640E+03  0.61749967929E+02 -0.38629177878E+03  0.91446132843E+03  0.10100000352E+00 0.  1.
</event>
<event>
 5   0  0.4953155E-06  0.1800455E+04  0.7818609E-02  0.8706057E-01
       -1   -1    0    0    0  501  0.00000000000E+00  0.00000000000E+00  0.54658902398E+03  0.54658902400E+03  0.50400001928E-02 0.  1.
        1   -1    0    0  501    0  0.00000000000E+00  0.00000000000E+00 -0.14826676231E+04  0.14826676232E+04  0.50400001928E-02 0. -1.
    10030    2    1    2    0    0  0.00000000000E+00  0.00000000000E+00 -0.93607859917E+03  0.20292566472E+04  0.18004553302E+04 0.  0.
        2    1    3    3  502    0  0.45045748677E+03 -0.77787251739E+03 -0.41268318054E+03  0.98909302303E+03  0.25500000920E-02 0.  1.
       -2    1    3    3    0  502 -0.45045748677E+03  0.77787251739E+03 -0.52339541862E+03  0.10401636241E+04  0.25500000920E-02 0. -1.
</event>
<event>
 5   0  0.9589963E-06  0.1802266E+04  0.7818609E-02  0.8705095E-01
       -2   -1    0    0    0  501  0.00000000000E+00  0.00000000000E+00  0.37016840963E+03  0.37016840964E+03  0.25500000920E-02 0. -1.
        2   -1    0    0  501    0  0.00000000000E+00  0.00000000000E+00 -0.21937068838E+04  0.21937068838E+04  0.25500000920E-02 0.  1.
    10030    2    1    2    0    0  0.00000000000E+00  0.00000000000E+00 -0.18235384742E+04  0.25638752934E+04  0.18022663381E+04 0.  0.
        2    1    3    3  502    0  0.39048156388E+03 -0.47078896634E+03  0.29636297215E+02  0.61236950665E+03  0.25500000920E-02 0. -1.
       -2    1    3    3    0  502 -0.39048156388E+03  0.47078896634E+03 -0.18531747714E+04  0.19515057868E+04  0.25500000920E-02 0.  1.
</event>
<event>
 5   0  0.4987456E-06  0.1798031E+04  0.7818609E-02  0.8707347E-01
       -1   -1    0    0    0  501  0.00000000000E+00  0.00000000000E+00  0.65006772879E+03  0.65006772881E+03  0.50400001928E-02 0.  1.
        1   -1    0    0  501    0  0.00000000000E+00  0.00000000000E+00 -0.12432994502E+04  0.12432994502E+04  0.50400001928E-02 0. -1.
    10030    2    1    2    0    0  0.00000000000E+00  0.00000000000E+00 -0.59323172137E+03  0.18933671790E+04  0.17980309784E+04 0.  0.
        3    1    3    3  502    0 -0.44220156709E+03 -0.11161209154E+03 -0.11124395090E+04  0.12022982809E+04  0.10100000352E+00 0. -1.
       -3    1    3    3    0  502  0.44220156709E+03  0.11161209154E+03  0.51920778764E+03  0.69106889806E+03  0.10100000352E+00 0.  1.
</event>
<event>
 5   0  0.4994123E-06  0.1786400E+04  0.7818609E-02  0.8713566E-01
       -1   -1    0    0    0  501  0.00000000000E+00  0.00000000000E+00  0.14643333265E+04  0.14643333265E+04  0.50400001928E-02 0. -1.
        1   -1    0    0  501    0  0.00000000000E+00  0.00000000000E+00 -0.54482534999E+03  0.54482535002E+03  0.50400001928E-02 0.  1.
    10030    2    1    2    0    0  0.00000000000E+00  0.00000000000E+00  0.91950797651E+03  0.20091586765E+04  0.17863996385E+04 0.  0.
        1    1    3    3  502    0 -0.53871671133E+02  0.56680144270E+03 -0.31427949594E+03  0.65033655440E+03  0.50400001928E-02 0.  1.
       -1    1    3    3    0  502  0.53871671133E+02 -0.56680144270E+03  0.12337874725E+04  0.13588221221E+04  0.50400001928E-02 0. -1.
</event>
<event>
 5   0  0.1036381E-05  0.1801715E+04  0.7818609E-02  0.8705388E-01
       -2   -1    0    0    0  501  0.00000000000E+00  0.00000000000E+00  0.81412963672E+03  0.81412963672E+03  0.25500000920E-02 0. -1.
        2   -1    0    0  501    0  0.00000000000E+00  0.00000000000E+00 -0.99682461513E+03  0.99682461513E+03  0.25500000920E-02 0.  1.
    10030    2    1    2    0    0  0.00000000000E+00  0.00000000000E+00 -0.18269497841E+03  0.18109542519E+04  0.18017152514E+04 0.  0.
        4    1    3    3  502    0 -0.13563276685E+03 -0.88814778126E+03 -0.15756490043E+03  0.91215735460E+03  0.12699999809E+01 0.  1.
       -4    1    3    3    0  502  0.13563276685E+03  0.88814778126E+03 -0.25130077977E+02  0.89879689726E+03  0.12699999809E+01 0. -1.
</event>
<event>
 5   0  0.1000316E-05  0.1798308E+04  0.7818609E-02  0.8707200E-01
       -2   -1    0    0    0  501  0.00000000000E+00  0.00000000000E+00  0.66642049746E+03  0.66642049747E+03  0.25500000920E-02 0. -1.
        2   -1    0    0  501    0  0.00000000000E+00  0.00000000000E+00 -0.12131649510E+04  0.12131649510E+04  0.25500000920E-02 0.  1.
    10030    2    1    2    0    0  0.00000000000E+00  0.00000000000E+00 -0.54674445350E+03  0.18795854484E+04  0.17983080828E+04 0.  0.
        5    1    3    3  502    0  0.21451563925E+03 -0.76296110218E+03 -0.71721701320E+03  0.10689008078E+04  0.46999998093E+01 0.  1.
       -5    1    3    3    0  502 -0.21451563925E+03  0.76296110218E+03  0.17047255971E+03  0.81068464061E+03  0.46999998093E+01 0. -1.
</event>
<event>
 5   0  0.4953155E-06  0.1799696E+04  0.7818609E-02  0.8706461E-01
       -1   -1    0    0    0  501  0.00000000000E+00  0.00000000000E+00  0.63235159575E+03  0.63235159577E+03  0.50400001928E-02 0. -1.
        1   -1    0    0  501    0  0.00000000000E+00  0.00000000000E+00 -0.12804999644E+04  0.12804999644E+04  0.50400001928E-02 0.  1.
    10030    2    1    2    0    0  0.00000000000E+00  0.00000000000E+00 -0.64814836861E+03  0.19128515601E+04  0.17996957475E+04 0.  0.
        2    1    3    3  502    0 -0.30938095994E+03 -0.60371922560E+03 -0.95245959539E+03  0.11693471523E+04  0.25500000920E-02 0.  1.
       -2    1    3    3    0  502  0.30938095994E+03  0.60371922560E+03  0.30431122679E+03  0.74350440785E+03  0.25500000920E-02 0. -1.
</event>
<event>
 5   0  0.4953155E-06  0.1800966E+04  0.7818609E-02  0.8705786E-01
        1   -1    0    0  501    0  0.00000000000E+00  0.00000000000E+00  0.11430091131E+04  0.11430091131E+04  0.50400001928E-02 0.  1.
       -1   -1    0    0    0  501  0.00000000000E+00  0.00000000000E+00 -0.70941641912E+03  0.70941641914E+03  0.50400001928E-02 0. -1.
    10030    2    1    2    0    0  0.00000000000E+00  0.00000000000E+00  0.43359269396E+03  0.18524255322E+04  0.18009657765E+04 0.  0.
        2    1    3    3  502    0  0.40627530597E+03  0.39767146020E+02  0.10423688606E+04  0.11194524964E+04  0.25500000920E-02 0.  1.
       -2    1    3    3    0  502 -0.40627530597E+03 -0.39767146020E+02 -0.60877616666E+03  0.73297303582E+03  0.25500000920E-02 0. -1.
</event>
<event>
 5   0  0.4994123E-06  0.1799787E+04  0.7818609E-02  0.8706413E-01
       -1   -1    0    0    0  501  0.00000000000E+00  0.00000000000E+00  0.11454771596E+04  0.11454771596E+04  0.50400001928E-02 0.  1.
        1   -1    0    0  501    0  0.00000000000E+00  0.00000000000E+00 -0.70696185401E+03  0.70696185402E+03  0.50400001928E-02 0. -1.
    10030    2    1    2    0    0  0.00000000000E+00  0.00000000000E+00  0.43851530556E+03  0.18524390136E+04  0.17997873835E+04 0.  0.
        1    1    3    3  502    0 -0.24519537045E+03 -0.14024638242E+03 -0.66014900598E+03  0.71804354158E+03  0.50400001928E-02 0. -1.
       -1    1    3    3    0  502  0.24519537045E+03  0.14024638242E+03  0.10986643115E+04  0.11343954720E+04  0.50400001928E-02 0.  1.
</event>
<event>
 5   0  0.4981384E-06  0.1793419E+04  0.7818609E-02  0.8709807E-01
        1   -1    0    0  501    0  0.00000000000E+00  0.00000000000E+00  0.56387553834E+03  0.56387553836E+03  0.50400001928E-02 0.  1.
       -1   -1    0    0    0  501  0.00000000000E+00  0.00000000000E+00 -0.14260020776E+04  0.14260020776E+04  0.50400001928E-02 0. -1.
    10030    2    1    2    0    0  0.00000000000E+00  0.00000000000E+00 -0.86212653927E+03  0.19898776160E+04  0.17934187344E+04 0.  0.
        5    1    3    3  502    0 -0.21539021150E+02  0.47107232090E+03 -0.12772991023E+04  0.13615756122E+04  0.46999998093E+01 0. -1.
       -5    1    3    3    0  502  0.21539021150E+02 -0.47107232090E+03  0.41517256300E+03  0.62830200383E+03  0.46999998093E+01 0.  1.
</event>
<event>
 5   0  0.4987456E-06  0.1799321E+04  0.7818609E-02  0.8706660E-01
       -1   -1    0    0    0  501  0.00000000000E+00  0.00000000000E+00  0.47510851353E+03  0.47510851355E+03  0.50400001928E-02 0. -1.
        1   -1    0    0  501    0  0.00000000000E+00  0.00000000000E+00 -0.17035883488E+04  0.17035883488E+04  0.50400001928E-02 0.  1.
    10030    2    1    2    0    0  0.00000000000E+00  0.00000000000E+00 -0.12284798352E+04  0.21786968623E+04  0.17993213477E+04 0.  0.
        3    1    3    3  502    0  0.69008534638E+03  0.14240971669E+03 -0.12915454368E+04  0.14712538660E+04  0.10100000352E+00 0.  1.
       -3    1    3    3    0  502 -0.69008534638E+03 -0.14240971669E+03  0.63065601607E+02  0.70744299629E+03  0.10100000352E+00 0. -1.
</event>
<event>
 5   0  0.9999162E-06  0.1799639E+04  0.7818609E-02  0.8706491E-01
        2   -1    0    0  501    0  0.00000000000E+00  0.00000000000E+00  0.23398735603E+04  0.23398735603E+04  0.25500000920E-02 0. -1.
       -2   -1    0    0    0  501  0.00000000000E+00  0.00000000000E+00 -0.34603380195E+03  0.34603380196E+03  0.25500000920E-02 0.  1.
    10030    2    1    2    0    0  0.00000000000E+00  0.00000000000E+00  0.19938397584E+04  0.26859073623E+04  0.17996392352E+04 0.  0.
        1    1    3    3  502    0  0.32070322585E+03 -0.56837269731E+03  0.19215013737E+04  0.20293017546E+04  0.50400001928E-02 0. -1.
       -1    1    3    3    0  502 -0.32070322585E+03  0.56837269731E+03  0.72338384672E+02  0.65660560768E+03  0.50400001928E-02 0.  1.
</event>
<event>
 5   0  0.4981384E-06  0.1799987E+04  0.7818609E-02  0.8706306E-01
        1   -1    0    0  501    0  0.00000000000E+00  0.00000000000E+00  0.15736763676E+04  0.15736763676E+04  0.50400001928E-02 0.  1.
       -1   -1    0    0    0  501  0.00000000000E+00  0.00000000000E+00 -0.51471101257E+03  0.51471101259E+03  0.50400001928E-02 0. -1.
    10030    2    1    2    0    0  0.00000000000E+00  0.00000000000E+00  0.10589653550E+04  0.20883873802E+04  0.17999872851E+04 0.  0.
        5    1    3    3  502    0  0.43664974747E+03  0.14132458328E+03 -0.36872121137E+03  0.58873853408E+03  0.46999998093E+01 0. -1.
       -5    1    3    3    0  502 -0.43664974747E+03 -0.14132458328E+03  0.14276865664E+04  0.14996488461E+04  0.46999998093E+01 0.  1.
</event>
<event>
 5   0  0.4994123E-06  0.1799091E+04  0.7818609E-02  0.8706783E-01
        1   -1    0    0  501    0  0.00000000000E+00  0.00000000000E+00  0.11006100910E+04  0.11006100910E+04  0.50400001928E-02 0.  1.
       -1   -1    0    0    0  501  0.00000000000E+00  0.00000000000E+00 -0.73521196148E+03  0.73521196150E+03  0.50400001928E-02 0. -1.
    10030    2    1    2    0    0  0.00000000000E+00  0.00000000000E+00  0.36539812948E+03  0.18358220525E+04  0.17990905523E+04 0.  0.
        1    1    3    3  502    0  0.48478253097E+03  0.18910311041E+03 -0.56604459251E+03  0.76888267599E+03  0.50400001928E-02 0. -1.
       -1    1    3    3    0  502 -0.48478253097E+03 -0.18910311041E+03  0.93144272199E+03  0.10669393765E+04  0.50400001928E-02 0.  1.
</event>
<event>
 5   0  0.4994123E-06  0.1798339E+04  0.7818609E-02  0.8707183E-01
        1   -1    0    0  501    0  0.00000000000E+00  0.00000000000E+00  0.18794932831E+04  0.18794932831E+04  0.50400001928E-02 0. -1.
       -1   -1    0    0    0  501  0.00000000000E+00  0.00000000000E+00 -0.43017222939E+03  0.43017222942E+03  0.50400001928E-02 0.  1.
    10030    2    1    2    0    0  0.00000000000E+00  0.00000000000E+00  0.14493210537E+04  0.23096655125E+04  0.17983390290E+04 0.  0.
        1    1    3    3  502    0 -0.63313916888E+03 -0.40508661532E+03  0.13584828391E+04  0.15525578885E+04  0.50400001928E-02 0. -1.
       -1    1    3    3    0  502  0.63313916888E+03  0.40508661532E+03  0.90838214619E+02  0.75710762401E+03  0.50400001928E-02 0.  1.
</event>
<event>
 5   0  0.4983159E-06  0.1800117E+04  0.7818609E-02  0.8706237E-01
       -1   -1    0    0    0  501  0.00000000000E+00  0.00000000000E+00  0.67191179367E+03  0.67191179369E+03  0.50400001928E-02 0. -1.
        1   -1    0    0  501    0  0.00000000000E+00  0.00000000000E+00 -0.12056727632E+04  0.12056727633E+04  0.50400001928E-02 0.  1.
    10030    2    1    2    0    0  0.00000000000E+00  0.00000000000E+00 -0.53376096958E+03  0.18775845569E+04  0.18001174950E+04 0.  0.
        4    1    3    3  502    0  0.61168197240E+03 -0.34698472263E+02  0.42084656741E+03  0.74328478091E+03  0.12699999809E+01 0.  1.
       -4    1    3    3    0  502 -0.61168197240E+03  0.34698472263E+02 -0.95460753699E+03  0.11342997760E+04  0.12699999809E+01 0. -1.
</event>
<event>
 5   0  0.4987456E-06  0.1800439E+04  0.7818609E-02  0.8706066E-01
        1   -1    0    0  501    0  0.00000000000E+00  0.00000000000E+00  0.92891629100E+03  0.92891629101E+03  0.50400001928E-02 0. -1.
       -1   -1    0    0    0  501  0.00000000000E+00  0.00000000000E+00 -0.87240891295E+03  0.87240891296E+03  0.50400001928E-02 0.  1.
    10030    2    1    2    0    0  0.00000000000E+00  0.00000000000E+00  0.56507378046E+02  0.18013252040E+04  0.18004386706E+04 0.  0.
        3    1    3    3  502    0  0.19445429352E+03  0.41414646067E+03  0.80391930716E+03  0.92499514906E+03  0.10100000352E+00 0. -1.
       -3    1    3    3    0  502 -0.19445429352E+03 -0.41414646067E+03 -0.74741192912E+03  0.87633005491E+03  0.10100000352E+00 0.  1.
</event>
<event>
 5   0  0.9999162E-06  0.1807643E+04  0.7818609E-02  0.8702245E-01
        2   -1    0    0  501    0  0.00000000000E+00  0.00000000000E+00  0.28620727614E+04  0.28620727614E+04  0.25500000920E-02 0. -1.
       -2   -1    0    0    0  501  0.00000000000E+00  0.00000000000E+00 -0.28542020569E+03  0.28542020570E+03  0.25500000920E-02 0.  1.
    10030    2    1    2    0    0  0.00000000000E+00  0.00000000000E+00  0.25766525557E+04  0.31474929671E+04  0.18076431022E+04 0.  0.
        1    1    3    3  502    0  0.74901938716E+03  0.48372261719E+03  0.15458598718E+04  0.17845728777E+04  0.50400001928E-02 0. -1.
       -1    1    3    3    0  502 -0.74901938716E+03 -0.48372261719E+03  0.10307926839E+04  0.13629200894E+04  0.50400001928E-02 0.  1.
</event>
<event>
 5   0  0.1035018E-05  0.1799569E+04  0.7818609E-02  0.8706529E-01
        2   -1    0    0  501    0  0.00000000000E+00  0.00000000000E+00  0.16972723961E+04  0.16972723961E+04  0.25500000920E-02 0.  1.
       -2   -1    0    0    0  501  0.00000000000E+00  0.00000000000E+00 -0.47700763250E+03  0.47700763250E+03  0.25500000920E-02 0. -1.
    10030    2    1    2    0    0  0.00000000000E+00  0.00000000000E+00  0.12202647636E+04  0.21742800286E+04  0.17995687121E+04 0.  0.
        3    1    3    3  502    0 -0.49647740477E+02 -0.41541852200E+03  0.15726048769E+04  0.16273056122E+04  0.10100000352E+00 0.  1.
       -3    1    3    3    0  502  0.49647740477E+02  0.41541852200E+03 -0.35234011328E+03  0.54697441639E+03  0.10100000352E+00 0. -1.
</event>
<event>
 5   0  0.4987456E-06  0.1800581E+04  0.7818609E-02  0.8705990E-01
       -1   -1    0    0    0  501  0.00000000000E+00  0.00000000000E+00  0.10744829261E+04  0.10744829261E+04  0.50400001928E-02 0.  1.
        1   -1    0    0  501    0  0.00000000000E+00  0.00000000000E+00 -0.75433785723E+03  0.75433785725E+03  0.50400001928E-02 0. -1.
    10030    2    1    2    0    0  0.00000000000E+00  0.00000000000E+00  0.32014506882E+03  0.18288207833E+04  0.18005811818E+04 0.  0.
        3    1    3    3  502    0  0.56075816782E+03 -0.10989852423E+03  0.86668160233E+03  0.10381061691E+04  0.10100000352E+00 0.  1.
       -3    1    3    3    0  502 -0.56075816782E+03  0.10989852423E+03 -0.54653653350E+03  0.79071461417E+03  0.10100000352E+00 0. -1.
</event>
<event>
 5   0  0.3626125E-06  0.1799617E+04  0.7818609E-02  0.8706503E-01
        4   -1    0    0  501    0  0.00000000000E+00  0.00000000000E+00  0.88354708958E+03  0.88354800232E+03  0.12699999809E+01 0.  1.
       -4   -1    0    0    0  501  0.00000000000E+00  0.00000000000E+00 -0.91636742792E+03  0.91636830797E+03  0.12699999809E+01 0. -1.
    10030    2    1    2    0    0  0.00000000000E+00  0.00000000000E+00 -0.32820338342E+02  0.17999163103E+04  0.17996170563E+04 0.  0.
        4    1    3    3  502    0 -0.47372075303E+03  0.71016026728E+03 -0.30091276999E+03  0.90514588057E+03  0.12699999809E+01 0. -1.
       -4    1    3    3    0  502  0.47372075303E+03 -0.71016026728E+03  0.26809243165E+03  0.89477042971E+03  0.12699999809E+01 0.  1.
</event>
<event>
 5   0  0.4983159E-06  0.1799589E+04  0.7818609E-02  0.8706518E-01
        1   -1    0    0  501    0  0.00000000000E+00  0.00000000000E+00  0.16050344029E+04  0.16050344029E+04  0.50400001928E-02 0. -1.
       -1   -1    0    0    0  501  0.00000000000E+00  0.00000000000E+00 -0.50443181107E+03  0.50443181109E+03  0.50400001928E-02 0.  1.
    10030    2    1    2    0    0  0.00000000000E+00  0.00000000000E+00  0.11006025918E+04  0.21094662140E+04  0.17995892984E+04 0.  0.
        4    1    3    3  502    0  0.42239140795E+03  0.65850775176E+03  0.10713432354E+04  0.13265839218E+04  0.12699999809E+01 0. -1.
       -4    1    3    3    0  502 -0.42239140795E+03 -0.65850775176E+03  0.29259356446E+02  0.78288229222E+03  0.12699999809E+01 0.  1.
</event>
<event>
 5   0  0.4953155E-06  0.1800368E+04  0.7818609E-02  0.8706104E-01
       -1   -1    0    0    0  501  0.00000000000E+00  0.00000000000E+00  0.20684973520E+04  0.20684973520E+04  0.50400001928E-02 0.  1.
        1   -1    0    0  501    0  0.00000000000E+00  0.00000000000E+00 -0.39174865949E+03  0.39174865953E+03  0.50400001928E-02 0. -1.
    10030    2    1    2    0    0  0.00000000000E+00  0.00000000000E+00  0.16767486925E+04  0.24602460116E+04  0.18003678123E+04 0.  0.
        2    1    3    3  502    0 -0.18615943584E+02 -0.58433272408E+03  0.17737596254E+04  0.18676226853E+04  0.25500000920E-02 0.  1.
       -2    1    3    3    0  502  0.18615943584E+02  0.58433272408E+03 -0.97010932860E+02  0.59262332631E+03  0.25500000920E-02 0. -1.
</event>
<event>
 5   0  0.4994123E-06  0.1800448E+04  0.7818609E-02  0.8706061E-01
       -1   -1    0    0    0  501  0.00000000000E+00  0.00000000000E+00  0.47762102861E+03  0.47762102864E+03  0.50400001928E-02 0.  1.
        1   -1    0    0  501    0  0.00000000000E+00  0.00000000000E+00 -0.16967497608E+04  0.16967497608E+04  0.50400001928E-02 0. -1.
    10030    2    1    2    0    0  0.00000000000E+00  0.00000000000E+00 -0.12191287322E+04  0.21743707895E+04  0.18004481288E+04 0.  0.
        1    1    3    3  502    0 -0.44014950606E+03  0.47996386480E+03 -0.13601823762E+04  0.15080427699E+04  0.50400001928E-02 0. -1.
       -1    1    3    3    0  502  0.44014950606E+03 -0.47996386480E+03  0.14105364399E+03  0.66632801960E+03  0.50400001928E-02 0.  1.
</event>
<event>
 5   0  0.4981384E-06  0.1801511E+04  0.7818609E-02  0.8705496E-01
       -1   -1    0    0    0  501  0.00000000000E+00  0.00000000000E+00  0.72322342813E+03  0.72322342815E+03  0.50400001928E-02 0.  1.
        1   -1    0    0  501    0  0.00000000000E+00  0.00000000000E+00 -0.11218668456E+04  0.11218668456E+04  0.50400001928E-02 0. -1.
    10030    2    1    2    0    0  0.00000000000E+00  0.00000000000E+00 -0.39864341743E+03  0.18450902737E+04  0.18015109059E+04 0.  0.
        5    1    3    3  502    0 -0.31639586271E+03  0.83250847958E+03 -0.61296757174E+02  0.89272397355E+03  0.46999998093E+01 0. -1.
       -5    1    3    3    0  502  0.31639586271E+03 -0.83250847958E+03 -0.33734666025E+03  0.95236630017E+03  0.46999998093E+01 0.  1.
</event>
<event>
 5   0  0.1000316E-05  0.1800421E+04  0.7818609E-02  0.8706076E-01
       -2   -1    0    0    0  501  0.00000000000E+00  0.00000000000E+00  0.95259972549E+03  0.95259972550E+03  0.25500000920E-02 0. -1.
        2   -1    0    0  501    0  0.00000000000E+00  0.00000000000E+00 -0.85070216519E+03  0.85070216519E+03  0.25500000920E-02 0.  1.
    10030    2    1    2    0    0  0.00000000000E+00  0.00000000000E+00  0.10189756031E+03  0.18033018907E+04  0.18004206720E+04 0.  0.
        5    1    3    3  502    0  0.11702639607E+03  0.12562625470E+03 -0.83413918895E+03  0.85163807441E+03  0.46999998093E+01 0.  1.
       -5    1    3    3    0  502 -0.11702639607E+03 -0.12562625470E+03  0.93603674926E+03  0.95166381628E+03  0.46999998093E+01 0. -1.
</event>
<event>
 5   0  0.1036381E-05  0.1800325E+04  0.7818609E-02  0.8706126E-01
       -2   -1    0    0    0  501  0.00000000000E+00  0.00000000000E+00  0.45002631731E+03  0.45002631732E+03  0.25500000920E-02 0. -1.
        2   -1    0    0  501    0  0.00000000000E+00  0.00000000000E+00 -0.18005456761E+04  0.18005456761E+04  0.25500000920E-02 0.  1.
    10030    2    1    2    0    0  0.00000000000E+00  0.00000000000E+00 -0.13505193587E+04  0.22505719934E+04  0.18003254592E+04 0.  0.
        4    1    3    3  502    0 -0.79875391830E+03 -0.38770362955E+02 -0.15865200409E+03  0.81528095424E+03  0.12699999809E+01 0. -1.
       -4    1    3    3    0  502  0.79875391830E+03  0.38770362955E+02 -0.11918673547E+04  0.14352910391E+04  0.12699999809E+01 0.  1.
</event>
<event>
 5   0  0.4981384E-06  0.1800065E+04  0.7818609E-02  0.8706265E-01
        1   -1    0    0  501    0  0.00000000000E+00  0.00000000000E+00  0.26164793773E+04  0.26164793773E+04  0.50400001928E-02 0.  1.
       -1   -1    0    0    0  501  0.00000000000E+00  0.00000000000E+00 -0.30959860204E+03  0.30959860208E+03  0.50400001928E-02 0. -1.
    10030    2    1    2    0    0  0.00000000000E+00  0.00000000000E+00  0.23068807752E+04  0.29260779794E+04  0.18000648405E+04 0.  0.
        5    1    3    3  502    0 -0.42613014173E+03  0.75216528183E+03  0.74641613166E+03  0.11421465057E+04  0.46999998093E+01 0.  1.
       -5    1    3    3    0  502  0.42613014173E+03 -0.75216528183E+03  0.15604646436E+04  0.17839314737E+04  0.46999998093E+01 0. -1.
</event>
<event>
 5   0  0.3626125E-06  0.1800161E+04  0.7818609E-02  0.8706214E-01
        3   -1    0    0  501    0  0.00000000000E+00  0.00000000000E+00  0.12993302435E+04  0.12993302474E+04  0.10100000352E+00 0.  1.
       -3   -1    0    0    0  501  0.00000000000E+00  0.00000000000E+00 -0.62350975674E+03  0.62350976492E+03  0.10100000352E+00 0. -1.
    10030    2    1    2    0    0  0.00000000000E+00  0.00000000000E+00  0.67582048674E+03  0.19228400123E+04  0.18001612102E+04 0.  0.
        4    1    3    3  502    0  0.22566547565E+03 -0.29443544378E+03  0.12138745345E+04  0.12692951335E+04  0.12699999809E+01 0.  1.
       -4    1    3    3    0  502 -0.22566547565E+03  0.29443544378E+03 -0.53805404776E+03  0.65354487885E+03  0.12699999809E+01 0. -1.
</event>
<event>
 5   0  0.9999162E-06  0.1800104E+04  0.7818609E-02  0.8706244E-01
       -2   -1    0    0    0  501  0.00000000000E+00  0.00000000000E+00  0.73221790396E+03  0.73221790396E+03  0.25500000920E-02 0. -1.
        2   -1    0    0  501    0  0.00000000000E+00  0.00000000000E+00 -0.11063557964E+04  0.11063557964E+04  0.25500000920E-02 0.  1.
    10030    2    1    2    0    0  0.00000000000E+00  0.00000000000E+00 -0.37413789241E+03  0.18385737003E+04  0.18001039106E+04 0.  0.
        1    1    3    3  502    0  0.21494076434E+03  0.80891176041E+03 -0.52513461071E+03  0.98808103296E+03  0.50400001928E-02 0.  1.
       -1    1    3    3    0  502 -0.21494076434E+03 -0.80891176041E+03  0.15099671830E+03  0.85049266738E+03  0.50400001928E-02 0. -1.
</event>
<event>
 5   0  0.1036381E-05  0.1800645E+04  0.7818609E-02  0.8705956E-01
       -2   -1    0    0    0  501  0.00000000000E+00  0.00000000000E+00  0.11244005645E+04  0.11244005645E+04  0.25500000920E-02 0. -1.
        2   -1    0    0  501    0  0.00000000000E+00  0.00000000000E+00 -0.72090047145E+03  0.72090047145E+03  0.25500000920E-02 0.  1.
    10030    2    1    2    0    0  0.00000000000E+00  0.00000000000E+00  0.40350009309E+03  0.18453010360E+04  0.18006453255E+04 0.  0.
        4    1    3    3  502    0 -0.72265591027E+03 -0.52633174261E+03  0.92703368027E+02  0.89880598311E+03  0.12699999809E+01 0.  1.
       -4    1    3    3    0  502  0.72265591027E+03  0.52633174261E+03  0.31079672506E+03  0.94649505289E+03  0.12699999809E+01 0. -1.
</event>
<event>
 5   0  0.1036381E-05  0.1799687E+04  0.7818609E-02  0.8706466E-01
        2   -1    0    0  501    0  0.00000000000E+00  0.00000000000E+00  0.87338293501E+03  0.87338293501E+03  0.25500000920E-02 0.  1.
       -2   -1    0    0    0  501  0.00000000000E+00  0.00000000000E+00 -0.92710565819E+03  0.92710565820E+03  0.25500000920E-02 0. -1.
    10030    2    1    2    0    0  0.00000000000E+00  0.00000000000E+00 -0.53722723186E+02  0.18004885932E+04  0.17996869292E+04 0.  0.
        4    1    3    3  502    0 -0.76444213856E+03  0.22589702305E+02 -0.50123981616E+03  0.91439873363E+03  0.12699999809E+01 0. -1.
       -4    1    3    3    0  502  0.76444213856E+03 -0.22589702305E+02  0.44751709298E+03  0.88608985958E+03  0.12699999809E+01 0.  1.
</event>
<event>
 5   0  0.4983159E-06  0.1802446E+04  0.7818609E-02  0.8705000E-01
        1   -1    0    0  501    0  0.00000000000E+00  0.00000000000E+00  0.29884919434E+04  0.29884919434E+04  0.50400001928E-02 0.  1.
       -1   -1    0    0    0  501  0.00000000000E+00  0.00000000000E+00 -0.27177692966E+03  0.27177692970E+03  0.50400001928E-02 0. -1.
    10030    2    1    2    0    0  0.00000000000E+00  0.00000000000E+00  0.27167150138E+04  0.32602688731E+04  0.18024462985E+04 0.  0.
        4    1    3    3  502    0  0.61354812845E+03 -0.52749398549E+03  0.20762272011E+04  0.22283204918E+04  0.12699999809E+01 0.  1.
       -4    1    3    3    0  502 -0.61354812845E+03  0.52749398549E+03  0.64048781262E+03  0.10319483813E+04  0.12699999809E+01 0. -1.
</event>
<event>
 5   0  0.4987456E-06  0.1799756E+04  0.7818609E-02  0.8706429E-01
        1   -1    0    0  501    0  0.00000000000E+00  0.00000000000E+00  0.23744616220E+04  0.23744616220E+04  0.50400001928E-02 0. -1.
       -1   -1    0    0    0  501  0.00000000000E+00  0.00000000000E+00 -0.34103736872E+03  0.34103736876E+03  0.50400001928E-02 0.  1.
    10030    2    1    2    0    0  0.00000000000E+00  0.00000000000E+00  0.20334242532E+04  0.27154989907E+04  0.17997556987E+04 0.  0.
        3    1    3    3  502    0  0.15166085590E+03  0.37890873212E+02  0.23538182802E+04  0.23590034421E+04  0.10100000352E+00 0. -1.
       -3    1    3    3    0  502 -0.15166085590E+03 -0.37890873212E+02 -0.32039402695E+03  0.35649554863E+03  0.10100000352E+00 0.  1.
</event>
<event>
 5   0  0.4987456E-06  0.1799529E+04  0.7818609E-02  0.8706550E-01
        1   -1    0    0  501    0  0.00000000000E+00  0.00000000000E+00  0.22465315409E+04  0.22465315409E+04  0.50400001928E-02 0. -1.
       -1   -1    0    0    0  501  0.00000000000E+00  0.00000000000E+00 -0.36036713986E+03  0.36036713989E+03  0.50400001928E-02 0.  1.
    10030    2    1    2    0    0  0.00000000000E+00  0.00000000000E+00  0.18861644011E+04  0.26068986808E+04  0.17995289895E+04 0.  0.
        3    1    3    3  502    0  0.54289807466E+02  0.75489325999E+02  0.22395526327E+04  0.22414821049E+04  0.10100000352E+00 0. -1.
       -3    1    3    3    0  502 -0.54289807466E+02 -0.75489325999E+02 -0.35338823163E+03  0.36541657597E+03  0.10100000352E+00 0.  1.
</event>
<event>
 5   0  0.1036381E-05  0.1799928E+04  0.7818609E-02  0.8706338E-01
        2   -1    0    0  501    0  0.00000000000E+00  0.00000000000E+00  0.96394780154E+03  0.96394780155E+03  0.25500000920E-02 0.  1.
       -2   -1    0    0    0  501  0.00000000000E+00  0.00000000000E+00 -0.84022735520E+03  0.84022735520E+03  0.25500000920E-02 0. -1.
    10030    2    1    2    0    0  0.00000000000E+00  0.00000000000E+00  0.12372044635E+03  0.18041751568E+04  0.17999281228E+04 0.  0.
        4    1    3    3  502    0 -0.19714937870E+03  0.85115143161E+03  0.27825630785E+03  0.91692683613E+03  0.12699999809E+01 0.  1.
       -4    1    3    3    0  502  0.19714937870E+03 -0.85115143161E+03 -0.15453586151E+03  0.88724832062E+03  0.12699999809E+01 0. -1.
</event>
<event>
 5   0  0.4983159E-06  0.1799446E+04  0.7818609E-02  0.8706594E-01
        1   -1    0    0  501    0  0.00000000000E+00  0.00000000000E+00  0.13839502638E+04  0.13839502638E+04  0.50400001928E-02 0.  1.
       -1   -1    0    0    0  501  0.00000000000E+00  0.00000000000E+00 -0.58492080950E+03  0.58492080952E+03  0.50400001928E-02 0. -1.
    10030    2    1    2    0    0  0.00000000000E+00  0.00000000000E+00  0.79902945432E+03  0.19688710734E+04  0.17994458132E+04 0.  0.
        4    1    3    3  502    0 -0.48840071644E+03  0.63976680504E+03 -0.40415343930E+02  0.80589815584E+03  0.12699999809E+01 0.  1.
       -4    1    3    3    0  502  0.48840071644E+03 -0.63976680504E+03  0.83944479825E+03  0.11629729175E+04  0.12699999809E+01 0. -1.
</event>
<event>
 5   0  0.9999162E-06  0.1800922E+04  0.7818609E-02  0.8705809E-01
        2   -1    0    0  501    0  0.00000000000E+00  0.00000000000E+00  0.77323038420E+03  0.77323038420E+03  0.25500000920E-02 0. -1.
       -2   -1    0    0    0  501  0.00000000000E+00  0.00000000000E+00 -0.10486266218E+04  0.10486266218E+04  0.25500000920E-02 0.  1.
    10030    2    1    2    0    0  0.00000000000E+00  0.00000000000E+00 -0.27539623761E+03  0.18218570060E+04  0.18009219480E+04 0.  0.
        1    1    3    3  502    0 -0.85337312512E+03  0.20176921838E+03 -0.34470691847E+03  0.94222044546E+03  0.50400001928E-02 0.  1.
       -1    1    3    3    0  502  0.85337312512E+03 -0.20176921838E+03  0.69310680866E+02  0.87963656056E+03  0.50400001928E-02 0. -1.
</event>
<event>
 5   0  0.4981384E-06  0.1799063E+04  0.7818609E-02  0.8706798E-01
        1   -1    0    0  501    0  0.00000000000E+00  0.00000000000E+00  0.14834390562E+04  0.14834390563E+04  0.50400001928E-02 0.  1.
       -1   -1    0    0    0  501  0.00000000000E+00  0.00000000000E+00 -0.54546044363E+03  0.54546044366E+03  0.50400001928E-02 0. -1.
    10030    2    1    2    0    0  0.00000000000E+00  0.00000000000E+00  0.93797861261E+03  0.20288994999E+04  0.17990634516E+04 0.  0.
        5    1    3    3  502    0  0.59377284394E+03  0.46392101514E+02 -0.29123412758E+03  0.66299157185E+03  0.46999998093E+01 0. -1.
       -5    1    3    3    0  502 -0.59377284394E+03 -0.46392101514E+02  0.12292127402E+04  0.13659079281E+04  0.46999998093E+01 0.  1.
</event>
<event>
 5   0  0.1035018E-05  0.1799932E+04  0.7818609E-02  0.8706335E-01
        2   -1    0    0  501    0  0.00000000000E+00  0.00000000000E+00  0.69060889931E+03  0.69060889932E+03  0.25500000920E-02 0. -1.
       -2   -1    0    0    0  501  0.00000000000E+00  0.00000000000E+00 -0.11727899658E+04  0.11727899658E+04  0.25500000920E-02 0.  1.
    10030    2    1    2    0    0  0.00000000000E+00  0.00000000000E+00 -0.48218106644E+03  0.18633988651E+04  0.17999324292E+04 0.  0.
        3    1    3    3  502    0  0.41853457694E+03 -0.10606905627E+03  0.57638336189E+03  0.72016638831E+03  0.10100000352E+00 0. -1.
       -3    1    3    3    0  502 -0.41853457694E+03  0.10606905627E+03 -0.10585644283E+04  0.11432324768E+04  0.10100000352E+00 0.  1.
</event>
<event>
 5   0  0.9999162E-06  0.1800170E+04  0.7818609E-02  0.8706209E-01
        2   -1    0    0  501    0  0.00000000000E+00  0.00000000000E+00  0.19687860231E+04  0.19687860231E+04  0.25500000920E-02 0. -1.
       -2   -1    0    0    0  501  0.00000000000E+00  0.00000000000E+00 -0.41149893991E+03  0.41149893992E+03  0.25500000920E-02 0.  1.
    10030    2    1    2    0    0  0.00000000000E+00  0.00000000000E+00  0.15572870832E+04  0.23802849630E+04  0.18001703935E+04 0.  0.
        1    1    3    3  502    0  0.28809966560E+03  0.28751612426E+03  0.18401489822E+04  0.18846260148E+04  0.50400001928E-02 0. -1.
       -1    1    3    3    0  502 -0.28809966560E+03 -0.28751612426E+03 -0.28286189899E+03  0.49565894822E+03  0.50400001928E-02 0.  1.
</event>
<event>
 5   0  0.4981384E-06  0.1798152E+04  0.7818609E-02  0.8707283E-01
       -1   -1    0    0    0  501  0.00000000000E+00  0.00000000000E+00  0.39269971413E+03  0.39269971416E+03  0.50400001928E-02 0. -1.
        1   -1    0    0  501    0  0.00000000000E+00  0.00000000000E+00 -0.20584105955E+04  0.20584105955E+04  0.50400001928E-02 0.  1.
    10030    2    1    2    0    0  0.00000000000E+00  0.00000000000E+00 -0.16657108814E+04  0.24511103097E+04  0.17981515536E+04 0.  0.
        5    1    3    3  502    0 -0.64581566200E+03  0.35572246832E+03 -0.13154134857E+03  0.74896031947E+03  0.46999998093E+01 0. -1.
       -5    1    3    3    0  502  0.64581566200E+03 -0.35572246832E+03 -0.15341695328E+04  0.17021499902E+04  0.46999998093E+01 0.  1.
</event>
<event>
 5   0  0.4953155E-06  0.1796823E+04  0.7818609E-02  0.8707991E-01
       -1   -1    0    0    0  501  0.00000000000E+00  0.00000000000E+00  0.65875586973E+03  0.65875586975E+03  0.50400001928E-02 0. -1.
        1   -1    0    0  501    0  0.00000000000E+00  0.00000000000E+00 -0.12252537261E+04  0.12252537261E+04  0.50400001928E-02 0.  1.
    10030    2    1    2    0    0  0.00000000000E+00  0.00000000000E+00 -0.56649785635E+03  0.18840095958E+04  0.17968228449E+04 0.  0.
        2    1    3    3  502    0  0.76962582022E+03  0.39941260364E+03 -0.52979395513E+03  0.10161377692E+04  0.25500000920E-02 0. -1.
       -2    1    3    3    0  502 -0.76962582022E+03 -0.39941260364E+03 -0.36703901214E+02  0.86787182664E+03  0.25500000920E-02 0.  1.
</event>
<event>
 5   0  0.9589963E-06  0.1799255E+04  0.7818609E-02  0.8706696E-01
        2   -1    0    0  501    0  0.00000000000E+00  0.00000000000E+00  0.96623759358E+03  0.96623759358E+03  0.25500000920E-02 0.  1.
       -2   -1    0    0    0  501  0.00000000000E+00  0.00000000000E+00 -0.83760972336E+03  0.83760972336E+03  0.25500000920E-02 0. -1.
    10030    2    1    2    0    0  0.00000000000E+00  0.00000000000E+00  0.12862787022E+03  0.18038473169E+04  0.17992554054E+04 0.  0.
        2    1    3    3  502    0  0.12527607496E+03  0.17278674652E+03  0.94048979626E+03  0.96440158213E+03  0.25500000920E-02 0.  1.
       -2    1    3    3    0  502 -0.12527607496E+03 -0.17278674652E+03 -0.81186192604E+03  0.83944573481E+03  0.25500000920E-02 0. -1.
</event>
<event>
 5   0  0.9589963E-06  0.1800175E+04  0.7818609E-02  0.8706206E-01
       -2   -1    0    0    0  501  0.00000000000E+00  0.00000000000E+00  0.63643385256E+03  0.63643385257E+03  0.25500000920E-02 0.  1.
        2   -1    0    0  501    0  0.00000000000E+00  0.00000000000E+00 -0.12729645484E+04  0.12729645484E+04  0.25500000920E-02 0. -1.
    10030    2    1    2    0    0  0.00000000000E+00  0.00000000000E+00 -0.63653069585E+03  0.19093984010E+04  0.18001752489E+04 0.  0.
        2    1    3    3  502    0  0.40265719506E+03 -0.59941704747E+03 -0.88819768669E+03  0.11446959178E+04  0.25500000920E-02 0. -1.
       -2    1    3    3    0  502 -0.40265719506E+03  0.59941704747E+03  0.25166699084E+03  0.76470248320E+03  0.25500000920E-02 0.  1.
</event>
<event>
 5   0  0.4987456E-06  0.1799777E+04  0.7818609E-02  0.8706418E-01
       -1   -1    0    0    0  501  0.00000000000E+00  0.00000000000E+00  0.82690965848E+03  0.82690965849E+03  0.50400001928E-02 0. -1.
        1   -1    0    0  501    0  0.00000000000E+00  0.00000000000E+00 -0.97930770191E+03  0.97930770192E+03  0.50400001928E-02 0.  1.
    10030    2    1    2    0    0  0.00000000000E+00  0.00000000000E+00 -0.15239804343E+03  0.18062173604E+04  0.17997766499E+04 0.  0.
        3    1    3    3  502    0 -0.29359054323E+03 -0.78770596509E+03  0.24607770390E+03  0.87591685739E+03  0.10100000352E+00 0. -1.
       -3    1    3    3    0  502  0.29359054323E+03  0.78770596509E+03 -0.39847574733E+03  0.93030050302E+03  0.10100000352E+00 0.  1.
</event>
<event>
 5   0  0.4953155E-06  0.1799943E+04  0.7818609E-02  0.8706330E-01
        1   -1    0    0  501    0  0.00000000000E+00  0.00000000000E+00  0.15003731493E+04  0.15003731493E+04  0.50400001928E-02 0.  1.
       -1   -1    0    0    0  501  0.00000000000E+00  0.00000000000E+00 -0.53983148911E+03  0.53983148914E+03  0.50400001928E-02 0. -1.
    10030    2    1    2    0    0  0.00000000000E+00  0.00000000000E+00  0.96054166019E+03  0.20402046384E+04  0.17999429674E+04 0.  0.
        2    1    3    3  502    0 -0.66377616950E+03  0.16562349758E+03 -0.18251990526E+03  0.70805611498E+03  0.25500000920E-02 0. -1.
       -2    1    3    3    0  502  0.66377616950E+03 -0.16562349758E+03  0.11430615654E+04  0.13321485235E+04  0.25500000920E-02 0.  1.
</event>
<event>
 5   0  0.9999162E-06  0.1800960E+04  0.7818609E-02  0.8705789E-01
       -2   -1    0    0    0  501  0.00000000000E+00  0.00000000000E+00  0.58683496923E+03  0.58683496923E+03  0.25500000920E-02 0. -1.
        2   -1    0    0  501    0  0.00000000000E+00  0.00000000000E+00 -0.13817590745E+04  0.13817590745E+04  0.25500000920E-02 0.  1.
    10030    2    1    2    0    0  0.00000000000E+00  0.00000000000E+00 -0.79492410526E+03  0.19685940437E+04  0.18009603482E+04 0.  0.
        1    1    3    3  502    0  0.34021634940E+03  0.67159986203E+03 -0.93748238311E+03  0.12023588307E+04  0.50400001928E-02 0.  1.
       -1    1    3    3    0  502 -0.34021634940E+03 -0.67159986203E+03  0.14255827786E+03  0.76623521303E+03  0.50400001928E-02 0. -1.
</event>
<event>
 5   0  0.4983159E-06  0.1799955E+04  0.7818609E-02  0.8706323E-01
       -1   -1    0    0    0  501  0.00000000000E+00  0.00000000000E+00  0.56226476461E+03  0.56226476463E+03  0.50400001928E-02 0. -1.
        1   -1    0    0  501    0  0.00000000000E+00  0.00000000000E+00 -0.14405308789E+04  0.14405308789E+04  0.50400001928E-02 0.  1.
    10030    2    1    2    0    0  0.00000000000E+00  0.00000000000E+00 -0.87826611429E+03  0.20027956435E+04  0.17999552834E+04 0.  0.
        4    1    3    3  502    0  0.54475473302E+03  0.28870063741E+03  0.29038254162E+03  0.68149057995E+03  0.12699999809E+01 0. -1.
       -4    1    3    3    0  502 -0.54475473302E+03 -0.28870063741E+03 -0.11686486559E+04  0.13213050636E+04  0.12699999809E+01 0.  1.
</event>
<event>
 5   0  0.9999162E-06  0.1800091E+04  0.7818609E-02  0.8706251E-01
        2   -1    0    0  501    0  0.00000000000E+00  0.00000000000E+00  0.21313697464E+04  0.21313697464E+04  0.25500000920E-02 0. -1.
       -2   -1    0    0    0  501  0.00000000000E+00  0.00000000000E+00 -0.38007572442E+03  0.38007572443E+03  0.25500000920E-02 0.  1.
    10030    2    1    2    0    0  0.00000000000E+00  0.00000000000E+00  0.17512940220E+04  0.25114454709E+04  0.18000909981E+04 0.  0.
        1    1    3    3  502    0 -0.56179018120E+03 -0.14121063836E+03  0.18367338196E+04  0.19259127125E+04  0.50400001928E-02 0. -1.
       -1    1    3    3    0  502  0.56179018120E+03  0.14121063836E+03 -0.85439797585E+02  0.58553275836E+03  0.50400001928E-02 0.  1.
</event>
<event>
 5   0  0.4994123E-06  0.1800242E+04  0.7818609E-02  0.8706171E-01
        1   -1    0    0  501    0  0.00000000000E+00  0.00000000000E+00  0.13755824410E+04  0.13755824410E+04  0.50400001928E-02 0. -1.
       -1   -1    0    0    0  501  0.00000000000E+00  0.00000000000E+00 -0.58899961420E+03  0.58899961422E+03  0.50400001928E-02 0.  1.
    10030    2    1    2    0    0  0.00000000000E+00  0.00000000000E+00  0.78658282677E+03  0.19645820552E+04  0.18002416805E+04 0.  0.
        1    1    3    3  502    0  0.22931709321E+03  0.25753212419E+03 -0.51405949446E+03  0.61900427147E+03  0.50400001928E-02 0.  1.
       -1    1    3    3    0  502 -0.22931709321E+03 -0.25753212419E+03  0.13006423212E+04  0.13455777837E+04  0.50400001928E-02 0. -1.
</event>
<event>
 5   0  0.1036381E-05  0.1799444E+04  0.7818609E-02  0.8706595E-01
        2   -1    0    0  501    0  0.00000000000E+00  0.00000000000E+00  0.78409515062E+03  0.78409515062E+03  0.25500000920E-02 0. -1.
       -2   -1    0    0    0  501  0.00000000000E+00  0.00000000000E+00 -0.10323997065E+04  0.10323997065E+04  0.25500000920E-02 0.  1.
    10030    2    1    2    0    0  0.00000000000E+00  0.00000000000E+00 -0.24830455588E+03  0.18164948571E+04  0.17994439178E+04 0.  0.
        4    1    3    3  502    0  0.24477761718E+02  0.51034232121E+03  0.62343895030E+03  0.80605594303E+03  0.12699999809E+01 0. -1.
       -4    1    3    3    0  502 -0.24477761718E+02 -0.51034232121E+03 -0.87174350618E+03  0.10104389141E+04  0.12699999809E+01 0.  1.
</event>
<event>
 5   0  0.3626125E-06  0.1800166E+04  0.7818609E-02  0.8706211E-01
        3   -1    0    0  501    0  0.00000000000E+00  0.00000000000E+00  0.97712253806E+03  0.97712254328E+03  0.10100000352E+00 0. -1.
       -3   -1    0    0    0  501  0.00000000000E+00  0.00000000000E+00 -0.82911787557E+03  0.82911788172E+03  0.10100000352E+00 0.  1.
    10030    2    1    2    0    0  0.00000000000E+00  0.00000000000E+00  0.14800466249E+03  0.18062404250E+04  0.18001664070E+04 0.  0.
        4    1    3    3  502    0 -0.40155634523E+03  0.32483527219E+03 -0.66562987166E+03  0.84251420842E+03  0.12699999809E+01 0.  1.
       -4    1    3    3    0  502  0.40155634523E+03 -0.32483527219E+03  0.81363453415E+03  0.96372621658E+03  0.12699999809E+01 0. -1.
</event>
<event>
 5   0  0.1035018E-05  0.1801181E+04  0.7818609E-02  0.8705672E-01
       -2   -1    0    0    0  501  0.00000000000E+00  0.00000000000E+00  0.10927012958E+04  0.10927012958E+04  0.25500000920E-02 0. -1.
        2   -1    0    0  501    0  0.00000000000E+00  0.00000000000E+00 -0.74225512790E+03  0.74225512791E+03  0.25500000920E-02 0.  1.
    10030    2    1    2    0    0  0.00000000000E+00  0.00000000000E+00  0.35044616790E+03  0.18349564237E+04  0.18011808794E+04 0.  0.
        3    1    3    3  502    0  0.31696721217E+03  0.43792636590E+02 -0.68239243918E+03  0.75368790614E+03  0.10100000352E+00 0.  1.
       -3    1    3    3    0  502 -0.31696721217E+03 -0.43792636590E+02  0.10328386071E+04  0.10812685176E+04  0.10100000352E+00 0. -1.
</event>
<event>
 5   0  0.9589963E-06  0.1799106E+04  0.7818609E-02  0.8706775E-01
        2   -1    0    0  501    0  0.00000000000E+00  0.00000000000E+00  0.12102584995E+04  0.12102584995E+04  0.25500000920E-02 0.  1.
       -2   -1    0    0    0  501  0.00000000000E+00  0.00000000000E+00 -0.66861363167E+03  0.66861363168E+03  0.25500000920E-02 0. -1.
    10030    2    1    2    0    0  0.00000000000E+00  0.00000000000E+00  0.54164486785E+03  0.18788721312E+04  0.17991057008E+04 0.  0.
        2    1    3    3  502    0  0.64650896460E+03  0.62453768836E+03  0.23503709492E+03  0.92911979932E+03  0.25500000920E-02 0. -1.
       -2    1    3    3    0  502 -0.64650896460E+03 -0.62453768836E+03  0.30660777293E+03  0.94975233188E+03  0.25500000920E-02 0.  1.
</event>
<event>
 5   0  0.9999162E-06  0.1800966E+04  0.7818609E-02  0.8705786E-01
       -2   -1    0    0    0  501  0.00000000000E+00  0.00000000000E+00  0.91783211121E+03  0.91783211121E+03  0.25500000920E-02 0. -1.
        2   -1    0    0  501    0  0.00000000000E+00  0.00000000000E+00 -0.88346146803E+03  0.88346146803E+03  0.25500000920E-02 0.  1.
    10030    2    1    2    0    0  0.00000000000E+00  0.00000000000E+00  0.34370643182E+02  0.18012935792E+04  0.18009656347E+04 0.  0.
        1    1    3    3  502    0  0.51040584304E+03  0.32481831857E+03  0.68427621685E+03  0.91337561039E+03  0.50400001928E-02 0. -1.
       -1    1    3    3    0  502 -0.51040584304E+03 -0.32481831857E+03 -0.64990557367E+03  0.88791796885E+03  0.50400001928E-02 0.  1.
</event>
<event>
 5   0  0.4983159E-06  0.1800410E+04  0.7818609E-02  0.8706082E-01
       -1   -1    0    0    0  501  0.00000000000E+00  0.00000000000E+00  0.14694028944E+04  0.14694028944E+04  0.50400001928E-02 0. -1.
        1   -1    0    0  501    0  0.00000000000E+00  0.00000000000E+00 -0.55149538455E+03  0.55149538457E+03  0.50400001928E-02 0.  1.
    10030    2    1    2    0    0  0.00000000000E+00  0.00000000000E+00  0.91790750983E+03  0.20208982790E+04  0.18004098581E+04 0.  0.
        4    1    3    3  502    0 -0.19329055626E+03  0.42887212911E+03 -0.40255219055E+03  0.61914652651E+03  0.12699999809E+01 0.  1.
       -4    1    3    3    0  502  0.19329055626E+03 -0.42887212911E+03  0.13204597004E+04  0.14017517524E+04  0.12699999809E+01 0. -1.
</event>
<event>
 5   0  0.9589963E-06  0.1800136E+04  0.7818609E-02  0.8706227E-01
       -2   -1    0    0    0  501  0.00000000000E+00  0.00000000000E+00  0.11019181015E+04  0.11019181015E+04  0.25500000920E-02 0. -1.
        2   -1    0    0  501    0  0.00000000000E+00  0.00000000000E+00 -0.73519257982E+03  0.73519257982E+03  0.25500000920E-02 0.  1.
    10030    2    1    2    0    0  0.00000000000E+00  0.00000000000E+00  0.36672552168E+03  0.18371106813E+04  0.18001355636E+04 0.  0.
        2    1    3    3  502    0 -0.74472705244E+03  0.48721551509E+03  0.32075594114E+03  0.94598187856E+03  0.25500000920E-02 0.  1.
       -2    1    3    3    0  502  0.74472705244E+03 -0.48721551509E+03  0.45969580539E+02  0.89112880277E+03  0.25500000920E-02 0. -1.
</event>
<event>
 5   0  0.4987456E-06  0.1799759E+04  0.7818609E-02  0.8706428E-01
       -1   -1    0    0    0  501  0.00000000000E+00  0.00000000000E+00  0.58629882418E+03  0.58629882420E+03  0.50400001928E-02 0.  1.
        1   -1    0    0  501    0  0.00000000000E+00  0.00000000000E+00 -0.13811773712E+04  0.13811773712E+04  0.50400001928E-02 0. -1.
    10030    2    1    2    0    0  0.00000000000E+00  0.00000000000E+00 -0.79487854704E+03  0.19674761954E+04  0.17997585046E+04 0.  0.
        3    1    3    3  502    0 -0.63166615198E+03  0.59849768301E+03 -0.64811362353E+03  0.10850128494E+04  0.10100000352E+00 0. -1.
       -3    1    3    3    0  502  0.63166615198E+03 -0.59849768301E+03 -0.14676492351E+03  0.88246334604E+03  0.10100000352E+00 0.  1.
</event>
<event>
 5   0  0.4983159E-06  0.1801106E+04  0.7818609E-02  0.8705711E-01
       -1   -1    0    0    0  501  0.00000000000E+00  0.00000000000E+00  0.12439102851E+04  0.12439102851E+04  0.50400001928E-02 0. -1.
        1   -1    0    0  501    0  0.00000000000E+00  0.00000000000E+00 -0.65197316242E+03  0.65197316244E+03  0.50400001928E-02 0.  1.
    10030    2    1    2    0    0  0.00000000000E+00  0.00000000000E+00  0.59193712270E+03  0.18958834476E+04  0.18011064626E+04 0.  0.
        4    1    3    3  502    0 -0.40529531766E+03 -0.80257173050E+03  0.24220409512E+03  0.93115525757E+03  0.12699999809E+01 0.  1.
       -4    1    3    3    0  502  0.40529531766E+03  0.80257173050E+03  0.34973302757E+03  0.96472819000E+03  0.12699999809E+01 0. -1.
</event>
<event>
 5   0  0.4953155E-06  0.1799637E+04  0.7818609E-02  0.8706493E-01
        1   -1    0    0  501    0  0.00000000000E+00  0.00000000000E+00  0.14374235426E+04  0.14374235426E+04  0.50400001928E-02 0.  1.
       -1   -1    0    0    0  501  0.00000000000E+00  0.00000000000E+00 -0.56328069657E+03  0.56328069659E+03  0.50400001928E-02 0. -1.
    10030    2    1    2    0    0  0.00000000000E+00  0.00000000000E+00  0.87414284604E+03  0.20007042392E+04  0.17996365571E+04 0.  0.
        2    1    3    3  502    0  0.26189493477E+03  0.69032254624E+03 -0.13472672207E+03  0.75052346022E+03  0.25500000920E-02 0. -1.
       -2    1    3    3    0  502 -0.26189493477E+03 -0.69032254624E+03  0.10088695681E+04  0.12501807790E+04  0.25500000920E-02 0.  1.
</event>
<event>
 5   0  0.4981384E-06  0.1791660E+04  0.7818609E-02  0.8710747E-01
       -1   -1    0    0    0  501  0.00000000000E+00  0.00000000000E+00  0.15270052664E+04  0.15270052665E+04  0.50400001928E-02 0. -1.
        1   -1    0    0  501    0  0.00000000000E+00  0.00000000000E+00 -0.52554581880E+03  0.52554581883E+03  0.50400001928E-02 0.  1.
    10030    2    1    2    0    0  0.00000000000E+00  0.00000000000E+00  0.10014594476E+04  0.20525510853E+04  0.17916598261E+04 0.  0.
        5    1    3    3  502    0 -0.60504618770E+02 -0.89107720816E+03  0.42127872361E+03  0.98751063425E+03  0.46999998093E+01 0.  1.
       -5    1    3    3    0  502  0.60504618770E+02  0.89107720816E+03  0.58018072404E+03  0.10650404510E+04  0.46999998093E+01 0. -1.
</event>
<event>
 5   0  0.9999162E-06  0.1800099E+04  0.7818609E-02  0.8706247E-01
        2   -1    0    0  501    0  0.00000000000E+00  0.00000000000E+00  0.90309957495E+03  0.90309957496E+03  0.25500000920E-02 0. -1.
       -2   -1    0    0    0  501  0.00000000000E+00  0.00000000000E+00 -0.89701002801E+03  0.89701002802E+03  0.25500000920E-02 0.  1.
    10030    2    1    2    0    0  0.00000000000E+00  0.00000000000E+00  0.60895469402E+01  0.18001096030E+04  0.18000993029E+04 0.  0.
        1    1    3    3  502    0 -0.86999420254E+03  0.60610551182E+02 -0.21950048130E+03  0.89930195856E+03  0.50400001928E-02 0. -1.
       -1    1    3    3    0  502  0.86999420254E+03 -0.60610551182E+02  0.22559002824E+03  0.90080764441E+03  0.50400001928E-02 0.  1.
</event>
<event>
 5   0  0.1036381E-05  0.1799790E+04  0.7818609E-02  0.8706411E-01
        2   -1    0    0  501    0  0.00000000000E+00  0.00000000000E+00  0.92156957570E+03  0.92156957571E+03  0.25500000920E-02 0.  1.
       -2   -1    0    0    0  501  0.00000000000E+00  0.00000000000E+00 -0.87873026877E+03  0.87873026877E+03  0.25500000920E-02 0. -1.
    10030    2    1    2    0    0  0.00000000000E+00  0.00000000000E+00  0.42839306934E+02  0.18002998445E+04  0.17997900777E+04 0.  0.
        4    1    3    3  502    0 -0.59415843898E+03 -0.12698482414E+03 -0.64259068495E+03  0.88434936391E+03  0.12699999809E+01 0. -1.
       -4    1    3    3    0  502  0.59415843898E+03  0.12698482414E+03  0.68542999189E+03  0.91595048056E+03  0.12699999809E+01 0.  1.
</event>
<event>
 5   0  0.1000316E-05  0.1799115E+04  0.7818609E-02  0.8706770E-01
        2   -1    0    0  501    0  0.00000000000E+00  0.00000000000E+00  0.15071912469E+04  0.15071912469E+04  0.25500000920E-02 0.  1.
       -2   -1    0    0    0  501  0.00000000000E+00  0.00000000000E+00 -0.53689519733E+03  0.53689519734E+03  0.25500000920E-02 0. -1.
    10030    2    1    2    0    0  0.00000000000E+00  0.00000000000E+00  0.97029604953E+03  0.20440864442E+04  0.17991150512E+04 0.  0.
        5    1    3    3  502    0  0.71639585055E+02  0.35664092518E+03 -0.44958734945E+03  0.57833887509E+03  0.46999998093E+01 0. -1.
       -5    1    3    3    0  502 -0.71639585055E+02 -0.35664092518E+03  0.14198833990E+04  0.14657475691E+04  0.46999998093E+01 0.  1.
</event>
<event>
 5   0  0.4953155E-06  0.1800581E+04  0.7818609E-02  0.8705991E-01
       -1   -1    0    0    0  501  0.00000000000E+00  0.00000000000E+00  0.10082175876E+04  0.10082175876E+04  0.50400001928E-02 0.  1.
        1   -1    0    0  501    0  0.00000000000E+00  0.00000000000E+00 -0.80391638557E+03  0.80391638559E+03  0.50400001928E-02 0. -1.
    10030    2    1    2    0    0  0.00000000000E+00  0.00000000000E+00  0.20430120203E+03  0.18121339732E+04  0.18005806163E+04 0.  0.
        2    1    3    3  502    0  0.74208602293E+03 -0.34315572407E+02  0.61399368591E+03  0.96377251999E+03  0.25500000920E-02 0.  1.
       -2    1    3    3    0  502 -0.74208602293E+03  0.34315572407E+02 -0.40969248388E+03  0.84836145321E+03  0.25500000920E-02 0. -1.
</event>
<event>
 5   0  0.4953155E-06  0.1800513E+04  0.7818609E-02  0.8706027E-01
       -1   -1    0    0    0  501  0.00000000000E+00  0.00000000000E+00  0.64927417615E+03  0.64927417617E+03  0.50400001928E-02 0.  1.
        1   -1    0    0  501    0  0.00000000000E+00  0.00000000000E+00 -0.12482581539E+04  0.12482581539E+04  0.50400001928E-02 0. -1.
    10030    2    1    2    0    0  0.00000000000E+00  0.00000000000E+00 -0.59898397778E+03  0.18975323301E+04  0.18005130208E+04 0.  0.
        2    1    3    3  502    0  0.98771160043E+02  0.89376498052E+03 -0.34531113964E+03  0.96322965363E+03  0.25500000920E-02 0.  1.
       -2    1    3    3    0  502 -0.98771160043E+02 -0.89376498052E+03 -0.25367283815E+03  0.93430267649E+03  0.25500000920E-02 0. -1.
</event>
<event>
 5   0  0.3626125E-06  0.1798993E+04  0.7818609E-02  0.8706835E-01
        3   -1    0    0  501    0  0.00000000000E+00  0.00000000000E+00  0.13512894495E+04  0.13512894533E+04  0.10100000352E+00 0.  1.
       -3   -1    0    0    0  501  0.00000000000E+00  0.00000000000E+00 -0.59875691528E+03  0.59875692379E+03  0.10100000352E+00 0. -1.
    10030    2    1    2    0    0  0.00000000000E+00  0.00000000000E+00  0.75253253423E+03  0.19500463771E+04  0.17989929565E+04 0.  0.
        3    1    3    3  502    0 -0.18761472253E+02  0.60651251631E+03  0.10960099837E+04  0.12527758458E+04  0.10100000352E+00 0.  1.
       -3    1    3    3    0  502  0.18761472253E+02 -0.60651251631E+03 -0.34347744947E+03  0.69727053127E+03  0.10100000352E+00 0. -1.
</event>
<event>
 5   0  0.3626125E-06  0.1800762E+04  0.7818609E-02  0.8705894E-01
        3   -1    0    0  501    0  0.00000000000E+00  0.00000000000E+00  0.80887866991E+03  0.80887867622E+03  0.10100000352E+00 0.  1.
       -3   -1    0    0    0  501  0.00000000000E+00  0.00000000000E+00 -0.10022347965E+04  0.10022348016E+04  0.10100000352E+00 0. -1.
    10030    2    1    2    0    0  0.00000000000E+00  0.00000000000E+00 -0.19335612657E+03  0.18111134778E+04  0.18007624601E+04 0.  0.
        4    1    3    3  502    0 -0.32102113936E+03 -0.64889196232E+03  0.44172080464E+03  0.84807678475E+03  0.12699999809E+01 0.  1.
       -4    1    3    3    0  502  0.32102113936E+03  0.64889196232E+03 -0.63507693121E+03  0.96303669304E+03  0.12699999809E+01 0. -1.
</event>
<event>
 5   0  0.4983159E-06  0.1799479E+04  0.7818609E-02  0.8706577E-01
       -1   -1    0    0    0  501  0.00000000000E+00  0.00000000000E+00  0.13805255810E+04  0.13805255810E+04  0.50400001928E-02 0.  1.
        1   -1    0    0  501    0  0.00000000000E+00  0.00000000000E+00 -0.58639316961E+03  0.58639316963E+03  0.50400001928E-02 0. -1.
    10030    2    1    2    0    0  0.00000000000E+00  0.00000000000E+00  0.79413241137E+03  0.19669187506E+04  0.17994785591E+04 0.  0.
        4    1    3    3  502    0  0.77696685615E+03 -0.39054876304E+03  0.64947144239E+03  0.10853665737E+04  0.12699999809E+01 0.  1.
       -4    1    3    3    0  502 -0.77696685615E+03  0.39054876304E+03  0.14466096899E+03  0.88155217696E+03  0.12699999809E+01 0. -1.
</event>
<event>
 5   0  0.4994123E-06  0.1800195E+04  0.7818609E-02  0.8706196E-01
       -1   -1    0    0    0  501  0.00000000000E+00  0.00000000000E+00  0.57753944244E+03  0.57753944246E+03  0.50400001928E-02 0. -1.
        1   -1    0    0  501    0  0.00000000000E+00  0.00000000000E+00 -0.14028060806E+04  0.14028060806E+04  0.50400001928E-02 0.  1.
    10030    2    1    2    0    0  0.00000000000E+00  0.00000000000E+00 -0.82526663812E+03  0.19803455230E+04  0.18001953690E+04 0.  0.
        1    1    3    3  502    0  0.63064095406E+03 -0.62736490116E+03 -0.56379269344E+03  0.10531651976E+04  0.50400001928E-02 0. -1.
       -1    1    3    3    0  502 -0.63064095406E+03  0.62736490116E+03 -0.26147394468E+03  0.92718032546E+03  0.50400001928E-02 0.  1.
</event>
<event>
 5   0  0.1036381E-05  0.1800743E+04  0.7818609E-02  0.8705905E-01
       -2   -1    0    0    0  501  0.00000000000E+00  0.00000000000E+00  0.89254899756E+03  0.89254899757E+03  0.25500000920E-02 0.  1.
        2   -1    0    0  501    0  0.00000000000E+00  0.00000000000E+00 -0.90826243989E+03  0.90826243989E+03  0.25500000920E-02 0. -1.
    10030    2    1    2    0    0  0.00000000000E+00  0.00000000000E+00 -0.15713442326E+02  0.18008114375E+04  0.18007428803E+04 0.  0.
        4    1    3    3  502    0  0.75301470255E+03  0.41252182395E+02  0.48403010987E+03  0.89611363396E+03  0.12699999809E+01 0.  1.
       -4    1    3    3    0  502 -0.75301470255E+03 -0.41252182395E+02 -0.49974355220E+03  0.90469780350E+03  0.12699999809E+01 0. -1.
</event>
<event>
 5   0  0.1000316E-05  0.1799723E+04  0.7818609E-02  0.8706447E-01
        2   -1    0    0  501    0  0.00000000000E+00  0.00000000000E+00  0.14983207321E+04  0.14983207321E+04  0.25500000920E-02 0. -1.
       -2   -1    0    0    0  501  0.00000000000E+00  0.00000000000E+00 -0.54043865012E+03  0.54043865012E+03  0.25500000920E-02 0.  1.
    10030    2    1    2    0    0  0.00000000000E+00  0.00000000000E+00  0.95788208197E+03  0.20387593822E+04  0.17997226830E+04 0.  0.
        5    1    3    3  502    0  0.81672842782E+03 -0.35502313733E+03  0.62507723925E+03  0.10880397042E+04  0.46999998093E+01 0.  1.
       -5    1    3    3    0  502 -0.81672842782E+03  0.35502313733E+03  0.33280484271E+03  0.95071967803E+03  0.46999998093E+01 0. -1.
</event>
<event>
 5   0  0.4981384E-06  0.1800509E+04  0.7818609E-02  0.8706029E-01
       -1   -1    0    0    0  501  0.00000000000E+00  0.00000000000E+00  0.68974389849E+03  0.68974389851E+03  0.50400001928E-02 0. -1.
        1   -1    0    0  501    0  0.00000000000E+00  0.00000000000E+00 -0.11750126397E+04  0.11750126397E+04  0.50400001928E-02 0.  1.
    10030    2    1    2    0    0  0.00000000000E+00  0.00000000000E+00 -0.48526874117E+03  0.18647565382E+04  0.18005085936E+04 0.  0.
        5    1    3    3  502    0  0.17610560542E+03 -0.86735659714E+03 -0.41317670725E+03  0.97675878920E+03  0.46999998093E+01 0. -1.
       -5    1    3    3    0  502 -0.17610560542E+03  0.86735659714E+03 -0.72092033930E+02  0.88799774900E+03  0.46999998093E+01 0.  1.
</event>
<event>
 5   0  0.9999162E-06  0.1800187E+04  0.7818609E-02  0.8706200E-01
        2   -1    0    0  501    0  0.00000000000E+00  0.00000000000E+00  0.10001025921E+04  0.10001025921E+04  0.25500000920E-02 0. -1.
       -2   -1    0    0    0  501  0.00000000000E+00  0.00000000000E+00 -0.81008516969E+03  0.81008516969E+03  0.25500000920E-02 0.  1.
    10030    2    1    2    0    0  0.00000000000E+00  0.00000000000E+00  0.19001742245E+03  0.18101877618E+04  0.18001869659E+04 0.  0.
        1    1    3    3  502    0  0.24071138494E+03  0.37728420633E+03  0.88029723784E+03  0.98752649087E+03  0.50400001928E-02 0. -1.
       -1    1    3    3    0  502 -0.24071138494E+03 -0.37728420633E+03 -0.69027981539E+03  0.82266127096E+03  0.50400001928E-02 0.  1.
</event>
<event>
 5   0  0.9589963E-06  0.1800904E+04  0.7818609E-02  0.8705819E-01
        2   -1    0    0  501    0  0.00000000000E+00  0.00000000000E+00  0.80790032696E+03  0.80790032696E+03  0.25500000920E-02 0.  1.
       -2   -1    0    0    0  501  0.00000000000E+00  0.00000000000E+00 -0.10036063789E+04  0.10036063789E+04  0.25500000920E-02 0. -1.
    10030    2    1    2    0    0  0.00000000000E+00  0.00000000000E+00 -0.19570605193E+03  0.18115067058E+04  0.18009041303E+04 0.  0.
        2    1    3    3  502    0 -0.65773239517E+03 -0.33352041980E+03 -0.61758262284E+03  0.96190231839E+03  0.25500000920E-02 0. -1.
       -2    1    3    3    0  502  0.65773239517E+03  0.33352041980E+03  0.42187657092E+03  0.84960438745E+03  0.25500000920E-02 0.  1.
</event>
<event>
 5   0  0.9589963E-06  0.1799821E+04  0.7818609E-02  0.8706395E-01
       -2   -1    0    0    0  501  0.00000000000E+00  0.00000000000E+00  0.42574803196E+03  0.42574803197E+03  0.25500000920E-02 0.  1.
        2   -1    0    0  501    0  0.00000000000E+00  0.00000000000E+00 -0.19021544885E+04  0.19021544885E+04  0.25500000920E-02 0. -1.
    10030    2    1    2    0    0  0.00000000000E+00  0.00000000000E+00 -0.14764064565E+04  0.23279025205E+04  0.17998205799E+04 0.  0.
        2    1    3    3  502    0  0.73239274745E+03 -0.86209745531E+02 -0.71116450269E+02  0.74087030326E+03  0.25500000920E-02 0.  1.
       -2    1    3    3    0  502 -0.73239274745E+03  0.86209745531E+02 -0.14052900063E+04  0.15870322172E+04  0.25500000920E-02 0. -1.
</event>
<event>
 5   0  0.4983159E-06  0.1797789E+04  0.7818609E-02  0.8707476E-01
       -1   -1    0    0    0  501  0.00000000000E+00  0.00000000000E+00  0.12958752748E+04  0.12958752749E+04  0.50400001928E-02 0.  1.
        1   -1    0    0  501    0  0.00000000000E+00  0.00000000000E+00 -0.62352561731E+03  0.62352561733E+03  0.50400001928E-02 0. -1.
    10030    2    1    2    0    0  0.00000000000E+00  0.00000000000E+00  0.67234965754E+03  0.19194008922E+04  0.17977891208E+04 0.  0.
        4    1    3    3  502    0  0.18472382252E+03  0.80142613898E+03  0.72348593995E+03  0.10953722039E+04  0.12699999809E+01 0.  1.
       -4    1    3    3    0  502 -0.18472382252E+03 -0.80142613898E+03 -0.51136282414E+02  0.82402868829E+03  0.12699999809E+01 0. -1.
</event>
<event>
 5   0  0.4994123E-06  0.1799622E+04  0.7818609E-02  0.8706501E-01
       -1   -1    0    0    0  501  0.00000000000E+00  0.00000000000E+00  0.11577757623E+04  0.11577757623E+04  0.50400001928E-02 0. -1.
        1   -1    0    0  501    0  0.00000000000E+00  0.00000000000E+00 -0.69932321922E+03  0.69932321923E+03  0.50400001928E-02 0.  1.
    10030    2    1    2    0    0  0.00000000000E+00  0.00000000000E+00  0.45845254304E+03  0.18570989815E+04  0.17996215971E+04 0.  0.
        1    1    3    3  502    0  0.77603515372E+03  0.44829465637E+03  0.31217266159E+03  0.94902604254E+03  0.50400001928E-02 0. -1.
       -1    1    3    3    0  502 -0.77603515372E+03 -0.44829465637E+03  0.14627988145E+03  0.90807293897E+03  0.50400001928E-02 0.  1.
</event>
<event>
 5   0  0.1000316E-05  0.1800018E+04  0.7818609E-02  0.8706290E-01
       -2   -1    0    0    0  501  0.00000000000E+00  0.00000000000E+00  0.60649896952E+03  0.60649896953E+03  0.25500000920E-02 0. -1.
        2   -1    0    0  501    0  0.00000000000E+00  0.00000000000E+00 -0.13355611104E+04  0.13355611104E+04  0.25500000920E-02 0.  1.
    10030    2    1    2    0    0  0.00000000000E+00  0.00000000000E+00 -0.72906214083E+03  0.19420600799E+04  0.18000182634E+04 0.  0.
        5    1    3    3  502    0 -0.15277444102E+03 -0.88119896445E+03 -0.25587284922E+03  0.93023902828E+03  0.46999998093E+01 0.  1.
       -5    1    3    3    0  502  0.15277444102E+03  0.88119896445E+03 -0.47318929161E+03  0.10118210516E+04  0.46999998093E+01 0. -1.
</event>
<event>
 5   0  0.4981384E-06  0.1799673E+04  0.7818609E-02  0.8706473E-01
        1   -1    0    0  501    0  0.00000000000E+00  0.00000000000E+00  0.74452646356E+03  0.74452646358E+03  0.50400001928E-02 0. -1.
       -1   -1    0    0    0  501  0.00000000000E+00  0.00000000000E+00 -0.10875444614E+04  0.10875444614E+04  0.50400001928E-02 0.  1.
    10030    2    1    2    0    0  0.00000000000E+00  0.00000000000E+00 -0.34301799785E+03  0.18320709250E+04  0.17996728946E+04 0.  0.
        5    1    3    3  502    0 -0.65319463034E+03  0.23183449392E+03  0.41264428517E+03  0.80666464764E+03  0.46999998093E+01 0. -1.
       -5    1    3    3    0  502  0.65319463034E+03 -0.23183449392E+03 -0.75566228302E+03  0.10254062774E+04  0.46999998093E+01 0.  1.
</event>
<event>
 5   0  0.9589963E-06  0.1800595E+04  0.7818609E-02  0.8705983E-01
        2   -1    0    0  501    0  0.00000000000E+00  0.00000000000E+00  0.73592346879E+03  0.73592346880E+03  0.25500000920E-02 0. -1.
       -2   -1    0    0    0  501  0.00000000000E+00  0.00000000000E+00 -0.11013857658E+04  0.11013857658E+04  0.25500000920E-02 0.  1.
    10030    2    1    2    0    0  0.00000000000E+00  0.00000000000E+00 -0.36546229701E+03  0.18373092346E+04  0.18005950497E+04 0.  0.
        2    1    3    3  502    0 -0.81302552189E+03  0.62196846706E+02 -0.57216295455E+03  0.99611715855E+03  0.25500000920E-02 0.  1.
       -2    1    3    3    0  502  0.81302552189E+03 -0.62196846706E+02  0.20670065754E+03  0.84119207606E+03  0.25500000920E-02 0. -1.
</event>
<event>
 5   0  0.1036381E-05  0.1787848E+04  0.7818609E-02  0.8712789E-01
        2   -1    0    0  501    0  0.00000000000E+00  0.00000000000E+00  0.89006633549E+03  0.89006633550E+03  0.25500000920E-02 0.  1.
       -2   -1    0    0    0  501  0.00000000000E+00  0.00000000000E+00 -0.89779830671E+03  0.89779830671E+03  0.25500000920E-02 0. -1.
    10030    2    1    2    0    0  0.00000000000E+00  0.00000000000E+00 -0.77319712150E+01  0.17878646422E+04  0.17878479229E+04 0.  0.
        4    1    3    3  502    0  0.34236561294E+03 -0.48036594746E+03  0.66780448215E+03  0.89102755046E+03  0.12699999809E+01 0.  1.
       -4    1    3    3    0  502 -0.34236561294E+03  0.48036594746E+03 -0.67553645337E+03  0.89683709174E+03  0.12699999809E+01 0. -1.
</event>
<event>
 5   0  0.4983159E-06  0.1799950E+04  0.7818609E-02  0.8706326E-01
        1   -1    0    0  501    0  0.00000000000E+00  0.00000000000E+00  0.25756296587E+04  0.25756296587E+04  0.50400001928E-02 0. -1.
       -1   -1    0    0    0  501  0.00000000000E+00  0.00000000000E+00 -0.31446880759E+03  0.31446880763E+03  0.50400001928E-02 0.  1.
    10030    2    1    2    0    0  0.00000000000E+00  0.00000000000E+00  0.22611608511E+04  0.28900984663E+04  0.17999502078E+04 0.  0.
        4    1    3    3  502    0  0.81252042957E+03 -0.23540796719E+03  0.16237731840E+04  0.18309143413E+04  0.12699999809E+01 0. -1.
       -4    1    3    3    0  502 -0.81252042957E+03  0.23540796719E+03  0.63738766712E+03  0.10591841250E+04  0.12699999809E+01 0.  1.
</event>
<event>
 5   0  0.1000316E-05  0.1801328E+04  0.7818609E-02  0.8705593E-01
        2   -1    0    0  501    0  0.00000000000E+00  0.00000000000E+00  0.10707000836E+04  0.10707000836E+04  0.25500000920E-02 0.  1.
       -2   -1    0    0    0  501  0.00000000000E+00  0.00000000000E+00 -0.75763142981E+03  0.75763142982E+03  0.25500000920E-02 0. -1.
    10030    2    1    2    0    0  0.00000000000E+00  0.00000000000E+00  0.31306865377E+03  0.18283315134E+04  0.18013284378E+04 0.  0.
        5    1    3    3  502    0  0.30529448581E+02  0.21654179376E+02  0.10698978939E+04  0.10705627231E+04  0.46999998093E+01 0.  1.
       -5    1    3    3    0  502 -0.30529448581E+02 -0.21654179376E+02 -0.75682924017E+03  0.75776879026E+03  0.46999998093E+01 0. -1.
</event>
<event>
 5   0  0.1035018E-05  0.1799972E+04  0.7818609E-02  0.8706314E-01
        2   -1    0    0  501    0  0.00000000000E+00  0.00000000000E+00  0.16976655816E+04  0.16976655816E+04  0.25500000920E-02 0. -1.
       -2   -1    0    0    0  501  0.00000000000E+00  0.00000000000E+00 -0.47711115792E+03  0.47711115793E+03  0.25500000920E-02 0.  1.
    10030    2    1    2    0    0  0.00000000000E+00  0.00000000000E+00  0.12205544237E+04  0.21747767396E+04  0.17999724347E+04 0.  0.
        3    1    3    3  502    0 -0.81359202701E+03  0.22150287421E+03  0.99039818216E+03  0.13007244440E+04  0.10100000352E+00 0. -1.
       -3    1    3    3    0  502  0.81359202701E+03 -0.22150287421E+03  0.23015624154E+03  0.87405229559E+03  0.10100000352E+00 0.  1.
</event>
<event>
 5   0  0.1036381E-05  0.1800005E+04  0.7818609E-02  0.8706297E-01
       -2   -1    0    0    0  501  0.00000000000E+00  0.00000000000E+00  0.46511407577E+03  0.46511407578E+03  0.25500000920E-02 0. -1.
        2   -1    0    0  501    0  0.00000000000E+00  0.00000000000E+00 -0.17415171001E+04  0.17415171001E+04  0.25500000920E-02 0.  1.
    10030    2    1    2    0    0  0.00000000000E+00  0.00000000000E+00 -0.12764030243E+04  0.22066311758E+04  0.18000045738E+04 0.  0.
        4    1    3    3  502    0 -0.16138382083E+03  0.52683125161E+03  0.23417872576E+03  0.59869624502E+03  0.12699999809E+01 0. -1.
       -4    1    3    3    0  502  0.16138382083E+03 -0.52683125161E+03 -0.15105817500E+04  0.16079349308E+04  0.12699999809E+01 0.  1.
</event>
<event>
 5   0  0.4953155E-06  0.1799448E+04  0.7818609E-02  0.8706593E-01
       -1   -1    0    0    0  501  0.00000000000E+00  0.00000000000E+00  0.11041819570E+04  0.11041819570E+04  0.50400001928E-02 0.  1.
        1   -1    0    0  501    0  0.00000000000E+00  0.00000000000E+00 -0.73312511946E+03  0.73312511948E+03  0.50400001928E-02 0. -1.
    10030    2    1    2    0    0  0.00000000000E+00  0.00000000000E+00  0.37105683754E+03  0.18373070765E+04  0.17994482812E+04 0.  0.
        2    1    3    3  502    0  0.57671923963E+03 -0.41682056813E+03  0.74771135053E+03  0.10321902592E+04  0.25500000920E-02 0.  1.
       -2    1    3    3    0  502 -0.57671923963E+03  0.41682056813E+03 -0.37665451299E+03  0.80511681733E+03  0.25500000920E-02 0. -1.
</event>
<event>
 5   0  0.1000316E-05  0.1800347E+04  0.7818609E-02  0.8706115E-01
       -2   -1    0    0    0  501  0.00000000000E+00  0.00000000000E+00  0.63404456189E+03  0.63404456190E+03  0.25500000920E-02 0. -1.
        2   -1    0    0  501    0  0.00000000000E+00  0.00000000000E+00 -0.12780053730E+04  0.12780053730E+04  0.25500000920E-02 0.  1.
    10030    2    1    2    0    0  0.00000000000E+00  0.00000000000E+00 -0.64396081113E+03  0.19120499349E+04  0.18003470297E+04 0.  0.
        5    1    3    3  502    0  0.27715058779E+03 -0.20143707030E+03  0.56207314799E+03  0.65828387136E+03  0.46999998093E+01 0. -1.
       -5    1    3    3    0  502 -0.27715058779E+03  0.20143707030E+03 -0.12060339591E+04  0.12537660636E+04  0.46999998093E+01 0.  1.
</event>
<event>
 5   0  0.4981384E-06  0.1800664E+04  0.7818609E-02  0.8705946E-01
       -1   -1    0    0    0  501  0.00000000000E+00  0.00000000000E+00  0.62609877219E+03  0.62609877221E+03  0.50400001928E-02 0.  1.
        1   -1    0    0  501    0  0.00000000000E+00  0.00000000000E+00 -0.12946802369E+04  0.12946802370E+04  0.50400001928E-02 0. -1.
    10030    2    1    2    0    0  0.00000000000E+00  0.00000000000E+00 -0.66858146475E+03  0.19207790092E+04  0.18006639961E+04 0.  0.
        5    1    3    3  502    0 -0.25224728534E+03 -0.36919411878E+03  0.49927197892E+03  0.67024442499E+03  0.46999998093E+01 0.  1.
       -5    1    3    3    0  502  0.25224728534E+03  0.36919411878E+03 -0.11678534437E+04  0.12505345842E+04  0.46999998093E+01 0. -1.
</event>
<event>
 5   0  0.1036381E-05  0.1800341E+04  0.7818609E-02  0.8706118E-01
       -2   -1    0    0    0  501  0.00000000000E+00  0.00000000000E+00  0.38220442896E+03  0.38220442897E+03  0.25500000920E-02 0. -1.
        2   -1    0    0  501    0  0.00000000000E+00  0.00000000000E+00 -0.21200881781E+04  0.21200881781E+04  0.25500000920E-02 0.  1.
    10030    2    1    2    0    0  0.00000000000E+00  0.00000000000E+00 -0.17378837492E+04  0.25022926071E+04  0.18003411804E+04 0.  0.
        4    1    3    3  502    0 -0.21716054932E+03 -0.47832194451E+03  0.14706856896E+03  0.54551018657E+03  0.12699999809E+01 0.  1.
       -4    1    3    3    0  502  0.21716054932E+03  0.47832194451E+03 -0.18849523181E+04  0.19567824205E+04  0.12699999809E+01 0. -1.
</event>
<event>
 5   0  0.4994123E-06  0.1796841E+04  0.7818609E-02  0.8707981E-01
        1   -1    0    0  501    0  0.00000000000E+00  0.00000000000E+00  0.18131360790E+04  0.18131360790E+04  0.50400001928E-02 0.  1.
       -1   -1    0    0    0  501  0.00000000000E+00  0.00000000000E+00 -0.44517316409E+03  0.44517316412E+03  0.50400001928E-02 0. -1.
    10030    2    1    2    0    0  0.00000000000E+00  0.00000000000E+00  0.13679629149E+04  0.22583092431E+04  0.17968411452E+04 0.  0.
        1    1    3    3  502    0  0.50896256878E+03  0.36056367774E+03  0.14966608479E+04  0.16214323161E+04  0.50400001928E-02 0.  1.
       -1    1    3    3    0  502 -0.50896256878E+03 -0.36056367774E+03 -0.12869793302E+03  0.63687692697E+03  0.50400001928E-02 0. -1.
</event>
<event>
 5   0  0.1000316E-05  0.1800124E+04  0.7818609E-02  0.8706234E-01
        2   -1    0    0  501    0  0.00000000000E+00  0.00000000000E+00  0.14155824555E+04  0.14155824555E+04  0.25500000920E-02 0. -1.
       -2   -1    0    0    0  501  0.00000000000E+00  0.00000000000E+00 -0.57228132792E+03  0.57228132793E+03  0.25500000920E-02 0.  1.
    10030    2    1    2    0    0  0.00000000000E+00  0.00000000000E+00  0.84330112756E+03  0.19878637834E+04  0.18001237818E+04 0.  0.
        5    1    3    3  502    0 -0.15328112307E+03  0.86933783720E+03  0.61559764736E+03  0.10762090556E+04  0.46999998093E+01 0. -1.
       -5    1    3    3    0  502  0.15328112307E+03 -0.86933783720E+03  0.22770348019E+03  0.91165472783E+03  0.46999998093E+01 0.  1.
</event>
<event>
 5   0  0.4981384E-06  0.1798939E+04  0.7818609E-02  0.8706864E-01
        1   -1    0    0  501    0  0.00000000000E+00  0.00000000000E+00  0.47876462274E+03  0.47876462276E+03  0.50400001928E-02 0. -1.
       -1   -1    0    0    0  501  0.00000000000E+00  0.00000000000E+00 -0.16898608300E+04  0.16898608300E+04  0.50400001928E-02 0.  1.
    10030    2    1    2    0    0  0.00000000000E+00  0.00000000000E+00 -0.12110962073E+04  0.21686254528E+04  0.17989392239E+04 0.  0.
        5    1    3    3  502    0  0.63920839007E+03 -0.47158535660E+03 -0.96884138172E+02  0.80024292606E+03  0.46999998093E+01 0. -1.
       -5    1    3    3    0  502 -0.63920839007E+03  0.47158535660E+03 -0.11142120691E+04  0.13683825267E+04  0.46999998093E+01 0.  1.
</event>
<event>
 5   0  0.4981384E-06  0.1800162E+04  0.7818609E-02  0.8706213E-01
        1   -1    0    0  501    0  0.00000000000E+00  0.00000000000E+00  0.20333433274E+04  0.20333433274E+04  0.50400001928E-02 0.  1.
       -1   -1    0    0    0  501  0.00000000000E+00  0.00000000000E+00 -0.39843055709E+03  0.39843055713E+03  0.50400001928E-02 0. -1.
    10030    2    1    2    0    0  0.00000000000E+00  0.00000000000E+00  0.16349127703E+04  0.24317738845E+04  0.18001623424E+04 0.  0.
        5    1    3    3  502    0  0.75204340351E+03 -0.51320511410E+02  0.14818848908E+04  0.16625907480E+04  0.46999998093E+01 0.  1.
       -5    1    3    3    0  502 -0.75204340351E+03  0.51320511410E+02  0.15302787950E+03  0.76918313656E+03  0.46999998093E+01 0. -1.
</event>
<event>
 5   0  0.1000316E-05  0.1800145E+04  0.7818609E-02  0.8706222E-01
       -2   -1    0    0    0  501  0.00000000000E+00  0.00000000000E+00  0.95026687338E+03  0.95026687338E+03  0.25500000920E-02 0.  1.
        2   -1    0    0  501    0  0.00000000000E+00  0.00000000000E+00 -0.85252935777E+03  0.85252935777E+03  0.25500000920E-02 0. -1.
    10030    2    1    2    0    0  0.00000000000E+00  0.00000000000E+00  0.97737515611E+02  0.18027962312E+04  0.18001448911E+04 0.  0.
        5    1    3    3  502    0 -0.88955941257E+03 -0.11725039624E+03  0.11999951417E+03  0.90525442684E+03  0.46999998093E+01 0. -1.
       -5    1    3    3    0  502  0.88955941257E+03  0.11725039624E+03 -0.22261998557E+02  0.89754180431E+03  0.46999998093E+01 0.  1.
</event>
<event>
 5   0  0.4983159E-06  0.1798906E+04  0.7818609E-02  0.8706882E-01
        1   -1    0    0  501    0  0.00000000000E+00  0.00000000000E+00  0.19877907108E+04  0.19877907108E+04  0.50400001928E-02 0. -1.
       -1   -1    0    0    0  501  0.00000000000E+00  0.00000000000E+00 -0.40699219848E+03  0.40699219851E+03  0.50400001928E-02 0.  1.
    10030    2    1    2    0    0  0.00000000000E+00  0.00000000000E+00  0.15807985124E+04  0.23947829093E+04  0.17989055690E+04 0.  0.
        4    1    3    3  502    0 -0.49992501708E+03 -0.48233943664E+03  0.15510016738E+04  0.16994658455E+04  0.12699999809E+01 0. -1.
       -4    1    3    3    0  502  0.49992501708E+03  0.48233943664E+03  0.29796838547E+02  0.69531706388E+03  0.12699999809E+01 0.  1.
</event>
<event>
 5   0  0.4983159E-06  0.1799905E+04  0.7818609E-02  0.8706350E-01
        1   -1    0    0  501    0  0.00000000000E+00  0.00000000000E+00  0.62158553096E+03  0.62158553098E+03  0.50400001928E-02 0.  1.
       -1   -1    0    0    0  501  0.00000000000E+00  0.00000000000E+00 -0.13029817850E+04  0.13029817850E+04  0.50400001928E-02 0. -1.
    10030    2    1    2    0    0  0.00000000000E+00  0.00000000000E+00 -0.68139625400E+03  0.19245673160E+04  0.17999051360E+04 0.  0.
        4    1    3    3  502    0  0.68585325711E+03  0.50969638688E+03 -0.38780344954E+02  0.85538916590E+03  0.12699999809E+01 0.  1.
       -4    1    3    3    0  502 -0.68585325711E+03 -0.50969638688E+03 -0.64261590905E+03  0.10691781501E+04  0.12699999809E+01 0. -1.
</event>
<event>
 5   0  0.4981384E-06  0.1800481E+04  0.7818609E-02  0.8706044E-01
        1   -1    0    0  501    0  0.00000000000E+00  0.00000000000E+00  0.12819572626E+04  0.12819572626E+04  0.50400001928E-02 0.  1.
       -1   -1    0    0    0  501  0.00000000000E+00  0.00000000000E+00 -0.63218404913E+03  0.63218404915E+03  0.50400001928E-02 0. -1.
    10030    2    1    2    0    0  0.00000000000E+00  0.00000000000E+00  0.64977321349E+03  0.19141413118E+04  0.18004809725E+04 0.  0.
        5    1    3    3  502    0 -0.66930497921E+03  0.49625597997E+03 -0.37469524767E+02  0.83406546994E+03  0.46999998093E+01 0. -1.
       -5    1    3    3    0  502  0.66930497921E+03 -0.49625597997E+03  0.68724273826E+03  0.10800758418E+04  0.46999998093E+01 0.  1.
</event>
<event>
 5   0  0.4983159E-06  0.1800475E+04  0.7818609E-02  0.8706047E-01
        1   -1    0    0  501    0  0.00000000000E+00  0.00000000000E+00  0.11235512061E+04  0.11235512062E+04  0.50400001928E-02 0. -1.
       -1   -1    0    0    0  501  0.00000000000E+00  0.00000000000E+00 -0.72130893524E+03  0.72130893526E+03  0.50400001928E-02 0.  1.
    10030    2    1    2    0    0  0.00000000000E+00  0.00000000000E+00  0.40224227090E+03  0.18448601414E+04  0.18004749642E+04 0.  0.
        4    1    3    3  502    0  0.39471596714E+03  0.79618832087E+03  0.34857625314E+03  0.95458030262E+03  0.12699999809E+01 0. -1.
       -4    1    3    3    0  502 -0.39471596714E+03 -0.79618832087E+03  0.53666017754E+02  0.89027983879E+03  0.12699999809E+01 0.  1.
</event>
<event>
 5   0  0.4983159E-06  0.1808270E+04  0.7818609E-02  0.8701914E-01
        1   -1    0    0  501    0  0.00000000000E+00  0.00000000000E+00  0.23255023341E+04  0.23255023341E+04  0.50400001928E-02 0.  1.
       -1   -1    0    0    0  501  0.00000000000E+00  0.00000000000E+00 -0.35151988528E+03  0.35151988531E+03  0.50400001928E-02 0. -1.
    10030    2    1    2    0    0  0.00000000000E+00  0.00000000000E+00  0.19739824488E+04  0.26770222194E+04  0.18082702384E+04 0.  0.
        4    1    3    3  502    0  0.16230714573E+03  0.71724946969E+03  0.20829452491E+03  0.76431579425E+03  0.12699999809E+01 0. -1.
       -4    1    3    3    0  502 -0.16230714573E+03 -0.71724946969E+03  0.17656879239E+04  0.19127064251E+04  0.12699999809E+01 0.  1.
</event>
<event>
 5   0  0.4983159E-06  0.1799739E+04  0.7818609E-02  0.8706438E-01
       -1   -1    0    0    0  501  0.00000000000E+00  0.00000000000E+00  0.81482558588E+03  0.81482558590E+03  0.50400001928E-02 0.  1.
        1   -1    0    0  501    0  0.00000000000E+00  0.00000000000E+00 -0.99378985768E+03  0.99378985769E+03  0.50400001928E-02 0. -1.
    10030    2    1    2    0    0  0.00000000000E+00  0.00000000000E+00 -0.17896427180E+03  0.18086154436E+04  0.17997393178E+04 0.  0.
        4    1    3    3  502    0  0.63008867219E+01 -0.16143299015E+03  0.80013150637E+03  0.81627957948E+03  0.12699999809E+01 0.  1.
       -4    1    3    3    0  502 -0.63008867219E+01  0.16143299015E+03 -0.97909577817E+03  0.99233586411E+03  0.12699999809E+01 0. -1.
</event>
<event>
 5   0  0.4994123E-06  0.1800273E+04  0.7818609E-02  0.8706154E-01
       -1   -1    0    0    0  501  0.00000000000E+00  0.00000000000E+00  0.11974802477E+04  0.11974802477E+04  0.50400001928E-02 0. -1.
        1   -1    0    0  501    0  0.00000000000E+00  0.00000000000E+00 -0.67662541649E+03  0.67662541650E+03  0.50400001928E-02 0.  1.
    10030    2    1    2    0    0  0.00000000000E+00  0.00000000000E+00  0.52085483119E+03  0.18741056642E+04  0.18002728364E+04 0.  0.
        1    1    3    3  502    0 -0.61246054126E+03  0.64080301567E+03  0.42340200130E+03  0.98234702332E+03  0.50400001928E-02 0. -1.
       -1    1    3    3    0  502  0.61246054126E+03 -0.64080301567E+03  0.97452829886E+02  0.89175864087E+03  0.50400001928E-02 0.  1.
</event>
<event>
 5   0  0.9589963E-06  0.1799573E+04  0.7818609E-02  0.8706527E-01
       -2   -1    0    0    0  501  0.00000000000E+00  0.00000000000E+00  0.54739966951E+03  0.54739966951E+03  0.25500000920E-02 0.  1.
        2   -1    0    0  501    0  0.00000000000E+00  0.00000000000E+00 -0.14790213477E+04  0.14790213477E+04  0.25500000920E-02 0. -1.
    10030    2    1    2    0    0  0.00000000000E+00  0.00000000000E+00 -0.93162167818E+03  0.20264210172E+04  0.17995730571E+04 0.  0.
        2    1    3    3  502    0 -0.98194353179E+02 -0.57449963127E+03  0.30611208337E+03  0.65832861469E+03  0.25500000920E-02 0.  1.
       -2    1    3    3    0  502  0.98194353179E+02  0.57449963127E+03 -0.12377337616E+04  0.13680924025E+04  0.25500000920E-02 0. -1.
</event>
<event>
 5   0  0.4994123E-06  0.1799351E+04  0.7818609E-02  0.8706645E-01
       -1   -1    0    0    0  501  0.00000000000E+00  0.00000000000E+00  0.87094605758E+03  0.87094605759E+03  0.50400001928E-02 0. -1.
        1   -1    0    0  501    0  0.00000000000E+00  0.00000000000E+00 -0.92935265227E+03  0.92935265229E+03  0.50400001928E-02 0.  1.
    10030    2    1    2    0    0  0.00000000000E+00  0.00000000000E+00 -0.58406594696E+02  0.18002987099E+04  0.17993510259E+04 0.  0.
        1    1    3    3  502    0 -0.25933896350E+03  0.34932250296E+03 -0.81710336474E+03  0.92571097960E+03  0.50400001928E-02 0.  1.
       -1    1    3    3    0  502  0.25933896350E+03 -0.34932250296E+03  0.75869677004E+03  0.87458773028E+03  0.50400001928E-02 0. -1.
</event>
<event>
 5   0  0.4994123E-06  0.1800816E+04  0.7818609E-02  0.8705866E-01
        1   -1    0    0  501    0  0.00000000000E+00  0.00000000000E+00  0.15726859320E+04  0.15726859320E+04  0.50400001928E-02 0. -1.
       -1   -1    0    0    0  501  0.00000000000E+00  0.00000000000E+00 -0.51550931064E+03  0.51550931066E+03  0.50400001928E-02 0.  1.
    10030    2    1    2    0    0  0.00000000000E+00  0.00000000000E+00  0.10571766213E+04  0.20881952426E+04  0.18008156382E+04 0.  0.
        1    1    3    3  502    0 -0.77225917978E+03  0.31483737577E+03  0.92221068820E+03  0.12433741864E+04  0.50400001928E-02 0. -1.
       -1    1    3    3    0  502  0.77225917978E+03 -0.31483737577E+03  0.13496593312E+03  0.84482105623E+03  0.50400001928E-02 0.  1.
</event>
<event>
 5   0  0.1000316E-05  0.1799418E+04  0.7818609E-02  0.8706609E-01
        2   -1    0    0  501    0  0.00000000000E+00  0.00000000000E+00  0.16918889135E+04  0.16918889135E+04  0.25500000920E-02 0. -1.
       -2   -1    0    0    0  501  0.00000000000E+00  0.00000000000E+00 -0.47844503425E+03  0.47844503426E+03  0.25500000920E-02 0.  1.
    10030    2    1    2    0    0  0.00000000000E+00  0.00000000000E+00  0.12134438792E+04  0.21703339477E+04  0.17994175159E+04 0.  0.
        5    1    3    3  502    0 -0.32831091449E+03 -0.54716864057E+03  0.13717099352E+04  0.15128753466E+04  0.46999998093E+01 0. -1.
       -5    1    3    3    0  502  0.32831091449E+03  0.54716864057E+03 -0.15826605600E+03  0.65745860119E+03  0.46999998093E+01 0.  1.
</event>
<event>
 5   0  0.3626125E-06  0.1799836E+04  0.7818609E-02  0.8706387E-01
       -4   -1    0    0    0  501  0.00000000000E+00  0.00000000000E+00  0.10852176136E+04  0.10852183567E+04  0.12699999809E+01 0.  1.
        4   -1    0    0  501    0  0.00000000000E+00  0.00000000000E+00 -0.74625631949E+03  0.74625740015E+03  0.12699999809E+01 0. -1.
    10030    2    1    2    0    0  0.00000000000E+00  0.00000000000E+00  0.33896129411E+03  0.18314757569E+04  0.17998357395E+04 0.  0.
        1    1    3    3  502    0 -0.54553254332E+03 -0.14832939499E+03 -0.54300284101E+03  0.78387463961E+03  0.50400001928E-02 0. -1.
       -1    1    3    3    0  502  0.54553254332E+03  0.14832939499E+03  0.88196413512E+03  0.10476011173E+04  0.50400001928E-02 0.  1.
</event>
<event>
 5   0  0.4987456E-06  0.1800759E+04  0.7818609E-02  0.8705896E-01
        1   -1    0    0  501    0  0.00000000000E+00  0.00000000000E+00  0.52112338733E+03  0.52112338735E+03  0.50400001928E-02 0. -1.
       -1   -1    0    0    0  501  0.00000000000E+00  0.00000000000E+00 -0.15556449238E+04  0.15556449239E+04  0.50400001928E-02 0.  1.
    10030    2    1    2    0    0  0.00000000000E+00  0.00000000000E+00 -0.10345215365E+04  0.20767683112E+04  0.18007586759E+04 0.  0.
        3    1    3    3  502    0 -0.82065728885E+03 -0.26368307445E+03 -0.81728007816E+03  0.11878357992E+04  0.10100000352E+00 0.  1.
       -3    1    3    3    0  502  0.82065728885E+03  0.26368307445E+03 -0.21724145836E+03  0.88893251202E+03  0.10100000352E+00 0. -1.
</event>
<event>
 5   0  0.4983159E-06  0.1800672E+04  0.7818609E-02  0.8705942E-01
       -1   -1    0    0    0  501  0.00000000000E+00  0.00000000000E+00  0.80321973589E+03  0.80321973591E+03  0.50400001928E-02 0.  1.
        1   -1    0    0  501    0  0.00000000000E+00  0.00000000000E+00 -0.10091943930E+04  0.10091943930E+04  0.50400001928E-02 0. -1.
    10030    2    1    2    0    0  0.00000000000E+00  0.00000000000E+00 -0.20597465714E+03  0.18124141289E+04  0.18006719344E+04 0.  0.
        4    1    3    3  502    0 -0.30122311714E+03 -0.53407589588E+02 -0.95527678673E+03  0.10030668418E+04  0.12699999809E+01 0. -1.
       -4    1    3    3    0  502  0.30122311714E+03  0.53407589588E+02  0.74930212959E+03  0.80934728716E+03  0.12699999809E+01 0.  1.
</event>
<event>
 5   0  0.4983159E-06  0.1801217E+04  0.7818609E-02  0.8705653E-01
        1   -1    0    0  501    0  0.00000000000E+00  0.00000000000E+00  0.11844409943E+04  0.11844409943E+04  0.50400001928E-02 0.  1.
       -1   -1    0    0    0  501  0.00000000000E+00  0.00000000000E+00 -0.68479170340E+03  0.68479170342E+03  0.50400001928E-02 0. -1.
    10030    2    1    2    0    0  0.00000000000E+00  0.00000000000E+00  0.49964929089E+03  0.18692326977E+04  0.18012166622E+04 0.  0.
        4    1    3    3  502    0 -0.57145259599E+03 -0.55111394563E+03 -0.19144856156E+03  0.81666322016E+03  0.12699999809E+01 0. -1.
       -4    1    3    3    0  502  0.57145259599E+03  0.55111394563E+03  0.69109785245E+03  0.10525694776E+04  0.12699999809E+01 0.  1.
</event>
<event>
 5   0  0.1036381E-05  0.1798307E+04  0.7818609E-02  0.8707200E-01
       -2   -1    0    0    0  501  0.00000000000E+00  0.00000000000E+00  0.55135490437E+03  0.55135490438E+03  0.25500000920E-02 0. -1.
        2   -1    0    0  501    0  0.00000000000E+00  0.00000000000E+00 -0.14663453629E+04  0.14663453629E+04  0.25500000920E-02 0.  1.
    10030    2    1    2    0    0  0.00000000000E+00  0.00000000000E+00 -0.91499045855E+03  0.20177002673E+04  0.17983066561E+04 0.  0.
        4    1    3    3  502    0 -0.49851667414E+02  0.78255639434E+03 -0.95116940709E+03  0.12327224152E+04  0.12699999809E+01 0.  1.
       -4    1    3    3    0  502  0.49851667414E+02 -0.78255639434E+03  0.36178948548E+02  0.78497785209E+03  0.12699999809E+01 0. -1.
</event>
<event>
 5   0  0.3626125E-06  0.1798597E+04  0.7818609E-02  0.8707046E-01
       -3   -1    0    0    0  501  0.00000000000E+00  0.00000000000E+00  0.11108611471E+04  0.11108611517E+04  0.10100000352E+00 0. -1.
        3   -1    0    0  501    0  0.00000000000E+00  0.00000000000E+00 -0.72802739243E+03  0.72802739944E+03  0.10100000352E+00 0.  1.
    10030    2    1    2    0    0  0.00000000000E+00  0.00000000000E+00  0.38283375471E+03  0.18388885512E+04  0.17985965139E+04 0.  0.
        1    1    3    3  502    0  0.15815839295E+03  0.25402260729E+03 -0.67563529493E+03  0.73893478336E+03  0.50400001928E-02 0.  1.
       -1    1    3    3    0  502 -0.15815839295E+03 -0.25402260729E+03  0.10584690496E+04  0.10999537678E+04  0.50400001928E-02 0. -1.
</event>
<event>
 5   0  0.4987456E-06  0.1799682E+04  0.7818609E-02  0.8706469E-01
        1   -1    0    0  501    0  0.00000000000E+00  0.00000000000E+00  0.75431925214E+03  0.75431925216E+03  0.50400001928E-02 0. -1.
       -1   -1    0    0    0  501  0.00000000000E+00  0.00000000000E+00 -0.10734361144E+04  0.10734361144E+04  0.50400001928E-02 0.  1.
    10030    2    1    2    0    0  0.00000000000E+00  0.00000000000E+00 -0.31911686227E+03  0.18277553666E+04  0.17996816686E+04 0.  0.
        3    1    3    3  502    0 -0.87110897686E+03  0.60010651305E+02 -0.38039321888E+03  0.95243432267E+03  0.10100000352E+00 0. -1.
       -3    1    3    3    0  502  0.87110897686E+03 -0.60010651305E+02  0.61276356610E+02  0.87532104391E+03  0.10100000352E+00 0.  1.
</event>
<event>
 5   0  0.9589963E-06  0.1800819E+04  0.7818609E-02  0.8705864E-01
        2   -1    0    0  501    0  0.00000000000E+00  0.00000000000E+00  0.10037718567E+04  0.10037718567E+04  0.25500000920E-02 0. -1.
       -2   -1    0    0    0  501  0.00000000000E+00  0.00000000000E+00 -0.80769059264E+03  0.80769059264E+03  0.25500000920E-02 0.  1.
    10030    2    1    2    0    0  0.00000000000E+00  0.00000000000E+00  0.19608126402E+03  0.18114624493E+04  0.18008187980E+04 0.  0.
        2    1    3    3  502    0 -0.16229866735E+02  0.59204364168E+03 -0.58416988534E+03  0.83188553129E+03  0.25500000920E-02 0.  1.
       -2    1    3    3    0  502  0.16229866735E+02 -0.59204364168E+03  0.78025114935E+03  0.97957691801E+03  0.25500000920E-02 0. -1.
</event>
<event>
 5   0  0.1000316E-05  0.1797908E+04  0.7818609E-02  0.8707413E-01
       -2   -1    0    0    0  501  0.00000000000E+00  0.00000000000E+00  0.57453359944E+03  0.57453359944E+03  0.25500000920E-02 0. -1.
        2   -1    0    0  501    0  0.00000000000E+00  0.00000000000E+00 -0.14065637505E+04  0.14065637505E+04  0.25500000920E-02 0.  1.
    10030    2    1    2    0    0  0.00000000000E+00  0.00000000000E+00 -0.83203015111E+03  0.19810973500E+04  0.17979078224E+04 0.  0.
        5    1    3    3  502    0  0.40832467480E+03 -0.20295824411E+03 -0.12696601319E+04  0.13490663547E+04  0.46999998093E+01 0.  1.
       -5    1    3    3    0  502 -0.40832467480E+03  0.20295824411E+03  0.43762998079E+03  0.63203099527E+03  0.46999998093E+01 0. -1.
</event>
<event>
 5   0  0.1035018E-05  0.1801582E+04  0.7818609E-02  0.8705459E-01
       -2   -1    0    0    0  501  0.00000000000E+00  0.00000000000E+00  0.57348278699E+03  0.57348278699E+03  0.25500000920E-02 0. -1.
        2   -1    0    0  501    0  0.00000000000E+00  0.00000000000E+00 -0.14149061910E+04  0.14149061910E+04  0.25500000920E-02 0.  1.
    10030    2    1    2    0    0  0.00000000000E+00  0.00000000000E+00 -0.84142340400E+03  0.19883889780E+04  0.18015819113E+04 0.  0.
        3    1    3    3  502    0 -0.62146702970E+03 -0.54584590474E+03 -0.26993675745E+02  0.82758545749E+03  0.10100000352E+00 0. -1.
       -3    1    3    3    0  502  0.62146702970E+03  0.54584590474E+03 -0.81442972826E+03  0.11608035205E+04  0.10100000352E+00 0.  1.
</event>
<event>
 5   0  0.4953155E-06  0.1799547E+04  0.7818609E-02  0.8706540E-01
       -1   -1    0    0    0  501  0.00000000000E+00  0.00000000000E+00  0.12090501617E+04  0.12090501617E+04  0.50400001928E-02 0.  1.
        1   -1    0    0  501    0  0.00000000000E+00  0.00000000000E+00 -0.66961055397E+03  0.66961055399E+03  0.50400001928E-02 0. -1.
    10030    2    1    2    0    0  0.00000000000E+00  0.00000000000E+00  0.53943960773E+03  0.18786607157E+04  0.17995474415E+04 0.  0.
        2    1    3    3  502    0 -0.33479791784E+03 -0.54589498684E+03 -0.39012895683E+03  0.74986104407E+03  0.25500000920E-02 0. -1.
       -2    1    3    3    0  502  0.33479791784E+03  0.54589498684E+03  0.92956856456E+03  0.11287996716E+04  0.25500000920E-02 0.  1.
</event>
<event>
 5   0  0.1035018E-05  0.1799133E+04  0.7818609E-02  0.8706760E-01
       -2   -1    0    0    0  501  0.00000000000E+00  0.00000000000E+00  0.94031375546E+03  0.94031375546E+03  0.25500000920E-02 0.  1.
        2   -1    0    0  501    0  0.00000000000E+00  0.00000000000E+00 -0.86058543128E+03  0.86058543128E+03  0.25500000920E-02 0. -1.
    10030    2    1    2    0    0  0.00000000000E+00  0.00000000000E+00  0.79728324182E+02  0.18008991867E+04  0.17991334790E+04 0.  0.
        3    1    3    3  502    0 -0.24588918431E+03 -0.71967508801E+03  0.52077983440E+03  0.92174040238E+03  0.10100000352E+00 0.  1.
       -3    1    3    3    0  502  0.24588918431E+03  0.71967508801E+03 -0.44105151022E+03  0.87915878436E+03  0.10100000352E+00 0. -1.
</event>
<event>
 5   0  0.4981384E-06  0.1800008E+04  0.7818609E-02  0.8706295E-01
        1   -1    0    0  501    0  0.00000000000E+00  0.00000000000E+00  0.12838143050E+04  0.12838143050E+04  0.50400001928E-02 0.  1.
       -1   -1    0    0    0  501  0.00000000000E+00  0.00000000000E+00 -0.63093802954E+03  0.63093802956E+03  0.50400001928E-02 0. -1.
    10030    2    1    2    0    0  0.00000000000E+00  0.00000000000E+00  0.65287627542E+03  0.19147523345E+04  0.18000080754E+04 0.  0.
        5    1    3    3  502    0 -0.29309249749E+03 -0.66546857007E+03  0.89055842341E+03  0.11497251956E+04  0.46999998093E+01 0.  1.
       -5    1    3    3    0  502  0.29309249749E+03  0.66546857007E+03 -0.23768214799E+03  0.76502713894E+03  0.46999998093E+01 0. -1.
</event>
<event>
 5   0  0.4987456E-06  0.1804535E+04  0.7818609E-02  0.8703892E-01
       -1   -1    0    0    0  501  0.00000000000E+00  0.00000000000E+00  0.55213006194E+03  0.55213006197E+03  0.50400001928E-02 0. -1.
        1   -1    0    0  501    0  0.00000000000E+00  0.00000000000E+00 -0.14744468359E+04  0.14744468359E+04  0.50400001928E-02 0.  1.
    10030    2    1    2    0    0  0.00000000000E+00  0.00000000000E+00 -0.92231677394E+03  0.20265768979E+04  0.18045347576E+04 0.  0.
        3    1    3    3  502    0 -0.77648936482E+03  0.10282144680E+03  0.41809142506E+02  0.78438255857E+03  0.10100000352E+00 0. -1.
       -3    1    3    3    0  502  0.77648936482E+03 -0.10282144680E+03 -0.96412591645E+03  0.12421943393E+04  0.10100000352E+00 0.  1.
</event>
<event>
 5   0  0.4983159E-06  0.1799274E+04  0.7818609E-02  0.8706686E-01
       -1   -1    0    0    0  501  0.00000000000E+00  0.00000000000E+00  0.68375020226E+03  0.68375020227E+03  0.50400001928E-02 0.  1.
        1   -1    0    0  501    0  0.00000000000E+00  0.00000000000E+00 -0.11836870852E+04  0.11836870852E+04  0.50400001928E-02 0. -1.
    10030    2    1    2    0    0  0.00000000000E+00  0.00000000000E+00 -0.49993688292E+03  0.18674372875E+04  0.17992735022E+04 0.  0.
        4    1    3    3  502    0  0.16833141938E+03 -0.77022710398E+03  0.19975932392E+03  0.81332076012E+03  0.12699999809E+01 0.  1.
       -4    1    3    3    0  502 -0.16833141938E+03  0.77022710398E+03 -0.69969620684E+03  0.10541165273E+04  0.12699999809E+01 0. -1.
</event>
<event>
 5   0  0.1036381E-05  0.1799092E+04  0.7818609E-02  0.8706783E-01
       -2   -1    0    0    0  501  0.00000000000E+00  0.00000000000E+00  0.45912056786E+03  0.45912056786E+03  0.25500000920E-02 0.  1.
        2   -1    0    0  501    0  0.00000000000E+00  0.00000000000E+00 -0.17624626768E+04  0.17624626768E+04  0.25500000920E-02 0. -1.
    10030    2    1    2    0    0  0.00000000000E+00  0.00000000000E+00 -0.13033421090E+04  0.22215832447E+04  0.17990918431E+04 0.  0.
        4    1    3    3  502    0  0.64377629702E+02  0.57498493033E+03 -0.15022113971E+04  0.16097803712E+04  0.12699999809E+01 0. -1.
       -4    1    3    3    0  502 -0.64377629702E+02 -0.57498493033E+03  0.19886928809E+03  0.61180287344E+03  0.12699999809E+01 0.  1.
</event>
<event>
 5   0  0.4983159E-06  0.1800185E+04  0.7818609E-02  0.8706201E-01
       -1   -1    0    0    0  501  0.00000000000E+00  0.00000000000E+00  0.58327198666E+03  0.58327198668E+03  0.50400001928E-02 0. -1.
        1   -1    0    0  501    0  0.00000000000E+00  0.00000000000E+00 -0.13890035725E+04  0.13890035726E+04  0.50400001928E-02 0.  1.
    10030    2    1    2    0    0  0.00000000000E+00  0.00000000000E+00 -0.80573158589E+03  0.19722755592E+04  0.18001854052E+04 0.  0.
        4    1    3    3  502    0  0.44543885179E+03  0.57759230511E+03  0.17493674071E+03  0.75008873992E+03  0.12699999809E+01 0.  1.
       -4    1    3    3    0  502 -0.44543885179E+03 -0.57759230511E+03 -0.98066832661E+03  0.12221868193E+04  0.12699999809E+01 0. -1.
</event>
<event>
 5   0  0.3626125E-06  0.1799408E+04  0.7818609E-02  0.8706614E-01
        4   -1    0    0  501    0  0.00000000000E+00  0.00000000000E+00  0.11660542896E+04  0.11660549812E+04  0.12699999809E+01 0. -1.
       -4   -1    0    0    0  501  0.00000000000E+00  0.00000000000E+00 -0.69419229417E+03  0.69419345587E+03  0.12699999809E+01 0.  1.
    10030    2    1    2    0    0  0.00000000000E+00  0.00000000000E+00  0.47186199543E+03  0.18602484371E+04  0.17994083764E+04 0.  0.
        2    1    3    3  502    0 -0.37317016444E+03  0.55653955724E+03 -0.38476509592E+03  0.77268132464E+03  0.25500000920E-02 0.  1.
       -2    1    3    3    0  502  0.37317016444E+03 -0.55653955724E+03  0.85662709134E+03  0.10875671124E+04  0.25500000920E-02 0. -1.
</event>
<event>
 5   0  0.4987456E-06  0.1799588E+04  0.7818609E-02  0.8706519E-01
        1   -1    0    0  501    0  0.00000000000E+00  0.00000000000E+00  0.14174663151E+04  0.14174663151E+04  0.50400001928E-02 0.  1.
       -1   -1    0    0    0  501  0.00000000000E+00  0.00000000000E+00 -0.57118055779E+03  0.57118055781E+03  0.50400001928E-02 0. -1.
    10030    2    1    2    0    0  0.00000000000E+00  0.00000000000E+00  0.84628575732E+03  0.19886468729E+04  0.17995879534E+04 0.  0.
        3    1    3    3  502    0 -0.20145485480E+03  0.87383254717E+03  0.50481107071E+03  0.10290780370E+04  0.10100000352E+00 0.  1.
       -3    1    3    3    0  502  0.20145485480E+03 -0.87383254717E+03  0.34147468661E+03  0.95956883589E+03  0.10100000352E+00 0. -1.
</event>
<event>
 5   0  0.9589963E-06  0.1799789E+04  0.7818609E-02  0.8706412E-01
        2   -1    0    0  501    0  0.00000000000E+00  0.00000000000E+00  0.14601085164E+04  0.14601085164E+04  0.25500000920E-02 0.  1.
       -2   -1    0    0    0  501  0.00000000000E+00  0.00000000000E+00 -0.55462341604E+03  0.55462341605E+03  0.25500000920E-02 0. -1.
    10030    2    1    2    0    0  0.00000000000E+00  0.00000000000E+00  0.90548510040E+03  0.20147319325E+04  0.17997892912E+04 0.  0.
        2    1    3    3  502    0  0.52475492197E+03  0.11547921138E+03  0.12608314514E+04  0.13705470168E+04  0.25500000920E-02 0.  1.
       -2    1    3    3    0  502 -0.52475492197E+03 -0.11547921138E+03 -0.35534635103E+03  0.64418491567E+03  0.25500000920E-02 0. -1.
</event>
<event>
 5   0  0.1036381E-05  0.1799606E+04  0.7818609E-02  0.8706509E-01
        2   -1    0    0  501    0  0.00000000000E+00  0.00000000000E+00  0.25603591386E+04  0.25603591386E+04  0.25500000920E-02 0.  1.
       -2   -1    0    0    0  501  0.00000000000E+00  0.00000000000E+00 -0.31622350359E+03  0.31622350360E+03  0.25500000920E-02 0. -1.
    10030    2    1    2    0    0  0.00000000000E+00  0.00000000000E+00  0.22441356350E+04  0.28765826422E+04  0.17996063317E+04 0.  0.
        4    1    3    3  502    0 -0.71260224796E+03 -0.49813582932E+03  0.14924908943E+04  0.17272729810E+04  0.12699999809E+01 0. -1.
       -4    1    3    3    0  502  0.71260224796E+03  0.49813582932E+03  0.75164474064E+03  0.11493096612E+04  0.12699999809E+01 0.  1.
</event>
<event>
 5   0  0.9589963E-06  0.1800581E+04  0.7818609E-02  0.8705990E-01
        2   -1    0    0  501    0  0.00000000000E+00  0.00000000000E+00  0.12577226328E+04  0.12577226328E+04  0.25500000920E-02 0. -1.
       -2   -1    0    0    0  501  0.00000000000E+00  0.00000000000E+00 -0.64443707418E+03  0.64443707418E+03  0.25500000920E-02 0.  1.
    10030    2    1    2    0    0  0.00000000000E+00  0.00000000000E+00  0.61328555859E+03  0.19021597070E+04  0.18005811213E+04 0.  0.
        2    1    3    3  502    0  0.18206585418E+02 -0.75692956626E+03  0.82120358830E+03  0.11169821760E+04  0.25500000920E-02 0. -1.
       -2    1    3    3    0  502 -0.18206585418E+02  0.75692956626E+03 -0.20791802972E+03  0.78517753096E+03  0.25500000920E-02 0.  1.
</event>
<event>
 5   0  0.4983159E-06  0.1800499E+04  0.7818609E-02  0.8706034E-01
        1   -1    0    0  501    0  0.00000000000E+00  0.00000000000E+00  0.14714319457E+04  0.14714319458E+04  0.50400001928E-02 0. -1.
       -1   -1    0    0    0  501  0.00000000000E+00  0.00000000000E+00 -0.55078936513E+03  0.55078936515E+03  0.50400001928E-02 0.  1.
    10030    2    1    2    0    0  0.00000000000E+00  0.00000000000E+00  0.92064258062E+03  0.20222213109E+04  0.18004988945E+04 0.  0.
        4    1    3    3  502    0  0.40200071711E+03 -0.62640091479E+03  0.10291083181E+04  0.12700583553E+04  0.12699999809E+01 0. -1.
       -4    1    3    3    0  502 -0.40200071711E+03  0.62640091479E+03 -0.10846573753E+03  0.75216295556E+03  0.12699999809E+01 0.  1.
</event>
<event>
 5   0  0.1000316E-05  0.1800894E+04  0.7818609E-02  0.8705824E-01
       -2   -1    0    0    0  501  0.00000000000E+00  0.00000000000E+00  0.97113990890E+03  0.97113990891E+03  0.25500000920E-02 0. -1.
        2   -1    0    0  501    0  0.00000000000E+00  0.00000000000E+00 -0.83490028013E+03  0.83490028013E+03  0.25500000920E-02 0.  1.
    10030    2    1    2    0    0  0.00000000000E+00  0.00000000000E+00  0.13623962877E+03  0.18060401890E+04  0.18008942023E+04 0.  0.
        5    1    3    3  502    0 -0.73719031255E+03  0.36847943526E+03 -0.29562343151E+03  0.87558092396E+03  0.46999998093E+01 0.  1.
       -5    1    3    3    0  502  0.73719031255E+03 -0.36847943526E+03  0.43186306029E+03  0.93045926508E+03  0.46999998093E+01 0. -1.
</event>
<event>
 5   0  0.4953155E-06  0.1800252E+04  0.7818609E-02  0.8706165E-01
       -1   -1    0    0    0  501  0.00000000000E+00  0.00000000000E+00  0.68299385325E+03  0.68299385327E+03  0.50400001928E-02 0. -1.
        1   -1    0    0  501    0  0.00000000000E+00  0.00000000000E+00 -0.11862871240E+04  0.11862871240E+04  0.50400001928E-02 0.  1.
    10030    2    1    2    0    0  0.00000000000E+00  0.00000000000E+00 -0.50329327070E+03  0.18692809772E+04  0.18002519978E+04 0.  0.
        2    1    3    3  502    0  0.46134571090E+03 -0.64880331879E+03 -0.68780207095E+03  0.10520728588E+04  0.25500000920E-02 0.  1.
       -2    1    3    3    0  502 -0.46134571090E+03  0.64880331879E+03  0.18450880025E+03  0.81720811842E+03  0.25500000920E-02 0. -1.
</event>
<event>
 5   0  0.4994123E-06  0.1800460E+04  0.7818609E-02  0.8706055E-01
       -1   -1    0    0    0  501  0.00000000000E+00  0.00000000000E+00  0.94121267744E+03  0.94121267746E+03  0.50400001928E-02 0.  1.
        1   -1    0    0  501    0  0.00000000000E+00  0.00000000000E+00 -0.86103198904E+03  0.86103198906E+03  0.50400001928E-02 0. -1.
    10030    2    1    2    0    0  0.00000000000E+00  0.00000000000E+00  0.80180688403E+02  0.18022446665E+04  0.18004601898E+04 0.  0.
        1    1    3    3  502    0  0.18062327965E+03  0.87949303743E+03  0.10558799933E+03  0.90403628117E+03  0.50400001928E-02 0. -1.
       -1    1    3    3    0  502 -0.18062327965E+03 -0.87949303743E+03 -0.25407310929E+02  0.89820838535E+03  0.50400001928E-02 0.  1.
</event>
<event>
 5   0  0.4981384E-06  0.1799871E+04  0.7818609E-02  0.8706368E-01
       -1   -1    0    0    0  501  0.00000000000E+00  0.00000000000E+00  0.59381849493E+03  0.59381849495E+03  0.50400001928E-02 0.  1.
        1   -1    0    0  501    0  0.00000000000E+00  0.00000000000E+00 -0.13638573673E+04  0.13638573673E+04  0.50400001928E-02 0. -1.
    10030    2    1    2    0    0  0.00000000000E+00  0.00000000000E+00 -0.77003887234E+03  0.19576758622E+04  0.17998708055E+04 0.  0.
        5    1    3    3  502    0 -0.37813215187E+03 -0.60489155489E+03  0.21170126128E+03  0.74412178538E+03  0.46999998093E+01 0.  1.
       -5    1    3    3    0  502  0.37813215187E+03  0.60489155489E+03 -0.98174013362E+03  0.12135540768E+04  0.46999998093E+01 0. -1.
</event>
<event>
 5   0  0.4983159E-06  0.1800490E+04  0.7818609E-02  0.8706039E-01
        1   -1    0    0  501    0  0.00000000000E+00  0.00000000000E+00  0.10132890036E+04  0.10132890036E+04  0.50400001928E-02 0.  1.
       -1   -1    0    0    0  501  0.00000000000E+00  0.00000000000E+00 -0.79981194503E+03  0.79981194504E+03  0.50400001928E-02 0. -1.
    10030    2    1    2    0    0  0.00000000000E+00  0.00000000000E+00  0.21347705853E+03  0.18131009486E+04  0.18004895432E+04 0.  0.
        4    1    3    3  502    0 -0.32602610355E+03 -0.69122039143E+03 -0.37236745429E+03  0.85013986122E+03  0.12699999809E+01 0. -1.
       -4    1    3    3    0  502  0.32602610355E+03  0.69122039143E+03  0.58584451282E+03  0.96296108739E+03  0.12699999809E+01 0.  1.
</event>
<event>
 5   0  0.9999162E-06  0.1799457E+04  0.7818609E-02  0.8706588E-01
        2   -1    0    0  501    0  0.00000000000E+00  0.00000000000E+00  0.10392677354E+04  0.10392677354E+04  0.25500000920E-02 0.  1.
       -2   -1    0    0    0  501  0.00000000000E+00  0.00000000000E+00 -0.77892452425E+03  0.77892452425E+03  0.25500000920E-02 0. -1.
    10030    2    1    2    0    0  0.00000000000E+00  0.00000000000E+00  0.26034321112E+03  0.18181922596E+04  0.17994567251E+04 0.  0.
        1    1    3    3  502    0 -0.63128800913E+03  0.56138128714E+03  0.44297137338E+03  0.95388528539E+03  0.50400001928E-02 0.  1.
       -1    1    3    3    0  502  0.63128800913E+03 -0.56138128714E+03 -0.18262816226E+03  0.86430697423E+03  0.50400001928E-02 0. -1.
</event>
<event>
 5   0  0.4994123E-06  0.1800821E+04  0.7818609E-02  0.8705863E-01
       -1   -1    0    0    0  501  0.00000000000E+00  0.00000000000E+00  0.98554843818E+03  0.98554843819E+03  0.50400001928E-02 0.  1.
        1   -1    0    0  501    0  0.00000000000E+00  0.00000000000E+00 -0.82262749482E+03  0.82262749483E+03  0.50400001928E-02 0. -1.
    10030    2    1    2    0    0  0.00000000000E+00  0.00000000000E+00  0.16292094336E+03  0.18081759330E+04  0.18008211935E+04 0.  0.
        1    1    3    3  502    0 -0.78237949454E+03  0.19077958970E+02 -0.36561929372E+03  0.86380501849E+03  0.50400001928E-02 0.  1.
       -1    1    3    3    0  502  0.78237949454E+03 -0.19077958970E+02  0.52854023708E+03  0.94437091454E+03  0.50400001928E-02 0. -1.
</event>
<event>
 5   0  0.1035018E-05  0.1801053E+04  0.7818609E-02  0.8705740E-01
       -2   -1    0    0    0  501  0.00000000000E+00  0.00000000000E+00  0.48779436185E+03  0.48779436185E+03  0.25500000920E-02 0.  1.
        2   -1    0    0  501    0  0.00000000000E+00  0.00000000000E+00 -0.16624783397E+04  0.16624783397E+04  0.25500000920E-02 0. -1.
    10030    2    1    2    0    0  0.00000000000E+00  0.00000000000E+00 -0.11746839779E+04  0.21502727016E+04  0.18010525376E+04 0.  0.
        3    1    3    3  502    0 -0.65794193111E+03 -0.25066225488E+02 -0.13208186812E+04  0.14758312571E+04  0.10100000352E+00 0. -1.
       -3    1    3    3    0  502  0.65794193111E+03  0.25066225488E+02  0.14613470337E+03  0.67444144453E+03  0.10100000352E+00 0.  1.
</event>
<event>
 5   0  0.9999162E-06  0.1800201E+04  0.7818609E-02  0.8706193E-01
       -2   -1    0    0    0  501  0.00000000000E+00  0.00000000000E+00  0.60072738048E+03  0.60072738049E+03  0.25500000920E-02 0.  1.
        2   -1    0    0  501    0  0.00000000000E+00  0.00000000000E+00 -0.13486658968E+04  0.13486658968E+04  0.25500000920E-02 0. -1.
    10030    2    1    2    0    0  0.00000000000E+00  0.00000000000E+00 -0.74793851636E+03  0.19493932773E+04  0.18002005792E+04 0.  0.
        1    1    3    3  502    0  0.20058386239E+03 -0.16240377369E+03 -0.13077393968E+04  0.13329633159E+04  0.50400001928E-02 0. -1.
       -1    1    3    3    0  502 -0.20058386239E+03  0.16240377369E+03  0.55980088045E+03  0.61642996142E+03  0.50400001928E-02 0.  1.
</event>
<event>
 5   0  0.9999162E-06  0.1799892E+04  0.7818609E-02  0.8706357E-01
        2   -1    0    0  501    0  0.00000000000E+00  0.00000000000E+00  0.10274522752E+04  0.10274522752E+04  0.25500000920E-02 0.  1.
       -2   -1    0    0    0  501  0.00000000000E+00  0.00000000000E+00 -0.78826303468E+03  0.78826303468E+03  0.25500000920E-02 0. -1.
    10030    2    1    2    0    0  0.00000000000E+00  0.00000000000E+00  0.23918924050E+03  0.18157153099E+04  0.17998918283E+04 0.  0.
        1    1    3    3  502    0  0.19573245526E+03  0.21146281719E+03 -0.74047022370E+03  0.79455891494E+03  0.50400001928E-02 0. -1.
       -1    1    3    3    0  502 -0.19573245526E+03 -0.21146281719E+03  0.97965946420E+03  0.10211563949E+04  0.50400001928E-02 0.  1.
</event>
<event>
 5   0  0.1000316E-05  0.1800243E+04  0.7818609E-02  0.8706170E-01
       -2   -1    0    0    0  501  0.00000000000E+00  0.00000000000E+00  0.32672584930E+03  0.32672584931E+03  0.25500000920E-02 0.  1.
        2   -1    0    0  501    0  0.00000000000E+00  0.00000000000E+00 -0.24798132355E+04  0.24798132355E+04  0.25500000920E-02 0. -1.
    10030    2    1    2    0    0  0.00000000000E+00  0.00000000000E+00 -0.21530873862E+04  0.28065390849E+04  0.18002434119E+04 0.  0.
        5    1    3    3  502    0  0.53269291732E+03 -0.26800823956E+03 -0.25410271783E+02  0.59687346444E+03  0.46999998093E+01 0.  1.
       -5    1    3    3    0  502 -0.53269291732E+03  0.26800823956E+03 -0.21276771145E+04  0.22096656204E+04  0.46999998093E+01 0. -1.
</event>
<event>
 5   0  0.4981384E-06  0.1807776E+04  0.7818609E-02  0.8702175E-01
       -1   -1    0    0    0  501  0.00000000000E+00  0.00000000000E+00  0.60936572251E+03  0.60936572253E+03  0.50400001928E-02 0.  1.
        1   -1    0    0  501    0  0.00000000000E+00  0.00000000000E+00 -0.13407606038E+04  0.13407606038E+04  0.50400001928E-02 0. -1.
    10030    2    1    2    0    0  0.00000000000E+00  0.00000000000E+00 -0.73139488130E+03  0.19501263264E+04  0.18077760415E+04 0.  0.
        5    1    3    3  502    0  0.81217791079E+03 -0.18515461178E+03 -0.74414463569E+03  0.11169997842E+04  0.46999998093E+01 0. -1.
       -5    1    3    3    0  502 -0.81217791079E+03  0.18515461178E+03  0.12749754395E+02  0.83312654217E+03  0.46999998093E+01 0.  1.
</event>
<event>
 5   0  0.1035018E-05  0.1800371E+04  0.7818609E-02  0.8706102E-01
        2   -1    0    0  501    0  0.00000000000E+00  0.00000000000E+00  0.16370103049E+04  0.16370103049E+04  0.25500000920E-02 0.  1.
       -2   -1    0    0    0  501  0.00000000000E+00  0.00000000000E+00 -0.49500867738E+03  0.49500867739E+03  0.25500000920E-02 0. -1.
    10030    2    1    2    0    0  0.00000000000E+00  0.00000000000E+00  0.11420016275E+04  0.21320189823E+04  0.18003714127E+04 0.  0.
        3    1    3    3  502    0  0.76872897924E+03  0.42399870051E+03  0.33530078595E+03  0.93975835661E+03  0.10100000352E+00 0. -1.
       -3    1    3    3    0  502 -0.76872897924E+03 -0.42399870051E+03  0.80670084156E+03  0.11922606257E+04  0.10100000352E+00 0.  1.
</event>
<event>
 5   0  0.4953155E-06  0.1800132E+04  0.7818609E-02  0.8706229E-01
        1   -1    0    0  501    0  0.00000000000E+00  0.00000000000E+00  0.15432565994E+04  0.15432565994E+04  0.50400001928E-02 0. -1.
       -1   -1    0    0    0  501  0.00000000000E+00  0.00000000000E+00 -0.52494089100E+03  0.52494089102E+03  0.50400001928E-02 0.  1.
    10030    2    1    2    0    0  0.00000000000E+00  0.00000000000E+00  0.10183157084E+04  0.20681974905E+04  0.18001316556E+04 0.  0.
        2    1    3    3  502    0  0.25533500417E+03 -0.22183498230E+03  0.14674598956E+04  0.15059366750E+04  0.25500000920E-02 0. -1.
       -2    1    3    3    0  502 -0.25533500417E+03  0.22183498230E+03 -0.44914418720E+03  0.56226081549E+03  0.25500000920E-02 0.  1.
</event>
<event>
 5   0  0.4994123E-06  0.1800362E+04  0.7818609E-02  0.8706107E-01
        1   -1    0    0  501    0  0.00000000000E+00  0.00000000000E+00  0.91057075327E+03  0.91057075329E+03  0.50400001928E-02 0.  1.
       -1   -1    0    0    0  501  0.00000000000E+00  0.00000000000E+00 -0.88990938063E+03  0.88990938064E+03  0.50400001928E-02 0. -1.
    10030    2    1    2    0    0  0.00000000000E+00  0.00000000000E+00  0.20661372647E+02  0.18004801339E+04  0.18003615804E+04 0.  0.
        1    1    3    3  502    0  0.42040301004E+03  0.44742989996E+03 -0.64803876045E+03  0.89268496196E+03  0.50400001928E-02 0. -1.
       -1    1    3    3    0  502 -0.42040301004E+03 -0.44742989996E+03  0.66870013309E+03  0.90779517197E+03  0.50400001928E-02 0.  1.
</event>
<event>
 5   0  0.4987456E-06  0.1800230E+04  0.7818609E-02  0.8706177E-01
        1   -1    0    0  501    0  0.00000000000E+00  0.00000000000E+00  0.14758155469E+04  0.14758155469E+04  0.50400001928E-02 0.  1.
       -1   -1    0    0    0  501  0.00000000000E+00  0.00000000000E+00 -0.54898925070E+03  0.54898925072E+03  0.50400001928E-02 0. -1.
    10030    2    1    2    0    0  0.00000000000E+00  0.00000000000E+00  0.92682629617E+03  0.20248047976E+04  0.18002298423E+04 0.  0.
        3    1    3    3  502    0 -0.13723595136E+03  0.88783758783E+03  0.52621370223E+03  0.10411484809E+04  0.10100000352E+00 0. -1.
       -3    1    3    3    0  502  0.13723595136E+03 -0.88783758783E+03  0.40061259394E+03  0.98365631668E+03  0.10100000352E+00 0.  1.
</event>
<event>
 5   0  0.4987456E-06  0.1800289E+04  0.7818609E-02  0.8706146E-01
        1   -1    0    0  501    0  0.00000000000E+00  0.00000000000E+00  0.12610524567E+04  0.12610524568E+04  0.50400001928E-02 0.  1.
       -1   -1    0    0    0  501  0.00000000000E+00  0.00000000000E+00 -0.64252693788E+03  0.64252693790E+03  0.50400001928E-02 0. -1.
    10030    2    1    2    0    0  0.00000000000E+00  0.00000000000E+00  0.61852551886E+03  0.19035793947E+04  0.18002890585E+04 0.  0.
        3    1    3    3  502    0  0.83462370361E+02 -0.30076385270E+03 -0.58347386585E+03  0.66171491195E+03  0.10100000352E+00 0. -1.
       -3    1    3    3    0  502 -0.83462370361E+02  0.30076385270E+03  0.12019993847E+04  0.12418644827E+04  0.10100000352E+00 0.  1.
</event>
<event>
 5   0  0.9589963E-06  0.1799475E+04  0.7818609E-02  0.8706579E-01
       -2   -1    0    0    0  501  0.00000000000E+00  0.00000000000E+00  0.11550176491E+04  0.11550176491E+04  0.25500000920E-02 0. -1.
        2   -1    0    0  501    0  0.00000000000E+00  0.00000000000E+00 -0.70087897007E+03  0.70087897007E+03  0.25500000920E-02 0.  1.
    10030    2    1    2    0    0  0.00000000000E+00  0.00000000000E+00  0.45413867908E+03  0.18558966192E+04  0.17994750127E+04 0.  0.
        2    1    3    3  502    0 -0.62494614456E+03  0.58761672407E+03 -0.52875458205E+02  0.85944570050E+03  0.25500000920E-02 0.  1.
       -2    1    3    3    0  502  0.62494614456E+03 -0.58761672407E+03  0.50701413728E+03  0.99645091872E+03  0.25500000920E-02 0. -1.
</event>
<event>
 5   0  0.4981384E-06  0.1799207E+04  0.7818609E-02  0.8706721E-01
       -1   -1    0    0    0  501  0.00000000000E+00  0.00000000000E+00  0.38063448561E+03  0.38063448564E+03  0.50400001928E-02 0. -1.
        1   -1    0    0  501    0  0.00000000000E+00  0.00000000000E+00 -0.21261519697E+04  0.21261519697E+04  0.50400001928E-02 0.  1.
    10030    2    1    2    0    0  0.00000000000E+00  0.00000000000E+00 -0.17455174841E+04  0.25067864553E+04  0.17992073381E+04 0.  0.
        5    1    3    3  502    0 -0.18099156318E+03 -0.87312749769E+03 -0.70699384481E+03  0.11379683474E+04  0.46999998093E+01 0. -1.
       -5    1    3    3    0  502  0.18099156318E+03  0.87312749769E+03 -0.10385236393E+04  0.13688181079E+04  0.46999998093E+01 0.  1.
</event>
<event>
 5   0  0.1000316E-05  0.1799832E+04  0.7818609E-02  0.8706389E-01
        2   -1    0    0  501    0  0.00000000000E+00  0.00000000000E+00  0.24946017529E+04  0.24946017529E+04  0.25500000920E-02 0.  1.
       -2   -1    0    0    0  501  0.00000000000E+00  0.00000000000E+00 -0.32464041732E+03  0.32464041733E+03  0.25500000920E-02 0. -1.
    10030    2    1    2    0    0  0.00000000000E+00  0.00000000000E+00  0.21699613356E+04  0.28192421703E+04  0.17998317189E+04 0.  0.
        5    1    3    3  502    0 -0.56432929592E+03 -0.18597550857E+03  0.21436253694E+04  0.22244563961E+04  0.46999998093E+01 0.  1.
       -5    1    3    3    0  502  0.56432929592E+03  0.18597550857E+03  0.26335966255E+02  0.59478577415E+03  0.46999998093E+01 0. -1.
</event>
<event>
 5   0  0.4953155E-06  0.1799994E+04  0.7818609E-02  0.8706302E-01
       -1   -1    0    0    0  501  0.00000000000E+00  0.00000000000E+00  0.47029587916E+03  0.47029587919E+03  0.50400001928E-02 0.  1.
        1   -1    0    0  501    0  0.00000000000E+00  0.00000000000E+00 -0.17223094553E+04  0.17223094553E+04  0.50400001928E-02 0. -1.
    10030    2    1    2    0    0  0.00000000000E+00  0.00000000000E+00 -0.12520135762E+04  0.21926053345E+04  0.17999944883E+04 0.  0.
        2    1    3    3  502    0 -0.76504762544E+03 -0.20365251092E+03 -0.10459712113E+03  0.79856920311E+03  0.25500000920E-02 0.  1.
       -2    1    3    3    0  502  0.76504762544E+03  0.20365251092E+03 -0.11474164550E+04  0.13940361314E+04  0.25500000920E-02 0. -1.
</event>
<event>
 5   0  0.3626125E-06  0.1799956E+04  0.7818609E-02  0.8706323E-01
       -4   -1    0    0    0  501  0.00000000000E+00  0.00000000000E+00  0.63891476660E+03  0.63891602882E+03  0.12699999809E+01 0. -1.
        4   -1    0    0  501    0  0.00000000000E+00  0.00000000000E+00 -0.12677100946E+04  0.12677107307E+04  0.12699999809E+01 0.  1.
    10030    2    1    2    0    0  0.00000000000E+00  0.00000000000E+00 -0.62879532800E+03  0.19066267596E+04  0.17999561205E+04 0.  0.
        5    1    3    3  502    0  0.43075001934E+03 -0.39533621712E+03  0.41032871265E+03  0.71430248925E+03  0.46999998093E+01 0. -1.
       -5    1    3    3    0  502 -0.43075001934E+03  0.39533621712E+03 -0.10391240406E+04  0.11923242703E+04  0.46999998093E+01 0.  1.
</event>
<event>
 5   0  0.4994123E-06  0.1801186E+04  0.7818609E-02  0.8705669E-01
       -1   -1    0    0    0  501  0.00000000000E+00  0.00000000000E+00  0.53412043252E+03  0.53412043255E+03  0.50400001928E-02 0. -1.
        1   -1    0    0  501    0  0.00000000000E+00  0.00000000000E+00 -0.15185107889E+04  0.15185107889E+04  0.50400001928E-02 0.  1.
    10030    2    1    2    0    0  0.00000000000E+00  0.00000000000E+00 -0.98439035633E+03  0.20526312214E+04  0.18011858753E+04 0.  0.
        1    1    3    3  502    0  0.39511875046E+03  0.32976261616E+03  0.35003423496E+03  0.62240354727E+03  0.50400001928E-02 0. -1.
       -1    1    3    3    0  502 -0.39511875046E+03 -0.32976261616E+03 -0.13344245913E+04  0.14302276741E+04  0.50400001928E-02 0.  1.
</event>
<event>
 5   0  0.4953155E-06  0.1800173E+04  0.7818609E-02  0.8706207E-01
       -1   -1    0    0    0  501  0.00000000000E+00  0.00000000000E+00  0.13883013880E+04  0.13883013880E+04  0.50400001928E-02 0.  1.
        1   -1    0    0  501    0  0.00000000000E+00  0.00000000000E+00 -0.58355919919E+03  0.58355919921E+03  0.50400001928E-02 0. -1.
    10030    2    1    2    0    0  0.00000000000E+00  0.00000000000E+00  0.80474218878E+03  0.19718605872E+04  0.18001733763E+04 0.  0.
        2    1    3    3  502    0 -0.84075726662E+03  0.12312020315E+03  0.72754122817E+03  0.11186364935E+04  0.25500000920E-02 0.  1.
       -2    1    3    3    0  502  0.84075726662E+03 -0.12312020315E+03  0.77200960609E+02  0.85322409373E+03  0.25500000920E-02 0. -1.
</event>
<event>
 5   0  0.9999162E-06  0.1800460E+04  0.7818609E-02  0.8706055E-01
       -2   -1    0    0    0  501  0.00000000000E+00  0.00000000000E+00  0.37630903831E+03  0.37630903831E+03  0.25500000920E-02 0. -1.
        2   -1    0    0  501    0  0.00000000000E+00  0.00000000000E+00 -0.21535855797E+04  0.21535855797E+04  0.25500000920E-02 0.  1.
    10030    2    1    2    0    0  0.00000000000E+00  0.00000000000E+00 -0.17772765413E+04  0.25298946180E+04  0.18004596284E+04 0.  0.
        1    1    3    3  502    0 -0.31733279589E+03 -0.29054703700E+03  0.22248407223E+03  0.48437263185E+03  0.50400001928E-02 0. -1.
       -1    1    3    3    0  502  0.31733279589E+03  0.29054703700E+03 -0.19997606136E+04  0.20455219861E+04  0.50400001928E-02 0.  1.
</event>
<event>
 5   0  0.9999162E-06  0.1800090E+04  0.7818609E-02  0.8706252E-01
        2   -1    0    0  501    0  0.00000000000E+00  0.00000000000E+00  0.13441463409E+04  0.13441463409E+04  0.25500000920E-02 0. -1.
       -2   -1    0    0    0  501  0.00000000000E+00  0.00000000000E+00 -0.60267308680E+03  0.60267308680E+03  0.25500000920E-02 0.  1.
    10030    2    1    2    0    0  0.00000000000E+00  0.00000000000E+00  0.74147325406E+03  0.19468194277E+04  0.18000898026E+04 0.  0.
        1    1    3    3  502    0  0.78026488647E+03 -0.26416805118E+03  0.76289900345E+03  0.11227702088E+04  0.50400001928E-02 0. -1.
       -1    1    3    3    0  502 -0.78026488647E+03  0.26416805118E+03 -0.21425749391E+02  0.82404921885E+03  0.50400001928E-02 0.  1.
</event>
<event>
 5   0  0.3626125E-06  0.1800090E+04  0.7818609E-02  0.8706252E-01
       -3   -1    0    0    0  501  0.00000000000E+00  0.00000000000E+00  0.77520590888E+03  0.77520591546E+03  0.10100000352E+00 0. -1.
        3   -1    0    0  501    0  0.00000000000E+00  0.00000000000E+00 -0.10449880654E+04  0.10449880703E+04  0.10100000352E+00 0.  1.
    10030    2    1    2    0    0  0.00000000000E+00  0.00000000000E+00 -0.26978215656E+03  0.18201939858E+04  0.18000899238E+04 0.  0.
        3    1    3    3  502    0 -0.18565823712E+03 -0.18344572551E+03 -0.10058819545E+04  0.10391919129E+04  0.10100000352E+00 0.  1.
       -3    1    3    3    0  502  0.18565823712E+03  0.18344572551E+03  0.73609979792E+03  0.78100207292E+03  0.10100000352E+00 0. -1.
</event>
<event>
 5   0  0.4983159E-06  0.1799925E+04  0.7818609E-02  0.8706339E-01
       -1   -1    0    0    0  501  0.00000000000E+00  0.00000000000E+00  0.62500035743E+03  0.62500035745E+03  0.50400001928E-02 0.  1.
        1   -1    0    0  501    0  0.00000000000E+00  0.00000000000E+00 -0.12958911157E+04  0.12958911157E+04  0.50400001928E-02 0. -1.
    10030    2    1    2    0    0  0.00000000000E+00  0.00000000000E+00 -0.67089075826E+03  0.19208914732E+04  0.17999248990E+04 0.  0.
        4    1    3    3  502    0 -0.10990934429E+03  0.10837169899E+03  0.61076800040E+03  0.62997115197E+03  0.12699999809E+01 0.  1.
       -4    1    3    3    0  502  0.10990934429E+03 -0.10837169899E+03 -0.12816587587E+04  0.12909203212E+04  0.12699999809E+01 0. -1.
</event>
<event>
 5   0  0.1000316E-05  0.1799581E+04  0.7818609E-02  0.8706522E-01
       -2   -1    0    0    0  501  0.00000000000E+00  0.00000000000E+00  0.61693208286E+03  0.61693208287E+03  0.25500000920E-02 0.  1.
        2   -1    0    0  501    0  0.00000000000E+00  0.00000000000E+00 -0.13123369181E+04  0.13123369181E+04  0.25500000920E-02 0. -1.
    10030    2    1    2    0    0  0.00000000000E+00  0.00000000000E+00 -0.69540483520E+03  0.19292690009E+04  0.17995807826E+04 0.  0.
        5    1    3    3  502    0  0.60462093570E+03 -0.46528492626E+03 -0.85909479215E+03  0.11489658352E+04  0.46999998093E+01 0. -1.
       -5    1    3    3    0  502 -0.60462093570E+03  0.46528492626E+03  0.16368995695E+03  0.78030316576E+03  0.46999998093E+01 0.  1.
</event>
<event>
 5   0  0.4981384E-06  0.1798654E+04  0.7818609E-02  0.8707016E-01
        1   -1    0    0  501    0  0.00000000000E+00  0.00000000000E+00  0.73514153471E+03  0.73514153473E+03  0.50400001928E-02 0.  1.
       -1   -1    0    0    0  501  0.00000000000E+00  0.00000000000E+00 -0.11001809946E+04  0.11001809946E+04  0.50400001928E-02 0. -1.
    10030    2    1    2    0    0  0.00000000000E+00  0.00000000000E+00 -0.36503945993E+03  0.18353225294E+04  0.17986536575E+04 0.  0.
        5    1    3    3  502    0  0.72630586903E+02  0.62884914249E+03 -0.83432269414E+03  0.10473026755E+04  0.46999998093E+01 0. -1.
       -5    1    3    3    0  502 -0.72630586903E+02 -0.62884914249E+03  0.46928323422E+03  0.78801985387E+03  0.46999998093E+01 0.  1.
</event>
<event>
 5   0  0.4953155E-06  0.1800932E+04  0.7818609E-02  0.8705804E-01
        1   -1    0    0  501    0  0.00000000000E+00  0.00000000000E+00  0.90152952164E+03  0.90152952165E+03  0.50400001928E-02 0.  1.
       -1   -1    0    0    0  501  0.00000000000E+00  0.00000000000E+00 -0.89940349063E+03  0.89940349064E+03  0.50400001928E-02 0. -1.
    10030    2    1    2    0    0  0.00000000000E+00  0.00000000000E+00  0.21260310089E+01  0.18009330123E+04  0.18009317574E+04 0.  0.
        2    1    3    3  502    0 -0.11546013429E+03 -0.41958262308E+03 -0.78726372168E+03  0.89953587348E+03  0.25500000920E-02 0. -1.
       -2    1    3    3    0  502  0.11546013429E+03  0.41958262308E+03  0.78938975269E+03  0.90139713881E+03  0.25500000920E-02 0.  1.
</event>
<event>
 5   0  0.1000316E-05  0.1799476E+04  0.7818609E-02  0.8706578E-01
       -2   -1    0    0    0  501  0.00000000000E+00  0.00000000000E+00  0.65345951040E+03  0.65345951040E+03  0.25500000920E-02 0. -1.
        2   -1    0    0  501    0  0.00000000000E+00  0.00000000000E+00 -0.12388344784E+04  0.12388344784E+04  0.25500000920E-02 0.  1.
    10030    2    1    2    0    0  0.00000000000E+00  0.00000000000E+00 -0.58537496797E+03  0.18922939888E+04  0.17994756700E+04 0.  0.
        5    1    3    3  502    0 -0.21274392997E+03 -0.84660166493E+03 -0.63472491587E+02  0.87524008477E+03  0.46999998093E+01 0. -1.
       -5    1    3    3    0  502  0.21274392997E+03  0.84660166493E+03 -0.52190247638E+03  0.10170539040E+04  0.46999998093E+01 0.  1.
</event>
<event>
 5   0  0.9999162E-06  0.1800464E+04  0.7818609E-02  0.8706053E-01
       -2   -1    0    0    0  501  0.00000000000E+00  0.00000000000E+00  0.97095366425E+03  0.97095366426E+03  0.25500000920E-02 0.  1.
        2   -1    0    0  501    0  0.00000000000E+00  0.00000000000E+00 -0.83466136888E+03  0.83466136888E+03  0.25500000920E-02 0. -1.
    10030    2    1    2    0    0  0.00000000000E+00  0.00000000000E+00  0.13629229537E+03  0.18056150331E+04  0.18004638453E+04 0.  0.
        1    1    3    3  502    0 -0.59994453779E+03 -0.37365743112E+03 -0.49100098923E+03  0.86060170562E+03  0.50400001928E-02 0. -1.
       -1    1    3    3    0  502  0.59994453779E+03  0.37365743112E+03  0.62729328461E+03  0.94501332752E+03  0.50400001928E-02 0.  1.
</event>
<event>
 5   0  0.4953155E-06  0.1799716E+04  0.7818609E-02  0.8706451E-01
        1   -1    0    0  501    0  0.00000000000E+00  0.00000000000E+00  0.18317547208E+04  0.18317547209E+04  0.50400001928E-02 0.  1.
       -1   -1    0    0    0  501  0.00000000000E+00  0.00000000000E+00 -0.44205924045E+03  0.44205924048E+03  0.50400001928E-02 0. -1.
    10030    2    1    2    0    0  0.00000000000E+00  0.00000000000E+00  0.13896954804E+04  0.22738139613E+04  0.17997156449E+04 0.  0.
        2    1    3    3  502    0 -0.88634750219E+03  0.13677224187E+03  0.60178554017E+03  0.10800298038E+04  0.25500000920E-02 0. -1.
       -2    1    3    3    0  502  0.88634750219E+03 -0.13677224187E+03  0.78790994023E+03  0.11937841575E+04  0.25500000920E-02 0.  1.
</event>
<event>
 5   0  0.4981384E-06  0.1802125E+04  0.7818609E-02  0.8705170E-01
       -1   -1    0    0    0  501  0.00000000000E+00  0.00000000000E+00  0.44018754036E+03  0.44018754039E+03  0.50400001928E-02 0. -1.
        1   -1    0    0  501    0  0.00000000000E+00  0.00000000000E+00 -0.18444726427E+04  0.18444726427E+04  0.50400001928E-02 0.  1.
    10030    2    1    2    0    0  0.00000000000E+00  0.00000000000E+00 -0.14042851023E+04  0.22846601831E+04  0.18021252741E+04 0.  0.
        5    1    3    3  502    0 -0.79209827132E+03  0.27280206271E+03 -0.11227083247E+04  0.14008342904E+04  0.46999998093E+01 0.  1.
       -5    1    3    3    0  502  0.79209827132E+03 -0.27280206271E+03 -0.28157677760E+03  0.88382589265E+03  0.46999998093E+01 0. -1.
</event>
<event>
 5   0  0.4987456E-06  0.1800307E+04  0.7818609E-02  0.8706136E-01
       -1   -1    0    0    0  501  0.00000000000E+00  0.00000000000E+00  0.21006399922E+04  0.21006399922E+04  0.50400001928E-02 0.  1.
        1   -1    0    0  501    0  0.00000000000E+00  0.00000000000E+00 -0.38572847961E+03  0.38572847965E+03  0.50400001928E-02 0. -1.
    10030    2    1    2    0    0  0.00000000000E+00  0.00000000000E+00  0.17149115125E+04  0.24863684718E+04  0.18003073853E+04 0.  0.
        3    1    3    3  502    0 -0.41557174142E+03  0.58204945631E+03  0.10252755614E+03  0.72249107387E+03  0.10100000352E+00 0. -1.
       -3    1    3    3    0  502  0.41557174142E+03 -0.58204945631E+03  0.16123839564E+04  0.17638773979E+04  0.10100000352E+00 0.  1.
</event>
<event>
 5   0  0.4987456E-06  0.1800079E+04  0.7818609E-02  0.8706257E-01
        1   -1    0    0  501    0  0.00000000000E+00  0.00000000000E+00  0.81711521179E+03  0.81711521180E+03  0.50400001928E-02 0. -1.
       -1   -1    0    0    0  501  0.00000000000E+00  0.00000000000E+00 -0.99137928705E+03  0.99137928706E+03  0.50400001928E-02 0.  1.
    10030    2    1    2    0    0  0.00000000000E+00  0.00000000000E+00 -0.17426407526E+03  0.18084944989E+04  0.18000789940E+04 0.  0.
        3    1    3    3  502    0 -0.63331940220E+02  0.56768145786E+03 -0.78593964428E+03  0.97158340193E+03  0.10100000352E+00 0.  1.
       -3    1    3    3    0  502  0.63331940220E+02 -0.56768145786E+03  0.61167556902E+03  0.83691109694E+03  0.10100000352E+00 0. -1.
</event>
<event>
 5   0  0.4981384E-06  0.1800195E+04  0.7818609E-02  0.8706196E-01
        1   -1    0    0  501    0  0.00000000000E+00  0.00000000000E+00  0.67489944708E+03  0.67489944710E+03  0.50400001928E-02 0. -1.
       -1   -1    0    0    0  501  0.00000000000E+00  0.00000000000E+00 -0.12004391654E+04  0.12004391654E+04  0.50400001928E-02 0.  1.
    10030    2    1    2    0    0  0.00000000000E+00  0.00000000000E+00 -0.52553971831E+03  0.18753386125E+04  0.18001952439E+04 0.  0.
        5    1    3    3  502    0  0.71165800248E+03  0.10516331331E+03  0.30077028028E+03  0.77974437250E+03  0.46999998093E+01 0. -1.
       -5    1    3    3    0  502 -0.71165800248E+03 -0.10516331331E+03 -0.82630999859E+03  0.10955942400E+04  0.46999998093E+01 0.  1.
</event>
<event>
 5   0  0.4983159E-06  0.1799065E+04  0.7818609E-02  0.8706797E-01
       -1   -1    0    0    0  501  0.00000000000E+00  0.00000000000E+00  0.58447616111E+03  0.58447616113E+03  0.50400001928E-02 0. -1.
        1   -1    0    0  501    0  0.00000000000E+00  0.00000000000E+00 -0.13844174242E+04  0.13844174242E+04  0.50400001928E-02 0.  1.
    10030    2    1    2    0    0  0.00000000000E+00  0.00000000000E+00 -0.79994126312E+03  0.19688935854E+04  0.17990652923E+04 0.  0.
        4    1    3    3  502    0 -0.62852504042E+03 -0.38253179646E+03 -0.96629711913E+03  0.12145394341E+04  0.12699999809E+01 0.  1.
       -4    1    3    3    0  502  0.62852504042E+03  0.38253179646E+03  0.16635585602E+03  0.75435415123E+03  0.12699999809E+01 0. -1.
</event>
<event>
 5   0  0.4981384E-06  0.1801506E+04  0.7818609E-02  0.8705499E-01
        1   -1    0    0  501    0  0.00000000000E+00  0.00000000000E+00  0.14807160947E+04  0.14807160947E+04  0.50400001928E-02 0. -1.
       -1   -1    0    0    0  501  0.00000000000E+00  0.00000000000E+00 -0.54794812648E+03  0.54794812650E+03  0.50400001928E-02 0.  1.
    10030    2    1    2    0    0  0.00000000000E+00  0.00000000000E+00  0.93276796824E+03  0.20286642212E+04  0.18015056036E+04 0.  0.
        5    1    3    3  502    0 -0.23649118584E+03 -0.78035831735E+03  0.89732100691E+03  0.12124744384E+04  0.46999998093E+01 0. -1.
       -5    1    3    3    0  502  0.23649118584E+03  0.78035831735E+03  0.35446961324E+02  0.81618978277E+03  0.46999998093E+01 0.  1.
</event>
<event>
 5   0  0.1036381E-05  0.1799647E+04  0.7818609E-02  0.8706487E-01
        2   -1    0    0  501    0  0.00000000000E+00  0.00000000000E+00  0.11257465592E+04  0.11257465592E+04  0.25500000920E-02 0. -1.
       -2   -1    0    0    0  501  0.00000000000E+00  0.00000000000E+00 -0.71924015599E+03  0.71924015599E+03  0.25500000920E-02 0.  1.
    10030    2    1    2    0    0  0.00000000000E+00  0.00000000000E+00  0.40650640323E+03  0.18449867152E+04  0.17996467774E+04 0.  0.
        4    1    3    3  502    0 -0.55303518155E+03 -0.32025710054E+01  0.93094031610E+03  0.10828248490E+04  0.12699999809E+01 0. -1.
       -4    1    3    3    0  502  0.55303518155E+03  0.32025710054E+01 -0.52443391287E+03  0.76216186625E+03  0.12699999809E+01 0.  1.
</event>
<event>
 5   0  0.4981384E-06  0.1799320E+04  0.7818609E-02  0.8706661E-01
        1   -1    0    0  501    0  0.00000000000E+00  0.00000000000E+00  0.73977015623E+03  0.73977015624E+03  0.50400001928E-02 0.  1.
       -1   -1    0    0    0  501  0.00000000000E+00  0.00000000000E+00 -0.10941069687E+04  0.10941069687E+04  0.50400001928E-02 0. -1.
    10030    2    1    2    0    0  0.00000000000E+00  0.00000000000E+00 -0.35433681249E+03  0.18338771250E+04  0.17993195194E+04 0.  0.
        5    1    3    3  502    0 -0.24693102609E+03  0.47003693031E+03 -0.91737855995E+03  0.10599599803E+04  0.46999998093E+01 0. -1.
       -5    1    3    3    0  502  0.24693102609E+03 -0.47003693031E+03  0.56304174746E+03  0.77391714471E+03  0.46999998093E+01 0.  1.
</event>
<event>
 5   0  0.1035018E-05  0.1796303E+04  0.7818609E-02  0.8708268E-01
        2   -1    0    0  501    0  0.00000000000E+00  0.00000000000E+00  0.14997498796E+04  0.14997498796E+04  0.25500000920E-02 0.  1.
       -2   -1    0    0    0  501  0.00000000000E+00  0.00000000000E+00 -0.53787351710E+03  0.53787351710E+03  0.25500000920E-02 0. -1.
    10030    2    1    2    0    0  0.00000000000E+00  0.00000000000E+00  0.96187636247E+03  0.20376233967E+04  0.17963025831E+04 0.  0.
        3    1    3    3  502    0  0.64006050502E+03  0.16274602351E+03  0.11714093861E+04  0.13447541331E+04  0.10100000352E+00 0.  1.
       -3    1    3    3    0  502 -0.64006050502E+03 -0.16274602351E+03 -0.20953302367E+03  0.69286926361E+03  0.10100000352E+00 0. -1.
</event>
<event>
 5   0  0.1035018E-05  0.1801066E+04  0.7818609E-02  0.8705733E-01
        2   -1    0    0  501    0  0.00000000000E+00  0.00000000000E+00  0.88143915515E+03  0.88143915516E+03  0.25500000920E-02 0. -1.
       -2   -1    0    0    0  501  0.00000000000E+00  0.00000000000E+00 -0.92004012221E+03  0.92004012221E+03  0.25500000920E-02 0.  1.
    10030    2    1    2    0    0  0.00000000000E+00  0.00000000000E+00 -0.38600967054E+02  0.18014792774E+04  0.18010656712E+04 0.  0.
        3    1    3    3  502    0  0.25665352986E+03 -0.83387104406E+03 -0.24239301246E+03  0.90551992534E+03  0.10100000352E+00 0.  1.
       -3    1    3    3    0  502 -0.25665352986E+03  0.83387104406E+03  0.20379204541E+03  0.89595935202E+03  0.10100000352E+00 0. -1.
</event>
<event>
 5   0  0.3626125E-06  0.1800108E+04  0.7818609E-02  0.8706242E-01
        4   -1    0    0  501    0  0.00000000000E+00  0.00000000000E+00  0.60964064099E+03  0.60964196382E+03  0.12699999809E+01 0.  1.
       -4   -1    0    0    0  501  0.00000000000E+00  0.00000000000E+00 -0.13288082411E+04  0.13288088480E+04  0.12699999809E+01 0. -1.
    10030    2    1    2    0    0  0.00000000000E+00  0.00000000000E+00 -0.71916760009E+03  0.19384508118E+04  0.18001081947E+04 0.  0.
        5    1    3    3  502    0 -0.53536761880E+03 -0.69443788006E+03 -0.14097260221E+03  0.88812038660E+03  0.46999998093E+01 0.  1.
       -5    1    3    3    0  502  0.53536761880E+03  0.69443788006E+03 -0.57819499787E+03  0.10503304252E+04  0.46999998093E+01 0. -1.
</event>
<event>
 5   0  0.1000316E-05  0.1802794E+04  0.7818609E-02  0.8704815E-01
        2   -1    0    0  501    0  0.00000000000E+00  0.00000000000E+00  0.15000947182E+04  0.15000947182E+04  0.25500000920E-02 0.  1.
       -2   -1    0    0    0  501  0.00000000000E+00  0.00000000000E+00 -0.54164323666E+03  0.54164323666E+03  0.25500000920E-02 0. -1.
    10030    2    1    2    0    0  0.00000000000E+00  0.00000000000E+00  0.95845148158E+03  0.20417379549E+04  0.18027935639E+04 0.  0.
        5    1    3    3  502    0  0.56025137013E+03 -0.55173695219E+03 -0.19862435540E+02  0.78658239778E+03  0.46999998093E+01 0.  1.
       -5    1    3    3    0  502 -0.56025137013E+03  0.55173695219E+03  0.97831391712E+03  0.12551555571E+04  0.46999998093E+01 0. -1.
</event>
<event>
 5   0  0.4981384E-06  0.1799780E+04  0.7818609E-02  0.8706417E-01
       -1   -1    0    0    0  501  0.00000000000E+00  0.00000000000E+00  0.69807019033E+03  0.69807019034E+03  0.50400001928E-02 0. -1.
        1   -1    0    0  501    0  0.00000000000E+00  0.00000000000E+00 -0.11600576640E+04  0.11600576640E+04  0.50400001928E-02 0.  1.
    10030    2    1    2    0    0  0.00000000000E+00  0.00000000000E+00 -0.46198747369E+03  0.18581278544E+04  0.17997796247E+04 0.  0.
        5    1    3    3  502    0 -0.71786209676E+03 -0.44258985315E+03  0.93139697170E+02  0.84847443171E+03  0.46999998093E+01 0.  1.
       -5    1    3    3    0  502  0.71786209676E+03  0.44258985315E+03 -0.55512717086E+03  0.10096534227E+04  0.46999998093E+01 0. -1.
</event>
<event>
 5   0  0.4953155E-06  0.1799239E+04  0.7818609E-02  0.8706704E-01
        1   -1    0    0  501    0  0.00000000000E+00  0.00000000000E+00  0.20010628625E+04  0.20010628625E+04  0.50400001928E-02 0.  1.
       -1   -1    0    0    0  501  0.00000000000E+00  0.00000000000E+00 -0.40444288987E+03  0.40444288990E+03  0.50400001928E-02 0. -1.
    10030    2    1    2    0    0  0.00000000000E+00  0.00000000000E+00  0.15966199726E+04  0.24055057524E+04  0.17992394470E+04 0.  0.
        2    1    3    3  502    0 -0.46605569553E+03 -0.12392851637E+03 -0.21702893244E+03  0.52883621853E+03  0.25500000920E-02 0. -1.
       -2    1    3    3    0  502  0.46605569553E+03  0.12392851637E+03  0.18136489050E+04  0.18766695338E+04  0.25500000920E-02 0.  1.
</event>
<event>
 5   0  0.1000316E-05  0.1800031E+04  0.7818609E-02  0.8706283E-01
        2   -1    0    0  501    0  0.00000000000E+00  0.00000000000E+00  0.13303816622E+04  0.13303816622E+04  0.25500000920E-02 0.  1.
       -2   -1    0    0    0  501  0.00000000000E+00  0.00000000000E+00 -0.60886867461E+03  0.60886867461E+03  0.25500000920E-02 0. -1.
    10030    2    1    2    0    0  0.00000000000E+00  0.00000000000E+00  0.72151298762E+03  0.19392503368E+04  0.18000307991E+04 0.  0.
        5    1    3    3  502    0  0.36404842993E+03  0.69634036705E+03 -0.11202945764E+03  0.79372152263E+03  0.46999998093E+01 0. -1.
       -5    1    3    3    0  502 -0.36404842993E+03 -0.69634036705E+03  0.83354244526E+03  0.11455288142E+04  0.46999998093E+01 0.  1.
</event>
<event>
 5   0  0.9999162E-06  0.1800087E+04  0.7818609E-02  0.8706253E-01
        2   -1    0    0  501    0  0.00000000000E+00  0.00000000000E+00  0.18315819289E+04  0.18315819289E+04  0.25500000920E-02 0.  1.
       -2   -1    0    0    0  501  0.00000000000E+00  0.00000000000E+00 -0.44228346490E+03  0.44228346491E+03  0.25500000920E-02 0. -1.
    10030    2    1    2    0    0  0.00000000000E+00  0.00000000000E+00  0.13892984640E+04  0.22738653938E+04  0.18000871110E+04 0.  0.
        1    1    3    3  502    0 -0.70901191813E+03 -0.31920332807E+03  0.12672689491E+04  0.14867949603E+04  0.50400001928E-02 0.  1.
       -1    1    3    3    0  502  0.70901191813E+03  0.31920332807E+03  0.12202951488E+03  0.78707043346E+03  0.50400001928E-02 0. -1.
</event>
<event>
 5   0  0.4953155E-06  0.1799494E+04  0.7818609E-02  0.8706568E-01
        1   -1    0    0  501    0  0.00000000000E+00  0.00000000000E+00  0.12696568533E+04  0.12696568533E+04  0.50400001928E-02 0.  1.
       -1   -1    0    0    0  501  0.00000000000E+00  0.00000000000E+00 -0.63760923288E+03  0.63760923290E+03  0.50400001928E-02 0. -1.
    10030    2    1    2    0    0  0.00000000000E+00  0.00000000000E+00  0.63204762041E+03  0.19072660862E+04  0.17994942982E+04 0.  0.
        2    1    3    3  502    0  0.72247567941E+01 -0.28601311104E+02 -0.63709653421E+03  0.63777913577E+03  0.25500000920E-02 0. -1.
       -2    1    3    3    0  502 -0.72247567941E+01  0.28601311104E+02  0.12691441546E+04  0.12694869504E+04  0.25500000920E-02 0.  1.
</event>
<event>
 5   0  0.9999162E-06  0.1800501E+04  0.7818609E-02  0.8706033E-01
        2   -1    0    0  501    0  0.00000000000E+00  0.00000000000E+00  0.16122335795E+04  0.16122335795E+04  0.25500000920E-02 0. -1.
       -2   -1    0    0    0  501  0.00000000000E+00  0.00000000000E+00 -0.50268855030E+03  0.50268855031E+03  0.25500000920E-02 0.  1.
    10030    2    1    2    0    0  0.00000000000E+00  0.00000000000E+00  0.11095450292E+04  0.21149221298E+04  0.18005014422E+04 0.  0.
        1    1    3    3  502    0 -0.32028032219E+03  0.81552060393E+03  0.31176889105E+03  0.92997482852E+03  0.50400001928E-02 0.  1.
       -1    1    3    3    0  502  0.32028032219E+03 -0.81552060393E+03  0.79777613815E+03  0.11849473013E+04  0.50400001928E-02 0. -1.
</event>
<event>
 5   0  0.4983159E-06  0.1799862E+04  0.7818609E-02  0.8706373E-01
       -1   -1    0    0    0  501  0.00000000000E+00  0.00000000000E+00  0.63699672534E+03  0.63699672536E+03  0.50400001928E-02 0.  1.
        1   -1    0    0  501    0  0.00000000000E+00  0.00000000000E+00 -0.12713971558E+04  0.12713971558E+04  0.50400001928E-02 0. -1.
    10030    2    1    2    0    0  0.00000000000E+00  0.00000000000E+00 -0.63440043045E+03  0.19083938812E+04  0.17998620224E+04 0.  0.
        4    1    3    3  502    0 -0.53584131541E+03 -0.72233524481E+03 -0.35039439617E+03  0.96523156132E+03  0.12699999809E+01 0. -1.
       -4    1    3    3    0  502  0.53584131541E+03  0.72233524481E+03 -0.28400603428E+03  0.94316231986E+03  0.12699999809E+01 0.  1.
</event>
<event>
 5   0  0.1035018E-05  0.1800190E+04  0.7818609E-02  0.8706198E-01
       -2   -1    0    0    0  501  0.00000000000E+00  0.00000000000E+00  0.54348244042E+03  0.54348244042E+03  0.25500000920E-02 0.  1.
        2   -1    0    0  501    0  0.00000000000E+00  0.00000000000E+00 -0.14907037851E+04  0.14907037851E+04  0.25500000920E-02 0. -1.
    10030    2    1    2    0    0  0.00000000000E+00  0.00000000000E+00 -0.94722134467E+03  0.20341862255E+04  0.18001903578E+04 0.  0.
        3    1    3    3  502    0  0.57524756515E+03 -0.36415612891E+03  0.19169167200E+03  0.70729424906E+03  0.10100000352E+00 0.  1.
       -3    1    3    3    0  502 -0.57524756515E+03  0.36415612891E+03 -0.11389130167E+04  0.13268919765E+04  0.10100000352E+00 0. -1.
</event>
<event>
 5   0  0.4983159E-06  0.1799787E+04  0.7818609E-02  0.8706413E-01
        1   -1    0    0  501    0  0.00000000000E+00  0.00000000000E+00  0.13591443615E+04  0.13591443615E+04  0.50400001928E-02 0.  1.
       -1   -1    0    0    0  501  0.00000000000E+00  0.00000000000E+00 -0.59582236049E+03  0.59582236051E+03  0.50400001928E-02 0. -1.
    10030    2    1    2    0    0  0.00000000000E+00  0.00000000000E+00  0.76332200105E+03  0.19549667221E+04  0.17997873227E+04 0.  0.
        4    1    3    3  502    0  0.31516441785E+03 -0.77221663683E+03  0.14653563598E+02  0.83418432274E+03  0.12699999809E+01 0. -1.
       -4    1    3    3    0  502 -0.31516441785E+03  0.77221663683E+03  0.74866843745E+03  0.11207823993E+04  0.12699999809E+01 0.  1.
</event>
<event>
 5   0  0.1035018E-05  0.1799969E+04  0.7818609E-02  0.8706316E-01
       -2   -1    0    0    0  501  0.00000000000E+00  0.00000000000E+00  0.43928215688E+03  0.43928215689E+03  0.25500000920E-02 0. -1.
        2   -1    0    0  501    0  0.00000000000E+00  0.00000000000E+00 -0.18438535962E+04  0.18438535962E+04  0.25500000920E-02 0.  1.
    10030    2    1    2    0    0  0.00000000000E+00  0.00000000000E+00 -0.14045714393E+04  0.22831357531E+04  0.17999688716E+04 0.  0.
        3    1    3    3  502    0 -0.53586206684E+03 -0.42033036112E+03  0.43985218275E+02  0.68246646569E+03  0.10100000352E+00 0. -1.
       -3    1    3    3    0  502  0.53586206684E+03  0.42033036112E+03 -0.14485566576E+04  0.16006692874E+04  0.10100000352E+00 0.  1.
</event>
<event>
 5   0  0.1036381E-05  0.1799929E+04  0.7818609E-02  0.8706337E-01
        2   -1    0    0  501    0  0.00000000000E+00  0.00000000000E+00  0.11856193775E+04  0.11856193775E+04  0.25500000920E-02 0. -1.
       -2   -1    0    0    0  501  0.00000000000E+00  0.00000000000E+00 -0.68313350001E+03  0.68313350001E+03  0.25500000920E-02 0.  1.
    10030    2    1    2    0    0  0.00000000000E+00  0.00000000000E+00  0.50248587747E+03  0.18687528775E+04  0.17999292375E+04 0.  0.
        4    1    3    3  502    0  0.41325426730E+03 -0.33847902869E+03 -0.50073558340E+03  0.73217817482E+03  0.12699999809E+01 0.  1.
       -4    1    3    3    0  502 -0.41325426730E+03  0.33847902869E+03  0.10032214609E+04  0.11365747027E+04  0.12699999809E+01 0. -1.
</event>
<event>
 5   0  0.9589963E-06  0.1799558E+04  0.7818609E-02  0.8706534E-01
       -2   -1    0    0    0  501  0.00000000000E+00  0.00000000000E+00  0.43705805136E+03  0.43705805137E+03  0.25500000920E-02 0.  1.
        2   -1    0    0  501    0  0.00000000000E+00  0.00000000000E+00 -0.18523913427E+04  0.18523913427E+04  0.25500000920E-02 0. -1.
    10030    2    1    2    0    0  0.00000000000E+00  0.00000000000E+00 -0.14153332913E+04  0.22894493941E+04  0.17995583354E+04 0.  0.
        2    1    3    3  502    0 -0.36238021443E+03  0.78678130162E+03 -0.10173656185E+04  0.13361800171E+04  0.25500000920E-02 0. -1.
       -2    1    3    3    0  502  0.36238021443E+03 -0.78678130162E+03 -0.39796767279E+03  0.95326937692E+03  0.25500000920E-02 0.  1.
</event>
<event>
 5   0  0.9589963E-06  0.1799842E+04  0.7818609E-02  0.8706383E-01
       -2   -1    0    0    0  501  0.00000000000E+00  0.00000000000E+00  0.49130902395E+03  0.49130902396E+03  0.25500000920E-02 0.  1.
        2   -1    0    0  501    0  0.00000000000E+00  0.00000000000E+00 -0.16483676653E+04  0.16483676653E+04  0.25500000920E-02 0. -1.
    10030    2    1    2    0    0  0.00000000000E+00  0.00000000000E+00 -0.11570586414E+04  0.21396766893E+04  0.17998421139E+04 0.  0.
        2    1    3    3  502    0 -0.13100534719E+03  0.83658919042E+02 -0.16322881059E+04  0.16396724296E+04  0.25500000920E-02 0. -1.
       -2    1    3    3    0  502  0.13100534719E+03 -0.83658919042E+02  0.47522946453E+03  0.50000425967E+03  0.25500000920E-02 0.  1.
</event>
<event>
 5   0  0.4983159E-06  0.1810280E+04  0.7818609E-02  0.8700852E-01
        1   -1    0    0  501    0  0.00000000000E+00  0.00000000000E+00  0.63586039576E+03  0.63586039578E+03  0.50400001928E-02 0. -1.
       -1   -1    0    0    0  501  0.00000000000E+00  0.00000000000E+00 -0.12884569869E+04  0.12884569869E+04  0.50400001928E-02 0.  1.
    10030    2    1    2    0    0  0.00000000000E+00  0.00000000000E+00 -0.65259659113E+03  0.19243173827E+04  0.18102803867E+04 0.  0.
        4    1    3    3  502    0 -0.26182642369E+03 -0.86635579147E+03 -0.33939182803E+03  0.96659912031E+03  0.12699999809E+01 0. -1.
       -4    1    3    3    0  502  0.26182642369E+03  0.86635579147E+03 -0.31320476309E+03  0.95771826237E+03  0.12699999809E+01 0.  1.
</event>
<event>
 5   0  0.9589963E-06  0.1800347E+04  0.7818609E-02  0.8706115E-01
        2   -1    0    0  501    0  0.00000000000E+00  0.00000000000E+00  0.44255069300E+03  0.44255069301E+03  0.25500000920E-02 0. -1.
       -2   -1    0    0    0  501  0.00000000000E+00  0.00000000000E+00 -0.18310051888E+04  0.18310051888E+04  0.25500000920E-02 0.  1.
    10030    2    1    2    0    0  0.00000000000E+00  0.00000000000E+00 -0.13884544958E+04  0.22735558818E+04  0.18003473167E+04 0.  0.
        2    1    3    3  502    0 -0.88253700651E+02 -0.79395167281E+03 -0.17023927611E+03  0.81677988808E+03  0.25500000920E-02 0. -1.
       -2    1    3    3    0  502  0.88253700651E+02  0.79395167281E+03 -0.12182152197E+04  0.14567759938E+04  0.25500000920E-02 0.  1.
</event>
<event>
 5   0  0.1000316E-05  0.1804501E+04  0.7818609E-02  0.8703909E-01
        2   -1    0    0  501    0  0.00000000000E+00  0.00000000000E+00  0.15772543103E+04  0.15772543103E+04  0.25500000920E-02 0. -1.
       -2   -1    0    0    0  501  0.00000000000E+00  0.00000000000E+00 -0.51612228286E+03  0.51612228287E+03  0.25500000920E-02 0.  1.
    10030    2    1    2    0    0  0.00000000000E+00  0.00000000000E+00  0.10611320275E+04  0.20933765932E+04  0.18045011447E+04 0.  0.
        5    1    3    3  502    0 -0.45750465066E+03  0.55325840557E+03  0.11645173589E+04  0.13680380616E+04  0.46999998093E+01 0. -1.
       -5    1    3    3    0  502  0.45750465066E+03 -0.55325840557E+03 -0.10338533144E+03  0.72533853163E+03  0.46999998093E+01 0.  1.
</event>
<event>
 5   0  0.1000316E-05  0.1799912E+04  0.7818609E-02  0.8706346E-01
       -2   -1    0    0    0  501  0.00000000000E+00  0.00000000000E+00  0.15740546061E+04  0.15740546061E+04  0.25500000920E-02 0.  1.
        2   -1    0    0  501    0  0.00000000000E+00  0.00000000000E+00 -0.51454449292E+03  0.51454449293E+03  0.25500000920E-02 0. -1.
    10030    2    1    2    0    0  0.00000000000E+00  0.00000000000E+00  0.10595101132E+04  0.20885990991E+04  0.17999123636E+04 0.  0.
        5    1    3    3  502    0 -0.36640398079E+03  0.10092622017E+03  0.14763518958E+04  0.15244917150E+04  0.46999998093E+01 0.  1.
       -5    1    3    3    0  502  0.36640398079E+03 -0.10092622017E+03 -0.41684178255E+03  0.56410738404E+03  0.46999998093E+01 0. -1.
</event>
<event>
 5   0  0.1035018E-05  0.1800114E+04  0.7818609E-02  0.8706239E-01
       -2   -1    0    0    0  501  0.00000000000E+00  0.00000000000E+00  0.68941138977E+03  0.68941138978E+03  0.25500000920E-02 0.  1.
        2   -1    0    0  501    0  0.00000000000E+00  0.00000000000E+00 -0.11750647929E+04  0.11750647929E+04  0.25500000920E-02 0. -1.
    10030    2    1    2    0    0  0.00000000000E+00  0.00000000000E+00 -0.48565340316E+03  0.18644761827E+04  0.18001144986E+04 0.  0.
        3    1    3    3  502    0 -0.51905725533E+02  0.64043210956E+03  0.40999066176E+03  0.76219409879E+03  0.10100000352E+00 0.  1.
       -3    1    3    3    0  502  0.51905725533E+02 -0.64043210956E+03 -0.89564406492E+03  0.11022820839E+04  0.10100000352E+00 0. -1.
</event>
<event>
 5   0  0.4981384E-06  0.1798354E+04  0.7818609E-02  0.8707176E-01
        1   -1    0    0  501    0  0.00000000000E+00  0.00000000000E+00  0.18694705237E+04  0.18694705237E+04  0.50400001928E-02 0. -1.
       -1   -1    0    0    0  501  0.00000000000E+00  0.00000000000E+00 -0.43248548162E+03  0.43248548165E+03  0.50400001928E-02 0.  1.
    10030    2    1    2    0    0  0.00000000000E+00  0.00000000000E+00  0.14369850421E+04  0.23019560054E+04  0.17983535357E+04 0.  0.
        5    1    3    3  502    0  0.21021530759E+02 -0.89747979342E+03  0.78357178050E+03  0.11916034196E+04  0.46999998093E+01 0.  1.
       -5    1    3    3    0  502 -0.21021530759E+02  0.89747979342E+03  0.65341326160E+03  0.11103525858E+04  0.46999998093E+01 0. -1.
</event>
<event>
 5   0  0.4994123E-06  0.1800095E+04  0.7818609E-02  0.8706249E-01
       -1   -1    0    0    0  501  0.00000000000E+00  0.00000000000E+00  0.73827330162E+03  0.73827330164E+03  0.50400001928E-02 0. -1.
        1   -1    0    0  501    0  0.00000000000E+00  0.00000000000E+00 -0.10972703488E+04  0.10972703488E+04  0.50400001928E-02 0.  1.
    10030    2    1    2    0    0  0.00000000000E+00  0.00000000000E+00 -0.35899704719E+03  0.18355436505E+04  0.18000948900E+04 0.  0.
        1    1    3    3  502    0  0.32009965684E+03 -0.23468511395E+03 -0.10032086174E+04  0.10788736826E+04  0.50400001928E-02 0.  1.
       -1    1    3    3    0  502 -0.32009965684E+03  0.23468511395E+03  0.64421157020E+03  0.75666996784E+03  0.50400001928E-02 0. -1.
</event>
<event>
 5   0  0.1035018E-05  0.1799945E+04  0.7818609E-02  0.8706329E-01
        2   -1    0    0  501    0  0.00000000000E+00  0.00000000000E+00  0.22321448670E+04  0.22321448670E+04  0.25500000920E-02 0.  1.
       -2   -1    0    0    0  501  0.00000000000E+00  0.00000000000E+00 -0.36285750698E+03  0.36285750699E+03  0.25500000920E-02 0. -1.
    10030    2    1    2    0    0  0.00000000000E+00  0.00000000000E+00  0.18692873601E+04  0.25950023740E+04  0.17999450233E+04 0.  0.
        3    1    3    3  502    0 -0.59889102939E+03  0.65847712930E+03  0.11263855065E+04  0.14356207418E+04  0.10100000352E+00 0. -1.
       -3    1    3    3    0  502  0.59889102939E+03 -0.65847712930E+03  0.74290185359E+03  0.11593816322E+04  0.10100000352E+00 0.  1.
</event>
<event>
 5   0  0.4953155E-06  0.1800624E+04  0.7818609E-02  0.8705968E-01
        1   -1    0    0  501    0  0.00000000000E+00  0.00000000000E+00  0.17146582590E+04  0.17146582590E+04  0.50400001928E-02 0. -1.
       -1   -1    0    0    0  501  0.00000000000E+00  0.00000000000E+00 -0.47272504601E+03  0.47272504603E+03  0.50400001928E-02 0.  1.
    10030    2    1    2    0    0  0.00000000000E+00  0.00000000000E+00  0.12419332130E+04  0.21873833050E+04  0.18006242300E+04 0.  0.
        2    1    3    3  502    0 -0.23752480687E+02 -0.55150841293E+03 -0.24301949043E+03  0.60314524172E+03  0.25500000920E-02 0.  1.
       -2    1    3    3    0  502  0.23752480687E+02  0.55150841293E+03  0.14849527034E+04  0.15842380633E+04  0.25500000920E-02 0. -1.
</event>
<event>
 5   0  0.1036381E-05  0.1800515E+04  0.7818609E-02  0.8706026E-01
       -2   -1    0    0    0  501  0.00000000000E+00  0.00000000000E+00  0.55374496317E+03  0.55374496317E+03  0.25500000920E-02 0.  1.
        2   -1    0    0  501    0  0.00000000000E+00  0.00000000000E+00 -0.14636040978E+04  0.14636040978E+04  0.25500000920E-02 0. -1.
    10030    2    1    2    0    0  0.00000000000E+00  0.00000000000E+00 -0.90985913466E+03  0.20173490610E+04  0.18005148122E+04 0.  0.
        4    1    3    3  502    0  0.14317263923E+03 -0.25770516291E+03 -0.14079869606E+04  0.14385198120E+04  0.12699999809E+01 0. -1.
       -4    1    3    3    0  502 -0.14317263923E+03  0.25770516291E+03  0.49812782590E+03  0.57882924896E+03  0.12699999809E+01 0.  1.
</event>
<event>
 5   0  0.4983159E-06  0.1800516E+04  0.7818609E-02  0.8706025E-01
       -1   -1    0    0    0  501  0.00000000000E+00  0.00000000000E+00  0.18318163713E+04  0.18318163713E+04  0.50400001928E-02 0. -1.
        1   -1    0    0  501    0  0.00000000000E+00  0.00000000000E+00 -0.44243770375E+03  0.44243770377E+03  0.50400001928E-02 0.  1.
    10030    2    1    2    0    0  0.00000000000E+00  0.00000000000E+00  0.13893786675E+04  0.22742540751E+04  0.18005161805E+04 0.  0.
        4    1    3    3  502    0  0.75016402058E+03  0.53317063389E+01  0.66059624660E+02  0.75308696163E+03  0.12699999809E+01 0. -1.
       -4    1    3    3    0  502 -0.75016402058E+03 -0.53317063389E+01  0.13233190429E+04  0.15211671134E+04  0.12699999809E+01 0.  1.
</event>
<event>
 5   0  0.1036381E-05  0.1799168E+04  0.7818609E-02  0.8706742E-01
       -2   -1    0    0    0  501  0.00000000000E+00  0.00000000000E+00  0.58994486731E+03  0.58994486732E+03  0.25500000920E-02 0.  1.
        2   -1    0    0  501    0  0.00000000000E+00  0.00000000000E+00 -0.13717407071E+04  0.13717407071E+04  0.25500000920E-02 0. -1.
    10030    2    1    2    0    0  0.00000000000E+00  0.00000000000E+00 -0.78179583974E+03  0.19616855744E+04  0.17991680182E+04 0.  0.
        4    1    3    3  502    0 -0.10274057798E+03  0.89238069423E+03 -0.44376311413E+03  0.10019112956E+04  0.12699999809E+01 0. -1.
       -4    1    3    3    0  502  0.10274057798E+03 -0.89238069423E+03 -0.33803272562E+03  0.95977427882E+03  0.12699999809E+01 0.  1.
</event>
<event>
 5   0  0.9999162E-06  0.1799698E+04  0.7818609E-02  0.8706460E-01
       -2   -1    0    0    0  501  0.00000000000E+00  0.00000000000E+00  0.41485584865E+03  0.41485584866E+03  0.25500000920E-02 0. -1.
        2   -1    0    0  501    0  0.00000000000E+00  0.00000000000E+00 -0.19518300674E+04  0.19518300674E+04  0.25500000920E-02 0.  1.
    10030    2    1    2    0    0  0.00000000000E+00  0.00000000000E+00 -0.15369742188E+04  0.23666859161E+04  0.17996978847E+04 0.  0.
        1    1    3    3  502    0 -0.46257145520E+03 -0.10519422320E+03 -0.17740374840E+04  0.18363679289E+04  0.50400001928E-02 0.  1.
       -1    1    3    3    0  502  0.46257145520E+03  0.10519422320E+03  0.23706326522E+03  0.53031798716E+03  0.50400001928E-02 0. -1.
</event>
<event>
 5   0  0.9589963E-06  0.1802155E+04  0.7818609E-02  0.8705154E-01
       -2   -1    0    0    0  501  0.00000000000E+00  0.00000000000E+00  0.27759166832E+03  0.27759166834E+03  0.25500000920E-02 0. -1.
        2   -1    0    0  501    0  0.00000000000E+00  0.00000000000E+00 -0.29249465153E+04  0.29249465153E+04  0.25500000920E-02 0.  1.
    10030    2    1    2    0    0  0.00000000000E+00  0.00000000000E+00 -0.26473548470E+04  0.32025381837E+04  0.18021551354E+04 0.  0.
        2    1    3    3  502    0  0.85176113877E+03 -0.29375701780E+03 -0.13018723845E+04  0.15832441152E+04  0.25500000920E-02 0. -1.
       -2    1    3    3    0  502 -0.85176113877E+03  0.29375701780E+03 -0.13454824626E+04  0.16192940684E+04  0.25500000920E-02 0.  1.
</event>
<event>
 5   0  0.4987456E-06  0.1799945E+04  0.7818609E-02  0.8706329E-01
        1   -1    0    0  501    0  0.00000000000E+00  0.00000000000E+00  0.20186438664E+04  0.20186438664E+04  0.50400001928E-02 0. -1.
       -1   -1    0    0    0  501  0.00000000000E+00  0.00000000000E+00 -0.40123491622E+03  0.40123491625E+03  0.50400001928E-02 0.  1.
    10030    2    1    2    0    0  0.00000000000E+00  0.00000000000E+00  0.16174089502E+04  0.24198787827E+04  0.17999448910E+04 0.  0.
        3    1    3    3  502    0  0.23200260585E+03  0.44784050733E+03  0.18107823562E+04  0.18797124995E+04  0.10100000352E+00 0. -1.
       -3    1    3    3    0  502 -0.23200260585E+03 -0.44784050733E+03 -0.19337340598E+03  0.54016628317E+03  0.10100000352E+00 0.  1.
</event>
<event>
 5   0  0.4994123E-06  0.1800000E+04  0.7818609E-02  0.8706299E-01
        1   -1    0    0  501    0  0.00000000000E+00  0.00000000000E+00  0.12659662948E+04  0.12659662949E+04  0.50400001928E-02 0.  1.
       -1   -1    0    0    0  501  0.00000000000E+00  0.00000000000E+00 -0.63982755302E+03  0.63982755304E+03  0.50400001928E-02 0. -1.
    10030    2    1    2    0    0  0.00000000000E+00  0.00000000000E+00  0.62613874182E+03  0.19057938479E+04  0.18000001296E+04 0.  0.
        1    1    3    3  502    0  0.50039008147E+03  0.50298245223E+03 -0.27320726471E+03  0.76027875835E+03  0.50400001928E-02 0. -1.
       -1    1    3    3    0  502 -0.50039008147E+03 -0.50298245223E+03  0.89934600654E+03  0.11455150895E+04  0.50400001928E-02 0.  1.
</event>
<event>
 5   0  0.4953155E-06  0.1799887E+04  0.7818609E-02  0.8706359E-01
       -1   -1    0    0    0  501  0.00000000000E+00  0.00000000000E+00  0.68085908835E+03  0.68085908837E+03  0.50400001928E-02 0.  1.
        1   -1    0    0  501    0  0.00000000000E+00  0.00000000000E+00 -0.11895244209E+04  0.11895244209E+04  0.50400001928E-02 0. -1.
    10030    2    1    2    0    0  0.00000000000E+00  0.00000000000E+00 -0.50866533256E+03  0.18703835093E+04  0.17998872329E+04 0.  0.
        2    1    3    3  502    0 -0.58921452948E+03  0.45841962843E+02 -0.95960736370E+03  0.11269966902E+04  0.25500000920E-02 0. -1.
       -2    1    3    3    0  502  0.58921452948E+03 -0.45841962843E+02  0.45094203113E+03  0.74338681907E+03  0.25500000920E-02 0.  1.
</event>
<event>
 5   0  0.9589963E-06  0.1800916E+04  0.7818609E-02  0.8705812E-01
       -2   -1    0    0    0  501  0.00000000000E+00  0.00000000000E+00  0.11871942765E+04  0.11871942765E+04  0.25500000920E-02 0.  1.
        2   -1    0    0  501    0  0.00000000000E+00  0.00000000000E+00 -0.68297557950E+03  0.68297557951E+03  0.25500000920E-02 0. -1.
    10030    2    1    2    0    0  0.00000000000E+00  0.00000000000E+00  0.50421869700E+03  0.18701698560E+04  0.18009160991E+04 0.  0.
        2    1    3    3  502    0 -0.72384287089E+03 -0.24349277358E+03 -0.24329719979E+03  0.80151778518E+03  0.25500000920E-02 0. -1.
       -2    1    3    3    0  502  0.72384287089E+03  0.24349277358E+03  0.74751589678E+03  0.10686520708E+04  0.25500000920E-02 0.  1.
</event>
<event>
 5   0  0.1000316E-05  0.1799031E+04  0.7818609E-02  0.8706815E-01
       -2   -1    0    0    0  501  0.00000000000E+00  0.00000000000E+00  0.93773950772E+03  0.93773950773E+03  0.25500000920E-02 0.  1.
        2   -1    0    0  501    0  0.00000000000E+00  0.00000000000E+00 -0.86284924577E+03  0.86284924577E+03  0.25500000920E-02 0. -1.
    10030    2    1    2    0    0  0.00000000000E+00  0.00000000000E+00  0.74890261958E+02  0.18005887535E+04  0.17990306579E+04 0.  0.
        5    1    3    3  502    0  0.75697395441E+03  0.45888647818E+03 -0.12244105350E+03  0.89364437507E+03  0.46999998093E+01 0.  1.
       -5    1    3    3    0  502 -0.75697395441E+03 -0.45888647818E+03  0.19733131546E+03  0.90694437843E+03  0.46999998093E+01 0. -1.
</event>
<event>
 5   0  0.4994123E-06  0.1800741E+04  0.7818609E-02  0.8705906E-01
       -1   -1    0    0    0  501  0.00000000000E+00  0.00000000000E+00  0.71735410471E+03  0.71735410473E+03  0.50400001928E-02 0. -1.
        1   -1    0    0  501    0  0.00000000000E+00  0.00000000000E+00 -0.11300789235E+04  0.11300789235E+04  0.50400001928E-02 0.  1.
    10030    2    1    2    0    0  0.00000000000E+00  0.00000000000E+00 -0.41272481879E+03  0.18474330282E+04  0.18007406859E+04 0.  0.
        1    1    3    3  502    0 -0.41484322185E+03 -0.10635096396E+03 -0.10188968591E+04  0.11052403520E+04  0.50400001928E-02 0.  1.
       -1    1    3    3    0  502  0.41484322185E+03  0.10635096396E+03  0.60617204027E+03  0.74219267625E+03  0.50400001928E-02 0. -1.
</event>
<event>
 5   0  0.9999162E-06  0.1801637E+04  0.7818609E-02  0.8705430E-01
        2   -1    0    0  501    0  0.00000000000E+00  0.00000000000E+00  0.12538531030E+04  0.12538531030E+04  0.25500000920E-02 0.  1.
       -2   -1    0    0    0  501  0.00000000000E+00  0.00000000000E+00 -0.64718405285E+03  0.64718405286E+03  0.25500000920E-02 0. -1.
    10030    2    1    2    0    0  0.00000000000E+00  0.00000000000E+00  0.60666905015E+03  0.19010371559E+04  0.18016367368E+04 0.  0.
        1    1    3    3  502    0 -0.65541253292E+03  0.91107214473E+01  0.95534659565E+03  0.11585921247E+04  0.50400001928E-02 0.  1.
       -1    1    3    3    0  502  0.65541253292E+03 -0.91107214473E+01 -0.34867754549E+03  0.74244503117E+03  0.50400001928E-02 0. -1.
</event>
<event>
 5   0  0.4994123E-06  0.1799879E+04  0.7818609E-02  0.8706364E-01
       -1   -1    0    0    0  501  0.00000000000E+00  0.00000000000E+00  0.11885230874E+04  0.11885230874E+04  0.50400001928E-02 0. -1.
        1   -1    0    0  501    0  0.00000000000E+00  0.00000000000E+00 -0.68142631251E+03  0.68142631252E+03  0.50400001928E-02 0.  1.
    10030    2    1    2    0    0  0.00000000000E+00  0.00000000000E+00  0.50709677485E+03  0.18699493999E+04  0.17998787790E+04 0.  0.
        1    1    3    3  502    0  0.25599908296E+03  0.77224020281E+03 -0.14613684902E+03  0.82658722466E+03  0.50400001928E-02 0.  1.
       -1    1    3    3    0  502 -0.25599908296E+03 -0.77224020281E+03  0.65323362386E+03  0.10433621752E+04  0.50400001928E-02 0. -1.
</event>
<event>
 5   0  0.1000316E-05  0.1800592E+04  0.7818609E-02  0.8705985E-01
        2   -1    0    0  501    0  0.00000000000E+00  0.00000000000E+00  0.12890048035E+04  0.12890048035E+04  0.25500000920E-02 0. -1.
       -2   -1    0    0    0  501  0.00000000000E+00  0.00000000000E+00 -0.62880522369E+03  0.62880522370E+03  0.25500000920E-02 0.  1.
    10030    2    1    2    0    0  0.00000000000E+00  0.00000000000E+00  0.66019957979E+03  0.19178100272E+04  0.18005920735E+04 0.  0.
        5    1    3    3  502    0  0.55253107454E+03 -0.10775042397E+03 -0.41821146844E+03  0.70130140776E+03  0.46999998093E+01 0.  1.
       -5    1    3    3    0  502 -0.55253107454E+03  0.10775042397E+03  0.10784110482E+04  0.12165086194E+04  0.46999998093E+01 0. -1.
</event>
<event>
 5   0  0.1036381E-05  0.1800674E+04  0.7818609E-02  0.8705941E-01
        2   -1    0    0  501    0  0.00000000000E+00  0.00000000000E+00  0.14280498562E+04  0.14280498562E+04  0.25500000920E-02 0. -1.
       -2   -1    0    0    0  501  0.00000000000E+00  0.00000000000E+00 -0.56763205821E+03  0.56763205822E+03  0.25500000920E-02 0.  1.
    10030    2    1    2    0    0  0.00000000000E+00  0.00000000000E+00  0.86041779796E+03  0.19956819144E+04  0.18006741839E+04 0.  0.
        4    1    3    3  502    0  0.34460770137E+03 -0.52426742960E+03 -0.28547513104E+03  0.68928112474E+03  0.12699999809E+01 0.  1.
       -4    1    3    3    0  502 -0.34460770137E+03  0.52426742960E+03  0.11458929290E+04  0.13064007897E+04  0.12699999809E+01 0. -1.
</event>
<event>
 5   0  0.1000316E-05  0.1800052E+04  0.7818609E-02  0.8706272E-01
       -2   -1    0    0    0  501  0.00000000000E+00  0.00000000000E+00  0.51143252927E+03  0.51143252928E+03  0.25500000920E-02 0.  1.
        2   -1    0    0  501    0  0.00000000000E+00  0.00000000000E+00 -0.15838785965E+04  0.15838785965E+04  0.25500000920E-02 0. -1.
    10030    2    1    2    0    0  0.00000000000E+00  0.00000000000E+00 -0.10724460672E+04  0.20953111258E+04  0.18000522622E+04 0.  0.
        5    1    3    3  502    0 -0.65055320787E+03  0.56563804057E+03 -0.23523890548E+03  0.89360242942E+03  0.46999998093E+01 0. -1.
       -5    1    3    3    0  502  0.65055320787E+03 -0.56563804057E+03 -0.83720716174E+03  0.12017086963E+04  0.46999998093E+01 0.  1.
</event>
<event>
 5   0  0.1000316E-05  0.1798753E+04  0.7818609E-02  0.8706963E-01
        2   -1    0    0  501    0  0.00000000000E+00  0.00000000000E+00  0.12199013917E+04  0.12199013917E+04  0.25500000920E-02 0. -1.
       -2   -1    0    0    0  501  0.00000000000E+00  0.00000000000E+00 -0.66306808978E+03  0.66306808978E+03  0.25500000920E-02 0.  1.
    10030    2    1    2    0    0  0.00000000000E+00  0.00000000000E+00  0.55683330196E+03  0.18829694815E+04  0.17987525517E+04 0.  0.
        5    1    3    3  502    0  0.35629606712E+03 -0.69077647083E+03  0.75207977554E+03  0.10815567941E+04  0.46999998093E+01 0.  1.
       -5    1    3    3    0  502 -0.35629606712E+03  0.69077647083E+03 -0.19524647358E+03  0.80141268741E+03  0.46999998093E+01 0. -1.
</event>
<event>
 5   0  0.3626125E-06  0.1799943E+04  0.7818609E-02  0.8706330E-01
       -4   -1    0    0    0  501  0.00000000000E+00  0.00000000000E+00  0.47725912530E+03  0.47726081505E+03  0.12699999809E+01 0. -1.
        4   -1    0    0  501    0  0.00000000000E+00  0.00000000000E+00 -0.16970794537E+04  0.16970799289E+04  0.12699999809E+01 0.  1.
    10030    2    1    2    0    0  0.00000000000E+00  0.00000000000E+00 -0.12198203284E+04  0.21743407439E+04  0.17999433428E+04 0.  0.
        5    1    3    3  502    0  0.82092618665E+03 -0.29353855252E+03 -0.87960182452E+03  0.12384692751E+04  0.46999998093E+01 0. -1.
       -5    1    3    3    0  502 -0.82092618665E+03  0.29353855252E+03 -0.34021850384E+03  0.93587146879E+03  0.46999998093E+01 0.  1.
</event>
<event>
 5   0  0.9999162E-06  0.1800227E+04  0.7818609E-02  0.8706179E-01
       -2   -1    0    0    0  501  0.00000000000E+00  0.00000000000E+00  0.75429139586E+03  0.75429139586E+03  0.25500000920E-02 0. -1.
        2   -1    0    0  501    0  0.00000000000E+00  0.00000000000E+00 -0.10741262317E+04  0.10741262317E+04  0.25500000920E-02 0.  1.
    10030    2    1    2    0    0  0.00000000000E+00  0.00000000000E+00 -0.31983483588E+03  0.18284176276E+04  0.18002268464E+04 0.  0.
        1    1    3    3  502    0 -0.22434967472E+03 -0.12649454524E+03 -0.10359027655E+04  0.10674400153E+04  0.50400001928E-02 0.  1.
       -1    1    3    3    0  502  0.22434967472E+03  0.12649454524E+03  0.71606792967E+03  0.76097761232E+03  0.50400001928E-02 0. -1.
</event>
<event>
 5   0  0.4953155E-06  0.1800522E+04  0.7818609E-02  0.8706022E-01
        1   -1    0    0  501    0  0.00000000000E+00  0.00000000000E+00  0.75875693597E+03  0.75875693598E+03  0.50400001928E-02 0. -1.
       -1   -1    0    0    0  501  0.00000000000E+00  0.00000000000E+00 -0.10681542239E+04  0.10681542239E+04  0.50400001928E-02 0.  1.
    10030    2    1    2    0    0  0.00000000000E+00  0.00000000000E+00 -0.30939728792E+03  0.18269111599E+04  0.18005215090E+04 0.  0.
        2    1    3    3  502    0  0.10895221341E+03 -0.50835198302E+02 -0.10599717909E+04  0.10667684846E+04  0.25500000920E-02 0.  1.
       -2    1    3    3    0  502 -0.10895221341E+03  0.50835198302E+02  0.75057450301E+03  0.76014267527E+03  0.25500000920E-02 0. -1.
</event>
<event>
 5   0  0.1036381E-05  0.1799752E+04  0.7818609E-02  0.8706431E-01
       -2   -1    0    0    0  501  0.00000000000E+00  0.00000000000E+00  0.45386333117E+03  0.45386333118E+03  0.25500000920E-02 0.  1.
        2   -1    0    0  501    0  0.00000000000E+00  0.00000000000E+00 -0.17841862675E+04  0.17841862675E+04  0.25500000920E-02 0. -1.
    10030    2    1    2    0    0  0.00000000000E+00  0.00000000000E+00 -0.13303229364E+04  0.22380495987E+04  0.17997518971E+04 0.  0.
        4    1    3    3  502    0  0.15506000860E+03  0.41473543124E+03 -0.16393529708E+04  0.16980956569E+04  0.12699999809E+01 0. -1.
       -4    1    3    3    0  502 -0.15506000860E+03 -0.41473543124E+03  0.30903003444E+03  0.53995394182E+03  0.12699999809E+01 0.  1.
</event>
<event>
 5   0  0.4987456E-06  0.1801128E+04  0.7818609E-02  0.8705700E-01
        1   -1    0    0  501    0  0.00000000000E+00  0.00000000000E+00  0.52732477119E+03  0.52732477121E+03  0.50400001928E-02 0.  1.
       -1   -1    0    0    0  501  0.00000000000E+00  0.00000000000E+00 -0.15379815710E+04  0.15379815710E+04  0.50400001928E-02 0. -1.
    10030    2    1    2    0    0  0.00000000000E+00  0.00000000000E+00 -0.10106567998E+04  0.20653063422E+04  0.18011282909E+04 0.  0.
        3    1    3    3  502    0 -0.89582518024E+03  0.73280735978E+02 -0.44104355993E+03  0.10011954114E+04  0.10100000352E+00 0.  1.
       -3    1    3    3    0  502  0.89582518024E+03 -0.73280735978E+02 -0.56961323985E+03  0.10641109308E+04  0.10100000352E+00 0. -1.
</event>
<event>
 5   0  0.1035018E-05  0.1799923E+04  0.7818609E-02  0.8706341E-01
        2   -1    0    0  501    0  0.00000000000E+00  0.00000000000E+00  0.92413005600E+03  0.92413005600E+03  0.25500000920E-02 0. -1.
       -2   -1    0    0    0  501  0.00000000000E+00  0.00000000000E+00 -0.87642475219E+03  0.87642475220E+03  0.25500000920E-02 0.  1.
    10030    2    1    2    0    0  0.00000000000E+00  0.00000000000E+00  0.47705303805E+02  0.18005548082E+04  0.17999227265E+04 0.  0.
        3    1    3    3  502    0  0.71893505071E+03  0.33695589773E+03  0.44770365196E+03  0.91150724317E+03  0.10100000352E+00 0. -1.
       -3    1    3    3    0  502 -0.71893505071E+03 -0.33695589773E+03 -0.39999834816E+03  0.88904756503E+03  0.10100000352E+00 0.  1.
</event>
<event>
 5   0  0.4983159E-06  0.1803038E+04  0.7818609E-02  0.8704686E-01
        1   -1    0    0  501    0  0.00000000000E+00  0.00000000000E+00  0.79802989271E+03  0.79802989273E+03  0.50400001928E-02 0. -1.
       -1   -1    0    0    0  501  0.00000000000E+00  0.00000000000E+00 -0.10184285404E+04  0.10184285404E+04  0.50400001928E-02 0.  1.
    10030    2    1    2    0    0  0.00000000000E+00  0.00000000000E+00 -0.22039864769E+03  0.18164584331E+04  0.18030379018E+04 0.  0.
        4    1    3    3  502    0  0.65026322129E+03 -0.20165216335E+03  0.48515529814E+03  0.83599230149E+03  0.12699999809E+01 0. -1.
       -4    1    3    3    0  502 -0.65026322129E+03  0.20165216335E+03 -0.70555394583E+03  0.98046613165E+03  0.12699999809E+01 0.  1.
</event>
<event>
 5   0  0.9999162E-06  0.1799656E+04  0.7818609E-02  0.8706483E-01
        2   -1    0    0  501    0  0.00000000000E+00  0.00000000000E+00  0.14651522128E+04  0.14651522128E+04  0.25500000920E-02 0. -1.
       -2   -1    0    0    0  501  0.00000000000E+00  0.00000000000E+00 -0.55263209070E+03  0.55263209071E+03  0.25500000920E-02 0.  1.
    10030    2    1    2    0    0  0.00000000000E+00  0.00000000000E+00  0.91252012208E+03  0.20177843035E+04  0.17996556677E+04 0.  0.
        1    1    3    3  502    0 -0.42768000200E+03 -0.21460993993E+03 -0.39815649453E+03  0.62249193134E+03  0.50400001928E-02 0.  1.
       -1    1    3    3    0  502  0.42768000200E+03  0.21460993993E+03  0.13106766166E+04  0.13952923721E+04  0.50400001928E-02 0. -1.
</event>
<event>
 5   0  0.4981384E-06  0.1800213E+04  0.7818609E-02  0.8706186E-01
        1   -1    0    0  501    0  0.00000000000E+00  0.00000000000E+00  0.11516116188E+04  0.11516116189E+04  0.50400001928E-02 0.  1.
       -1   -1    0    0    0  501  0.00000000000E+00  0.00000000000E+00 -0.70352891235E+03  0.70352891237E+03  0.50400001928E-02 0. -1.
    10030    2    1    2    0    0  0.00000000000E+00  0.00000000000E+00  0.44808270649E+03  0.18551405312E+04  0.18002133981E+04 0.  0.
        5    1    3    3  502    0  0.69815832341E+03 -0.55476007435E+03  0.97888082501E+02  0.89709974436E+03  0.46999998093E+01 0. -1.
       -5    1    3    3    0  502 -0.69815832341E+03  0.55476007435E+03  0.35019462399E+03  0.95804078687E+03  0.46999998093E+01 0.  1.
</event>
<event>
 5   0  0.4983159E-06  0.1800307E+04  0.7818609E-02  0.8706136E-01
        1   -1    0    0  501    0  0.00000000000E+00  0.00000000000E+00  0.25680409564E+04  0.25680409564E+04  0.50400001928E-02 0. -1.
       -1   -1    0    0    0  501  0.00000000000E+00  0.00000000000E+00 -0.31552320890E+03  0.31552320894E+03  0.50400001928E-02 0.  1.
    10030    2    1    2    0    0  0.00000000000E+00  0.00000000000E+00  0.22525177475E+04  0.28835641653E+04  0.18003072218E+04 0.  0.
        4    1    3    3  502    0 -0.42013141440E+03 -0.62749438208E+03  0.19109567272E+04  0.20547546888E+04  0.12699999809E+01 0. -1.
       -4    1    3    3    0  502  0.42013141440E+03  0.62749438208E+03  0.34156102025E+03  0.82880947652E+03  0.12699999809E+01 0.  1.
</event>
<event>
 5   0  0.1035018E-05  0.1800284E+04  0.7818609E-02  0.8706148E-01
       -2   -1    0    0    0  501  0.00000000000E+00  0.00000000000E+00  0.56337128635E+03  0.56337128636E+03  0.25500000920E-02 0.  1.
        2   -1    0    0  501    0  0.00000000000E+00  0.00000000000E+00 -0.14382271112E+04  0.14382271112E+04  0.25500000920E-02 0. -1.
    10030    2    1    2    0    0  0.00000000000E+00  0.00000000000E+00 -0.87485582483E+03  0.20015983975E+04  0.18002842639E+04 0.  0.
        3    1    3    3  502    0  0.69709307947E+03  0.56631587045E+03 -0.50416901214E+03  0.10299703052E+04  0.10100000352E+00 0. -1.
       -3    1    3    3    0  502 -0.69709307947E+03 -0.56631587045E+03 -0.37068681269E+03  0.97162809236E+03  0.10100000352E+00 0.  1.
</event>
<event>
 5   0  0.4981384E-06  0.1799656E+04  0.7818609E-02  0.8706483E-01
       -1   -1    0    0    0  501  0.00000000000E+00  0.00000000000E+00  0.89712742803E+03  0.89712742804E+03  0.50400001928E-02 0. -1.
        1   -1    0    0  501    0  0.00000000000E+00  0.00000000000E+00 -0.90253654241E+03  0.90253654243E+03  0.50400001928E-02 0.  1.
    10030    2    1    2    0    0  0.00000000000E+00  0.00000000000E+00 -0.54091143890E+01  0.17996639705E+04  0.17996558416E+04 0.  0.
        5    1    3    3  502    0  0.45994345298E+03  0.38730968988E+03  0.66670971617E+03  0.89781997719E+03  0.46999998093E+01 0.  1.
       -5    1    3    3    0  502 -0.45994345298E+03 -0.38730968988E+03 -0.67211883056E+03  0.90184399327E+03  0.46999998093E+01 0. -1.
</event>
<event>
 5   0  0.4987456E-06  0.1800015E+04  0.7818609E-02  0.8706291E-01
       -1   -1    0    0    0  501  0.00000000000E+00  0.00000000000E+00  0.50955282700E+03  0.50955282702E+03  0.50400001928E-02 0. -1.
        1   -1    0    0  501    0  0.00000000000E+00  0.00000000000E+00 -0.15896557571E+04  0.15896557571E+04  0.50400001928E-02 0.  1.
    10030    2    1    2    0    0  0.00000000000E+00  0.00000000000E+00 -0.10801029301E+04  0.20992085841E+04  0.18000150944E+04 0.  0.
        3    1    3    3  502    0  0.41685895678E+03 -0.79633759990E+03 -0.59334914787E+03  0.10770274761E+04  0.10100000352E+00 0. -1.
       -3    1    3    3    0  502 -0.41685895678E+03  0.79633759990E+03 -0.48675378224E+03  0.10221811080E+04  0.10100000352E+00 0.  1.
</event>
<event>
 5   0  0.4953155E-06  0.1799287E+04  0.7818609E-02  0.8706679E-01
        1   -1    0    0  501    0  0.00000000000E+00  0.00000000000E+00  0.11746667776E+04  0.11746667776E+04  0.50400001928E-02 0. -1.
       -1   -1    0    0    0  501  0.00000000000E+00  0.00000000000E+00 -0.68901079878E+03  0.68901079880E+03  0.50400001928E-02 0.  1.
    10030    2    1    2    0    0  0.00000000000E+00  0.00000000000E+00  0.48565597884E+03  0.18636775764E+04  0.17992866306E+04 0.  0.
        2    1    3    3  502    0 -0.65182151489E+03  0.59289802980E+03  0.54785632522E+02  0.88283680629E+03  0.25500000920E-02 0.  1.
       -2    1    3    3    0  502  0.65182151489E+03 -0.59289802980E+03  0.43087034632E+03  0.98084077013E+03  0.25500000920E-02 0. -1.
</event>
<event>
 5   0  0.9589963E-06  0.1797647E+04  0.7818609E-02  0.8707552E-01
        2   -1    0    0  501    0  0.00000000000E+00  0.00000000000E+00  0.83728213814E+03  0.83728213814E+03  0.25500000920E-02 0. -1.
       -2   -1    0    0    0  501  0.00000000000E+00  0.00000000000E+00 -0.96488818793E+03  0.96488818793E+03  0.25500000920E-02 0.  1.
    10030    2    1    2    0    0  0.00000000000E+00  0.00000000000E+00 -0.12760604979E+03  0.18021703261E+04  0.17976469565E+04 0.  0.
        2    1    3    3  502    0  0.93139167439E+02 -0.41894813722E+03  0.72792540193E+03  0.84502534694E+03  0.25500000920E-02 0. -1.
       -2    1    3    3    0  502 -0.93139167439E+02  0.41894813722E+03 -0.85553145172E+03  0.95714497914E+03  0.25500000920E-02 0.  1.
</event>
<event>
 5   0  0.4953155E-06  0.1798727E+04  0.7818609E-02  0.8706977E-01
       -1   -1    0    0    0  501  0.00000000000E+00  0.00000000000E+00  0.47373672253E+03  0.47373672255E+03  0.50400001928E-02 0.  1.
        1   -1    0    0  501    0  0.00000000000E+00  0.00000000000E+00 -0.17073919499E+04  0.17073919500E+04  0.50400001928E-02 0. -1.
    10030    2    1    2    0    0  0.00000000000E+00  0.00000000000E+00 -0.12336552274E+04  0.21811286725E+04  0.17987265123E+04 0.  0.
        2    1    3    3  502    0 -0.75065820681E+03 -0.13643615422E+03 -0.11942470863E+04  0.14171551329E+04  0.25500000920E-02 0. -1.
       -2    1    3    3    0  502  0.75065820681E+03  0.13643615422E+03 -0.39408141157E+02  0.76397353961E+03  0.25500000920E-02 0.  1.
</event>
<event>
 5   0  0.4953155E-06  0.1801321E+04  0.7818609E-02  0.8705597E-01
        1   -1    0    0  501    0  0.00000000000E+00  0.00000000000E+00  0.68563832195E+03  0.68563832197E+03  0.50400001928E-02 0. -1.
       -1   -1    0    0    0  501  0.00000000000E+00  0.00000000000E+00 -0.11831150654E+04  0.11831150654E+04  0.50400001928E-02 0.  1.
    10030    2    1    2    0    0  0.00000000000E+00  0.00000000000E+00 -0.49747674341E+03  0.18687533874E+04  0.18013206579E+04 0.  0.
        2    1    3    3  502    0 -0.53416720536E+03 -0.24371132652E+03 -0.95728396511E+03  0.11229970631E+04  0.25500000920E-02 0.  1.
       -2    1    3    3    0  502  0.53416720536E+03  0.24371132652E+03  0.45980722170E+03  0.74575632421E+03  0.25500000920E-02 0. -1.
</event>
<event>
 5   0  0.4987456E-06  0.1800146E+04  0.7818609E-02  0.8706222E-01
        1   -1    0    0  501    0  0.00000000000E+00  0.00000000000E+00  0.88288114149E+03  0.88288114151E+03  0.50400001928E-02 0.  1.
       -1   -1    0    0    0  501  0.00000000000E+00  0.00000000000E+00 -0.91759943421E+03  0.91759943423E+03  0.50400001928E-02 0. -1.
    10030    2    1    2    0    0  0.00000000000E+00  0.00000000000E+00 -0.34718292717E+02  0.18004805757E+04  0.18001458118E+04 0.  0.
        3    1    3    3  502    0 -0.59020871403E+03 -0.43197920639E+03 -0.54203163621E+03  0.91035743844E+03  0.10100000352E+00 0.  1.
       -3    1    3    3    0  502  0.59020871403E+03  0.43197920639E+03  0.50731334349E+03  0.89012313730E+03  0.10100000352E+00 0. -1.
</event>
<event>
 5   0  0.9999162E-06  0.1801709E+04  0.7818609E-02  0.8705391E-01
       -2   -1    0    0    0  501  0.00000000000E+00  0.00000000000E+00  0.95213916112E+03  0.95213916113E+03  0.25500000920E-02 0.  1.
        2   -1    0    0  501    0  0.00000000000E+00  0.00000000000E+00 -0.85233221698E+03  0.85233221698E+03  0.25500000920E-02 0. -1.
    10030    2    1    2    0    0  0.00000000000E+00  0.00000000000E+00  0.99806944147E+02  0.18044713781E+04  0.18017090576E+04 0.  0.
        1    1    3    3  502    0  0.41444335702E+03  0.77040417285E+03 -0.16549135646E+03  0.89032200625E+03  0.50400001928E-02 0.  1.
       -1    1    3    3    0  502 -0.41444335702E+03 -0.77040417285E+03  0.26529830061E+03  0.91414937185E+03  0.50400001928E-02 0. -1.
</event>
<event>
 5   0  0.1036381E-05  0.1799760E+04  0.7818609E-02  0.8706427E-01
        2   -1    0    0  501    0  0.00000000000E+00  0.00000000000E+00  0.13927122813E+04  0.13927122813E+04  0.25500000920E-02 0. -1.
       -2   -1    0    0    0  501  0.00000000000E+00  0.00000000000E+00 -0.58144358819E+03  0.58144358820E+03  0.25500000920E-02 0.  1.
    10030    2    1    2    0    0  0.00000000000E+00  0.00000000000E+00  0.81126869316E+03  0.19741558695E+04  0.17997595686E+04 0.  0.
        4    1    3    3  502    0 -0.54274835108E+03  0.58402264020E+03 -0.52081567014E+02  0.79898205198E+03  0.12699999809E+01 0.  1.
       -4    1    3    3    0  502  0.54274835108E+03 -0.58402264020E+03  0.86335026017E+03  0.11751738176E+04  0.12699999809E+01 0. -1.
</event>
<event>
 5   0  0.4994123E-06  0.1798125E+04  0.7818609E-02  0.8707297E-01
        1   -1    0    0  501    0  0.00000000000E+00  0.00000000000E+00  0.16816352467E+04  0.16816352467E+04  0.50400001928E-02 0.  1.
       -1   -1    0    0    0  501  0.00000000000E+00  0.00000000000E+00 -0.48067088587E+03  0.48067088590E+03  0.50400001928E-02 0. -1.
    10030    2    1    2    0    0  0.00000000000E+00  0.00000000000E+00  0.12009643608E+04  0.21623061326E+04  0.17981246940E+04 0.  0.
        1    1    3    3  502    0 -0.81925228293E+03 -0.15143434139E+03  0.10068718629E+04  0.13068655674E+04  0.50400001928E-02 0. -1.
       -1    1    3    3    0  502  0.81925228293E+03  0.15143434139E+03  0.19409249790E+03  0.85544056521E+03  0.50400001928E-02 0.  1.
</event>
<event>
 5   0  0.9999162E-06  0.1800138E+04  0.7818609E-02  0.8706226E-01
        2   -1    0    0  501    0  0.00000000000E+00  0.00000000000E+00  0.11200558330E+04  0.11200558330E+04  0.25500000920E-02 0. -1.
       -2   -1    0    0    0  501  0.00000000000E+00  0.00000000000E+00 -0.72328902418E+03  0.72328902419E+03  0.25500000920E-02 0.  1.
    10030    2    1    2    0    0  0.00000000000E+00  0.00000000000E+00  0.39676680884E+03  0.18433448572E+04  0.18001378731E+04 0.  0.
        1    1    3    3  502    0  0.44412379780E+03  0.44940301852E+03 -0.45802911695E+03  0.78038432380E+03  0.50400001928E-02 0.  1.
       -1    1    3    3    0  502 -0.44412379780E+03 -0.44940301852E+03  0.85479592578E+03  0.10629605334E+04  0.50400001928E-02 0. -1.
</event>
<event>
 5   0  0.1036381E-05  0.1800508E+04  0.7818609E-02  0.8706029E-01
       -2   -1    0    0    0  501  0.00000000000E+00  0.00000000000E+00  0.71904617586E+03  0.71904617587E+03  0.25500000920E-02 0. -1.
        2   -1    0    0  501    0  0.00000000000E+00  0.00000000000E+00 -0.11271286233E+04  0.11271286233E+04  0.25500000920E-02 0.  1.
    10030    2    1    2    0    0  0.00000000000E+00  0.00000000000E+00 -0.40808244748E+03  0.18461747992E+04  0.18005082908E+04 0.  0.
        4    1    3    3  502    0 -0.52444660670E+03  0.68420417807E+03 -0.46999660595E+03  0.98187474918E+03  0.12699999809E+01 0.  1.
       -4    1    3    3    0  502  0.52444660670E+03 -0.68420417807E+03  0.61914158472E+02  0.86430005003E+03  0.12699999809E+01 0. -1.
</event>
<event>
 5   0  0.1000316E-05  0.1799698E+04  0.7818609E-02  0.8706460E-01
       -2   -1    0    0    0  501  0.00000000000E+00  0.00000000000E+00  0.16011861079E+04  0.16011861079E+04  0.25500000920E-02 0. -1.
        2   -1    0    0  501    0  0.00000000000E+00  0.00000000000E+00 -0.50570524728E+03  0.50570524729E+03  0.25500000920E-02 0.  1.
    10030    2    1    2    0    0  0.00000000000E+00  0.00000000000E+00  0.10954808606E+04  0.21068913552E+04  0.17996979932E+04 0.  0.
        5    1    3    3  502    0  0.44843051878E+03  0.49474545409E+03 -0.15841385605E+03  0.68627985130E+03  0.46999998093E+01 0. -1.
       -5    1    3    3    0  502 -0.44843051878E+03 -0.49474545409E+03  0.12538947167E+04  0.14206115039E+04  0.46999998093E+01 0.  1.
</event>
<event>
 5   0  0.9999162E-06  0.1799239E+04  0.7818609E-02  0.8706704E-01
        2   -1    0    0  501    0  0.00000000000E+00  0.00000000000E+00  0.11187733340E+04  0.11187733340E+04  0.25500000920E-02 0.  1.
       -2   -1    0    0    0  501  0.00000000000E+00  0.00000000000E+00 -0.72339541757E+03  0.72339541758E+03  0.25500000920E-02 0. -1.
    10030    2    1    2    0    0  0.00000000000E+00  0.00000000000E+00  0.39537791643E+03  0.18421687516E+04  0.17992392872E+04 0.  0.
        1    1    3    3  502    0  0.23986174707E+02  0.64014647280E+03 -0.44900852098E+03  0.78228606990E+03  0.50400001928E-02 0. -1.
       -1    1    3    3    0  502 -0.23986174707E+02 -0.64014647280E+03  0.84438643742E+03  0.10598826817E+04  0.50400001928E-02 0.  1.
</event>
<event>
 5   0  0.1000316E-05  0.1808054E+04  0.7818609E-02  0.8702028E-01
       -2   -1    0    0    0  501  0.00000000000E+00  0.00000000000E+00  0.71836710209E+03  0.71836710209E+03  0.25500000920E-02 0. -1.
        2   -1    0    0  501    0  0.00000000000E+00  0.00000000000E+00 -0.11376703488E+04  0.11376703488E+04  0.25500000920E-02 0.  1.
    10030    2    1    2    0    0  0.00000000000E+00  0.00000000000E+00 -0.41930324675E+03  0.18560374509E+04  0.18080541492E+04 0.  0.
        5    1    3    3  502    0  0.20745724243E+02 -0.13182729392E+03  0.70818761621E+03  0.72066678170E+03  0.46999998093E+01 0. -1.
       -5    1    3    3    0  502 -0.20745724243E+02  0.13182729392E+03 -0.11274908630E+04  0.11353706692E+04  0.46999998093E+01 0.  1.
</event>
<event>
 5   0  0.9999162E-06  0.1799293E+04  0.7818609E-02  0.8706676E-01
        2   -1    0    0  501    0  0.00000000000E+00  0.00000000000E+00  0.13702244271E+04  0.13702244271E+04  0.25500000920E-02 0. -1.
       -2   -1    0    0    0  501  0.00000000000E+00  0.00000000000E+00 -0.59067956160E+03  0.59067956160E+03  0.25500000920E-02 0.  1.
    10030    2    1    2    0    0  0.00000000000E+00  0.00000000000E+00  0.77954486549E+03  0.19609039887E+04  0.17992927098E+04 0.  0.
        1    1    3    3  502    0  0.52523943963E+03  0.63281296323E+03  0.78727251172E+03  0.11384756138E+04  0.50400001928E-02 0. -1.
       -1    1    3    3    0  502 -0.52523943963E+03 -0.63281296323E+03 -0.77276462313E+01  0.82242837494E+03  0.50400001928E-02 0.  1.
</event>
<event>
 5   0  0.4983159E-06  0.1793930E+04  0.7818609E-02  0.8709534E-01
       -1   -1    0    0    0  501  0.00000000000E+00  0.00000000000E+00  0.44914243847E+03  0.44914243850E+03  0.50400001928E-02 0. -1.
        1   -1    0    0  501    0  0.00000000000E+00  0.00000000000E+00 -0.17912934246E+04  0.17912934246E+04  0.50400001928E-02 0.  1.
    10030    2    1    2    0    0  0.00000000000E+00  0.00000000000E+00 -0.13421509861E+04  0.22404358631E+04  0.17939296494E+04 0.  0.
        4    1    3    3  502    0  0.29856660312E+03 -0.50973695340E+03  0.17188051005E+03  0.61523840972E+03  0.12699999809E+01 0. -1.
       -4    1    3    3    0  502 -0.29856660312E+03  0.50973695340E+03 -0.15140314961E+04  0.16251974533E+04  0.12699999809E+01 0.  1.
</event>
<event>
 5   0  0.4987456E-06  0.1800128E+04  0.7818609E-02  0.8706231E-01
        1   -1    0    0  501    0  0.00000000000E+00  0.00000000000E+00  0.17328779057E+04  0.17328779057E+04  0.50400001928E-02 0.  1.
       -1   -1    0    0    0  501  0.00000000000E+00  0.00000000000E+00 -0.46749721469E+03  0.46749721471E+03  0.50400001928E-02 0. -1.
    10030    2    1    2    0    0  0.00000000000E+00  0.00000000000E+00  0.12653806910E+04  0.22003751204E+04  0.18001284336E+04 0.  0.
        3    1    3    3  502    0 -0.58067147094E+03 -0.61579205051E+03  0.25845283373E+03  0.88497292846E+03  0.10100000352E+00 0. -1.
       -3    1    3    3    0  502  0.58067147094E+03  0.61579205051E+03  0.10069278573E+04  0.13154021920E+04  0.10100000352E+00 0.  1.
</event>
<event>
 5   0  0.9999162E-06  0.1800950E+04  0.7818609E-02  0.8705795E-01
        2   -1    0    0  501    0  0.00000000000E+00  0.00000000000E+00  0.71048007966E+03  0.71048007966E+03  0.25500000920E-02 0.  1.
       -2   -1    0    0    0  501  0.00000000000E+00  0.00000000000E+00 -0.11412775417E+04  0.11412775417E+04  0.25500000920E-02 0. -1.
    10030    2    1    2    0    0  0.00000000000E+00  0.00000000000E+00 -0.43079746204E+03  0.18517576214E+04  0.18009497036E+04 0.  0.
        1    1    3    3  502    0  0.39277734760E+03 -0.36109606391E+03 -0.96125316746E+03  0.10993962271E+04  0.50400001928E-02 0. -1.
       -1    1    3    3    0  502 -0.39277734760E+03  0.36109606391E+03  0.53045570542E+03  0.75236139428E+03  0.50400001928E-02 0.  1.
</event>
<event>
 5   0  0.4953155E-06  0.1799925E+04  0.7818609E-02  0.8706339E-01
        1   -1    0    0  501    0  0.00000000000E+00  0.00000000000E+00  0.56891207355E+03  0.56891207357E+03  0.50400001928E-02 0. -1.
       -1   -1    0    0    0  501  0.00000000000E+00  0.00000000000E+00 -0.14236518372E+04  0.14236518372E+04  0.50400001928E-02 0.  1.
    10030    2    1    2    0    0  0.00000000000E+00  0.00000000000E+00 -0.85473976363E+03  0.19925639108E+04  0.17999252415E+04 0.  0.
        2    1    3    3  502    0 -0.91707416811E+02  0.15440868006E+03 -0.14036138809E+04  0.14150562594E+04  0.25500000920E-02 0.  1.
       -2    1    3    3    0  502  0.91707416811E+02 -0.15440868006E+03  0.54887411724E+03  0.57750765134E+03  0.25500000920E-02 0. -1.
</event>
<event>
 5   0  0.9589963E-06  0.1799680E+04  0.7818609E-02  0.8706470E-01
        2   -1    0    0  501    0  0.00000000000E+00  0.00000000000E+00  0.96033654119E+03  0.96033654119E+03  0.25500000920E-02 0. -1.
       -2   -1    0    0    0  501  0.00000000000E+00  0.00000000000E+00 -0.84315463091E+03  0.84315463092E+03  0.25500000920E-02 0.  1.
    10030    2    1    2    0    0  0.00000000000E+00  0.00000000000E+00  0.11718191028E+03  0.18034911721E+04  0.17996801960E+04 0.  0.
        2    1    3    3  502    0  0.78459702034E+03  0.20021164280E+03  0.45189499906E+03  0.92730053187E+03  0.25500000920E-02 0.  1.
       -2    1    3    3    0  502 -0.78459702034E+03 -0.20021164280E+03 -0.33471308878E+03  0.87619064024E+03  0.25500000920E-02 0. -1.
</event>
<event>
 5   0  0.4983159E-06  0.1800369E+04  0.7818609E-02  0.8706103E-01
        1   -1    0    0  501    0  0.00000000000E+00  0.00000000000E+00  0.14331861976E+04  0.14331861976E+04  0.50400001928E-02 0. -1.
       -1   -1    0    0    0  501  0.00000000000E+00  0.00000000000E+00 -0.56540614559E+03  0.56540614561E+03  0.50400001928E-02 0.  1.
    10030    2    1    2    0    0  0.00000000000E+00  0.00000000000E+00  0.86778005197E+03  0.19985923432E+04  0.18003691665E+04 0.  0.
        4    1    3    3  502    0 -0.47448511210E+03  0.15607113094E+03 -0.39745390450E+03  0.63833027394E+03  0.12699999809E+01 0.  1.
       -4    1    3    3    0  502  0.47448511210E+03 -0.15607113094E+03  0.12652339565E+04  0.13602620692E+04  0.12699999809E+01 0. -1.
</event>
<event>
 5   0  0.1000316E-05  0.1799769E+04  0.7818609E-02  0.8706422E-01
        2   -1    0    0  501    0  0.00000000000E+00  0.00000000000E+00  0.10879266197E+04  0.10879266197E+04  0.25500000920E-02 0.  1.
       -2   -1    0    0    0  501  0.00000000000E+00  0.00000000000E+00 -0.74434419057E+03  0.74434419058E+03  0.25500000920E-02 0. -1.
    10030    2    1    2    0    0  0.00000000000E+00  0.00000000000E+00  0.34358242913E+03  0.18322708103E+04  0.17997687175E+04 0.  0.
        5    1    3    3  502    0 -0.72081165133E+02 -0.89151037773E+03  0.27248811901E+03  0.93501781425E+03  0.46999998093E+01 0.  1.
       -5    1    3    3    0  502  0.72081165133E+02  0.89151037773E+03  0.71094310119E+02  0.89725299603E+03  0.46999998093E+01 0. -1.
</event>
<event>
 5   0  0.4983159E-06  0.1800748E+04  0.7818609E-02  0.8705902E-01
       -1   -1    0    0    0  501  0.00000000000E+00  0.00000000000E+00  0.58366366815E+03  0.58366366817E+03  0.50400001928E-02 0. -1.
        1   -1    0    0  501    0  0.00000000000E+00  0.00000000000E+00 -0.13889397309E+04  0.13889397309E+04  0.50400001928E-02 0.  1.
    10030    2    1    2    0    0  0.00000000000E+00  0.00000000000E+00 -0.80527606277E+03  0.19726033991E+04  0.18007483536E+04 0.  0.
        4    1    3    3  502    0 -0.54974744183E+03  0.71026909967E+03 -0.47163829952E+03  0.10144696852E+04  0.12699999809E+01 0.  1.
       -4    1    3    3    0  502  0.54974744183E+03 -0.71026909967E+03 -0.33363776325E+03  0.95813371390E+03  0.12699999809E+01 0. -1.
</event>
<event>
 5   0  0.9999162E-06  0.1800139E+04  0.7818609E-02  0.8706226E-01
       -2   -1    0    0    0  501  0.00000000000E+00  0.00000000000E+00  0.76869591450E+03  0.76869591450E+03  0.25500000920E-02 0.  1.
        2   -1    0    0  501    0  0.00000000000E+00  0.00000000000E+00 -0.10538949913E+04  0.10538949913E+04  0.25500000920E-02 0. -1.
    10030    2    1    2    0    0  0.00000000000E+00  0.00000000000E+00 -0.28519907676E+03  0.18225909058E+04  0.18001386325E+04 0.  0.
        1    1    3    3  502    0  0.65016359415E+03  0.18112373631E+03 -0.74551503966E+03  0.10056396877E+04  0.50400001928E-02 0. -1.
       -1    1    3    3    0  502 -0.65016359415E+03 -0.18112373631E+03  0.46031596290E+03  0.81695121809E+03  0.50400001928E-02 0.  1.
</event>
<event>
 5   0  0.4953155E-06  0.1798761E+04  0.7818609E-02  0.8706959E-01
       -1   -1    0    0    0  501  0.00000000000E+00  0.00000000000E+00  0.10459290803E+04  0.10459290803E+04  0.50400001928E-02 0. -1.
        1   -1    0    0  501    0  0.00000000000E+00  0.00000000000E+00 -0.77336517307E+03  0.77336517309E+03  0.50400001928E-02 0.  1.
    10030    2    1    2    0    0  0.00000000000E+00  0.00000000000E+00  0.27256390720E+03  0.18192942534E+04  0.17987608226E+04 0.  0.
        2    1    3    3  502    0 -0.66041676624E+03 -0.60797737213E+03  0.19258004186E+03  0.91808162092E+03  0.25500000920E-02 0. -1.
       -2    1    3    3    0  502  0.66041676624E+03  0.60797737213E+03  0.79983865341E+02  0.90121263244E+03  0.25500000920E-02 0.  1.
</event>
<event>
 5   0  0.4953155E-06  0.1800254E+04  0.7818609E-02  0.8706165E-01
       -1   -1    0    0    0  501  0.00000000000E+00  0.00000000000E+00  0.58544297061E+03  0.58544297064E+03  0.50400001928E-02 0. -1.
        1   -1    0    0  501    0  0.00000000000E+00  0.00000000000E+00 -0.13839579510E+04  0.13839579510E+04  0.50400001928E-02 0.  1.
    10030    2    1    2    0    0  0.00000000000E+00  0.00000000000E+00 -0.79851498042E+03  0.19694009217E+04  0.18002538200E+04 0.  0.
        2    1    3    3  502    0 -0.31137409654E+03 -0.49689190306E+03  0.34782253494E+03  0.68178875551E+03  0.25500000920E-02 0. -1.
       -2    1    3    3    0  502  0.31137409654E+03  0.49689190306E+03 -0.11463375154E+04  0.12876121662E+04  0.25500000920E-02 0.  1.
</event>
<event>
 5   0  0.4987456E-06  0.1800122E+04  0.7818609E-02  0.8706235E-01
       -1   -1    0    0    0  501  0.00000000000E+00  0.00000000000E+00  0.12696983051E+04  0.12696983051E+04  0.50400001928E-02 0.  1.
        1   -1    0    0  501    0  0.00000000000E+00  0.00000000000E+00 -0.63803329166E+03  0.63803329168E+03  0.50400001928E-02 0. -1.
    10030    2    1    2    0    0  0.00000000000E+00  0.00000000000E+00  0.63166501346E+03  0.19077315968E+04  0.18001219837E+04 0.  0.
        3    1    3    3  502    0  0.27179290497E+03 -0.16150129965E+03 -0.57725113288E+03  0.65815874498E+03  0.10100000352E+00 0. -1.
       -3    1    3    3    0  502 -0.27179290497E+03  0.16150129965E+03  0.12089161463E+04  0.12495728518E+04  0.10100000352E+00 0.  1.
</event>
<event>
 5   0  0.4981384E-06  0.1799565E+04  0.7818609E-02  0.8706531E-01
       -1   -1    0    0    0  501  0.00000000000E+00  0.00000000000E+00  0.10479714194E+04  0.10479714194E+04  0.50400001928E-02 0. -1.
        1   -1    0    0  501    0  0.00000000000E+00  0.00000000000E+00 -0.77254821992E+03  0.77254821994E+03  0.50400001928E-02 0.  1.
    10030    2    1    2    0    0  0.00000000000E+00  0.00000000000E+00  0.27542319950E+03  0.18205196394E+04  0.17995648970E+04 0.  0.
        5    1    3    3  502    0  0.52418711370E+03  0.41744072861E+03 -0.46974479138E+03  0.81835881561E+03  0.46999998093E+01 0. -1.
       -5    1    3    3    0  502 -0.52418711370E+03 -0.41744072861E+03  0.74516799088E+03  0.10021608238E+04  0.46999998093E+01 0.  1.
</event>
<event>
 5   0  0.4983159E-06  0.1803212E+04  0.7818609E-02  0.8704593E-01
        1   -1    0    0  501    0  0.00000000000E+00  0.00000000000E+00  0.81212106977E+03  0.81212106979E+03  0.50400001928E-02 0. -1.
       -1   -1    0    0    0  501  0.00000000000E+00  0.00000000000E+00 -0.10009504537E+04  0.10009504537E+04  0.50400001928E-02 0.  1.
    10030    2    1    2    0    0  0.00000000000E+00  0.00000000000E+00 -0.18882938394E+03  0.18130715235E+04  0.18032115276E+04 0.  0.
        4    1    3    3  502    0 -0.57334887479E+03  0.23606178413E+03 -0.75254496679E+03  0.97507929836E+03  0.12699999809E+01 0.  1.
       -4    1    3    3    0  502  0.57334887479E+03 -0.23606178413E+03  0.56371558285E+03  0.83799222514E+03  0.12699999809E+01 0. -1.
</event>
<event>
 5   0  0.1036381E-05  0.1799691E+04  0.7818609E-02  0.8706464E-01
       -2   -1    0    0    0  501  0.00000000000E+00  0.00000000000E+00  0.79727447311E+03  0.79727447311E+03  0.25500000920E-02 0.  1.
        2   -1    0    0  501    0  0.00000000000E+00  0.00000000000E+00 -0.10156124427E+04  0.10156124427E+04  0.25500000920E-02 0. -1.
    10030    2    1    2    0    0  0.00000000000E+00  0.00000000000E+00 -0.21833796960E+03  0.18128869158E+04  0.17996909459E+04 0.  0.
        4    1    3    3  502    0 -0.55029535519E+03  0.43879326976E+03 -0.67395441879E+03  0.97446430568E+03  0.12699999809E+01 0. -1.
       -4    1    3    3    0  502  0.55029535519E+03 -0.43879326976E+03  0.45561644919E+03  0.83842261015E+03  0.12699999809E+01 0.  1.
</event>
<event>
 5   0  0.9999162E-06  0.1799996E+04  0.7818609E-02  0.8706301E-01
        2   -1    0    0  501    0  0.00000000000E+00  0.00000000000E+00  0.14848909652E+04  0.14848909652E+04  0.25500000920E-02 0.  1.
       -2   -1    0    0    0  501  0.00000000000E+00  0.00000000000E+00 -0.54549230463E+03  0.54549230463E+03  0.25500000920E-02 0. -1.
    10030    2    1    2    0    0  0.00000000000E+00  0.00000000000E+00  0.93939866057E+03  0.20303832698E+04  0.17999962164E+04 0.  0.
        1    1    3    3  502    0 -0.60442376822E+03 -0.31335358108E+03  0.11336629573E+04  0.13223880895E+04  0.50400001928E-02 0.  1.
       -1    1    3    3    0  502  0.60442376822E+03  0.31335358108E+03 -0.19426429676E+03  0.70799518034E+03  0.50400001928E-02 0. -1.
</event>
<event>
 5   0  0.1000316E-05  0.1798757E+04  0.7818609E-02  0.8706961E-01
        2   -1    0    0  501    0  0.00000000000E+00  0.00000000000E+00  0.16487960111E+04  0.16487960111E+04  0.25500000920E-02 0. -1.
       -2   -1    0    0    0  501  0.00000000000E+00  0.00000000000E+00 -0.49058914592E+03  0.49058914593E+03  0.25500000920E-02 0.  1.
    10030    2    1    2    0    0  0.00000000000E+00  0.00000000000E+00  0.11582068652E+04  0.21393851570E+04  0.17987567116E+04 0.  0.
        5    1    3    3  502    0  0.18862667780E+03  0.21264493112E+03  0.15939504228E+04  0.16191040519E+04  0.46999998093E+01 0. -1.
       -5    1    3    3    0  502 -0.18862667780E+03 -0.21264493112E+03 -0.43574355768E+03  0.52028110514E+03  0.46999998093E+01 0.  1.
</event>
<event>
 5   0  0.9589963E-06  0.1799881E+04  0.7818609E-02  0.8706363E-01
        2   -1    0    0  501    0  0.00000000000E+00  0.00000000000E+00  0.13847887104E+04  0.13847887104E+04  0.25500000920E-02 0. -1.
       -2   -1    0    0    0  501  0.00000000000E+00  0.00000000000E+00 -0.58484934494E+03  0.58484934494E+03  0.25500000920E-02 0.  1.
    10030    2    1    2    0    0  0.00000000000E+00  0.00000000000E+00  0.79993936543E+03  0.19696380553E+04  0.17998808518E+04 0.  0.
        2    1    3    3  502    0  0.84724440714E+03  0.98901881814E+02  0.71388405063E+03  0.11123107054E+04  0.25500000920E-02 0. -1.
       -2    1    3    3    0  502 -0.84724440714E+03 -0.98901881814E+02  0.86055314802E+02  0.85732734989E+03  0.25500000920E-02 0.  1.
</event>
<event>
 5   0  0.4953155E-06  0.1798731E+04  0.7818609E-02  0.8706974E-01
        1   -1    0    0  501    0  0.00000000000E+00  0.00000000000E+00  0.11403066665E+04  0.11403066665E+04  0.50400001928E-02 0.  1.
       -1   -1    0    0    0  501  0.00000000000E+00  0.00000000000E+00 -0.70933420338E+03  0.70933420340E+03  0.50400001928E-02 0. -1.
    10030    2    1    2    0    0  0.00000000000E+00  0.00000000000E+00  0.43097246310E+03  0.18496408699E+04  0.17987312427E+04 0.  0.
        2    1    3    3  502    0 -0.45662464732E+03 -0.51097246023E+03  0.81443159324E+03  0.10643766926E+04  0.25500000920E-02 0.  1.
       -2    1    3    3    0  502  0.45662464732E+03  0.51097246023E+03 -0.38345913014E+03  0.78526417730E+03  0.25500000920E-02 0. -1.
</event>
<event>
 5   0  0.4994123E-06  0.1800473E+04  0.7818609E-02  0.8706048E-01
       -1   -1    0    0    0  501  0.00000000000E+00  0.00000000000E+00  0.69203011699E+03  0.69203011701E+03  0.50400001928E-02 0.  1.
        1   -1    0    0  501    0  0.00000000000E+00  0.00000000000E+00 -0.11710842819E+04  0.11710842819E+04  0.50400001928E-02 0. -1.
    10030    2    1    2    0    0  0.00000000000E+00  0.00000000000E+00 -0.47905416494E+03  0.18631143990E+04  0.18004728186E+04 0.  0.
        1    1    3    3  502    0  0.15676100294E+03  0.10721857043E+02  0.67773079624E+03  0.69570683657E+03  0.50400001928E-02 0.  1.
       -1    1    3    3    0  502 -0.15676100294E+03 -0.10721857043E+02 -0.11567849612E+04  0.11674075624E+04  0.50400001928E-02 0. -1.
</event>
<event>
 5   0  0.1000316E-05  0.1801125E+04  0.7818609E-02  0.8705702E-01
       -2   -1    0    0    0  501  0.00000000000E+00  0.00000000000E+00  0.31539320939E+03  0.31539320940E+03  0.25500000920E-02 0.  1.
        2   -1    0    0  501    0  0.00000000000E+00  0.00000000000E+00 -0.25714328277E+04  0.25714328277E+04  0.25500000920E-02 0. -1.
    10030    2    1    2    0    0  0.00000000000E+00  0.00000000000E+00 -0.22560396183E+04  0.28868260371E+04  0.18011245956E+04 0.  0.
        5    1    3    3  502    0  0.42569879144E+03 -0.27031046856E+03  0.67863203536E+02  0.50883662883E+03  0.46999998093E+01 0.  1.
       -5    1    3    3    0  502 -0.42569879144E+03  0.27031046856E+03 -0.23239028218E+04  0.23779894082E+04  0.46999998093E+01 0. -1.
</event>
<event>
 5   0  0.9999162E-06  0.1800143E+04  0.7818609E-02  0.8706224E-01
        2   -1    0    0  501    0  0.00000000000E+00  0.00000000000E+00  0.77511811653E+03  0.77511811653E+03  0.25500000920E-02 0.  1.
       -2   -1    0    0    0  501  0.00000000000E+00  0.00000000000E+00 -0.10451676139E+04  0.10451676139E+04  0.25500000920E-02 0. -1.
    10030    2    1    2    0    0  0.00000000000E+00  0.00000000000E+00 -0.27004949739E+03  0.18202857304E+04  0.18001426081E+04 0.  0.
        1    1    3    3  502    0  0.17020309730E+03  0.23309151413E+03 -0.99710631663E+03  0.10380374535E+04  0.50400001928E-02 0. -1.
       -1    1    3    3    0  502 -0.17020309730E+03 -0.23309151413E+03  0.72705681924E+03  0.78224827690E+03  0.50400001928E-02 0.  1.
</event>
<event>
 5   0  0.4981384E-06  0.1799869E+04  0.7818609E-02  0.8706369E-01
       -1   -1    0    0    0  501  0.00000000000E+00  0.00000000000E+00  0.14677140715E+04  0.14677140715E+04  0.50400001928E-02 0.  1.
        1   -1    0    0  501    0  0.00000000000E+00  0.00000000000E+00 -0.55179803229E+03  0.55179803231E+03  0.50400001928E-02 0. -1.
    10030    2    1    2    0    0  0.00000000000E+00  0.00000000000E+00  0.91591603919E+03  0.20195121038E+04  0.17998685915E+04 0.  0.
        5    1    3    3  502    0  0.15672873058E+03 -0.74879985571E+03  0.98970526309E+03  0.12509211473E+04  0.46999998093E+01 0.  1.
       -5    1    3    3    0  502 -0.15672873058E+03  0.74879985571E+03 -0.73789223896E+02  0.76859095653E+03  0.46999998093E+01 0. -1.
</event>
<event>
 5   0  0.4987456E-06  0.1801538E+04  0.7818609E-02  0.8705482E-01
        1   -1    0    0  501    0  0.00000000000E+00  0.00000000000E+00  0.15512516834E+04  0.15512516834E+04  0.50400001928E-02 0.  1.
       -1   -1    0    0    0  501  0.00000000000E+00  0.00000000000E+00 -0.52305189294E+03  0.52305189296E+03  0.50400001928E-02 0. -1.
    10030    2    1    2    0    0  0.00000000000E+00  0.00000000000E+00  0.10281997904E+04  0.20743035764E+04  0.18015383753E+04 0.  0.
        3    1    3    3  502    0  0.51067637661E+03 -0.37668771106E+03 -0.22199145701E+03  0.67228283517E+03  0.10100000352E+00 0. -1.
       -3    1    3    3    0  502 -0.51067637661E+03  0.37668771106E+03  0.12501912475E+04  0.14020207412E+04  0.10100000352E+00 0.  1.
</event>
<event>
 5   0  0.1000316E-05  0.1799739E+04  0.7818609E-02  0.8706439E-01
        2   -1    0    0  501    0  0.00000000000E+00  0.00000000000E+00  0.74081055519E+03  0.74081055520E+03  0.25500000920E-02 0. -1.
       -2   -1    0    0    0  501  0.00000000000E+00  0.00000000000E+00 -0.10930793660E+04  0.10930793660E+04  0.25500000920E-02 0.  1.
    10030    2    1    2    0    0  0.00000000000E+00  0.00000000000E+00 -0.35226881081E+03  0.18338899212E+04  0.17997385721E+04 0.  0.
        5    1    3    3  502    0 -0.33715239910E+03 -0.79850175194E+03  0.70251005028E+02  0.86961720416E+03  0.46999998093E+01 0. -1.
       -5    1    3    3    0  502  0.33715239910E+03  0.79850175194E+03 -0.42251981584E+03  0.96427271705E+03  0.46999998093E+01 0.  1.
</event>
<event>
 5   0  0.4987456E-06  0.1799934E+04  0.7818609E-02  0.8706335E-01
       -1   -1    0    0    0  501  0.00000000000E+00  0.00000000000E+00  0.53148342161E+03  0.53148342163E+03  0.50400001928E-02 0. -1.
        1   -1    0    0  501    0  0.00000000000E+00  0.00000000000E+00 -0.15239245719E+04  0.15239245719E+04  0.50400001928E-02 0.  1.
    10030    2    1    2    0    0  0.00000000000E+00  0.00000000000E+00 -0.99244115033E+03  0.20554079936E+04  0.17999340497E+04 0.  0.
        3    1    3    3  502    0 -0.72584152986E+02  0.69281873597E+03  0.15445642445E+03  0.71352859608E+03  0.10100000352E+00 0. -1.
       -3    1    3    3    0  502  0.72584152986E+02 -0.69281873597E+03 -0.11468975748E+04  0.13418793975E+04  0.10100000352E+00 0.  1.
</event>
<event>
 5   0  0.1000316E-05  0.1799341E+04  0.7818609E-02  0.8706650E-01
        2   -1    0    0  501    0  0.00000000000E+00  0.00000000000E+00  0.12094237290E+04  0.12094237290E+04  0.25500000920E-02 0. -1.
       -2   -1    0    0    0  501  0.00000000000E+00  0.00000000000E+00 -0.66925029266E+03  0.66925029267E+03  0.25500000920E-02 0.  1.
    10030    2    1    2    0    0  0.00000000000E+00  0.00000000000E+00  0.54017343635E+03  0.18786740217E+04  0.17993411957E+04 0.  0.
        5    1    3    3  502    0  0.37467356139E+03  0.61285110217E+03  0.83565043159E+03  0.11019530320E+04  0.46999998093E+01 0. -1.
       -5    1    3    3    0  502 -0.37467356139E+03 -0.61285110217E+03 -0.29547699523E+03  0.77672098963E+03  0.46999998093E+01 0.  1.
</event>
<event>
 5   0  0.4953155E-06  0.1800159E+04  0.7818609E-02  0.8706215E-01
        1   -1    0    0  501    0  0.00000000000E+00  0.00000000000E+00  0.24045817519E+04  0.24045817519E+04  0.50400001928E-02 0. -1.
       -1   -1    0    0    0  501  0.00000000000E+00  0.00000000000E+00 -0.33691656211E+03  0.33691656214E+03  0.50400001928E-02 0.  1.
    10030    2    1    2    0    0  0.00000000000E+00  0.00000000000E+00  0.20676651898E+04  0.27414983141E+04  0.18001593454E+04 0.  0.
        2    1    3    3  502    0  0.77977427539E+03  0.42795796215E+03  0.82420292316E+03  0.12126443817E+04  0.25500000920E-02 0.  1.
       -2    1    3    3    0  502 -0.77977427539E+03 -0.42795796215E+03  0.12434622667E+04  0.15288539324E+04  0.25500000920E-02 0. -1.
</event>
<event>
 5   0  0.9999162E-06  0.1799834E+04  0.7818609E-02  0.8706388E-01
       -2   -1    0    0    0  501  0.00000000000E+00  0.00000000000E+00  0.72507735935E+03  0.72507735935E+03  0.25500000920E-02 0.  1.
        2   -1    0    0  501    0  0.00000000000E+00  0.00000000000E+00 -0.11169156101E+04  0.11169156101E+04  0.25500000920E-02 0. -1.
    10030    2    1    2    0    0  0.00000000000E+00  0.00000000000E+00 -0.39183825076E+03  0.18419929695E+04  0.17998335714E+04 0.  0.
        1    1    3    3  502    0 -0.36419841384E+03  0.39704477231E+03 -0.93361208936E+03  0.10779223392E+04  0.50400001928E-02 0. -1.
       -1    1    3    3    0  502  0.36419841384E+03 -0.39704477231E+03  0.54177383859E+03  0.76407063029E+03  0.50400001928E-02 0.  1.
</event>
<event>
 5   0  0.4953155E-06  0.1799490E+04  0.7818609E-02  0.8706570E-01
        1   -1    0    0  501    0  0.00000000000E+00  0.00000000000E+00  0.70839423487E+03  0.70839423489E+03  0.50400001928E-02 0. -1.
       -1   -1    0    0    0  501  0.00000000000E+00  0.00000000000E+00 -0.11427838065E+04  0.11427838065E+04  0.50400001928E-02 0.  1.
    10030    2    1    2    0    0  0.00000000000E+00  0.00000000000E+00 -0.43438957166E+03  0.18511780414E+04  0.17994904393E+04 0.  0.
        2    1    3    3  502    0  0.77502151857E+03 -0.21354545219E+03 -0.63288238157E+03  0.10231325053E+04  0.25500000920E-02 0.  1.
       -2    1    3    3    0  502 -0.77502151857E+03  0.21354545219E+03  0.19849280991E+03  0.82804553618E+03  0.25500000920E-02 0. -1.
</event>
<event>
 5   0  0.1036381E-05  0.1800133E+04  0.7818609E-02  0.8706229E-01
       -2   -1    0    0    0  501  0.00000000000E+00  0.00000000000E+00  0.56480616946E+03  0.56480616947E+03  0.25500000920E-02 0.  1.
        2   -1    0    0  501    0  0.00000000000E+00  0.00000000000E+00 -0.14343320083E+04  0.14343320083E+04  0.25500000920E-02 0. -1.
    10030    2    1    2    0    0  0.00000000000E+00  0.00000000000E+00 -0.86952583885E+03  0.19991381778E+04  0.18001328477E+04 0.  0.
        4    1    3    3  502    0 -0.56552909641E+03 -0.30026675319E+03  0.26772902593E+03  0.69401997535E+03  0.12699999809E+01 0.  1.
       -4    1    3    3    0  502  0.56552909641E+03  0.30026675319E+03 -0.11372548648E+04  0.13051182024E+04  0.12699999809E+01 0. -1.
</event>
<event>
 5   0  0.4983159E-06  0.1797318E+04  0.7818609E-02  0.8707727E-01
       -1   -1    0    0    0  501  0.00000000000E+00  0.00000000000E+00  0.69834863647E+03  0.69834863649E+03  0.50400001928E-02 0.  1.
        1   -1    0    0  501    0  0.00000000000E+00  0.00000000000E+00 -0.11564253024E+04  0.11564253024E+04  0.50400001928E-02 0. -1.
    10030    2    1    2    0    0  0.00000000000E+00  0.00000000000E+00 -0.45807666592E+03  0.18547739389E+04  0.17973180388E+04 0.  0.
        4    1    3    3  502    0 -0.56673283657E+03 -0.11905621923E+03  0.48011633623E+03  0.75224583787E+03  0.12699999809E+01 0.  1.
       -4    1    3    3    0  502  0.56673283657E+03  0.11905621923E+03 -0.93819300214E+03  0.11025281010E+04  0.12699999809E+01 0. -1.
</event>
<event>
 5   0  0.4953155E-06  0.1803964E+04  0.7818609E-02  0.8704195E-01
        1   -1    0    0  501    0  0.00000000000E+00  0.00000000000E+00  0.11513914415E+04  0.11513914415E+04  0.50400001928E-02 0. -1.
       -1   -1    0    0    0  501  0.00000000000E+00  0.00000000000E+00 -0.70659824180E+03  0.70659824182E+03  0.50400001928E-02 0.  1.
    10030    2    1    2    0    0  0.00000000000E+00  0.00000000000E+00  0.44479319967E+03  0.18579896833E+04  0.18039636007E+04 0.  0.
        2    1    3    3  502    0 -0.10095318566E+03  0.79068807204E+03 -0.21237345413E+03  0.82491312087E+03  0.25500000920E-02 0.  1.
       -2    1    3    3    0  502  0.10095318566E+03 -0.79068807204E+03  0.65716665380E+03  0.10330765624E+04  0.25500000920E-02 0. -1.
</event>
<event>
 5   0  0.4981384E-06  0.1799071E+04  0.7818609E-02  0.8706794E-01
        1   -1    0    0  501    0  0.00000000000E+00  0.00000000000E+00  0.48787116184E+03  0.48787116187E+03  0.50400001928E-02 0. -1.
       -1   -1    0    0    0  501  0.00000000000E+00  0.00000000000E+00 -0.16585602554E+04  0.16585602554E+04  0.50400001928E-02 0.  1.
    10030    2    1    2    0    0  0.00000000000E+00  0.00000000000E+00 -0.11706890936E+04  0.21464314173E+04  0.17990705588E+04 0.  0.
        5    1    3    3  502    0 -0.34686913036E+03  0.78493725009E+03 -0.26366243500E+03  0.89776647844E+03  0.46999998093E+01 0. -1.
       -5    1    3    3    0  502  0.34686913036E+03 -0.78493725009E+03 -0.90702665860E+03  0.12486649389E+04  0.46999998093E+01 0.  1.
</event>
<event>
 5   0  0.4953155E-06  0.1799984E+04  0.7818609E-02  0.8706308E-01
        1   -1    0    0  501    0  0.00000000000E+00  0.00000000000E+00  0.10088717091E+04  0.10088717091E+04  0.50400001928E-02 0. -1.
       -1   -1    0    0    0  501  0.00000000000E+00  0.00000000000E+00 -0.80286292208E+03  0.80286292210E+03  0.50400001928E-02 0.  1.
    10030    2    1    2    0    0  0.00000000000E+00  0.00000000000E+00  0.20600878705E+03  0.18117346312E+04  0.17999840982E+04 0.  0.
        2    1    3    3  502    0 -0.62190793445E+03  0.11424185552E+02  0.75770099968E+03  0.98031158102E+03  0.25500000920E-02 0. -1.
       -2    1    3    3    0  502  0.62190793445E+03 -0.11424185552E+02 -0.55169221264E+03  0.83142305022E+03  0.25500000920E-02 0.  1.
</event>
<event>
 5   0  0.4987456E-06  0.1800601E+04  0.7818609E-02  0.8705980E-01
        1   -1    0    0  501    0  0.00000000000E+00  0.00000000000E+00  0.13829521868E+04  0.13829521868E+04  0.50400001928E-02 0. -1.
       -1   -1    0    0    0  501  0.00000000000E+00  0.00000000000E+00 -0.58609452415E+03  0.58609452417E+03  0.50400001928E-02 0.  1.
    10030    2    1    2    0    0  0.00000000000E+00  0.00000000000E+00  0.79685766262E+03  0.19690467109E+04  0.18006006818E+04 0.  0.
        3    1    3    3  502    0  0.71183152738E+03 -0.72872510893E+02 -0.19906002717E+03  0.74272433031E+03  0.10100000352E+00 0.  1.
       -3    1    3    3    0  502 -0.71183152738E+03  0.72872510893E+02  0.99591768979E+03  0.12263223806E+04  0.10100000352E+00 0. -1.
</event>
<event>
 5   0  0.4981384E-06  0.1800018E+04  0.7818609E-02  0.8706290E-01
       -1   -1    0    0    0  501  0.00000000000E+00  0.00000000000E+00  0.40052479638E+03  0.40052479641E+03  0.50400001928E-02 0.  1.
        1   -1    0    0  501    0  0.00000000000E+00  0.00000000000E+00 -0.20223871268E+04  0.20223871268E+04  0.50400001928E-02 0. -1.
    10030    2    1    2    0    0  0.00000000000E+00  0.00000000000E+00 -0.16218623304E+04  0.24229119232E+04  0.18000179912E+04 0.  0.
        5    1    3    3  502    0 -0.28948060361E+03  0.78291612016E+03 -0.35797540653E+03  0.90825390324E+03  0.46999998093E+01 0. -1.
       -5    1    3    3    0  502  0.28948060361E+03 -0.78291612016E+03 -0.12638869239E+04  0.15146580199E+04  0.46999998093E+01 0.  1.
</event>
<event>
 5   0  0.4981384E-06  0.1801966E+04  0.7818609E-02  0.8705255E-01
       -1   -1    0    0    0  501  0.00000000000E+00  0.00000000000E+00  0.59918024673E+03  0.59918024675E+03  0.50400001928E-02 0.  1.
        1   -1    0    0  501    0  0.00000000000E+00  0.00000000000E+00 -0.13548018139E+04  0.13548018139E+04  0.50400001928E-02 0. -1.
    10030    2    1    2    0    0  0.00000000000E+00  0.00000000000E+00 -0.75562156721E+03  0.19539820607E+04  0.18019661320E+04 0.  0.
        5    1    3    3  502    0  0.34245650030E+03  0.74515127012E+03  0.26790393285E+02  0.82052829636E+03  0.46999998093E+01 0. -1.
       -5    1    3    3    0  502 -0.34245650030E+03 -0.74515127012E+03 -0.78241196050E+03  0.11334537643E+04  0.46999998093E+01 0.  1.
</event>
<event>
 5   0  0.4981384E-06  0.1800267E+04  0.7818609E-02  0.8706158E-01
       -1   -1    0    0    0  501  0.00000000000E+00  0.00000000000E+00  0.80414968966E+03  0.80414968968E+03  0.50400001928E-02 0.  1.
        1   -1    0    0  501    0  0.00000000000E+00  0.00000000000E+00 -0.10075737005E+04  0.10075737005E+04  0.50400001928E-02 0. -1.
    10030    2    1    2    0    0  0.00000000000E+00  0.00000000000E+00 -0.20342401085E+03  0.18117233902E+04  0.18002667342E+04 0.  0.
        5    1    3    3  502    0  0.61834740682E+03  0.42362411516E+03  0.39986431080E+03  0.84954367959E+03  0.46999998093E+01 0.  1.
       -5    1    3    3    0  502 -0.61834740682E+03 -0.42362411516E+03 -0.60328832166E+03  0.96217971061E+03  0.46999998093E+01 0. -1.
</event>
<event>
 5   0  0.1036381E-05  0.1809994E+04  0.7818609E-02  0.8701003E-01
        2   -1    0    0  501    0  0.00000000000E+00  0.00000000000E+00  0.18040790102E+04  0.18040790102E+04  0.25500000920E-02 0. -1.
       -2   -1    0    0    0  501  0.00000000000E+00  0.00000000000E+00 -0.45398217035E+03  0.45398217036E+03  0.25500000920E-02 0.  1.
    10030    2    1    2    0    0  0.00000000000E+00  0.00000000000E+00  0.13500968398E+04  0.22580611806E+04  0.18099941487E+04 0.  0.
        4    1    3    3  502    0 -0.40575931814E+03 -0.56230258629E+03 -0.50457588508E+02  0.69524988597E+03  0.12699999809E+01 0.  1.
       -4    1    3    3    0  502  0.40575931814E+03  0.56230258629E+03  0.14005544283E+04  0.15628112946E+04  0.12699999809E+01 0. -1.
</event>
<event>
 5   0  0.4983159E-06  0.1801155E+04  0.7818609E-02  0.8705685E-01
        1   -1    0    0  501    0  0.00000000000E+00  0.00000000000E+00  0.61840545189E+03  0.61840545191E+03  0.50400001928E-02 0. -1.
       -1   -1    0    0    0  501  0.00000000000E+00  0.00000000000E+00 -0.13115024464E+04  0.13115024464E+04  0.50400001928E-02 0.  1.
    10030    2    1    2    0    0  0.00000000000E+00  0.00000000000E+00 -0.69309699452E+03  0.19299078983E+04  0.18011554770E+04 0.  0.
        4    1    3    3  502    0  0.75874360553E+02  0.62572540114E+03 -0.10357625077E+04  0.12124746519E+04  0.12699999809E+01 0.  1.
       -4    1    3    3    0  502 -0.75874360553E+02 -0.62572540114E+03  0.34266551321E+03  0.71743324642E+03  0.12699999809E+01 0. -1.
</event>
<event>
 5   0  0.1035018E-05  0.1800107E+04  0.7818609E-02  0.8706242E-01
       -2   -1    0    0    0  501  0.00000000000E+00  0.00000000000E+00  0.46694447973E+03  0.46694447974E+03  0.25500000920E-02 0. -1.
        2   -1    0    0  501    0  0.00000000000E+00  0.00000000000E+00 -0.17348884835E+04  0.17348884835E+04  0.25500000920E-02 0.  1.
    10030    2    1    2    0    0  0.00000000000E+00  0.00000000000E+00 -0.12679440038E+04  0.22018329632E+04  0.18001073305E+04 0.  0.
        3    1    3    3  502    0  0.64990644034E+03  0.18473869105E+03 -0.13613092822E+04  0.15197597629E+04  0.10100000352E+00 0.  1.
       -3    1    3    3    0  502 -0.64990644034E+03 -0.18473869105E+03  0.93365278376E+02  0.68207320030E+03  0.10100000352E+00 0. -1.
</event>
<event>
 5   0  0.9999162E-06  0.1800559E+04  0.7818609E-02  0.8706002E-01
        2   -1    0    0  501    0  0.00000000000E+00  0.00000000000E+00  0.84281138216E+03  0.84281138216E+03  0.25500000920E-02 0.  1.
       -2   -1    0    0    0  501  0.00000000000E+00  0.00000000000E+00 -0.96166625905E+03  0.96166625905E+03  0.25500000920E-02 0. -1.
    10030    2    1    2    0    0  0.00000000000E+00  0.00000000000E+00 -0.11885487689E+03  0.18044776412E+04  0.18005591009E+04 0.  0.
        1    1    3    3  502    0  0.10824239658E+03 -0.82455025292E+03  0.28614720517E+03  0.87947698040E+03  0.50400001928E-02 0. -1.
       -1    1    3    3    0  502 -0.10824239658E+03  0.82455025292E+03 -0.40500208206E+03  0.92500066081E+03  0.50400001928E-02 0.  1.
</event>
<event>
 5   0  0.4983159E-06  0.1799437E+04  0.7818609E-02  0.8706599E-01
        1   -1    0    0  501    0  0.00000000000E+00  0.00000000000E+00  0.10745121710E+04  0.10745121710E+04  0.50400001928E-02 0.  1.
       -1   -1    0    0    0  501  0.00000000000E+00  0.00000000000E+00 -0.75335910386E+03  0.75335910388E+03  0.50400001928E-02 0. -1.
    10030    2    1    2    0    0  0.00000000000E+00  0.00000000000E+00  0.32115306710E+03  0.18278712748E+04  0.17994371634E+04 0.  0.
        4    1    3    3  502    0 -0.63030008641E+03  0.17923242750E+03 -0.46567936683E+03  0.80390381737E+03  0.12699999809E+01 0. -1.
       -4    1    3    3    0  502  0.63030008641E+03 -0.17923242750E+03  0.78683243393E+03  0.10239674575E+04  0.12699999809E+01 0.  1.
</event>
<event>
 5   0  0.9999162E-06  0.1800269E+04  0.7818609E-02  0.8706156E-01
        2   -1    0    0  501    0  0.00000000000E+00  0.00000000000E+00  0.73918741142E+03  0.73918741143E+03  0.25500000920E-02 0. -1.
       -2   -1    0    0    0  501  0.00000000000E+00  0.00000000000E+00 -0.10961255962E+04  0.10961255962E+04  0.25500000920E-02 0.  1.
    10030    2    1    2    0    0  0.00000000000E+00  0.00000000000E+00 -0.35693818480E+03  0.18353130076E+04  0.18002691377E+04 0.  0.
        1    1    3    3  502    0  0.42626833386E+03 -0.78585672431E+03 -0.71708286091E+02  0.89689328346E+03  0.50400001928E-02 0. -1.
       -1    1    3    3    0  502 -0.42626833386E+03  0.78585672431E+03 -0.28522989871E+03  0.93841972419E+03  0.50400001928E-02 0.  1.
</event>
<event>
 5   0  0.1035018E-05  0.1798535E+04  0.7818609E-02  0.8707079E-01
        2   -1    0    0  501    0  0.00000000000E+00  0.00000000000E+00  0.54735450728E+03  0.54735450729E+03  0.25500000920E-02 0.  1.
       -2   -1    0    0    0  501  0.00000000000E+00  0.00000000000E+00 -0.14774376952E+04  0.14774376952E+04  0.25500000920E-02 0. -1.
    10030    2    1    2    0    0  0.00000000000E+00  0.00000000000E+00 -0.93008318790E+03  0.20247922025E+04  0.17985351614E+04 0.  0.
        3    1    3    3  502    0 -0.56237476194E+03 -0.56244708653E+03 -0.93743551434E+03  0.12293890563E+04  0.10100000352E+00 0. -1.
       -3    1    3    3    0  502  0.56237476194E+03  0.56244708653E+03  0.73523264446E+01  0.79540314616E+03  0.10100000352E+00 0.  1.
</event>
<event>
 5   0  0.4953155E-06  0.1801914E+04  0.7818609E-02  0.8705282E-01
        1   -1    0    0  501    0  0.00000000000E+00  0.00000000000E+00  0.10018952528E+04  0.10018952528E+04  0.50400001928E-02 0.  1.
       -1   -1    0    0    0  501  0.00000000000E+00  0.00000000000E+00 -0.81018808219E+03  0.81018808221E+03  0.50400001928E-02 0. -1.
    10030    2    1    2    0    0  0.00000000000E+00  0.00000000000E+00  0.19170717058E+03  0.18120833350E+04  0.18019140861E+04 0.  0.
        2    1    3    3  502    0 -0.35291696148E+03 -0.82478249711E+03  0.12275926207E+02  0.89719966987E+03  0.25500000920E-02 0. -1.
       -2    1    3    3    0  502  0.35291696148E+03  0.82478249711E+03  0.17943124437E+03  0.91488366513E+03  0.25500000920E-02 0.  1.
</event>
<event>
 5   0  0.1035018E-05  0.1799812E+04  0.7818609E-02  0.8706399E-01
        2   -1    0    0  501    0  0.00000000000E+00  0.00000000000E+00  0.74009300010E+03  0.74009300010E+03  0.25500000920E-02 0.  1.
       -2   -1    0    0    0  501  0.00000000000E+00  0.00000000000E+00 -0.10942284629E+04  0.10942284629E+04  0.25500000920E-02 0. -1.
    10030    2    1    2    0    0  0.00000000000E+00  0.00000000000E+00 -0.35413546276E+03  0.18343214630E+04  0.17998120189E+04 0.  0.
        3    1    3    3  502    0  0.78343500871E+03 -0.26307544587E+03  0.18592377862E+03  0.84708132121E+03  0.10100000352E+00 0.  1.
       -3    1    3    3    0  502 -0.78343500871E+03  0.26307544587E+03 -0.54005924138E+03  0.98724014176E+03  0.10100000352E+00 0. -1.
</event>
<event>
 5   0  0.4983159E-06  0.1801176E+04  0.7818609E-02  0.8705674E-01
       -1   -1    0    0    0  501  0.00000000000E+00  0.00000000000E+00  0.71236045002E+03  0.71236045004E+03  0.50400001928E-02 0.  1.
        1   -1    0    0  501    0  0.00000000000E+00  0.00000000000E+00 -0.11385513630E+04  0.11385513630E+04  0.50400001928E-02 0. -1.
    10030    2    1    2    0    0  0.00000000000E+00  0.00000000000E+00 -0.42619091300E+03  0.18509118131E+04  0.18011762394E+04 0.  0.
        4    1    3    3  502    0 -0.18733895185E+03 -0.54919887707E+03  0.49464714028E+03  0.76249111191E+03  0.12699999809E+01 0.  1.
       -4    1    3    3    0  502  0.18733895185E+03  0.54919887707E+03 -0.92083805327E+03  0.10884207012E+04  0.12699999809E+01 0. -1.
</event>
<event>
 5   0  0.4953155E-06  0.1800422E+04  0.7818609E-02  0.8706075E-01
       -1   -1    0    0    0  501  0.00000000000E+00  0.00000000000E+00  0.10794562318E+04  0.10794562318E+04  0.50400001928E-02 0. -1.
        1   -1    0    0  501    0  0.00000000000E+00  0.00000000000E+00 -0.75072979793E+03  0.75072979794E+03  0.50400001928E-02 0.  1.
    10030    2    1    2    0    0  0.00000000000E+00  0.00000000000E+00  0.32872643391E+03  0.18301860298E+04  0.18004221270E+04 0.  0.
        2    1    3    3  502    0  0.47413319146E+03  0.24243588678E+03  0.90217368827E+03  0.10476138632E+04  0.25500000920E-02 0. -1.
       -2    1    3    3    0  502 -0.47413319146E+03 -0.24243588678E+03 -0.57344725437E+03  0.78257216664E+03  0.25500000920E-02 0.  1.
</event>
<event>
 5   0  0.4994123E-06  0.1800650E+04  0.7818609E-02  0.8705954E-01
        1   -1    0    0  501    0  0.00000000000E+00  0.00000000000E+00  0.12481004615E+04  0.12481004615E+04  0.50400001928E-02 0. -1.
       -1   -1    0    0    0  501  0.00000000000E+00  0.00000000000E+00 -0.64945499084E+03  0.64945499086E+03  0.50400001928E-02 0.  1.
    10030    2    1    2    0    0  0.00000000000E+00  0.00000000000E+00  0.59864547067E+03  0.18975554524E+04  0.18006499647E+04 0.  0.
        1    1    3    3  502    0 -0.21518873373E+02 -0.89308569923E+03  0.41723701506E+03  0.98597761376E+03  0.50400001928E-02 0. -1.
       -1    1    3    3    0  502  0.21518873373E+02  0.89308569923E+03  0.18140845562E+03  0.91157783863E+03  0.50400001928E-02 0.  1.
</event>
<event>
 5   0  0.9999162E-06  0.1800556E+04  0.7818609E-02  0.8706004E-01
        2   -1    0    0  501    0  0.00000000000E+00  0.00000000000E+00  0.19579702772E+04  0.19579702772E+04  0.25500000920E-02 0.  1.
       -2   -1    0    0    0  501  0.00000000000E+00  0.00000000000E+00 -0.41394932659E+03  0.41394932660E+03  0.25500000920E-02 0. -1.
    10030    2    1    2    0    0  0.00000000000E+00  0.00000000000E+00  0.15440209506E+04  0.23719196038E+04  0.18005560005E+04 0.  0.
        1    1    3    3  502    0  0.52879216666E+03  0.35044732157E+02  0.17307227924E+04  0.18100416219E+04  0.50400001928E-02 0.  1.
       -1    1    3    3    0  502 -0.52879216666E+03 -0.35044732157E+02 -0.18670184181E+03  0.56187798189E+03  0.50400001928E-02 0. -1.
</event>
<event>
 5   0  0.4994123E-06  0.1800887E+04  0.7818609E-02  0.8705828E-01
        1   -1    0    0  501    0  0.00000000000E+00  0.00000000000E+00  0.10065517714E+04  0.10065517714E+04  0.50400001928E-02 0.  1.
       -1   -1    0    0    0  501  0.00000000000E+00  0.00000000000E+00 -0.80552116926E+03  0.80552116927E+03  0.50400001928E-02 0. -1.
    10030    2    1    2    0    0  0.00000000000E+00  0.00000000000E+00  0.20103060214E+03  0.18120729407E+04  0.18008872922E+04 0.  0.
        1    1    3    3  502    0  0.69885905160E+03 -0.50055789985E+03 -0.16917290211E+03  0.87611737566E+03  0.50400001928E-02 0. -1.
       -1    1    3    3    0  502 -0.69885905160E+03  0.50055789985E+03  0.37020350424E+03  0.93595556502E+03  0.50400001928E-02 0.  1.
</event>
<event>
 5   0  0.4983159E-06  0.1804297E+04  0.7818609E-02  0.8704018E-01
       -1   -1    0    0    0  501  0.00000000000E+00  0.00000000000E+00  0.65125559034E+03  0.65125559036E+03  0.50400001928E-02 0.  1.
        1   -1    0    0  501    0  0.00000000000E+00  0.00000000000E+00 -0.12496967735E+04  0.12496967735E+04  0.50400001928E-02 0. -1.
    10030    2    1    2    0    0  0.00000000000E+00  0.00000000000E+00 -0.59844118316E+03  0.19009523639E+04  0.18042971041E+04 0.  0.
        4    1    3    3  502    0 -0.27108944667E+03  0.83108539858E+02 -0.12015300463E+04  0.12345333461E+04  0.12699999809E+01 0. -1.
       -4    1    3    3    0  502  0.27108944667E+03 -0.83108539858E+02  0.60308886316E+03  0.66641901778E+03  0.12699999809E+01 0.  1.
</event>
<event>
 5   0  0.9589963E-06  0.1798734E+04  0.7818609E-02  0.8706973E-01
       -2   -1    0    0    0  501  0.00000000000E+00  0.00000000000E+00  0.64791144436E+03  0.64791144437E+03  0.25500000920E-02 0.  1.
        2   -1    0    0  501    0  0.00000000000E+00  0.00000000000E+00 -0.12484129116E+04  0.12484129116E+04  0.25500000920E-02 0. -1.
    10030    2    1    2    0    0  0.00000000000E+00  0.00000000000E+00 -0.60050146724E+03  0.18963243560E+04  0.17987340134E+04 0.  0.
        2    1    3    3  502    0 -0.53228685819E+03  0.10357822813E+02  0.46393830926E+03  0.70616948299E+03  0.25500000920E-02 0.  1.
       -2    1    3    3    0  502  0.53228685819E+03 -0.10357822813E+02 -0.10644397765E+04  0.11901548730E+04  0.25500000920E-02 0. -1.
</event>
<event>
 5   0  0.9589963E-06  0.1795782E+04  0.7818609E-02  0.8708546E-01
       -2   -1    0    0    0  501  0.00000000000E+00  0.00000000000E+00  0.11136454877E+04  0.11136454877E+04  0.25500000920E-02 0.  1.
        2   -1    0    0  501    0  0.00000000000E+00  0.00000000000E+00 -0.72393608981E+03  0.72393608981E+03  0.25500000920E-02 0. -1.
    10030    2    1    2    0    0  0.00000000000E+00  0.00000000000E+00  0.38970939793E+03  0.18375815776E+04  0.17957819019E+04 0.  0.
        2    1    3    3  502    0 -0.26030503839E+02 -0.89619045998E+03  0.24470446767E+03  0.92936279471E+03  0.25500000920E-02 0.  1.
       -2    1    3    3    0  502  0.26030503839E+02  0.89619045998E+03  0.14500493026E+03  0.90821878284E+03  0.25500000920E-02 0. -1.
</event>
<event>
 5   0  0.3626125E-06  0.1798766E+04  0.7818609E-02  0.8706956E-01
       -4   -1    0    0    0  501  0.00000000000E+00  0.00000000000E+00  0.10684614987E+04  0.10684622535E+04  0.12699999809E+01 0.  1.
        4   -1    0    0  501    0  0.00000000000E+00  0.00000000000E+00 -0.75705887172E+03  0.75705993696E+03  0.12699999809E+01 0. -1.
    10030    2    1    2    0    0  0.00000000000E+00  0.00000000000E+00  0.31140262700E+03  0.18255221905E+04  0.17987661526E+04 0.  0.
        4    1    3    3  502    0  0.34546056921E+02 -0.40058722367E+02  0.10668814070E+04  0.10681927171E+04  0.12699999809E+01 0.  1.
       -4    1    3    3    0  502 -0.34546056921E+02  0.40058722367E+02 -0.75547878001E+03  0.75732947337E+03  0.12699999809E+01 0. -1.
</event>
<event>
 5   0  0.9999162E-06  0.1800487E+04  0.7818609E-02  0.8706041E-01
       -2   -1    0    0    0  501  0.00000000000E+00  0.00000000000E+00  0.29055981973E+03  0.29055981974E+03  0.25500000920E-02 0.  1.
        2   -1    0    0  501    0  0.00000000000E+00  0.00000000000E+00 -0.27892302701E+04  0.27892302701E+04  0.25500000920E-02 0. -1.
    10030    2    1    2    0    0  0.00000000000E+00  0.00000000000E+00 -0.24986704504E+04  0.30797900898E+04  0.18004868725E+04 0.  0.
        1    1    3    3  502    0 -0.78551115353E+02 -0.80682741401E+03 -0.19190635717E+04  0.20832536442E+04  0.50400001928E-02 0. -1.
       -1    1    3    3    0  502  0.78551115353E+02  0.80682741401E+03 -0.57960687868E+03  0.99653644568E+03  0.50400001928E-02 0.  1.
</event>
<event>
 5   0  0.4987456E-06  0.1800480E+04  0.7818609E-02  0.8706044E-01
        1   -1    0    0  501    0  0.00000000000E+00  0.00000000000E+00  0.65601991878E+03  0.65601991880E+03  0.50400001928E-02 0.  1.
       -1   -1    0    0    0  501  0.00000000000E+00  0.00000000000E+00 -0.12353770175E+04  0.12353770176E+04  0.50400001928E-02 0. -1.
    10030    2    1    2    0    0  0.00000000000E+00  0.00000000000E+00 -0.57935709877E+03  0.18913969364E+04  0.18004798591E+04 0.  0.
        3    1    3    3  502    0 -0.12386901482E+03  0.31093649640E+03  0.58822876838E+03  0.67678514447E+03  0.10100000352E+00 0.  1.
       -3    1    3    3    0  502  0.12386901482E+03 -0.31093649640E+03 -0.11675858671E+04  0.12146117919E+04  0.10100000352E+00 0. -1.
</event>
<event>
 5   0  0.1036381E-05  0.1800656E+04  0.7818609E-02  0.8705951E-01
       -2   -1    0    0    0  501  0.00000000000E+00  0.00000000000E+00  0.80516213979E+03  0.80516213980E+03  0.25500000920E-02 0. -1.
        2   -1    0    0  501    0  0.00000000000E+00  0.00000000000E+00 -0.10067414494E+04  0.10067414494E+04  0.25500000920E-02 0.  1.
    10030    2    1    2    0    0  0.00000000000E+00  0.00000000000E+00 -0.20157930962E+03  0.18119035892E+04  0.18006555469E+04 0.  0.
        4    1    3    3  502    0 -0.72168175836E+03  0.33627658475E+03  0.32217159133E+03  0.85889618055E+03  0.12699999809E+01 0. -1.
       -4    1    3    3    0  502  0.72168175836E+03 -0.33627658475E+03 -0.52375090095E+03  0.95300740865E+03  0.12699999809E+01 0.  1.
</event>
<event>
 5   0  0.1000316E-05  0.1800418E+04  0.7818609E-02  0.8706077E-01
       -2   -1    0    0    0  501  0.00000000000E+00  0.00000000000E+00  0.47554732471E+03  0.47554732471E+03  0.25500000920E-02 0. -1.
        2   -1    0    0  501    0  0.00000000000E+00  0.00000000000E+00 -0.17040920562E+04  0.17040920562E+04  0.25500000920E-02 0.  1.
    10030    2    1    2    0    0  0.00000000000E+00  0.00000000000E+00 -0.12285447315E+04  0.21796393809E+04  0.18004181941E+04 0.  0.
        5    1    3    3  502    0  0.28884812640E+03 -0.50417439766E+03 -0.14466444322E+04  0.15589827666E+04  0.46999998093E+01 0.  1.
       -5    1    3    3    0  502 -0.28884812640E+03  0.50417439766E+03  0.21809970073E+03  0.62065661428E+03  0.46999998093E+01 0. -1.
</event>
<event>
 5   0  0.1035018E-05  0.1799556E+04  0.7818609E-02  0.8706536E-01
       -2   -1    0    0    0  501  0.00000000000E+00  0.00000000000E+00  0.61382865589E+03  0.61382865590E+03  0.25500000920E-02 0.  1.
        2   -1    0    0  501    0  0.00000000000E+00  0.00000000000E+00 -0.13189357059E+04  0.13189357060E+04  0.25500000920E-02 0. -1.
    10030    2    1    2    0    0  0.00000000000E+00  0.00000000000E+00 -0.70510705005E+03  0.19327643618E+04  0.17995560915E+04 0.  0.
        3    1    3    3  502    0  0.39815373726E+03  0.79777007515E+03 -0.22261438022E+03  0.91897805402E+03  0.10100000352E+00 0.  1.
       -3    1    3    3    0  502 -0.39815373726E+03 -0.79777007515E+03 -0.48249266984E+03  0.10137863078E+04  0.10100000352E+00 0. -1.
</event>
<event>
 5   0  0.4994123E-06  0.1799373E+04  0.7818609E-02  0.8706633E-01
       -1   -1    0    0    0  501  0.00000000000E+00  0.00000000000E+00  0.11022468181E+04  0.11022468181E+04  0.50400001928E-02 0. -1.
        1   -1    0    0  501    0  0.00000000000E+00  0.00000000000E+00 -0.73435069343E+03  0.73435069345E+03  0.50400001928E-02 0.  1.
    10030    2    1    2    0    0  0.00000000000E+00  0.00000000000E+00  0.36789612468E+03  0.18365975116E+04  0.17993729077E+04 0.  0.
        1    1    3    3  502    0  0.36117325543E+03 -0.73607884515E+03 -0.19408893179E+03  0.84257266760E+03  0.50400001928E-02 0.  1.
       -1    1    3    3    0  502 -0.36117325543E+03  0.73607884515E+03  0.56198505647E+03  0.99402484398E+03  0.50400001928E-02 0. -1.
</event>
<event>
 5   0  0.4953155E-06  0.1801139E+04  0.7818609E-02  0.8705694E-01
       -1   -1    0    0    0  501  0.00000000000E+00  0.00000000000E+00  0.62811191489E+03  0.62811191492E+03  0.50400001928E-02 0. -1.
        1   -1    0    0  501    0  0.00000000000E+00  0.00000000000E+00 -0.12912115874E+04  0.12912115874E+04  0.50400001928E-02 0.  1.
    10030    2    1    2    0    0  0.00000000000E+00  0.00000000000E+00 -0.66309967251E+03  0.19193235023E+04  0.18011389538E+04 0.  0.
        2    1    3    3  502    0 -0.75541524149E+03  0.15345765892E+03  0.16464767410E+03  0.78823238753E+03  0.25500000920E-02 0. -1.
       -2    1    3    3    0  502  0.75541524149E+03 -0.15345765892E+03 -0.82774734660E+03  0.11310911148E+04  0.25500000920E-02 0.  1.
</event>
<event>
 5   0  0.4953155E-06  0.1799295E+04  0.7818609E-02  0.8706675E-01
       -1   -1    0    0    0  501  0.00000000000E+00  0.00000000000E+00  0.12869111800E+04  0.12869111800E+04  0.50400001928E-02 0. -1.
        1   -1    0    0  501    0  0.00000000000E+00  0.00000000000E+00 -0.62892105914E+03  0.62892105917E+03  0.50400001928E-02 0.  1.
    10030    2    1    2    0    0  0.00000000000E+00  0.00000000000E+00  0.65799012086E+03  0.19158322392E+04  0.17992949090E+04 0.  0.
        2    1    3    3  502    0 -0.35549196452E+02  0.28955579010E+03 -0.57715922518E+03  0.64669859453E+03  0.25500000920E-02 0.  1.
       -2    1    3    3    0  502  0.35549196452E+02 -0.28955579010E+03  0.12351493460E+04  0.12691336447E+04  0.25500000920E-02 0. -1.
</event>
<event>
 5   0  0.9589963E-06  0.1800382E+04  0.7818609E-02  0.8706096E-01
       -2   -1    0    0    0  501  0.00000000000E+00  0.00000000000E+00  0.60600643767E+03  0.60600643768E+03  0.25500000920E-02 0. -1.
        2   -1    0    0  501    0  0.00000000000E+00  0.00000000000E+00 -0.13371875385E+04  0.13371875385E+04  0.25500000920E-02 0.  1.
    10030    2    1    2    0    0  0.00000000000E+00  0.00000000000E+00 -0.73118110081E+03  0.19431939762E+04  0.18003824668E+04 0.  0.
        2    1    3    3  502    0 -0.80236917475E+01  0.44316875947E+03 -0.12112462738E+04  0.12897986140E+04  0.25500000920E-02 0.  1.
       -2    1    3    3    0  502  0.80236917475E+01 -0.44316875947E+03  0.48006517294E+03  0.65339536215E+03  0.25500000920E-02 0. -1.
</event>
<event>
 5   0  0.1036381E-05  0.1799384E+04  0.7818609E-02  0.8706627E-01
       -2   -1    0    0    0  501  0.00000000000E+00  0.00000000000E+00  0.72377352075E+03  0.72377352075E+03  0.25500000920E-02 0. -1.
        2   -1    0    0  501    0  0.00000000000E+00  0.00000000000E+00 -0.11183690452E+04  0.11183690452E+04  0.25500000920E-02 0.  1.
    10030    2    1    2    0    0  0.00000000000E+00  0.00000000000E+00 -0.39459552447E+03  0.18421425660E+04  0.17993842295E+04 0.  0.
        4    1    3    3  502    0  0.38879200794E+03  0.42685397501E+03 -0.90367978388E+03  0.10723816047E+04  0.12699999809E+01 0.  1.
       -4    1    3    3    0  502 -0.38879200794E+03 -0.42685397501E+03  0.50908425941E+03  0.76976096127E+03  0.12699999809E+01 0. -1.
</event>
<event>
 5   0  0.1000316E-05  0.1800722E+04  0.7818609E-02  0.8705916E-01
       -2   -1    0    0    0  501  0.00000000000E+00  0.00000000000E+00  0.13104346855E+04  0.13104346855E+04  0.25500000920E-02 0.  1.
        2   -1    0    0  501    0  0.00000000000E+00  0.00000000000E+00 -0.61861145542E+03  0.61861145542E+03  0.25500000920E-02 0. -1.
    10030    2    1    2    0    0  0.00000000000E+00  0.00000000000E+00  0.69182323003E+03  0.19290461409E+04  0.18007219752E+04 0.  0.
        5    1    3    3  502    0  0.63425812013E+02  0.64737159500E+03  0.10127801268E+04  0.12036853787E+04  0.46999998093E+01 0.  1.
       -5    1    3    3    0  502 -0.63425812013E+02 -0.64737159500E+03 -0.32095689681E+03  0.72536076214E+03  0.46999998093E+01 0. -1.
</event>
<event>
 5   0  0.4994123E-06  0.1800201E+04  0.7818609E-02  0.8706193E-01
        1   -1    0    0  501    0  0.00000000000E+00  0.00000000000E+00  0.92681209325E+03  0.92681209326E+03  0.50400001928E-02 0.  1.
       -1   -1    0    0    0  501  0.00000000000E+00  0.00000000000E+00 -0.87415879748E+03  0.87415879749E+03  0.50400001928E-02 0. -1.
    10030    2    1    2    0    0  0.00000000000E+00  0.00000000000E+00  0.52653295774E+02  0.18009708908E+04  0.18002010387E+04 0.  0.
        1    1    3    3  502    0 -0.40327786821E+03  0.72047500319E+03  0.38489822181E+03  0.91096866598E+03  0.50400001928E-02 0.  1.
       -1    1    3    3    0  502  0.40327786821E+03 -0.72047500319E+03 -0.33224492604E+03  0.89000222478E+03  0.50400001928E-02 0. -1.
</event>
<event>
 5   0  0.4983159E-06  0.1800210E+04  0.7818609E-02  0.8706188E-01
       -1   -1    0    0    0  501  0.00000000000E+00  0.00000000000E+00  0.50898467671E+03  0.50898467674E+03  0.50400001928E-02 0. -1.
        1   -1    0    0  501    0  0.00000000000E+00  0.00000000000E+00 -0.15917748906E+04  0.15917748906E+04  0.50400001928E-02 0.  1.
    10030    2    1    2    0    0  0.00000000000E+00  0.00000000000E+00 -0.10827902139E+04  0.21007595673E+04  0.18002100190E+04 0.  0.
        4    1    3    3  502    0  0.22332039643E+03  0.68156184508E+03 -0.11760594330E+04  0.13775035212E+04  0.12699999809E+01 0.  1.
       -4    1    3    3    0  502 -0.22332039643E+03 -0.68156184508E+03  0.93269219105E+02  0.72325604613E+03  0.12699999809E+01 0. -1.
</event>
<event>
 5   0  0.9589963E-06  0.1799920E+04  0.7818609E-02  0.8706342E-01
       -2   -1    0    0    0  501  0.00000000000E+00  0.00000000000E+00  0.79197700007E+03  0.79197700007E+03  0.25500000920E-02 0.  1.
        2   -1    0    0  501    0  0.00000000000E+00  0.00000000000E+00 -0.10226660383E+04  0.10226660383E+04  0.25500000920E-02 0. -1.
    10030    2    1    2    0    0  0.00000000000E+00  0.00000000000E+00 -0.23068903819E+03  0.18146430383E+04  0.17999199772E+04 0.  0.
        2    1    3    3  502    0  0.79306708875E+03  0.42501054054E+03 -0.96792524733E+02  0.90496307089E+03  0.25500000920E-02 0.  1.
       -2    1    3    3    0  502 -0.79306708875E+03 -0.42501054054E+03 -0.13389651345E+03  0.90967996743E+03  0.25500000920E-02 0. -1.
</event>
<event>
 5   0  0.9999162E-06  0.1803116E+04  0.7818609E-02  0.8704644E-01
       -2   -1    0    0    0  501  0.00000000000E+00  0.00000000000E+00  0.39602775474E+03  0.39602775474E+03  0.25500000920E-02 0.  1.
        2   -1    0    0  501    0  0.00000000000E+00  0.00000000000E+00 -0.20523996809E+04  0.20523996809E+04  0.25500000920E-02 0. -1.
    10030    2    1    2    0    0  0.00000000000E+00  0.00000000000E+00 -0.16563719262E+04  0.24484274357E+04  0.18031164549E+04 0.  0.
        1    1    3    3  502    0  0.39169621991E+01  0.61656198694E+02  0.39315000392E+03  0.39797456582E+03  0.50400001928E-02 0.  1.
       -1    1    3    3    0  502 -0.39169621991E+01 -0.61656198694E+02 -0.20495219301E+04  0.20504528698E+04  0.50400001928E-02 0. -1.
</event>
<event>
 5   0  0.9999162E-06  0.1800115E+04  0.7818609E-02  0.8706238E-01
        2   -1    0    0  501    0  0.00000000000E+00  0.00000000000E+00  0.18494911697E+04  0.18494911697E+04  0.25500000920E-02 0. -1.
       -2   -1    0    0    0  501  0.00000000000E+00  0.00000000000E+00 -0.43801412642E+03  0.43801412643E+03  0.25500000920E-02 0.  1.
    10030    2    1    2    0    0  0.00000000000E+00  0.00000000000E+00  0.14114770433E+04  0.22875052961E+04  0.18001147286E+04 0.  0.
        1    1    3    3  502    0 -0.76761027244E+03 -0.25818436191E+03  0.20670439017E+03  0.83582976737E+03  0.50400001928E-02 0.  1.
       -1    1    3    3    0  502  0.76761027244E+03  0.25818436191E+03  0.12047726531E+04  0.14516755288E+04  0.50400001928E-02 0. -1.
</event>
<event>
 5   0  0.4953155E-06  0.1800762E+04  0.7818609E-02  0.8705894E-01
        1   -1    0    0  501    0  0.00000000000E+00  0.00000000000E+00  0.10749439653E+04  0.10749439653E+04  0.50400001928E-02 0. -1.
       -1   -1    0    0    0  501  0.00000000000E+00  0.00000000000E+00 -0.75416588589E+03  0.75416588590E+03  0.50400001928E-02 0.  1.
    10030    2    1    2    0    0  0.00000000000E+00  0.00000000000E+00  0.32077807943E+03  0.18291098512E+04  0.18007621363E+04 0.  0.
        2    1    3    3  502    0  0.47838539669E+03  0.23037334603E+03 -0.57821791567E+03  0.78502256295E+03  0.25500000920E-02 0.  1.
       -2    1    3    3    0  502 -0.47838539669E+03 -0.23037334603E+03  0.89899599510E+03  0.10440872883E+04  0.25500000920E-02 0. -1.
</event>
<event>
 5   0  0.1000316E-05  0.1801286E+04  0.7818609E-02  0.8705616E-01
       -2   -1    0    0    0  501  0.00000000000E+00  0.00000000000E+00  0.50485888130E+03  0.50485888131E+03  0.25500000920E-02 0.  1.
        2   -1    0    0  501    0  0.00000000000E+00  0.00000000000E+00 -0.16067027096E+04  0.16067027096E+04  0.25500000920E-02 0. -1.
    10030    2    1    2    0    0  0.00000000000E+00  0.00000000000E+00 -0.11018438283E+04  0.21115615909E+04  0.18012863543E+04 0.  0.
        5    1    3    3  502    0 -0.60926061142E+03 -0.34216404461E+03  0.11516208535E+03  0.70820838879E+03  0.46999998093E+01 0.  1.
       -5    1    3    3    0  502  0.60926061142E+03  0.34216404461E+03 -0.12170059136E+04  0.14033532021E+04  0.46999998093E+01 0. -1.
</event>
<event>
 5   0  0.4983159E-06  0.1800521E+04  0.7818609E-02  0.8706022E-01
        1   -1    0    0  501    0  0.00000000000E+00  0.00000000000E+00  0.53155143598E+03  0.53155143600E+03  0.50400001928E-02 0. -1.
       -1   -1    0    0    0  501  0.00000000000E+00  0.00000000000E+00 -0.15247239414E+04  0.15247239414E+04  0.50400001928E-02 0.  1.
    10030    2    1    2    0    0  0.00000000000E+00  0.00000000000E+00 -0.99317250543E+03  0.20562753774E+04  0.18005212585E+04 0.  0.
        4    1    3    3  502    0 -0.42788860752E+03  0.75996653018E+03 -0.24165234987E+03  0.90500566769E+03  0.12699999809E+01 0. -1.
       -4    1    3    3    0  502  0.42788860752E+03 -0.75996653018E+03 -0.75152015556E+03  0.11512697097E+04  0.12699999809E+01 0.  1.
</event>
<event>
 5   0  0.4994123E-06  0.1794176E+04  0.7818609E-02  0.8709403E-01
       -1   -1    0    0    0  501  0.00000000000E+00  0.00000000000E+00  0.96576253726E+03  0.96576253728E+03  0.50400001928E-02 0.  1.
        1   -1    0    0  501    0  0.00000000000E+00  0.00000000000E+00 -0.83329700501E+03  0.83329700502E+03  0.50400001928E-02 0. -1.
    10030    2    1    2    0    0  0.00000000000E+00  0.00000000000E+00  0.13246553226E+03  0.17990595423E+04  0.17941761674E+04 0.  0.
        1    1    3    3  502    0  0.44091536316E+02  0.15630154007E+03  0.95089982689E+03  0.96466818948E+03  0.50400001928E-02 0.  1.
       -1    1    3    3    0  502 -0.44091536316E+02 -0.15630154007E+03 -0.81843429463E+03  0.83439135282E+03  0.50400001928E-02 0. -1.
</event>
<event>
 5   0  0.4994123E-06  0.1799655E+04  0.7818609E-02  0.8706483E-01
        1   -1    0    0  501    0  0.00000000000E+00  0.00000000000E+00  0.15048252013E+04  0.15048252013E+04  0.50400001928E-02 0.  1.
       -1   -1    0    0    0  501  0.00000000000E+00  0.00000000000E+00 -0.53806219094E+03  0.53806219096E+03  0.50400001928E-02 0. -1.
    10030    2    1    2    0    0  0.00000000000E+00  0.00000000000E+00  0.96676301034E+03  0.20428873922E+04  0.17996550167E+04 0.  0.
        1    1    3    3  502    0  0.73467899222E+03  0.11488640048E+02  0.10730115810E+04  0.13004764755E+04  0.50400001928E-02 0.  1.
       -1    1    3    3    0  502 -0.73467899222E+03 -0.11488640048E+02 -0.10624857065E+03  0.74241091671E+03  0.50400001928E-02 0. -1.
</event>
<event>
 5   0  0.4953155E-06  0.1799312E+04  0.7818609E-02  0.8706666E-01
       -1   -1    0    0    0  501  0.00000000000E+00  0.00000000000E+00  0.72044138789E+03  0.72044138791E+03  0.50400001928E-02 0.  1.
        1   -1    0    0  501    0  0.00000000000E+00  0.00000000000E+00 -0.11234508354E+04  0.11234508354E+04  0.50400001928E-02 0. -1.
    10030    2    1    2    0    0  0.00000000000E+00  0.00000000000E+00 -0.40300944751E+03  0.18438922233E+04  0.17993115118E+04 0.  0.
        2    1    3    3  502    0  0.12432177465E+03  0.40517488587E+03 -0.10147395746E+04  0.10996904092E+04  0.25500000920E-02 0. -1.
       -2    1    3    3    0  502 -0.12432177465E+03 -0.40517488587E+03  0.61173012708E+03  0.74420181415E+03  0.25500000920E-02 0.  1.
</event>
<event>
 5   0  0.4987456E-06  0.1799586E+04  0.7818609E-02  0.8706519E-01
        1   -1    0    0  501    0  0.00000000000E+00  0.00000000000E+00  0.12774057396E+04  0.12774057396E+04  0.50400001928E-02 0. -1.
       -1   -1    0    0    0  501  0.00000000000E+00  0.00000000000E+00 -0.63380623766E+03  0.63380623768E+03  0.50400001928E-02 0.  1.
    10030    2    1    2    0    0  0.00000000000E+00  0.00000000000E+00  0.64359950194E+03  0.19112119773E+04  0.17995863145E+04 0.  0.
        3    1    3    3  502    0 -0.22702224205E+03 -0.68397251206E+03 -0.25038649960E+03  0.76292260750E+03  0.10100000352E+00 0.  1.
       -3    1    3    3    0  502  0.22702224205E+03  0.68397251206E+03  0.89398600154E+03  0.11482893698E+04  0.10100000352E+00 0. -1.
</event>
<event>
 5   0  0.1035018E-05  0.1800151E+04  0.7818609E-02  0.8706219E-01
       -2   -1    0    0    0  501  0.00000000000E+00  0.00000000000E+00  0.44349294314E+03  0.44349294315E+03  0.25500000920E-02 0.  1.
        2   -1    0    0  501    0  0.00000000000E+00  0.00000000000E+00 -0.18267164154E+04  0.18267164154E+04  0.25500000920E-02 0. -1.
    10030    2    1    2    0    0  0.00000000000E+00  0.00000000000E+00 -0.13832234723E+04  0.22702093586E+04  0.18001509263E+04 0.  0.
        3    1    3    3  502    0 -0.32826167532E+03 -0.20260566316E+02  0.36500174423E+03  0.49131710892E+03  0.10100000352E+00 0.  1.
       -3    1    3    3    0  502  0.32826167532E+03  0.20260566316E+02 -0.17482252165E+04  0.17788922497E+04  0.10100000352E+00 0. -1.
</event>
<event>
 5   0  0.4987456E-06  0.1800130E+04  0.7818609E-02  0.8706231E-01
        1   -1    0    0  501    0  0.00000000000E+00  0.00000000000E+00  0.11883348633E+04  0.11883348633E+04  0.50400001928E-02 0.  1.
       -1   -1    0    0    0  501  0.00000000000E+00  0.00000000000E+00 -0.68172423034E+03  0.68172423036E+03  0.50400001928E-02 0. -1.
    10030    2    1    2    0    0  0.00000000000E+00  0.00000000000E+00  0.50661063297E+03  0.18700590937E+04  0.18001296288E+04 0.  0.
        3    1    3    3  502    0  0.44352040605E+03 -0.45256095491E+03 -0.41074045648E+03  0.75513541916E+03  0.10100000352E+00 0. -1.
       -3    1    3    3    0  502 -0.44352040605E+03  0.45256095491E+03  0.91735108945E+03  0.11149236745E+04  0.10100000352E+00 0.  1.
</event>
<event>
 5   0  0.1036381E-05  0.1800491E+04  0.7818609E-02  0.8706039E-01
        2   -1    0    0  501    0  0.00000000000E+00  0.00000000000E+00  0.11634564521E+04  0.11634564521E+04  0.25500000920E-02 0. -1.
       -2   -1    0    0    0  501  0.00000000000E+00  0.00000000000E+00 -0.69658108163E+03  0.69658108164E+03  0.25500000920E-02 0.  1.
    10030    2    1    2    0    0  0.00000000000E+00  0.00000000000E+00  0.46687537048E+03  0.18600375337E+04  0.18004907707E+04 0.  0.
        4    1    3    3  502    0 -0.83766749641E+03 -0.59319430170E+02 -0.10168968867E+03  0.84590072409E+03  0.12699999809E+01 0. -1.
       -4    1    3    3    0  502  0.83766749641E+03  0.59319430170E+02  0.56856505915E+03  0.10141368097E+04  0.12699999809E+01 0.  1.
</event>
<event>
 5   0  0.1035018E-05  0.1788869E+04  0.7818609E-02  0.8712241E-01
       -2   -1    0    0    0  501  0.00000000000E+00  0.00000000000E+00  0.59216878075E+03  0.59216878076E+03  0.25500000920E-02 0.  1.
        2   -1    0    0  501    0  0.00000000000E+00  0.00000000000E+00 -0.13509876777E+04  0.13509876777E+04  0.25500000920E-02 0. -1.
    10030    2    1    2    0    0  0.00000000000E+00  0.00000000000E+00 -0.75881889695E+03  0.19431564585E+04  0.17888686100E+04 0.  0.
        3    1    3    3  502    0 -0.50040068265E+03 -0.74118063527E+03 -0.36178881721E+03  0.96469722492E+03  0.10100000352E+00 0.  1.
       -3    1    3    3    0  502  0.50040068265E+03  0.74118063527E+03 -0.39703007974E+03  0.97845923355E+03  0.10100000352E+00 0. -1.
</event>
<event>
 5   0  0.9589963E-06  0.1800975E+04  0.7818609E-02  0.8705781E-01
        2   -1    0    0  501    0  0.00000000000E+00  0.00000000000E+00  0.11291331063E+04  0.11291331064E+04  0.25500000920E-02 0. -1.
       -2   -1    0    0    0  501  0.00000000000E+00  0.00000000000E+00 -0.71814178020E+03  0.71814178020E+03  0.25500000920E-02 0.  1.
    10030    2    1    2    0    0  0.00000000000E+00  0.00000000000E+00  0.41099132615E+03  0.18472748866E+04  0.18009749127E+04 0.  0.
        2    1    3    3  502    0 -0.50986222118E+03 -0.48946897363E+03  0.77781726261E+03  0.10509705299E+04  0.25500000920E-02 0. -1.
       -2    1    3    3    0  502  0.50986222118E+03  0.48946897363E+03 -0.36682593645E+03  0.79630435664E+03  0.25500000920E-02 0.  1.
</event>
<event>
 5   0  0.4981384E-06  0.1799105E+04  0.7818609E-02  0.8706776E-01
       -1   -1    0    0    0  501  0.00000000000E+00  0.00000000000E+00  0.75095854985E+03  0.75095854986E+03  0.50400001928E-02 0.  1.
        1   -1    0    0  501    0  0.00000000000E+00  0.00000000000E+00 -0.10775488644E+04  0.10775488644E+04  0.50400001928E-02 0. -1.
    10030    2    1    2    0    0  0.00000000000E+00  0.00000000000E+00 -0.32659031453E+03  0.18285074143E+04  0.17991048136E+04 0.  0.
        5    1    3    3  502    0 -0.30897000963E+03 -0.33587846044E+03  0.62454803193E+03  0.77353677431E+03  0.46999998093E+01 0.  1.
       -5    1    3    3    0  502  0.30897000963E+03  0.33587846044E+03 -0.95113834646E+03  0.10549706399E+04  0.46999998093E+01 0. -1.
</event>
<event>
 5   0  0.4994123E-06  0.1802269E+04  0.7818609E-02  0.8705094E-01
        1   -1    0    0  501    0  0.00000000000E+00  0.00000000000E+00  0.20430088799E+04  0.20430088799E+04  0.50400001928E-02 0.  1.
       -1   -1    0    0    0  501  0.00000000000E+00  0.00000000000E+00 -0.39747430064E+03  0.39747430067E+03  0.50400001928E-02 0. -1.
    10030    2    1    2    0    0  0.00000000000E+00  0.00000000000E+00  0.16455345793E+04  0.24404831806E+04  0.18022691539E+04 0.  0.
        1    1    3    3  502    0  0.88469805547E+03 -0.17132311945E+03  0.82429039169E+03  0.12212685661E+04  0.50400001928E-02 0.  1.
       -1    1    3    3    0  502 -0.88469805547E+03  0.17132311945E+03  0.82124418761E+03  0.12192146145E+04  0.50400001928E-02 0. -1.
</event>
<event>
 5   0  0.1036381E-05  0.1800220E+04  0.7818609E-02  0.8706183E-01
        2   -1    0    0  501    0  0.00000000000E+00  0.00000000000E+00  0.11796902495E+04  0.11796902495E+04  0.25500000920E-02 0. -1.
       -2   -1    0    0    0  501  0.00000000000E+00  0.00000000000E+00 -0.68678863034E+03  0.68678863035E+03  0.25500000920E-02 0.  1.
    10030    2    1    2    0    0  0.00000000000E+00  0.00000000000E+00  0.49290161920E+03  0.18664788799E+04  0.18002198207E+04 0.  0.
        4    1    3    3  502    0  0.33896743667E+03  0.78624543321E+03  0.53436839602E+03  0.10092730056E+04  0.12699999809E+01 0. -1.
       -4    1    3    3    0  502 -0.33896743667E+03 -0.78624543321E+03 -0.41466776825E+02  0.85720587424E+03  0.12699999809E+01 0.  1.
</event>
<event>
 5   0  0.1036381E-05  0.1799665E+04  0.7818609E-02  0.8706478E-01
        2   -1    0    0  501    0  0.00000000000E+00  0.00000000000E+00  0.11748847949E+04  0.11748847949E+04  0.25500000920E-02 0. -1.
       -2   -1    0    0    0  501  0.00000000000E+00  0.00000000000E+00 -0.68917272036E+03  0.68917272036E+03  0.25500000920E-02 0.  1.
    10030    2    1    2    0    0  0.00000000000E+00  0.00000000000E+00  0.48571207455E+03  0.18640575153E+04  0.17996650246E+04 0.  0.
        4    1    3    3  502    0  0.15528363825E+03 -0.26418540424E+03  0.11191714407E+04  0.11603677274E+04  0.12699999809E+01 0. -1.
       -4    1    3    3    0  502 -0.15528363825E+03  0.26418540424E+03 -0.63345936616E+03  0.70368978790E+03  0.12699999809E+01 0.  1.
</event>
<event>
 5   0  0.1000316E-05  0.1798948E+04  0.7818609E-02  0.8706859E-01
       -2   -1    0    0    0  501  0.00000000000E+00  0.00000000000E+00  0.62758993705E+03  0.62758993706E+03  0.25500000920E-02 0.  1.
        2   -1    0    0  501    0  0.00000000000E+00  0.00000000000E+00 -0.12891435073E+04  0.12891435073E+04  0.25500000920E-02 0. -1.
    10030    2    1    2    0    0  0.00000000000E+00  0.00000000000E+00 -0.66155357027E+03  0.19167334444E+04  0.17989480177E+04 0.  0.
        5    1    3    3  502    0  0.27044165584E+03  0.13150522529E+03 -0.12339820028E+04  0.12701047149E+04  0.46999998093E+01 0. -1.
       -5    1    3    3    0  502 -0.27044165584E+03 -0.13150522529E+03  0.57242843252E+03  0.64662872952E+03  0.46999998093E+01 0.  1.
</event>
<event>
 5   0  0.1035018E-05  0.1799750E+04  0.7818609E-02  0.8706432E-01
        2   -1    0    0  501    0  0.00000000000E+00  0.00000000000E+00  0.12196192321E+04  0.12196192321E+04  0.25500000920E-02 0. -1.
       -2   -1    0    0    0  501  0.00000000000E+00  0.00000000000E+00 -0.66395755856E+03  0.66395755857E+03  0.25500000920E-02 0.  1.
    10030    2    1    2    0    0  0.00000000000E+00  0.00000000000E+00  0.55566167354E+03  0.18835767907E+04  0.17997504357E+04 0.  0.
        3    1    3    3  502    0 -0.53982754526E+03 -0.62538793828E+03 -0.95507489378E+02  0.83165229675E+03  0.10100000352E+00 0.  1.
       -3    1    3    3    0  502  0.53982754526E+03  0.62538793828E+03  0.65116916292E+03  0.10519244939E+04  0.10100000352E+00 0. -1.
</event>
<event>
 5   0  0.1036381E-05  0.1800422E+04  0.7818609E-02  0.8706075E-01
       -2   -1    0    0    0  501  0.00000000000E+00  0.00000000000E+00  0.43803915305E+03  0.43803915306E+03  0.25500000920E-02 0. -1.
        2   -1    0    0  501    0  0.00000000000E+00  0.00000000000E+00 -0.18500167338E+04  0.18500167338E+04  0.25500000920E-02 0.  1.
    10030    2    1    2    0    0  0.00000000000E+00  0.00000000000E+00 -0.14119775808E+04  0.22880558869E+04  0.18004219097E+04 0.  0.
        4    1    3    3  502    0  0.20032370958E+03  0.47009493838E+03  0.23585971412E+03  0.56280570124E+03  0.12699999809E+01 0. -1.
       -4    1    3    3    0  502 -0.20032370958E+03 -0.47009493838E+03 -0.16478372949E+04  0.17252501856E+04  0.12699999809E+01 0.  1.
</event>
<event>
 5   0  0.4981384E-06  0.1799945E+04  0.7818609E-02  0.8706329E-01
       -1   -1    0    0    0  501  0.00000000000E+00  0.00000000000E+00  0.16744899585E+04  0.16744899585E+04  0.50400001928E-02 0. -1.
        1   -1    0    0  501    0  0.00000000000E+00  0.00000000000E+00 -0.48370000396E+03  0.48370000399E+03  0.50400001928E-02 0.  1.
    10030    2    1    2    0    0  0.00000000000E+00  0.00000000000E+00  0.11907899546E+04  0.21581899625E+04  0.17999453321E+04 0.  0.
        5    1    3    3  502    0 -0.14955025646E+03 -0.86290256845E+03  0.34686683727E+03  0.94196858474E+03  0.46999998093E+01 0.  1.
       -5    1    3    3    0  502  0.14955025646E+03  0.86290256845E+03  0.84392311731E+03  0.12162213778E+04  0.46999998093E+01 0. -1.
</event>
<event>
 5   0  0.4953155E-06  0.1801856E+04  0.7818609E-02  0.8705313E-01
       -1   -1    0    0    0  501  0.00000000000E+00  0.00000000000E+00  0.11972434760E+04  0.11972434760E+04  0.50400001928E-02 0. -1.
        1   -1    0    0  501    0  0.00000000000E+00  0.00000000000E+00 -0.67794995258E+03  0.67794995260E+03  0.50400001928E-02 0.  1.
    10030    2    1    2    0    0  0.00000000000E+00  0.00000000000E+00  0.51929352343E+03  0.18751934286E+04  0.18018558853E+04 0.  0.
        2    1    3    3  502    0  0.29188423558E+03  0.14924344341E+03 -0.61367520349E+03  0.69574942887E+03  0.25500000920E-02 0.  1.
       -2    1    3    3    0  502 -0.29188423558E+03 -0.14924344341E+03  0.11329687269E+04  0.11794439998E+04  0.25500000920E-02 0. -1.
</event>
<event>
 5   0  0.1036381E-05  0.1798381E+04  0.7818609E-02  0.8707161E-01
        2   -1    0    0  501    0  0.00000000000E+00  0.00000000000E+00  0.86124254159E+03  0.86124254160E+03  0.25500000920E-02 0. -1.
       -2   -1    0    0    0  501  0.00000000000E+00  0.00000000000E+00 -0.93881039442E+03  0.93881039442E+03  0.25500000920E-02 0.  1.
    10030    2    1    2    0    0  0.00000000000E+00  0.00000000000E+00 -0.77567852826E+02  0.18000529360E+04  0.17983808831E+04 0.  0.
        4    1    3    3  502    0 -0.60744128603E+03 -0.50744167850E+03  0.38829752202E+03  0.88162268095E+03  0.12699999809E+01 0. -1.
       -4    1    3    3    0  502  0.60744128603E+03  0.50744167850E+03 -0.46586537485E+03  0.91843025507E+03  0.12699999809E+01 0.  1.
</event>
<event>
 5   0  0.1035018E-05  0.1800358E+04  0.7818609E-02  0.8706109E-01
       -2   -1    0    0    0  501  0.00000000000E+00  0.00000000000E+00  0.77112579614E+03  0.77112579615E+03  0.25500000920E-02 0.  1.
        2   -1    0    0  501    0  0.00000000000E+00  0.00000000000E+00 -0.10508304054E+04  0.10508304055E+04  0.25500000920E-02 0. -1.
    10030    2    1    2    0    0  0.00000000000E+00  0.00000000000E+00 -0.27970460931E+03  0.18219562016E+04  0.18003582233E+04 0.  0.
        3    1    3    3  502    0  0.41083069263E+03  0.70423813458E+03  0.24628664202E+03  0.85169849621E+03  0.10100000352E+00 0.  1.
       -3    1    3    3    0  502 -0.41083069263E+03 -0.70423813458E+03 -0.52599125132E+03  0.97025770539E+03  0.10100000352E+00 0. -1.
</event>
<event>
 5   0  0.3626125E-06  0.1800156E+04  0.7818609E-02  0.8706217E-01
        3   -1    0    0  501    0  0.00000000000E+00  0.00000000000E+00  0.96402899400E+03  0.96402899930E+03  0.10100000352E+00 0. -1.
       -3   -1    0    0    0  501  0.00000000000E+00  0.00000000000E+00 -0.84036897994E+03  0.84036898601E+03  0.10100000352E+00 0.  1.
    10030    2    1    2    0    0  0.00000000000E+00  0.00000000000E+00  0.12366001407E+03  0.18043979853E+04  0.18001556295E+04 0.  0.
        1    1    3    3  502    0  0.25211728517E+03 -0.84908453318E+03 -0.98648523248E+02  0.89120098807E+03  0.50400001928E-02 0.  1.
       -1    1    3    3    0  502 -0.25211728517E+03  0.84908453318E+03  0.22230853732E+03  0.91319699723E+03  0.50400001928E-02 0. -1.
</event>
<event>
 5   0  0.9589963E-06  0.1800369E+04  0.7818609E-02  0.8706103E-01
        2   -1    0    0  501    0  0.00000000000E+00  0.00000000000E+00  0.14058555526E+04  0.14058555526E+04  0.25500000920E-02 0.  1.
       -2   -1    0    0    0  501  0.00000000000E+00  0.00000000000E+00 -0.57639815913E+03  0.57639815914E+03  0.25500000920E-02 0. -1.
    10030    2    1    2    0    0  0.00000000000E+00  0.00000000000E+00  0.82945739342E+03  0.19822537117E+04  0.18003694649E+04 0.  0.
        2    1    3    3  502    0 -0.39240294934E+03 -0.51109243420E+03  0.11068328433E+04  0.12807320149E+04  0.25500000920E-02 0.  1.
       -2    1    3    3    0  502  0.39240294934E+03  0.51109243420E+03 -0.27737544985E+03  0.70152169684E+03  0.25500000920E-02 0. -1.
</event>
<event>
 5   0  0.1036381E-05  0.1800538E+04  0.7818609E-02  0.8706014E-01
        2   -1    0    0  501    0  0.00000000000E+00  0.00000000000E+00  0.12009577059E+04  0.12009577059E+04  0.25500000920E-02 0.  1.
       -2   -1    0    0    0  501  0.00000000000E+00  0.00000000000E+00 -0.67486467266E+03  0.67486467267E+03  0.25500000920E-02 0. -1.
    10030    2    1    2    0    0  0.00000000000E+00  0.00000000000E+00  0.52609303324E+03  0.18758223786E+04  0.18005376187E+04 0.  0.
        4    1    3    3  502    0  0.39893693382E+03  0.38200004006E+03 -0.47759900455E+03  0.73018979027E+03  0.12699999809E+01 0. -1.
       -4    1    3    3    0  502 -0.39893693382E+03 -0.38200004006E+03  0.10036920378E+04  0.11456325883E+04  0.12699999809E+01 0.  1.
</event>
<event>
 5   0  0.4994123E-06  0.1795162E+04  0.7818609E-02  0.8708876E-01
        1   -1    0    0  501    0  0.00000000000E+00  0.00000000000E+00  0.16762653805E+04  0.16762653805E+04  0.50400001928E-02 0. -1.
       -1   -1    0    0    0  501  0.00000000000E+00  0.00000000000E+00 -0.48062310105E+03  0.48062310107E+03  0.50400001928E-02 0.  1.
    10030    2    1    2    0    0  0.00000000000E+00  0.00000000000E+00  0.11956422795E+04  0.21568884816E+04  0.17951622382E+04 0.  0.
        1    1    3    3  502    0  0.86540213183E+03  0.23769373570E+03  0.61614958207E+03  0.10886043677E+04  0.50400001928E-02 0. -1.
       -1    1    3    3    0  502 -0.86540213183E+03 -0.23769373570E+03  0.57949269741E+03  0.10682841140E+04  0.50400001928E-02 0.  1.
</event>
<event>
 5   0  0.9589963E-06  0.1801881E+04  0.7818609E-02  0.8705300E-01
        2   -1    0    0  501    0  0.00000000000E+00  0.00000000000E+00  0.88352743787E+03  0.88352743787E+03  0.25500000920E-02 0.  1.
       -2   -1    0    0    0  501  0.00000000000E+00  0.00000000000E+00 -0.91869669716E+03  0.91869669717E+03  0.25500000920E-02 0. -1.
    10030    2    1    2    0    0  0.00000000000E+00  0.00000000000E+00 -0.35169259294E+02  0.18022241350E+04  0.18018809495E+04 0.  0.
        2    1    3    3  502    0 -0.86767111132E+03  0.11029068264E+03  0.19850407579E+03  0.89689523369E+03  0.25500000920E-02 0.  1.
       -2    1    3    3    0  502  0.86767111132E+03 -0.11029068264E+03 -0.23367333508E+03  0.90532890136E+03  0.25500000920E-02 0. -1.
</event>
<event>
 5   0  0.4981384E-06  0.1806812E+04  0.7818609E-02  0.8702685E-01
       -1   -1    0    0    0  501  0.00000000000E+00  0.00000000000E+00  0.79258272048E+03  0.79258272049E+03  0.50400001928E-02 0. -1.
        1   -1    0    0  501    0  0.00000000000E+00  0.00000000000E+00 -0.10297250642E+04  0.10297250642E+04  0.50400001928E-02 0.  1.
    10030    2    1    2    0    0  0.00000000000E+00  0.00000000000E+00 -0.23714234371E+03  0.18223077847E+04  0.18068118804E+04 0.  0.
        5    1    3    3  502    0  0.11293317376E+03 -0.21703976937E+03  0.75851925214E+03  0.79701550116E+03  0.46999998093E+01 0. -1.
       -5    1    3    3    0  502 -0.11293317376E+03  0.21703976937E+03 -0.99566159585E+03  0.10252922835E+04  0.46999998093E+01 0.  1.
</event>
<event>
 5   0  0.4987456E-06  0.1798016E+04  0.7818609E-02  0.8707355E-01
       -1   -1    0    0    0  501  0.00000000000E+00  0.00000000000E+00  0.59046994525E+03  0.59046994527E+03  0.50400001928E-02 0.  1.
        1   -1    0    0  501    0  0.00000000000E+00  0.00000000000E+00 -0.13687657763E+04  0.13687657763E+04  0.50400001928E-02 0. -1.
    10030    2    1    2    0    0  0.00000000000E+00  0.00000000000E+00 -0.77829583101E+03  0.19592357215E+04  0.17980156317E+04 0.  0.
        3    1    3    3  502    0  0.84160280424E+03 -0.29149704704E+03 -0.52237812203E+03  0.10325428423E+04  0.10100000352E+00 0.  1.
       -3    1    3    3    0  502 -0.84160280424E+03  0.29149704704E+03 -0.25591770898E+03  0.92669287928E+03  0.10100000352E+00 0. -1.
</event>
<event>
 5   0  0.1000316E-05  0.1798503E+04  0.7818609E-02  0.8707096E-01
        2   -1    0    0  501    0  0.00000000000E+00  0.00000000000E+00  0.21979686021E+04  0.21979686021E+04  0.25500000920E-02 0.  1.
       -2   -1    0    0    0  501  0.00000000000E+00  0.00000000000E+00 -0.36790946952E+03  0.36790946953E+03  0.25500000920E-02 0. -1.
    10030    2    1    2    0    0  0.00000000000E+00  0.00000000000E+00  0.18300591326E+04  0.25658780716E+04  0.17985032248E+04 0.  0.
        5    1    3    3  502    0  0.33532570578E+03 -0.68452577612E+03  0.15956780069E+04  0.17683973702E+04  0.46999998093E+01 0.  1.
       -5    1    3    3    0  502 -0.33532570578E+03  0.68452577612E+03  0.23438112568E+03  0.79748070146E+03  0.46999998093E+01 0. -1.
</event>
<event>
 5   0  0.4981384E-06  0.1798676E+04  0.7818609E-02  0.8707004E-01
        1   -1    0    0  501    0  0.00000000000E+00  0.00000000000E+00  0.66034971667E+03  0.66034971669E+03  0.50400001928E-02 0. -1.
       -1   -1    0    0    0  501  0.00000000000E+00  0.00000000000E+00 -0.12248195267E+04  0.12248195267E+04  0.50400001928E-02 0.  1.
    10030    2    1    2    0    0  0.00000000000E+00  0.00000000000E+00 -0.56446981007E+03  0.18851692434E+04  0.17986764328E+04 0.  0.
        5    1    3    3  502    0 -0.12395640542E+03  0.62655537653E+03 -0.94580745409E+03  0.11412758915E+04  0.46999998093E+01 0.  1.
       -5    1    3    3    0  502  0.12395640542E+03 -0.62655537653E+03  0.38133764403E+03  0.74389335193E+03  0.46999998093E+01 0. -1.
</event>
<event>
 5   0  0.1035018E-05  0.1799137E+04  0.7818609E-02  0.8706759E-01
       -2   -1    0    0    0  501  0.00000000000E+00  0.00000000000E+00  0.22250895493E+03  0.22250895495E+03  0.25500000920E-02 0. -1.
        2   -1    0    0  501    0  0.00000000000E+00  0.00000000000E+00 -0.36368133097E+04  0.36368133097E+04  0.25500000920E-02 0.  1.
    10030    2    1    2    0    0  0.00000000000E+00  0.00000000000E+00 -0.34143043547E+04  0.38593222646E+04  0.17991370474E+04 0.  0.
        3    1    3    3  502    0 -0.42363171418E+03  0.61452978499E+03 -0.63008132182E+03  0.97678716629E+03  0.10100000352E+00 0. -1.
       -3    1    3    3    0  502  0.42363171418E+03 -0.61452978499E+03 -0.27842230329E+04  0.28825350983E+04  0.10100000352E+00 0.  1.
</event>
<event>
 5   0  0.4994123E-06  0.1799502E+04  0.7818609E-02  0.8706564E-01
        1   -1    0    0  501    0  0.00000000000E+00  0.00000000000E+00  0.61546949620E+03  0.61546949622E+03  0.50400001928E-02 0. -1.
       -1   -1    0    0    0  501  0.00000000000E+00  0.00000000000E+00 -0.13153405700E+04  0.13153405700E+04  0.50400001928E-02 0.  1.
    10030    2    1    2    0    0  0.00000000000E+00  0.00000000000E+00 -0.69987107381E+03  0.19308100662E+04  0.17995021511E+04 0.  0.
        1    1    3    3  502    0  0.45427780320E+03 -0.32788267866E+03  0.40548085338E+03  0.69158520512E+03  0.50400001928E-02 0. -1.
       -1    1    3    3    0  502 -0.45427780320E+03  0.32788267866E+03 -0.11053519272E+04  0.12392248611E+04  0.50400001928E-02 0.  1.
</event>
<event>
 5   0  0.4981384E-06  0.1799802E+04  0.7818609E-02  0.8706405E-01
       -1   -1    0    0    0  501  0.00000000000E+00  0.00000000000E+00  0.12153755864E+04  0.12153755865E+04  0.50400001928E-02 0.  1.
        1   -1    0    0  501    0  0.00000000000E+00  0.00000000000E+00 -0.66631373675E+03  0.66631373677E+03  0.50400001928E-02 0. -1.
    10030    2    1    2    0    0  0.00000000000E+00  0.00000000000E+00  0.54906184969E+03  0.18816893232E+04  0.17998015986E+04 0.  0.
        5    1    3    3  502    0  0.77283255859E+03  0.41953990165E+03  0.47431538781E+03  0.99914016525E+03  0.46999998093E+01 0.  1.
       -5    1    3    3    0  502 -0.77283255859E+03 -0.41953990165E+03  0.74746461888E+02  0.88254915799E+03  0.46999998093E+01 0. -1.
</event>
<event>
 5   0  0.1035018E-05  0.1800082E+04  0.7818609E-02  0.8706256E-01
        2   -1    0    0  501    0  0.00000000000E+00  0.00000000000E+00  0.14556932464E+04  0.14556932464E+04  0.25500000920E-02 0.  1.
       -2   -1    0    0    0  501  0.00000000000E+00  0.00000000000E+00 -0.55648653526E+03  0.55648653527E+03  0.25500000920E-02 0. -1.
    10030    2    1    2    0    0  0.00000000000E+00  0.00000000000E+00  0.89920671116E+03  0.20121797817E+04  0.18000818771E+04 0.  0.
        3    1    3    3  502    0  0.19105289918E+03 -0.87895730060E+03  0.41413926551E+03  0.99024163112E+03  0.10100000352E+00 0.  1.
       -3    1    3    3    0  502 -0.19105289918E+03  0.87895730060E+03  0.48506744565E+03  0.10219381506E+04  0.10100000352E+00 0. -1.
</event>
<event>
 5   0  0.1000316E-05  0.1800717E+04  0.7818609E-02  0.8705918E-01
        2   -1    0    0  501    0  0.00000000000E+00  0.00000000000E+00  0.16240207999E+04  0.16240207999E+04  0.25500000920E-02 0. -1.
       -2   -1    0    0    0  501  0.00000000000E+00  0.00000000000E+00 -0.49915965710E+03  0.49915965710E+03  0.25500000920E-02 0.  1.
    10030    2    1    2    0    0  0.00000000000E+00  0.00000000000E+00  0.11248611428E+04  0.21231804570E+04  0.18007172633E+04 0.  0.
        5    1    3    3  502    0  0.54578708123E+03 -0.24678587097E+02  0.14062157927E+04  0.15086276931E+04  0.46999998093E+01 0. -1.
       -5    1    3    3    0  502 -0.54578708123E+03  0.24678587097E+02 -0.28135464985E+03  0.61455276396E+03  0.46999998093E+01 0.  1.
</event>
<event>
 5   0  0.1000316E-05  0.1799023E+04  0.7818609E-02  0.8706819E-01
       -2   -1    0    0    0  501  0.00000000000E+00  0.00000000000E+00  0.67682674280E+03  0.67682674281E+03  0.25500000920E-02 0.  1.
        2   -1    0    0  501    0  0.00000000000E+00  0.00000000000E+00 -0.11954628930E+04  0.11954628930E+04  0.25500000920E-02 0. -1.
    10030    2    1    2    0    0  0.00000000000E+00  0.00000000000E+00 -0.51863615019E+03  0.18722896358E+04  0.17990233528E+04 0.  0.
        5    1    3    3  502    0 -0.41261402081E+03  0.64334241881E+03  0.23429684009E+03  0.79941034349E+03  0.46999998093E+01 0.  1.
       -5    1    3    3    0  502  0.41261402081E+03 -0.64334241881E+03 -0.75293299028E+03  0.10728792923E+04  0.46999998093E+01 0. -1.
</event>
<event>
 5   0  0.4983159E-06  0.1799159E+04  0.7818609E-02  0.8706747E-01
       -1   -1    0    0    0  501  0.00000000000E+00  0.00000000000E+00  0.15176951416E+04  0.15176951416E+04  0.50400001928E-02 0. -1.
        1   -1    0    0  501    0  0.00000000000E+00  0.00000000000E+00 -0.53320528599E+03  0.53320528602E+03  0.50400001928E-02 0.  1.
    10030    2    1    2    0    0  0.00000000000E+00  0.00000000000E+00  0.98448985557E+03  0.20509004276E+04  0.17991587724E+04 0.  0.
        4    1    3    3  502    0 -0.66785611969E+03  0.52945078949E+03  0.82043855760E+03  0.11829923816E+04  0.12699999809E+01 0. -1.
       -4    1    3    3    0  502  0.66785611969E+03 -0.52945078949E+03  0.16405129797E+03  0.86790804603E+03  0.12699999809E+01 0.  1.
</event>
<event>
 5   0  0.3626125E-06  0.1798947E+04  0.7818609E-02  0.8706859E-01
       -3   -1    0    0    0  501  0.00000000000E+00  0.00000000000E+00  0.11671260867E+04  0.11671260911E+04  0.10100000352E+00 0.  1.
        3   -1    0    0  501    0  0.00000000000E+00  0.00000000000E+00 -0.69320090965E+03  0.69320091700E+03  0.10100000352E+00 0. -1.
    10030    2    1    2    0    0  0.00000000000E+00  0.00000000000E+00  0.47392517708E+03  0.18603270081E+04  0.17989473321E+04 0.  0.
        2    1    3    3  502    0 -0.29938332641E+03 -0.81882112976E+03  0.46576835331E+03  0.98845261780E+03  0.25500000920E-02 0.  1.
       -2    1    3    3    0  502  0.29938332641E+03  0.81882112976E+03  0.81568237669E+01  0.87187439030E+03  0.25500000920E-02 0. -1.
</event>
<event>
 5   0  0.4983159E-06  0.1800936E+04  0.7818609E-02  0.8705802E-01
        1   -1    0    0  501    0  0.00000000000E+00  0.00000000000E+00  0.18277782167E+04  0.18277782167E+04  0.50400001928E-02 0.  1.
       -1   -1    0    0    0  501  0.00000000000E+00  0.00000000000E+00 -0.44362217986E+03  0.44362217989E+03  0.50400001928E-02 0. -1.
    10030    2    1    2    0    0  0.00000000000E+00  0.00000000000E+00  0.13841560368E+04  0.22714003966E+04  0.18009363751E+04 0.  0.
        4    1    3    3  502    0 -0.28655399154E+03 -0.54566874558E+03  0.15200597385E+04  0.16402593672E+04  0.12699999809E+01 0.  1.
       -4    1    3    3    0  502  0.28655399154E+03  0.54566874558E+03 -0.13590370171E+03  0.63114102942E+03  0.12699999809E+01 0. -1.
</event>
<event>
 5   0  0.4987456E-06  0.1800097E+04  0.7818609E-02  0.8706248E-01
        1   -1    0    0  501    0  0.00000000000E+00  0.00000000000E+00  0.11702452082E+04  0.11702452082E+04  0.50400001928E-02 0.  1.
       -1   -1    0    0    0  501  0.00000000000E+00  0.00000000000E+00 -0.69223731962E+03  0.69223731963E+03  0.50400001928E-02 0. -1.
    10030    2    1    2    0    0  0.00000000000E+00  0.00000000000E+00  0.47800788858E+03  0.18624825278E+04  0.18000971154E+04 0.  0.
        3    1    3    3  502    0 -0.50436140417E+03 -0.49077348026E+03  0.81956378350E+03  0.10802424915E+04  0.10100000352E+00 0.  1.
       -3    1    3    3    0  502  0.50436140417E+03  0.49077348026E+03 -0.34155589492E+03  0.78224003637E+03  0.10100000352E+00 0. -1.
</event>
<event>
 5   0  0.4983159E-06  0.1799679E+04  0.7818609E-02  0.8706470E-01
        1   -1    0    0  501    0  0.00000000000E+00  0.00000000000E+00  0.68768743584E+03  0.68768743585E+03  0.50400001928E-02 0. -1.
       -1   -1    0    0    0  501  0.00000000000E+00  0.00000000000E+00 -0.11774405882E+04  0.11774405882E+04  0.50400001928E-02 0.  1.
    10030    2    1    2    0    0  0.00000000000E+00  0.00000000000E+00 -0.48975315238E+03  0.18651280241E+04  0.17996789702E+04 0.  0.
        4    1    3    3  502    0  0.31392717804E+03  0.83627850371E+03 -0.13231033115E+03  0.90300589450E+03  0.12699999809E+01 0. -1.
       -4    1    3    3    0  502 -0.31392717804E+03 -0.83627850371E+03 -0.35744282123E+03  0.96212212958E+03  0.12699999809E+01 0.  1.
</event>
<event>
 5   0  0.1035018E-05  0.1799127E+04  0.7818609E-02  0.8706764E-01
        2   -1    0    0  501    0  0.00000000000E+00  0.00000000000E+00  0.17421832613E+04  0.17421832613E+04  0.25500000920E-02 0.  1.
       -2   -1    0    0    0  501  0.00000000000E+00  0.00000000000E+00 -0.46448278230E+03  0.46448278231E+03  0.25500000920E-02 0. -1.
    10030    2    1    2    0    0  0.00000000000E+00  0.00000000000E+00  0.12777004790E+04  0.22066660436E+04  0.17991265976E+04 0.  0.
        3    1    3    3  502    0 -0.43573129188E+03  0.23527994120E+03 -0.28226249792E+03  0.56999169940E+03  0.10100000352E+00 0. -1.
       -3    1    3    3    0  502  0.43573129188E+03 -0.23527994120E+03  0.15599629770E+04  0.16366743443E+04  0.10100000352E+00 0.  1.
</event>
<event>
 5   0  0.1000316E-05  0.1800310E+04  0.7818609E-02  0.8706135E-01
       -2   -1    0    0    0  501  0.00000000000E+00  0.00000000000E+00  0.54360775726E+03  0.54360775727E+03  0.25500000920E-02 0.  1.
        2   -1    0    0  501    0  0.00000000000E+00  0.00000000000E+00 -0.14905581554E+04  0.14905581554E+04  0.25500000920E-02 0. -1.
    10030    2    1    2    0    0  0.00000000000E+00  0.00000000000E+00 -0.94695039815E+03  0.20341659127E+04  0.18003099466E+04 0.  0.
        5    1    3    3  502    0  0.55872760539E+03 -0.39336329014E+03  0.18859627970E+03  0.70887365713E+03  0.46999998093E+01 0.  1.
       -5    1    3    3    0  502 -0.55872760539E+03  0.39336329014E+03 -0.11355466778E+04  0.13252922555E+04  0.46999998093E+01 0. -1.
</event>
<event>
 5   0  0.1000316E-05  0.1800255E+04  0.7818609E-02  0.8706164E-01
        2   -1    0    0  501    0  0.00000000000E+00  0.00000000000E+00  0.10506417473E+04  0.10506417473E+04  0.25500000920E-02 0. -1.
       -2   -1    0    0    0  501  0.00000000000E+00  0.00000000000E+00 -0.77117614352E+03  0.77117614352E+03  0.25500000920E-02 0.  1.
    10030    2    1    2    0    0  0.00000000000E+00  0.00000000000E+00  0.27946560375E+03  0.18218178908E+04  0.18002553718E+04 0.  0.
        5    1    3    3  502    0  0.11048443587E+03 -0.87014364405E+03 -0.64804317400E+02  0.87953309284E+03  0.46999998093E+01 0. -1.
       -5    1    3    3    0  502 -0.11048443587E+03  0.87014364405E+03  0.34426992115E+03  0.94228479796E+03  0.46999998093E+01 0.  1.
</event>
<event>
 5   0  0.4994123E-06  0.1799108E+04  0.7818609E-02  0.8706774E-01
        1   -1    0    0  501    0  0.00000000000E+00  0.00000000000E+00  0.12384717463E+04  0.12384717463E+04  0.50400001928E-02 0.  1.
       -1   -1    0    0    0  501  0.00000000000E+00  0.00000000000E+00 -0.65338385925E+03  0.65338385927E+03  0.50400001928E-02 0. -1.
    10030    2    1    2    0    0  0.00000000000E+00  0.00000000000E+00  0.58508788707E+03  0.18918556056E+04  0.17991080559E+04 0.  0.
        1    1    3    3  502    0  0.23653067378E+02 -0.84651446325E+03  0.61158426302E+03  0.10445963406E+04  0.50400001928E-02 0.  1.
       -1    1    3    3    0  502 -0.23653067378E+02  0.84651446325E+03 -0.26496375950E+02  0.84725926496E+03  0.50400001928E-02 0. -1.
</event>
<event>
 5   0  0.9999162E-06  0.1800654E+04  0.7818609E-02  0.8705952E-01
        2   -1    0    0  501    0  0.00000000000E+00  0.00000000000E+00  0.88776879196E+03  0.88776879196E+03  0.25500000920E-02 0.  1.
       -2   -1    0    0    0  501  0.00000000000E+00  0.00000000000E+00 -0.91306277073E+03  0.91306277073E+03  0.25500000920E-02 0. -1.
    10030    2    1    2    0    0  0.00000000000E+00  0.00000000000E+00 -0.25293978770E+02  0.18008315627E+04  0.18006539178E+04 0.  0.
        1    1    3    3  502    0  0.62647232891E+03 -0.19287227524E+03  0.60460215265E+03  0.89174607174E+03  0.50400001928E-02 0.  1.
       -1    1    3    3    0  502 -0.62647232891E+03  0.19287227524E+03 -0.62989613142E+03  0.90908549095E+03  0.50400001928E-02 0. -1.
</event>
<event>
 5   0  0.9999162E-06  0.1803568E+04  0.7818609E-02  0.8704404E-01
        2   -1    0    0  501    0  0.00000000000E+00  0.00000000000E+00  0.13036648396E+04  0.13036648396E+04  0.25500000920E-02 0.  1.
       -2   -1    0    0    0  501  0.00000000000E+00  0.00000000000E+00 -0.62379107768E+03  0.62379107769E+03  0.25500000920E-02 0. -1.
    10030    2    1    2    0    0  0.00000000000E+00  0.00000000000E+00  0.67987376195E+03  0.19274559173E+04  0.18035681249E+04 0.  0.
        1    1    3    3  502    0 -0.89786448538E+03  0.76166114294E+02  0.30211393423E+03  0.95038662677E+03  0.50400001928E-02 0.  1.
       -1    1    3    3    0  502  0.89786448538E+03 -0.76166114294E+02  0.37775982772E+03  0.97706929055E+03  0.50400001928E-02 0. -1.
</event>
<event>
 5   0  0.4987456E-06  0.1802024E+04  0.7818609E-02  0.8705224E-01
        1   -1    0    0  501    0  0.00000000000E+00  0.00000000000E+00  0.17292207708E+04  0.17292207708E+04  0.50400001928E-02 0.  1.
       -1   -1    0    0    0  501  0.00000000000E+00  0.00000000000E+00 -0.46947307974E+03  0.46947307976E+03  0.50400001928E-02 0. -1.
    10030    2    1    2    0    0  0.00000000000E+00  0.00000000000E+00  0.12597476911E+04  0.21986938506E+04  0.18020239742E+04 0.  0.
        3    1    3    3  502    0  0.38808574852E+03  0.77431615342E+03  0.32693250716E+03  0.92577585197E+03  0.10100000352E+00 0. -1.
       -3    1    3    3    0  502 -0.38808574852E+03 -0.77431615342E+03  0.93281518393E+03  0.12729179986E+04  0.10100000352E+00 0.  1.
</event>
<event>
 5   0  0.1036381E-05  0.1798260E+04  0.7818609E-02  0.8707225E-01
       -2   -1    0    0    0  501  0.00000000000E+00  0.00000000000E+00  0.56432138831E+03  0.56432138832E+03  0.25500000920E-02 0. -1.
        2   -1    0    0  501    0  0.00000000000E+00  0.00000000000E+00 -0.14325790824E+04  0.14325790824E+04  0.25500000920E-02 0.  1.
    10030    2    1    2    0    0  0.00000000000E+00  0.00000000000E+00 -0.86825769409E+03  0.19969004707E+04  0.17982602889E+04 0.  0.
        4    1    3    3  502    0 -0.41003237483E+03  0.78582962188E+03 -0.60172651012E+03  0.10713221499E+04  0.12699999809E+01 0.  1.
       -4    1    3    3    0  502  0.41003237483E+03 -0.78582962188E+03 -0.26653118397E+03  0.92557832081E+03  0.12699999809E+01 0. -1.
</event>
<event>
 5   0  0.4953155E-06  0.1799610E+04  0.7818609E-02  0.8706507E-01
        1   -1    0    0  501    0  0.00000000000E+00  0.00000000000E+00  0.21662767276E+04  0.21662767276E+04  0.50400001928E-02 0.  1.
       -1   -1    0    0    0  501  0.00000000000E+00  0.00000000000E+00 -0.37375141378E+03  0.37375141381E+03  0.50400001928E-02 0. -1.
    10030    2    1    2    0    0  0.00000000000E+00  0.00000000000E+00  0.17925253138E+04  0.25400281414E+04  0.17996099462E+04 0.  0.
        2    1    3    3  502    0 -0.22032408465E+03  0.31372123930E+03  0.20452461848E+04  0.20808641654E+04  0.25500000920E-02 0.  1.
       -2    1    3    3    0  502  0.22032408465E+03 -0.31372123930E+03 -0.25272087098E+03  0.45916397604E+03  0.25500000920E-02 0. -1.
</event>
<event>
 5   0  0.9589963E-06  0.1802505E+04  0.7818609E-02  0.8704968E-01
       -2   -1    0    0    0  501  0.00000000000E+00  0.00000000000E+00  0.50553199078E+03  0.50553199079E+03  0.25500000920E-02 0.  1.
        2   -1    0    0  501    0  0.00000000000E+00  0.00000000000E+00 -0.16067356268E+04  0.16067356268E+04  0.25500000920E-02 0. -1.
    10030    2    1    2    0    0  0.00000000000E+00  0.00000000000E+00 -0.11012036360E+04  0.21122676176E+04  0.18025052123E+04 0.  0.
        2    1    3    3  502    0 -0.34927842318E+03  0.75325357342E+03 -0.96136845232E+03  0.12702817262E+04  0.25500000920E-02 0. -1.
       -2    1    3    3    0  502  0.34927842318E+03 -0.75325357342E+03 -0.13983518373E+03  0.84198589144E+03  0.25500000920E-02 0.  1.
</event>
<event>
 5   0  0.4994123E-06  0.1797253E+04  0.7818609E-02  0.8707762E-01
       -1   -1    0    0    0  501  0.00000000000E+00  0.00000000000E+00  0.69184365873E+03  0.69184365875E+03  0.50400001928E-02 0.  1.
        1   -1    0    0  501    0  0.00000000000E+00  0.00000000000E+00 -0.11672139080E+04  0.11672139080E+04  0.50400001928E-02 0. -1.
    10030    2    1    2    0    0  0.00000000000E+00  0.00000000000E+00 -0.47537024929E+03  0.18590575668E+04  0.17972529490E+04 0.  0.
        1    1    3    3  502    0  0.35923117221E+03 -0.73738498596E+03 -0.61738582111E+03  0.10266201365E+04  0.50400001928E-02 0.  1.
       -1    1    3    3    0  502 -0.35923117221E+03  0.73738498596E+03  0.14201557182E+03  0.83243743024E+03  0.50400001928E-02 0. -1.
</event>
<event>
 5   0  0.9589963E-06  0.1798557E+04  0.7818609E-02  0.8707067E-01
       -2   -1    0    0    0  501  0.00000000000E+00  0.00000000000E+00  0.87790896148E+03  0.87790896148E+03  0.25500000920E-02 0. -1.
        2   -1    0    0  501    0  0.00000000000E+00  0.00000000000E+00 -0.92116778768E+03  0.92116778768E+03  0.25500000920E-02 0.  1.
    10030    2    1    2    0    0  0.00000000000E+00  0.00000000000E+00 -0.43258826202E+02  0.17990767492E+04  0.17985565944E+04 0.  0.
        2    1    3    3  502    0 -0.74026499081E+03  0.10789000393E+03  0.47758299854E+03  0.88753480500E+03  0.25500000920E-02 0. -1.
       -2    1    3    3    0  502  0.74026499081E+03 -0.10789000393E+03 -0.52084182475E+03  0.91154194417E+03  0.25500000920E-02 0.  1.
</event>
<event>
 5   0  0.1000316E-05  0.1800192E+04  0.7818609E-02  0.8706197E-01
       -2   -1    0    0    0  501  0.00000000000E+00  0.00000000000E+00  0.65224149020E+03  0.65224149021E+03  0.25500000920E-02 0. -1.
        2   -1    0    0  501    0  0.00000000000E+00  0.00000000000E+00 -0.12421366483E+04  0.12421366483E+04  0.25500000920E-02 0.  1.
    10030    2    1    2    0    0  0.00000000000E+00  0.00000000000E+00 -0.58989515807E+03  0.18943781385E+04  0.18001922770E+04 0.  0.
        5    1    3    3  502    0  0.45478690931E+02  0.35787191796E+03  0.57282423481E+03  0.67697142848E+03  0.46999998093E+01 0. -1.
       -5    1    3    3    0  502 -0.45478690931E+02 -0.35787191796E+03 -0.11627193929E+04  0.12174067100E+04  0.46999998093E+01 0.  1.
</event>
<event>
 5   0  0.1000316E-05  0.1800072E+04  0.7818609E-02  0.8706261E-01
        2   -1    0    0  501    0  0.00000000000E+00  0.00000000000E+00  0.37407609784E+03  0.37407609785E+03  0.25500000920E-02 0. -1.
       -2   -1    0    0    0  501  0.00000000000E+00  0.00000000000E+00 -0.21655078997E+04  0.21655078997E+04  0.25500000920E-02 0.  1.
    10030    2    1    2    0    0  0.00000000000E+00  0.00000000000E+00 -0.17914318018E+04  0.25395839975E+04  0.18000719374E+04 0.  0.
        5    1    3    3  502    0 -0.29340728239E+03 -0.39434762417E+03 -0.19594102672E+04  0.20201258790E+04  0.46999998093E+01 0.  1.
       -5    1    3    3    0  502  0.29340728239E+03  0.39434762417E+03  0.16797846534E+03  0.51945811849E+03  0.46999998093E+01 0. -1.
</event>
<event>
 5   0  0.3626125E-06  0.1800572E+04  0.7818609E-02  0.8705995E-01
       -4   -1    0    0    0  501  0.00000000000E+00  0.00000000000E+00  0.10304143285E+04  0.10304151111E+04  0.12699999809E+01 0.  1.
        4   -1    0    0  501    0  0.00000000000E+00  0.00000000000E+00 -0.78658974678E+03  0.78659077203E+03  0.12699999809E+01 0. -1.
    10030    2    1    2    0    0  0.00000000000E+00  0.00000000000E+00  0.24382458168E+03  0.18170058831E+04  0.18005721182E+04 0.  0.
        2    1    3    3  502    0 -0.15433997027E+03 -0.82882769045E+03 -0.19678467471E+03  0.86573689715E+03  0.25500000920E-02 0. -1.
       -2    1    3    3    0  502  0.15433997027E+03  0.82882769045E+03  0.44060925639E+03  0.95126898599E+03  0.25500000920E-02 0.  1.
</event>
<event>
 5   0  0.4994123E-06  0.1797985E+04  0.7818609E-02  0.8707372E-01
        1   -1    0    0  501    0  0.00000000000E+00  0.00000000000E+00  0.98422745014E+03  0.98422745016E+03  0.50400001928E-02 0. -1.
       -1   -1    0    0    0  501  0.00000000000E+00  0.00000000000E+00 -0.82113900231E+03  0.82113900233E+03  0.50400001928E-02 0.  1.
    10030    2    1    2    0    0  0.00000000000E+00  0.00000000000E+00  0.16308844783E+03  0.18053664525E+04  0.17979850350E+04 0.  0.
        1    1    3    3  502    0  0.55075087863E+03 -0.90695389328E+02  0.78916099153E+03  0.96660604930E+03  0.50400001928E-02 0. -1.
       -1    1    3    3    0  502 -0.55075087863E+03  0.90695389328E+02 -0.62607254370E+03  0.83876040319E+03  0.50400001928E-02 0.  1.
</event>
<event>
 5   0  0.4987456E-06  0.1801308E+04  0.7818609E-02  0.8705604E-01
       -1   -1    0    0    0  501  0.00000000000E+00  0.00000000000E+00  0.73284094587E+03  0.73284094589E+03  0.50400001928E-02 0. -1.
        1   -1    0    0  501    0  0.00000000000E+00  0.00000000000E+00 -0.11068943424E+04  0.11068943424E+04  0.50400001928E-02 0.  1.
    10030    2    1    2    0    0  0.00000000000E+00  0.00000000000E+00 -0.37405339648E+03  0.18397352883E+04  0.18013078547E+04 0.  0.
        3    1    3    3  502    0 -0.20586909592E+03  0.84358218712E+03  0.57164824845E+02  0.87021883368E+03  0.10100000352E+00 0.  1.
       -3    1    3    3    0  502  0.20586909592E+03 -0.84358218712E+03 -0.43121822132E+03  0.96951645458E+03  0.10100000352E+00 0. -1.
</event>
<event>
 5   0  0.4987456E-06  0.1800059E+04  0.7818609E-02  0.8706268E-01
       -1   -1    0    0    0  501  0.00000000000E+00  0.00000000000E+00  0.10804209313E+04  0.10804209313E+04  0.50400001928E-02 0. -1.
        1   -1    0    0  501    0  0.00000000000E+00  0.00000000000E+00 -0.74975699434E+03  0.74975699436E+03  0.50400001928E-02 0.  1.
    10030    2    1    2    0    0  0.00000000000E+00  0.00000000000E+00  0.33066393691E+03  0.18301779256E+04  0.18000590547E+04 0.  0.
        3    1    3    3  502    0  0.34095017514E+03 -0.67993897423E+03 -0.32385157832E+03  0.82670665026E+03  0.10100000352E+00 0.  1.
       -3    1    3    3    0  502 -0.34095017514E+03  0.67993897423E+03  0.65451551523E+03  0.10034712754E+04  0.10100000352E+00 0. -1.
</event>
<event>
 5   0  0.9999162E-06  0.1800570E+04  0.7818609E-02  0.8705996E-01
        2   -1    0    0  501    0  0.00000000000E+00  0.00000000000E+00  0.57872652498E+03  0.57872652499E+03  0.25500000920E-02 0. -1.
       -2   -1    0    0    0  501  0.00000000000E+00  0.00000000000E+00 -0.14005119920E+04  0.14005119920E+04  0.25500000920E-02 0.  1.
    10030    2    1    2    0    0  0.00000000000E+00  0.00000000000E+00 -0.82178546698E+03  0.19792385169E+04  0.18005703966E+04 0.  0.
        1    1    3    3  502    0  0.23423316964E+03  0.11016734997E+03  0.53694031815E+03  0.59607627703E+03  0.50400001928E-02 0. -1.
       -1    1    3    3    0  502 -0.23423316964E+03 -0.11016734997E+03 -0.13587257851E+04  0.13831622399E+04  0.50400001928E-02 0.  1.
</event>
<event>
 5   0  0.4981384E-06  0.1800378E+04  0.7818609E-02  0.8706099E-01
       -1   -1    0    0    0  501  0.00000000000E+00  0.00000000000E+00  0.44116126247E+03  0.44116126250E+03  0.50400001928E-02 0.  1.
        1   -1    0    0  501    0  0.00000000000E+00  0.00000000000E+00 -0.18368342878E+04  0.18368342878E+04  0.50400001928E-02 0. -1.
    10030    2    1    2    0    0  0.00000000000E+00  0.00000000000E+00 -0.13956730253E+04  0.22779955503E+04  0.18003778863E+04 0.  0.
        5    1    3    3  502    0 -0.76701047588E+03 -0.22265984488E+03 -0.12232517045E+04  0.14609070125E+04  0.46999998093E+01 0. -1.
       -5    1    3    3    0  502  0.76701047588E+03  0.22265984488E+03 -0.17242132074E+03  0.81708853772E+03  0.46999998093E+01 0.  1.
</event>
<event>
 5   0  0.9999162E-06  0.1798618E+04  0.7818609E-02  0.8707035E-01
       -2   -1    0    0    0  501  0.00000000000E+00  0.00000000000E+00  0.66008911752E+03  0.66008911753E+03  0.25500000920E-02 0.  1.
        2   -1    0    0  501    0  0.00000000000E+00  0.00000000000E+00 -0.12252235857E+04  0.12252235857E+04  0.25500000920E-02 0. -1.
    10030    2    1    2    0    0  0.00000000000E+00  0.00000000000E+00 -0.56513446821E+03  0.18853127033E+04  0.17986180867E+04 0.  0.
        1    1    3    3  502    0  0.68520605857E+03  0.47643473067E+03 -0.63376821383E+03  0.10479310780E+04  0.50400001928E-02 0. -1.
       -1    1    3    3    0  502 -0.68520605857E+03 -0.47643473067E+03  0.68633745628E+02  0.83738162528E+03  0.50400001928E-02 0.  1.
</event>
<event>
 5   0  0.1035018E-05  0.1799730E+04  0.7818609E-02  0.8706443E-01
        2   -1    0    0  501    0  0.00000000000E+00  0.00000000000E+00  0.14312331547E+04  0.14312331547E+04  0.25500000920E-02 0.  1.
       -2   -1    0    0    0  501  0.00000000000E+00  0.00000000000E+00 -0.56577546927E+03  0.56577546928E+03  0.25500000920E-02 0. -1.
    10030    2    1    2    0    0  0.00000000000E+00  0.00000000000E+00  0.86545768547E+03  0.19970086240E+04  0.17997295461E+04 0.  0.
        3    1    3    3  502    0  0.95513043976E+02 -0.83425839937E+02 -0.55581006451E+03  0.57009424690E+03  0.10100000352E+00 0. -1.
       -3    1    3    3    0  502 -0.95513043976E+02  0.83425839937E+02  0.14212677500E+04  0.14269143771E+04  0.10100000352E+00 0.  1.
</event>
<event>
 5   0  0.9589963E-06  0.1799931E+04  0.7818609E-02  0.8706336E-01
        2   -1    0    0  501    0  0.00000000000E+00  0.00000000000E+00  0.76490351709E+03  0.76490351710E+03  0.25500000920E-02 0.  1.
       -2   -1    0    0    0  501  0.00000000000E+00  0.00000000000E+00 -0.10588760854E+04  0.10588760854E+04  0.25500000920E-02 0. -1.
    10030    2    1    2    0    0  0.00000000000E+00  0.00000000000E+00 -0.29397256828E+03  0.18237796025E+04  0.17999311563E+04 0.  0.
        2    1    3    3  502    0 -0.36742897976E+03  0.62355520908E+03  0.39499609884E+03  0.82452839371E+03  0.25500000920E-02 0. -1.
       -2    1    3    3    0  502  0.36742897976E+03 -0.62355520908E+03 -0.68896866712E+03  0.99925120876E+03  0.25500000920E-02 0.  1.
</event>
<event>
 5   0  0.4953155E-06  0.1800409E+04  0.7818609E-02  0.8706082E-01
        1   -1    0    0  501    0  0.00000000000E+00  0.00000000000E+00  0.17033133988E+04  0.17033133988E+04  0.50400001928E-02 0.  1.
       -1   -1    0    0    0  501  0.00000000000E+00  0.00000000000E+00 -0.47575996150E+03  0.47575996153E+03  0.50400001928E-02 0. -1.
    10030    2    1    2    0    0  0.00000000000E+00  0.00000000000E+00  0.12275534373E+04  0.21790733603E+04  0.18004091947E+04 0.  0.
        2    1    3    3  502    0 -0.49391469791E+03 -0.13857307046E+03 -0.28154530116E+03  0.58516833585E+03  0.25500000920E-02 0. -1.
       -2    1    3    3    0  502  0.49391469791E+03  0.13857307046E+03  0.15090987384E+04  0.15939050245E+04  0.25500000920E-02 0.  1.
</event>
<event>
 5   0  0.1000316E-05  0.1799326E+04  0.7818609E-02  0.8706658E-01
        2   -1    0    0  501    0  0.00000000000E+00  0.00000000000E+00  0.42183100824E+03  0.42183100824E+03  0.25500000920E-02 0. -1.
       -2   -1    0    0    0  501  0.00000000000E+00  0.00000000000E+00 -0.19187621520E+04  0.19187621520E+04  0.25500000920E-02 0.  1.
    10030    2    1    2    0    0  0.00000000000E+00  0.00000000000E+00 -0.14969311438E+04  0.23405931603E+04  0.17993258439E+04 0.  0.
        5    1    3    3  502    0  0.63793962455E+03 -0.58494475508E+03 -0.42918474392E+03  0.96609987345E+03  0.46999998093E+01 0. -1.
       -5    1    3    3    0  502 -0.63793962455E+03  0.58494475508E+03 -0.10677463999E+04  0.13744932868E+04  0.46999998093E+01 0.  1.
</event>
<event>
 5   0  0.3626125E-06  0.1799965E+04  0.7818609E-02  0.8706318E-01
        3   -1    0    0  501    0  0.00000000000E+00  0.00000000000E+00  0.11491602455E+04  0.11491602500E+04  0.10100000352E+00 0. -1.
       -3   -1    0    0    0  501  0.00000000000E+00  0.00000000000E+00 -0.70483492077E+03  0.70483492801E+03  0.10100000352E+00 0.  1.
    10030    2    1    2    0    0  0.00000000000E+00  0.00000000000E+00  0.44432532477E+03  0.18539951780E+04  0.17999647568E+04 0.  0.
        3    1    3    3  502    0 -0.61598641115E+03  0.46854261381E+03 -0.25096960248E+03  0.81360751671E+03  0.10100000352E+00 0. -1.
       -3    1    3    3    0  502  0.61598641115E+03 -0.46854261381E+03  0.69529492725E+03  0.10403876613E+04  0.10100000352E+00 0.  1.
</event>
<event>
 5   0  0.1000316E-05  0.1799499E+04  0.7818609E-02  0.8706566E-01
        2   -1    0    0  501    0  0.00000000000E+00  0.00000000000E+00  0.12261404808E+04  0.12261404808E+04  0.25500000920E-02 0.  1.
       -2   -1    0    0    0  501  0.00000000000E+00  0.00000000000E+00 -0.66024169754E+03  0.66024169754E+03  0.25500000920E-02 0. -1.
    10030    2    1    2    0    0  0.00000000000E+00  0.00000000000E+00  0.56589878323E+03  0.18863821783E+04  0.17994988996E+04 0.  0.
        5    1    3    3  502    0  0.19989529274E+03 -0.71460649857E+03  0.81634507638E+03  0.11032053071E+04  0.46999998093E+01 0.  1.
       -5    1    3    3    0  502 -0.19989529274E+03  0.71460649857E+03 -0.25044629315E+03  0.78317687122E+03  0.46999998093E+01 0. -1.
</event>
<event>
 5   0  0.9999162E-06  0.1804838E+04  0.7818609E-02  0.8703731E-01
       -2   -1    0    0    0  501  0.00000000000E+00  0.00000000000E+00  0.37873209059E+03  0.37873209060E+03  0.25500000920E-02 0.  1.
        2   -1    0    0  501    0  0.00000000000E+00  0.00000000000E+00 -0.21502268366E+04  0.21502268366E+04  0.25500000920E-02 0. -1.
    10030    2    1    2    0    0  0.00000000000E+00  0.00000000000E+00 -0.17714947460E+04  0.25289589272E+04  0.18048378377E+04 0.  0.
        1    1    3    3  502    0 -0.26613074136E+03  0.12292722476E+03  0.31015432573E+03  0.42676970356E+03  0.50400001928E-02 0.  1.
       -1    1    3    3    0  502  0.26613074136E+03 -0.12292722476E+03 -0.20816490717E+04  0.21021892236E+04  0.50400001928E-02 0. -1.
</event>
<event>
 5   0  0.1036381E-05  0.1799472E+04  0.7818609E-02  0.8706580E-01
       -2   -1    0    0    0  501  0.00000000000E+00  0.00000000000E+00  0.57294386305E+03  0.57294386306E+03  0.25500000920E-02 0.  1.
        2   -1    0    0  501    0  0.00000000000E+00  0.00000000000E+00 -0.14129219060E+04  0.14129219060E+04  0.25500000920E-02 0. -1.
    10030    2    1    2    0    0  0.00000000000E+00  0.00000000000E+00 -0.83997804290E+03  0.19858657690E+04  0.17994720726E+04 0.  0.
        4    1    3    3  502    0  0.20126656304E+03  0.87602111142E+03 -0.46416134777E+03  0.10116168181E+04  0.12699999809E+01 0. -1.
       -4    1    3    3    0  502 -0.20126656304E+03 -0.87602111142E+03 -0.37581669513E+03  0.97424895088E+03  0.12699999809E+01 0.  1.
</event>
<event>
 5   0  0.4953155E-06  0.1796882E+04  0.7818609E-02  0.8707960E-01
        1   -1    0    0  501    0  0.00000000000E+00  0.00000000000E+00  0.11597341904E+04  0.11597341904E+04  0.50400001928E-02 0.  1.
       -1   -1    0    0    0  501  0.00000000000E+00  0.00000000000E+00 -0.69601792229E+03  0.69601792231E+03  0.50400001928E-02 0. -1.
    10030    2    1    2    0    0  0.00000000000E+00  0.00000000000E+00  0.46371626808E+03  0.18557521127E+04  0.17968815004E+04 0.  0.
        2    1    3    3  502    0 -0.77476911274E+03 -0.14021478150E+03  0.67878122911E+03  0.10395534234E+04  0.25500000920E-02 0.  1.
       -2    1    3    3    0  502  0.77476911274E+03  0.14021478150E+03 -0.21506496103E+03  0.81619868934E+03  0.25500000920E-02 0. -1.
</event>
<event>
 5   0  0.4953155E-06  0.1800034E+04  0.7818609E-02  0.8706281E-01
        1   -1    0    0  501    0  0.00000000000E+00  0.00000000000E+00  0.15807885932E+04  0.15807885932E+04  0.50400001928E-02 0. -1.
       -1   -1    0    0    0  501  0.00000000000E+00  0.00000000000E+00 -0.51242201000E+03  0.51242201002E+03  0.50400001928E-02 0.  1.
    10030    2    1    2    0    0  0.00000000000E+00  0.00000000000E+00  0.10683665832E+04  0.20932106033E+04  0.18000342979E+04 0.  0.
        2    1    3    3  502    0 -0.53748567021E+01 -0.50408483211E+03  0.14012063807E+04  0.14891305276E+04  0.25500000920E-02 0. -1.
       -2    1    3    3    0  502  0.53748567021E+01  0.50408483211E+03 -0.33283979742E+03  0.60408007566E+03  0.25500000920E-02 0.  1.
</event>
<event>
 5   0  0.1000316E-05  0.1802475E+04  0.7818609E-02  0.8704984E-01
       -2   -1    0    0    0  501  0.00000000000E+00  0.00000000000E+00  0.48614212684E+03  0.48614212684E+03  0.25500000920E-02 0.  1.
        2   -1    0    0  501    0  0.00000000000E+00  0.00000000000E+00 -0.16707644471E+04  0.16707644471E+04  0.25500000920E-02 0. -1.
    10030    2    1    2    0    0  0.00000000000E+00  0.00000000000E+00 -0.11846223203E+04  0.21569065740E+04  0.18024749449E+04 0.  0.
        5    1    3    3  502    0  0.26346857329E+02  0.14513580853E+03 -0.16562063399E+04  0.16627688024E+04  0.46999998093E+01 0. -1.
       -5    1    3    3    0  502 -0.26346857329E+02 -0.14513580853E+03  0.47158401959E+03  0.49413777162E+03  0.46999998093E+01 0.  1.
</event>
<event>
 5   0  0.1035018E-05  0.1799919E+04  0.7818609E-02  0.8706343E-01
        2   -1    0    0  501    0  0.00000000000E+00  0.00000000000E+00  0.10275729552E+04  0.10275729552E+04  0.25500000920E-02 0. -1.
       -2   -1    0    0    0  501  0.00000000000E+00  0.00000000000E+00 -0.78819425027E+03  0.78819425027E+03  0.25500000920E-02 0.  1.
    10030    2    1    2    0    0  0.00000000000E+00  0.00000000000E+00  0.23937870493E+03  0.18157672055E+04  0.17999189927E+04 0.  0.
        3    1    3    3  502    0  0.74628548966E+03  0.50078413583E+03  0.16700974741E+03  0.91412200975E+03  0.10100000352E+00 0.  1.
       -3    1    3    3    0  502 -0.74628548966E+03 -0.50078413583E+03  0.72368957524E+02  0.90164519573E+03  0.10100000352E+00 0. -1.
</event>
<event>
 5   0  0.4953155E-06  0.1799738E+04  0.7818609E-02  0.8706439E-01
        1   -1    0    0  501    0  0.00000000000E+00  0.00000000000E+00  0.92330398307E+03  0.92330398309E+03  0.50400001928E-02 0.  1.
       -1   -1    0    0    0  501  0.00000000000E+00  0.00000000000E+00 -0.87702854750E+03  0.87702854751E+03  0.50400001928E-02 0. -1.
    10030    2    1    2    0    0  0.00000000000E+00  0.00000000000E+00  0.46275435572E+02  0.18003325306E+04  0.17997377044E+04 0.  0.
        2    1    3    3  502    0 -0.70317038586E+03 -0.23893565802E+03 -0.48518878129E+03  0.88710032900E+03  0.25500000920E-02 0. -1.
       -2    1    3    3    0  502  0.70317038586E+03  0.23893565802E+03  0.53146421686E+03  0.91323220160E+03  0.25500000920E-02 0.  1.
</event>
<event>
 5   0  0.9589963E-06  0.1786191E+04  0.7818609E-02  0.8713678E-01
       -2   -1    0    0    0  501  0.00000000000E+00  0.00000000000E+00  0.98957757160E+03  0.98957757160E+03  0.25500000920E-02 0.  1.
        2   -1    0    0  501    0  0.00000000000E+00  0.00000000000E+00 -0.80602009906E+03  0.80602009907E+03  0.25500000920E-02 0. -1.
    10030    2    1    2    0    0  0.00000000000E+00  0.00000000000E+00  0.18355747254E+03  0.17955976707E+04  0.17861908210E+04 0.  0.
        2    1    3    3  502    0 -0.53231017687E+01  0.28417260686E+03  0.94289989830E+03  0.98480588144E+03  0.25500000920E-02 0.  1.
       -2    1    3    3    0  502  0.53231017687E+01 -0.28417260686E+03 -0.75934242576E+03  0.81079178922E+03  0.25500000920E-02 0. -1.
</event>
<event>
 5   0  0.4983159E-06  0.1799043E+04  0.7818609E-02  0.8706809E-01
        1   -1    0    0  501    0  0.00000000000E+00  0.00000000000E+00  0.68032176092E+03  0.68032176094E+03  0.50400001928E-02 0. -1.
       -1   -1    0    0    0  501  0.00000000000E+00  0.00000000000E+00 -0.11893468817E+04  0.11893468817E+04  0.50400001928E-02 0.  1.
    10030    2    1    2    0    0  0.00000000000E+00  0.00000000000E+00 -0.50902512081E+03  0.18696686427E+04  0.17990425953E+04 0.  0.
        4    1    3    3  502    0 -0.21778795981E+03  0.72121084083E+03  0.25626988155E+03  0.79577166163E+03  0.12699999809E+01 0. -1.
       -4    1    3    3    0  502  0.21778795981E+03 -0.72121084083E+03 -0.76529500236E+03  0.10738969810E+04  0.12699999809E+01 0.  1.
</event>
<event>
 5   0  0.4987456E-06  0.1799378E+04  0.7818609E-02  0.8706630E-01
       -1   -1    0    0    0  501  0.00000000000E+00  0.00000000000E+00  0.78369529659E+03  0.78369529661E+03  0.50400001928E-02 0.  1.
        1   -1    0    0  501    0  0.00000000000E+00  0.00000000000E+00 -0.10328503939E+04  0.10328503939E+04  0.50400001928E-02 0. -1.
    10030    2    1    2    0    0  0.00000000000E+00  0.00000000000E+00 -0.24915509733E+03  0.18165456905E+04  0.17993776656E+04 0.  0.
        3    1    3    3  502    0 -0.37006655055E+03  0.81520763567E+03 -0.34692982245E+02  0.89594439242E+03  0.10100000352E+00 0.  1.
       -3    1    3    3    0  502  0.37006655055E+03 -0.81520763567E+03 -0.21446211509E+03  0.92060129812E+03  0.10100000352E+00 0. -1.
</event>
<event>
 5   0  0.9999162E-06  0.1799447E+04  0.7818609E-02  0.8706594E-01
       -2   -1    0    0    0  501  0.00000000000E+00  0.00000000000E+00  0.10211682579E+04  0.10211682579E+04  0.25500000920E-02 0. -1.
        2   -1    0    0  501    0  0.00000000000E+00  0.00000000000E+00 -0.79272194905E+03  0.79272194906E+03  0.25500000920E-02 0.  1.
    10030    2    1    2    0    0  0.00000000000E+00  0.00000000000E+00  0.22844630888E+03  0.18138902070E+04  0.17994471281E+04 0.  0.
        1    1    3    3  502    0  0.50747270634E+03 -0.19781743640E+03 -0.60765481037E+03  0.81602981221E+03  0.50400001928E-02 0.  1.
       -1    1    3    3    0  502 -0.50747270634E+03  0.19781743640E+03  0.83610111925E+03  0.99786039478E+03  0.50400001928E-02 0. -1.
</event>
<event>
 5   0  0.4953155E-06  0.1799846E+04  0.7818609E-02  0.8706381E-01
       -1   -1    0    0    0  501  0.00000000000E+00  0.00000000000E+00  0.82487163426E+03  0.82487163428E+03  0.50400001928E-02 0. -1.
        1   -1    0    0  501    0  0.00000000000E+00  0.00000000000E+00 -0.98180345833E+03  0.98180345834E+03  0.50400001928E-02 0.  1.
    10030    2    1    2    0    0  0.00000000000E+00  0.00000000000E+00 -0.15693182406E+03  0.18066750926E+04  0.17998464637E+04 0.  0.
        2    1    3    3  502    0  0.51135643385E+03 -0.73916980691E+03 -0.33525332032E+02  0.89943390740E+03  0.25500000920E-02 0. -1.
       -2    1    3    3    0  502 -0.51135643385E+03  0.73916980691E+03 -0.12340649203E+03  0.90724118522E+03  0.25500000920E-02 0.  1.
</event>
<event>
 5   0  0.9999162E-06  0.1800366E+04  0.7818609E-02  0.8706105E-01
       -2   -1    0    0    0  501  0.00000000000E+00  0.00000000000E+00  0.44327101340E+03  0.44327101341E+03  0.25500000920E-02 0.  1.
        2   -1    0    0  501    0  0.00000000000E+00  0.00000000000E+00 -0.18280671848E+04  0.18280671848E+04  0.25500000920E-02 0. -1.
    10030    2    1    2    0    0  0.00000000000E+00  0.00000000000E+00 -0.13847961714E+04  0.22713381982E+04  0.18003657335E+04 0.  0.
        1    1    3    3  502    0  0.15487041932E+03 -0.41215946316E+03 -0.16829486749E+04  0.17395909037E+04  0.50400001928E-02 0. -1.
       -1    1    3    3    0  502 -0.15487041932E+03  0.41215946316E+03  0.29815250350E+03  0.53174729452E+03  0.50400001928E-02 0.  1.
</event>
<event>
 5   0  0.1035018E-05  0.1798656E+04  0.7818609E-02  0.8707015E-01
        2   -1    0    0  501    0  0.00000000000E+00  0.00000000000E+00  0.17248817191E+04  0.17248817191E+04  0.25500000920E-02 0.  1.
       -2   -1    0    0    0  501  0.00000000000E+00  0.00000000000E+00 -0.46889640995E+03  0.46889640996E+03  0.25500000920E-02 0. -1.
    10030    2    1    2    0    0  0.00000000000E+00  0.00000000000E+00  0.12559853091E+04  0.21937781290E+04  0.17986559934E+04 0.  0.
        3    1    3    3  502    0  0.69427514890E+03 -0.12829885906E+03 -0.51436310454E+02  0.70790132352E+03  0.10100000352E+00 0. -1.
       -3    1    3    3    0  502 -0.69427514890E+03  0.12829885906E+03  0.13074216196E+04  0.14858768055E+04  0.10100000352E+00 0.  1.
</event>
<event>
 5   0  0.4994123E-06  0.1798403E+04  0.7818609E-02  0.8707149E-01
       -1   -1    0    0    0  501  0.00000000000E+00  0.00000000000E+00  0.60951346580E+03  0.60951346582E+03  0.50400001928E-02 0. -1.
        1   -1    0    0  501    0  0.00000000000E+00  0.00000000000E+00 -0.13265710412E+04  0.13265710412E+04  0.50400001928E-02 0.  1.
    10030    2    1    2    0    0  0.00000000000E+00  0.00000000000E+00 -0.71705757538E+03  0.19360845070E+04  0.17984025278E+04 0.  0.
        1    1    3    3  502    0  0.50060210520E+03  0.17714392027E+03  0.42268478852E+03  0.67870823384E+03  0.50400001928E-02 0. -1.
       -1    1    3    3    0  502 -0.50060210520E+03 -0.17714392027E+03 -0.11397423639E+04  0.12573762732E+04  0.50400001928E-02 0.  1.
</event>
<event>
 5   0  0.4994123E-06  0.1800112E+04  0.7818609E-02  0.8706240E-01
        1   -1    0    0  501    0  0.00000000000E+00  0.00000000000E+00  0.68925983149E+03  0.68925983151E+03  0.50400001928E-02 0.  1.
       -1   -1    0    0    0  501  0.00000000000E+00  0.00000000000E+00 -0.11753194470E+04  0.11753194470E+04  0.50400001928E-02 0. -1.
    10030    2    1    2    0    0  0.00000000000E+00  0.00000000000E+00 -0.48605961552E+03  0.18645792785E+04  0.18001116454E+04 0.  0.
        1    1    3    3  502    0 -0.15502683361E+03 -0.87642919048E+03 -0.10429641792E+03  0.89612453816E+03  0.50400001928E-02 0.  1.
       -1    1    3    3    0  502  0.15502683361E+03  0.87642919048E+03 -0.38176319759E+03  0.96845474036E+03  0.50400001928E-02 0. -1.
</event>
<event>
 5   0  0.9999162E-06  0.1789450E+04  0.7818609E-02  0.8711930E-01
        2   -1    0    0  501    0  0.00000000000E+00  0.00000000000E+00  0.20816870040E+04  0.20816870040E+04  0.25500000920E-02 0. -1.
       -2   -1    0    0    0  501  0.00000000000E+00  0.00000000000E+00 -0.38455961358E+03  0.38455961359E+03  0.25500000920E-02 0.  1.
    10030    2    1    2    0    0  0.00000000000E+00  0.00000000000E+00  0.16971273904E+04  0.24662466176E+04  0.17894499153E+04 0.  0.
        1    1    3    3  502    0 -0.58435687943E+02  0.48128631870E+03  0.18849607154E+04  0.19463114214E+04  0.50400001928E-02 0. -1.
       -1    1    3    3    0  502  0.58435687943E+02 -0.48128631870E+03 -0.18783332506E+03  0.51993519618E+03  0.50400001928E-02 0.  1.
</event>
<event>
 5   0  0.4953155E-06  0.1799663E+04  0.7818609E-02  0.8706479E-01
        1   -1    0    0  501    0  0.00000000000E+00  0.00000000000E+00  0.24909923812E+04  0.24909923812E+04  0.50400001928E-02 0. -1.
       -1   -1    0    0    0  501  0.00000000000E+00  0.00000000000E+00 -0.32504994164E+03  0.32504994168E+03  0.50400001928E-02 0.  1.
    10030    2    1    2    0    0  0.00000000000E+00  0.00000000000E+00  0.21659424395E+04  0.28160423229E+04  0.17996632220E+04 0.  0.
        2    1    3    3  502    0 -0.83832144098E+03 -0.32404634714E+03  0.10146204604E+04  0.13554495757E+04  0.25500000920E-02 0.  1.
       -2    1    3    3    0  502  0.83832144098E+03  0.32404634714E+03  0.11513219791E+04  0.14605927472E+04  0.25500000920E-02 0. -1.
</event>
<event>
 5   0  0.4994123E-06  0.1800395E+04  0.7818609E-02  0.8706090E-01
        1   -1    0    0  501    0  0.00000000000E+00  0.00000000000E+00  0.69942723564E+03  0.69942723566E+03  0.50400001928E-02 0. -1.
       -1   -1    0    0    0  501  0.00000000000E+00  0.00000000000E+00 -0.11585985981E+04  0.11585985981E+04  0.50400001928E-02 0.  1.
    10030    2    1    2    0    0  0.00000000000E+00  0.00000000000E+00 -0.45917136242E+03  0.18580258337E+04  0.18003948619E+04 0.  0.
        1    1    3    3  502    0  0.24312491529E+02  0.65997992703E+03 -0.86087805616E+03  0.10850233311E+04  0.50400001928E-02 0.  1.
       -1    1    3    3    0  502 -0.24312491529E+02 -0.65997992703E+03  0.40170669374E+03  0.77300250268E+03  0.50400001928E-02 0. -1.
</event>
<event>
 5   0  0.1035018E-05  0.1801057E+04  0.7818609E-02  0.8705738E-01
        2   -1    0    0  501    0  0.00000000000E+00  0.00000000000E+00  0.21458427160E+04  0.21458427160E+04  0.25500000920E-02 0.  1.
       -2   -1    0    0    0  501  0.00000000000E+00  0.00000000000E+00 -0.37791738539E+03  0.37791738540E+03  0.25500000920E-02 0. -1.
    10030    2    1    2    0    0  0.00000000000E+00  0.00000000000E+00  0.17679253306E+04  0.25237601014E+04  0.18010566551E+04 0.  0.
        3    1    3    3  502    0 -0.15287587694E+03  0.86487179860E+03  0.11627301479E+04  0.14571601384E+04  0.10100000352E+00 0.  1.
       -3    1    3    3    0  502  0.15287587694E+03 -0.86487179860E+03  0.60519518263E+03  0.10665999630E+04  0.10100000352E+00 0. -1.
</event>
<event>
 5   0  0.4983159E-06  0.1799768E+04  0.7818609E-02  0.8706423E-01
       -1   -1    0    0    0  501  0.00000000000E+00  0.00000000000E+00  0.11808644087E+04  0.11808644087E+04  0.50400001928E-02 0.  1.
        1   -1    0    0  501    0  0.00000000000E+00  0.00000000000E+00 -0.68576112121E+03  0.68576112123E+03  0.50400001928E-02 0. -1.
    10030    2    1    2    0    0  0.00000000000E+00  0.00000000000E+00  0.49510328745E+03  0.18666255299E+04  0.17997676527E+04 0.  0.
        4    1    3    3  502    0  0.54493434077E+03  0.37456473565E+03 -0.38548016143E+03  0.76540756770E+03  0.12699999809E+01 0. -1.
       -4    1    3    3    0  502 -0.54493434077E+03 -0.37456473565E+03  0.88058344888E+03  0.11012179622E+04  0.12699999809E+01 0.  1.
</event>
<event>
 5   0  0.4994123E-06  0.1800781E+04  0.7818609E-02  0.8705884E-01
        1   -1    0    0  501    0  0.00000000000E+00  0.00000000000E+00  0.27703760906E+04  0.27703760906E+04  0.50400001928E-02 0. -1.
       -1   -1    0    0    0  501  0.00000000000E+00  0.00000000000E+00 -0.29263289009E+03  0.29263289013E+03  0.50400001928E-02 0.  1.
    10030    2    1    2    0    0  0.00000000000E+00  0.00000000000E+00  0.24777432005E+04  0.30630089808E+04  0.18007811217E+04 0.  0.
        1    1    3    3  502    0  0.44728568695E+03  0.24677317640E+03  0.25000213905E+04  0.25516795330E+04  0.50400001928E-02 0. -1.
       -1    1    3    3    0  502 -0.44728568695E+03 -0.24677317640E+03 -0.22278189952E+02  0.51132944773E+03  0.50400001928E-02 0.  1.
</event>
<event>
 5   0  0.4994123E-06  0.1802108E+04  0.7818609E-02  0.8705179E-01
       -1   -1    0    0    0  501  0.00000000000E+00  0.00000000000E+00  0.86962599665E+03  0.86962599667E+03  0.50400001928E-02 0.  1.
        1   -1    0    0  501    0  0.00000000000E+00  0.00000000000E+00 -0.93361758116E+03  0.93361758117E+03  0.50400001928E-02 0. -1.
    10030    2    1    2    0    0  0.00000000000E+00  0.00000000000E+00 -0.63991584508E+02  0.18032435778E+04  0.18021077876E+04 0.  0.
        1    1    3    3  502    0  0.36891837497E+03 -0.61900207380E+02 -0.85224758588E+03  0.93073000958E+03  0.50400001928E-02 0. -1.
       -1    1    3    3    0  502 -0.36891837497E+03  0.61900207380E+02  0.78825600138E+03  0.87251356826E+03  0.50400001928E-02 0.  1.
</event>
<event>
 5   0  0.9589963E-06  0.1800181E+04  0.7818609E-02  0.8706203E-01
       -2   -1    0    0    0  501  0.00000000000E+00  0.00000000000E+00  0.61978932577E+03  0.61978932577E+03  0.25500000920E-02 0. -1.
        2   -1    0    0  501    0  0.00000000000E+00  0.00000000000E+00 -0.13071579159E+04  0.13071579159E+04  0.25500000920E-02 0.  1.
    10030    2    1    2    0    0  0.00000000000E+00  0.00000000000E+00 -0.68736859017E+03  0.19269472417E+04  0.18001805725E+04 0.  0.
        2    1    3    3  502    0 -0.51869044834E+02  0.88368948328E+03 -0.51814950990E+03  0.10257077631E+04  0.25500000920E-02 0. -1.
       -2    1    3    3    0  502  0.51869044834E+02 -0.88368948328E+03 -0.16921908027E+03  0.90123947861E+03  0.25500000920E-02 0.  1.
</event>
<event>
 5   0  0.1036381E-05  0.1801141E+04  0.7818609E-02  0.8705693E-01
        2   -1    0    0  501    0  0.00000000000E+00  0.00000000000E+00  0.25562853649E+03  0.25562853650E+03  0.25500000920E-02 0.  1.
       -2   -1    0    0    0  501  0.00000000000E+00  0.00000000000E+00 -0.31726787086E+04  0.31726787086E+04  0.25500000920E-02 0. -1.
    10030    2    1    2    0    0  0.00000000000E+00  0.00000000000E+00 -0.29170501721E+04  0.34283072451E+04  0.18011409885E+04 0.  0.
        4    1    3    3  502    0 -0.53052412682E+03  0.23883391412E+03 -0.27669411081E+04  0.28274480007E+04  0.12699999809E+01 0. -1.
       -4    1    3    3    0  502  0.53052412682E+03 -0.23883391412E+03 -0.15010906400E+03  0.60085924447E+03  0.12699999809E+01 0.  1.
</event>
<event>
 5   0  0.1035018E-05  0.1799862E+04  0.7818609E-02  0.8706373E-01
       -2   -1    0    0    0  501  0.00000000000E+00  0.00000000000E+00  0.57601583284E+03  0.57601583285E+03  0.25500000920E-02 0.  1.
        2   -1    0    0  501    0  0.00000000000E+00  0.00000000000E+00 -0.14059960852E+04  0.14059960852E+04  0.25500000920E-02 0. -1.
    10030    2    1    2    0    0  0.00000000000E+00  0.00000000000E+00 -0.82998025236E+03  0.19820119181E+04  0.17998622236E+04 0.  0.
        3    1    3    3  502    0 -0.22691535302E+03  0.85307049814E+03 -0.60779844165E+03  0.10717456826E+04  0.10100000352E+00 0. -1.
       -3    1    3    3    0  502  0.22691535302E+03 -0.85307049814E+03 -0.22218181070E+03  0.91026623548E+03  0.10100000352E+00 0.  1.
</event>
<event>
 5   0  0.4987456E-06  0.1801369E+04  0.7818609E-02  0.8705572E-01
        1   -1    0    0  501    0  0.00000000000E+00  0.00000000000E+00  0.71220369814E+03  0.71220369816E+03  0.50400001928E-02 0. -1.
       -1   -1    0    0    0  501  0.00000000000E+00  0.00000000000E+00 -0.11390459245E+04  0.11390459245E+04  0.50400001928E-02 0.  1.
    10030    2    1    2    0    0  0.00000000000E+00  0.00000000000E+00 -0.42684222638E+03  0.18512496227E+04  0.18013691680E+04 0.  0.
        3    1    3    3  502    0 -0.43719905562E+03 -0.77038356710E+03 -0.45813505130E+02  0.88697956129E+03  0.10100000352E+00 0. -1.
       -3    1    3    3    0  502  0.43719905562E+03  0.77038356710E+03 -0.38102872125E+03  0.96427006140E+03  0.10100000352E+00 0.  1.
</event>
<event>
 5   0  0.1000316E-05  0.1800233E+04  0.7818609E-02  0.8706175E-01
        2   -1    0    0  501    0  0.00000000000E+00  0.00000000000E+00  0.30400963050E+04  0.30400963050E+04  0.25500000920E-02 0. -1.
       -2   -1    0    0    0  501  0.00000000000E+00  0.00000000000E+00 -0.26650800991E+03  0.26650800992E+03  0.25500000920E-02 0.  1.
    10030    2    1    2    0    0  0.00000000000E+00  0.00000000000E+00  0.27735882950E+04  0.33066043149E+04  0.18002333362E+04 0.  0.
        5    1    3    3  502    0 -0.86711584163E+03 -0.16734566462E+03  0.10671049556E+04  0.13851460322E+04  0.46999998093E+01 0. -1.
       -5    1    3    3    0  502  0.86711584163E+03  0.16734566462E+03  0.17064833394E+04  0.19214582826E+04  0.46999998093E+01 0.  1.
</event>
<event>
 5   0  0.9589963E-06  0.1799663E+04  0.7818609E-02  0.8706479E-01
       -2   -1    0    0    0  501  0.00000000000E+00  0.00000000000E+00  0.58206944893E+03  0.58206944893E+03  0.25500000920E-02 0.  1.
        2   -1    0    0  501    0  0.00000000000E+00  0.00000000000E+00 -0.13910648953E+04  0.13910648953E+04  0.25500000920E-02 0. -1.
    10030    2    1    2    0    0  0.00000000000E+00  0.00000000000E+00 -0.80899544633E+03  0.19731343442E+04  0.17996626095E+04 0.  0.
        2    1    3    3  502    0  0.95296934226E+02  0.45940755944E+03  0.43734198604E+03  0.64140846900E+03  0.25500000920E-02 0.  1.
       -2    1    3    3    0  502 -0.95296934226E+02 -0.45940755944E+03 -0.12463374324E+04  0.13317258752E+04  0.25500000920E-02 0. -1.
</event>
<event>
 5   0  0.4987456E-06  0.1799528E+04  0.7818609E-02  0.8706550E-01
       -1   -1    0    0    0  501  0.00000000000E+00  0.00000000000E+00  0.71435106117E+03  0.71435106119E+03  0.50400001928E-02 0. -1.
        1   -1    0    0  501    0  0.00000000000E+00  0.00000000000E+00 -0.11333017579E+04  0.11333017579E+04  0.50400001928E-02 0.  1.
    10030    2    1    2    0    0  0.00000000000E+00  0.00000000000E+00 -0.41895069669E+03  0.18476528191E+04  0.17995280641E+04 0.  0.
        3    1    3    3  502    0  0.17139299852E+03 -0.79723544658E+03 -0.59992855645E+03  0.10123607066E+04  0.10100000352E+00 0.  1.
       -3    1    3    3    0  502 -0.17139299852E+03  0.79723544658E+03  0.18097785976E+03  0.83529211247E+03  0.10100000352E+00 0. -1.
</event>
<event>
 5   0  0.1000316E-05  0.1801568E+04  0.7818609E-02  0.8705466E-01
        2   -1    0    0  501    0  0.00000000000E+00  0.00000000000E+00  0.11042717663E+04  0.11042717664E+04  0.25500000920E-02 0.  1.
       -2   -1    0    0    0  501  0.00000000000E+00  0.00000000000E+00 -0.73479386963E+03  0.73479386964E+03  0.25500000920E-02 0. -1.
    10030    2    1    2    0    0  0.00000000000E+00  0.00000000000E+00  0.36947789672E+03  0.18390656360E+04  0.18015683438E+04 0.  0.
        5    1    3    3  502    0 -0.80821891127E+02  0.89089196920E+02 -0.72654582805E+03  0.73645094429E+03  0.46999998093E+01 0. -1.
       -5    1    3    3    0  502  0.80821891127E+02 -0.89089196920E+02  0.10960237248E+04  0.11026146917E+04  0.46999998093E+01 0.  1.
</event>
<event>
 5   0  0.3626125E-06  0.1799279E+04  0.7818609E-02  0.8706683E-01
       -3   -1    0    0    0  501  0.00000000000E+00  0.00000000000E+00  0.13689047373E+04  0.13689047410E+04  0.10100000352E+00 0. -1.
        3   -1    0    0  501    0  0.00000000000E+00  0.00000000000E+00 -0.59124028765E+03  0.59124029627E+03  0.10100000352E+00 0.  1.
    10030    2    1    2    0    0  0.00000000000E+00  0.00000000000E+00  0.77766444961E+03  0.19601450373E+04  0.17992794588E+04 0.  0.
        4    1    3    3  502    0 -0.62059325203E+03  0.49454087300E+03  0.85056976238E+03  0.11632614466E+04  0.12699999809E+01 0. -1.
       -4    1    3    3    0  502  0.62059325203E+03 -0.49454087300E+03 -0.72905312775E+02  0.79688359066E+03  0.12699999809E+01 0.  1.
</event>
<event>
 5   0  0.1000316E-05  0.1798226E+04  0.7818609E-02  0.8707243E-01
        2   -1    0    0  501    0  0.00000000000E+00  0.00000000000E+00  0.19507048514E+04  0.19507048514E+04  0.25500000920E-02 0. -1.
       -2   -1    0    0    0  501  0.00000000000E+00  0.00000000000E+00 -0.41441659999E+03  0.41441659999E+03  0.25500000920E-02 0.  1.
    10030    2    1    2    0    0  0.00000000000E+00  0.00000000000E+00  0.15362882514E+04  0.23651214514E+04  0.17982263174E+04 0.  0.
        5    1    3    3  502    0  0.51434052960E+03  0.71051802528E+03  0.10278867836E+04  0.13512791623E+04  0.46999998093E+01 0. -1.
       -5    1    3    3    0  502 -0.51434052960E+03 -0.71051802528E+03  0.50840146780E+03  0.10138422891E+04  0.46999998093E+01 0.  1.
</event>
<event>
 5   0  0.9999162E-06  0.1800021E+04  0.7818609E-02  0.8706288E-01
        2   -1    0    0  501    0  0.00000000000E+00  0.00000000000E+00  0.79413391343E+03  0.79413391344E+03  0.25500000920E-02 0.  1.
       -2   -1    0    0    0  501  0.00000000000E+00  0.00000000000E+00 -0.10200031853E+04  0.10200031853E+04  0.25500000920E-02 0. -1.
    10030    2    1    2    0    0  0.00000000000E+00  0.00000000000E+00 -0.22586927189E+03  0.18141370988E+04  0.18000212457E+04 0.  0.
        1    1    3    3  502    0  0.28916069081E+03 -0.33199907295E+03  0.67819365990E+03  0.80856906316E+03  0.50400001928E-02 0.  1.
       -1    1    3    3    0  502 -0.28916069081E+03  0.33199907295E+03 -0.90406293179E+03  0.10055680356E+04  0.50400001928E-02 0. -1.
</event>
<event>
 5   0  0.1036381E-05  0.1800035E+04  0.7818609E-02  0.8706281E-01
        2   -1    0    0  501    0  0.00000000000E+00  0.00000000000E+00  0.15475569233E+04  0.15475569233E+04  0.25500000920E-02 0. -1.
       -2   -1    0    0    0  501  0.00000000000E+00  0.00000000000E+00 -0.52342619173E+03  0.52342619174E+03  0.25500000920E-02 0.  1.
    10030    2    1    2    0    0  0.00000000000E+00  0.00000000000E+00  0.10241307316E+04  0.20709831150E+04  0.18000353628E+04 0.  0.
        4    1    3    3  502    0  0.80706785562E+03  0.37584672478E+03  0.36025322529E+03  0.96041828561E+03  0.12699999809E+01 0. -1.
       -4    1    3    3    0  502 -0.80706785562E+03 -0.37584672478E+03  0.66387750627E+03  0.11105648294E+04  0.12699999809E+01 0.  1.
</event>
<event>
 5   0  0.4987456E-06  0.1799760E+04  0.7818609E-02  0.8706427E-01
       -1   -1    0    0    0  501  0.00000000000E+00  0.00000000000E+00  0.79429428655E+03  0.79429428657E+03  0.50400001928E-02 0. -1.
        1   -1    0    0  501    0  0.00000000000E+00  0.00000000000E+00 -0.10195008838E+04  0.10195008838E+04  0.50400001928E-02 0.  1.
    10030    2    1    2    0    0  0.00000000000E+00  0.00000000000E+00 -0.22520659727E+03  0.18137951704E+04  0.17997596808E+04 0.  0.
        3    1    3    3  502    0 -0.20026611069E+03 -0.33791062284E+03 -0.92854279295E+03  0.10082072370E+04  0.10100000352E+00 0.  1.
       -3    1    3    3    0  502  0.20026611069E+03  0.33791062284E+03  0.70333619569E+03  0.80558793343E+03  0.10100000352E+00 0. -1.
</event>
<event>
 5   0  0.4983159E-06  0.1800886E+04  0.7818609E-02  0.8705828E-01
        1   -1    0    0  501    0  0.00000000000E+00  0.00000000000E+00  0.16714166368E+04  0.16714166368E+04  0.50400001928E-02 0.  1.
       -1   -1    0    0    0  501  0.00000000000E+00  0.00000000000E+00 -0.48509608840E+03  0.48509608842E+03  0.50400001928E-02 0. -1.
    10030    2    1    2    0    0  0.00000000000E+00  0.00000000000E+00  0.11863205484E+04  0.21565127252E+04  0.18008860848E+04 0.  0.
        4    1    3    3  502    0  0.66459355613E+03  0.51950877379E+03  0.21596174770E+03  0.87075544802E+03  0.12699999809E+01 0. -1.
       -4    1    3    3    0  502 -0.66459355613E+03 -0.51950877379E+03  0.97035880071E+03  0.12857572772E+04  0.12699999809E+01 0.  1.
</event>
<event>
 5   0  0.9999162E-06  0.1799300E+04  0.7818609E-02  0.8706672E-01
       -2   -1    0    0    0  501  0.00000000000E+00  0.00000000000E+00  0.52014327823E+03  0.52014327823E+03  0.25500000920E-02 0.  1.
        2   -1    0    0  501    0  0.00000000000E+00  0.00000000000E+00 -0.15560520846E+04  0.15560520846E+04  0.25500000920E-02 0. -1.
    10030    2    1    2    0    0  0.00000000000E+00  0.00000000000E+00 -0.10359088064E+04  0.20761953628E+04  0.17992998998E+04 0.  0.
        1    1    3    3  502    0 -0.18632496621E+03  0.12874937832E+03 -0.15226192744E+04  0.15393709268E+04  0.50400001928E-02 0. -1.
       -1    1    3    3    0  502  0.18632496621E+03 -0.12874937832E+03  0.48671046801E+03  0.53682443606E+03  0.50400001928E-02 0.  1.
</event>
<event>
 5   0  0.4994123E-06  0.1800079E+04  0.7818609E-02  0.8706257E-01
       -1   -1    0    0    0  501  0.00000000000E+00  0.00000000000E+00  0.37642475825E+03  0.37642475828E+03  0.50400001928E-02 0.  1.
        1   -1    0    0  501    0  0.00000000000E+00  0.00000000000E+00 -0.21520131797E+04  0.21520131797E+04  0.50400001928E-02 0. -1.
    10030    2    1    2    0    0  0.00000000000E+00  0.00000000000E+00 -0.17755884215E+04  0.25284379380E+04  0.18000789327E+04 0.  0.
        1    1    3    3  502    0 -0.34872231781E+03 -0.72520584620E+03 -0.14540872624E+04  0.16618966697E+04  0.50400001928E-02 0. -1.
       -1    1    3    3    0  502  0.34872231781E+03  0.72520584620E+03 -0.32150115913E+03  0.86654126829E+03  0.50400001928E-02 0.  1.
</event>
<event>
 5   0  0.1036381E-05  0.1799954E+04  0.7818609E-02  0.8706324E-01
       -2   -1    0    0    0  501  0.00000000000E+00  0.00000000000E+00  0.15872182421E+04  0.15872182421E+04  0.25500000920E-02 0.  1.
        2   -1    0    0  501    0  0.00000000000E+00  0.00000000000E+00 -0.51030050596E+03  0.51030050596E+03  0.25500000920E-02 0. -1.
    10030    2    1    2    0    0  0.00000000000E+00  0.00000000000E+00  0.10769177361E+04  0.20975187480E+04  0.17999536350E+04 0.  0.
        4    1    3    3  502    0 -0.54878400780E+03 -0.56149528475E+03  0.10510873912E+04  0.13119554714E+04  0.12699999809E+01 0.  1.
       -4    1    3    3    0  502  0.54878400780E+03  0.56149528475E+03  0.25830344897E+02  0.78556327665E+03  0.12699999809E+01 0. -1.
</event>
<event>
 5   0  0.1000316E-05  0.1801201E+04  0.7818609E-02  0.8705661E-01
        2   -1    0    0  501    0  0.00000000000E+00  0.00000000000E+00  0.12797262632E+04  0.12797262632E+04  0.25500000920E-02 0. -1.
       -2   -1    0    0    0  501  0.00000000000E+00  0.00000000000E+00 -0.63379254836E+03  0.63379254837E+03  0.25500000920E-02 0.  1.
    10030    2    1    2    0    0  0.00000000000E+00  0.00000000000E+00  0.64593371480E+03  0.19135188115E+04  0.18012006768E+04 0.  0.
        5    1    3    3  502    0  0.42707698590E+03 -0.41699501949E+03  0.10393922496E+04  0.11985983217E+04  0.46999998093E+01 0. -1.
       -5    1    3    3    0  502 -0.42707698590E+03  0.41699501949E+03 -0.39345853483E+03  0.71492048984E+03  0.46999998093E+01 0.  1.
</event>
<event>
 5   0  0.1000316E-05  0.1799854E+04  0.7818609E-02  0.8706377E-01
        2   -1    0    0  501    0  0.00000000000E+00  0.00000000000E+00  0.18096342450E+04  0.18096342450E+04  0.25500000920E-02 0.  1.
       -2   -1    0    0    0  501  0.00000000000E+00  0.00000000000E+00 -0.44753166818E+03  0.44753166819E+03  0.25500000920E-02 0. -1.
    10030    2    1    2    0    0  0.00000000000E+00  0.00000000000E+00  0.13621025768E+04  0.22571659132E+04  0.17998540302E+04 0.  0.
        5    1    3    3  502    0  0.56663753275E+03 -0.45639068787E+03  0.13452133166E+04  0.15293761835E+04  0.46999998093E+01 0.  1.
       -5    1    3    3    0  502 -0.56663753275E+03  0.45639068787E+03  0.16889260176E+02  0.72778972966E+03  0.46999998093E+01 0. -1.
</event>
<event>
 5   0  0.4983159E-06  0.1800152E+04  0.7818609E-02  0.8706219E-01
       -1   -1    0    0    0  501  0.00000000000E+00  0.00000000000E+00  0.48972857205E+03  0.48972857208E+03  0.50400001928E-02 0.  1.
        1   -1    0    0  501    0  0.00000000000E+00  0.00000000000E+00 -0.16542562585E+04  0.16542562585E+04  0.50400001928E-02 0. -1.
    10030    2    1    2    0    0  0.00000000000E+00  0.00000000000E+00 -0.11645276864E+04  0.21439848305E+04  0.18001517217E+04 0.  0.
        4    1    3    3  502    0 -0.13753027758E+03 -0.59094798896E+03 -0.13740796098E+04  0.15020753942E+04  0.12699999809E+01 0. -1.
       -4    1    3    3    0  502  0.13753027758E+03  0.59094798896E+03  0.20955192343E+03  0.64190943631E+03  0.12699999809E+01 0.  1.
</event>
<event>
 5   0  0.4983159E-06  0.1794160E+04  0.7818609E-02  0.8709411E-01
       -1   -1    0    0    0  501  0.00000000000E+00  0.00000000000E+00  0.17210264804E+04  0.17210264804E+04  0.50400001928E-02 0.  1.
        1   -1    0    0  501    0  0.00000000000E+00  0.00000000000E+00 -0.46760049465E+03  0.46760049467E+03  0.50400001928E-02 0. -1.
    10030    2    1    2    0    0  0.00000000000E+00  0.00000000000E+00  0.12534259858E+04  0.21886269751E+04  0.17941603424E+04 0.  0.
        4    1    3    3  502    0 -0.46874519401E+03 -0.64384972145E+03  0.11303941997E+04  0.13827715576E+04  0.12699999809E+01 0.  1.
       -4    1    3    3    0  502  0.46874519401E+03  0.64384972145E+03  0.12303178606E+03  0.80585541756E+03  0.12699999809E+01 0. -1.
</event>
<event>
 5   0  0.4994123E-06  0.1799948E+04  0.7818609E-02  0.8706327E-01
        1   -1    0    0  501    0  0.00000000000E+00  0.00000000000E+00  0.70109850057E+03  0.70109850059E+03  0.50400001928E-02 0. -1.
       -1   -1    0    0    0  501  0.00000000000E+00  0.00000000000E+00 -0.11552624853E+04  0.11552624853E+04  0.50400001928E-02 0.  1.
    10030    2    1    2    0    0  0.00000000000E+00  0.00000000000E+00 -0.45416398474E+03  0.18563609859E+04  0.17999475506E+04 0.  0.
        1    1    3    3  502    0 -0.54661121558E+03  0.55861631911E+03 -0.68729248489E+03  0.10407722963E+04  0.50400001928E-02 0.  1.
       -1    1    3    3    0  502  0.54661121558E+03 -0.55861631911E+03  0.23312850015E+03  0.81558868959E+03  0.50400001928E-02 0. -1.
</event>
<event>
 5   0  0.1000316E-05  0.1799851E+04  0.7818609E-02  0.8706379E-01
        2   -1    0    0  501    0  0.00000000000E+00  0.00000000000E+00  0.22638666550E+04  0.22638666550E+04  0.25500000920E-02 0. -1.
       -2   -1    0    0    0  501  0.00000000000E+00  0.00000000000E+00 -0.35773581506E+03  0.35773581507E+03  0.25500000920E-02 0.  1.
    10030    2    1    2    0    0  0.00000000000E+00  0.00000000000E+00  0.19061308399E+04  0.26216024700E+04  0.17998513083E+04 0.  0.
        5    1    3    3  502    0 -0.41801753975E+03 -0.78887672301E+03  0.78840936111E+03  0.11910820955E+04  0.46999998093E+01 0.  1.
       -5    1    3    3    0  502  0.41801753975E+03  0.78887672301E+03  0.11177214788E+04  0.14305203745E+04  0.46999998093E+01 0. -1.
</event>
<event>
 5   0  0.1036381E-05  0.1799386E+04  0.7818609E-02  0.8706626E-01
        2   -1    0    0  501    0  0.00000000000E+00  0.00000000000E+00  0.11529483900E+04  0.11529483900E+04  0.25500000920E-02 0. -1.
       -2   -1    0    0    0  501  0.00000000000E+00  0.00000000000E+00 -0.70206721396E+03  0.70206721396E+03  0.25500000920E-02 0.  1.
    10030    2    1    2    0    0  0.00000000000E+00  0.00000000000E+00  0.45088117604E+03  0.18550156040E+04  0.17993857441E+04 0.  0.
        4    1    3    3  502    0  0.17995941213E+03 -0.62698807714E+03  0.86423114205E+03  0.10827726071E+04  0.12699999809E+01 0. -1.
       -4    1    3    3    0  502 -0.17995941213E+03  0.62698807714E+03 -0.41334996601E+03  0.77224299686E+03  0.12699999809E+01 0.  1.
</event>
<event>
 5   0  0.9999162E-06  0.1799512E+04  0.7818609E-02  0.8706559E-01
        2   -1    0    0  501    0  0.00000000000E+00  0.00000000000E+00  0.13244783454E+04  0.13244783454E+04  0.25500000920E-02 0. -1.
       -2   -1    0    0    0  501  0.00000000000E+00  0.00000000000E+00 -0.61123023559E+03  0.61123023560E+03  0.25500000920E-02 0.  1.
    10030    2    1    2    0    0  0.00000000000E+00  0.00000000000E+00  0.71324810980E+03  0.19357085810E+04  0.17995123907E+04 0.  0.
        1    1    3    3  502    0  0.17720346122E+03  0.79200798095E+03  0.77446020605E+03  0.11218138524E+04  0.50400001928E-02 0. -1.
       -1    1    3    3    0  502 -0.17720346122E+03 -0.79200798095E+03 -0.61212096247E+02  0.81389472864E+03  0.50400001928E-02 0.  1.
</event>
<event>
 5   0  0.9999162E-06  0.1812808E+04  0.7818609E-02  0.8699518E-01
       -2   -1    0    0    0  501  0.00000000000E+00  0.00000000000E+00  0.96207430074E+03  0.96207430074E+03  0.25500000920E-02 0.  1.
        2   -1    0    0  501    0  0.00000000000E+00  0.00000000000E+00 -0.85395495234E+03  0.85395495234E+03  0.25500000920E-02 0. -1.
    10030    2    1    2    0    0  0.00000000000E+00  0.00000000000E+00  0.10811934840E+03  0.18160292531E+04  0.18128078924E+04 0.  0.
        1    1    3    3  502    0 -0.76860728758E+03  0.45519040264E+03  0.20799681195E+03  0.91717944754E+03  0.50400001928E-02 0. -1.
       -1    1    3    3    0  502  0.76860728758E+03 -0.45519040264E+03 -0.99877463551E+02  0.89884980555E+03  0.50400001928E-02 0.  1.
</event>
<event>
 5   0  0.4953155E-06  0.1799867E+04  0.7818609E-02  0.8706370E-01
        1   -1    0    0  501    0  0.00000000000E+00  0.00000000000E+00  0.12131676584E+04  0.12131676584E+04  0.50400001928E-02 0.  1.
       -1   -1    0    0    0  501  0.00000000000E+00  0.00000000000E+00 -0.66757472906E+03  0.66757472908E+03  0.50400001928E-02 0. -1.
    10030    2    1    2    0    0  0.00000000000E+00  0.00000000000E+00  0.54559292935E+03  0.18807423875E+04  0.17998667405E+04 0.  0.
        2    1    3    3  502    0 -0.24137805179E+03 -0.62408593120E+03 -0.35601910499E+03  0.75795528663E+03  0.25500000920E-02 0. -1.
       -2    1    3    3    0  502  0.24137805179E+03  0.62408593120E+03  0.90161203434E+03  0.11227871009E+04  0.25500000920E-02 0.  1.
</event>
<event>
 5   0  0.4981384E-06  0.1799558E+04  0.7818609E-02  0.8706535E-01
        1   -1    0    0  501    0  0.00000000000E+00  0.00000000000E+00  0.19513022504E+04  0.19513022504E+04  0.50400001928E-02 0. -1.
       -1   -1    0    0    0  501  0.00000000000E+00  0.00000000000E+00 -0.41490354106E+03  0.41490354109E+03  0.50400001928E-02 0.  1.
    10030    2    1    2    0    0  0.00000000000E+00  0.00000000000E+00  0.15363987093E+04  0.23662057915E+04  0.17995579606E+04 0.  0.
        5    1    3    3  502    0 -0.80092854581E+03  0.30914603083E+03  0.11222965744E+04  0.14130214064E+04  0.46999998093E+01 0. -1.
       -5    1    3    3    0  502  0.80092854581E+03 -0.30914603083E+03  0.41410213486E+03  0.95318438508E+03  0.46999998093E+01 0.  1.
</event>
<event>
 5   0  0.1000316E-05  0.1800318E+04  0.7818609E-02  0.8706131E-01
        2   -1    0    0  501    0  0.00000000000E+00  0.00000000000E+00  0.10753068974E+04  0.10753068974E+04  0.25500000920E-02 0.  1.
       -2   -1    0    0    0  501  0.00000000000E+00  0.00000000000E+00 -0.75353931032E+03  0.75353931033E+03  0.25500000920E-02 0. -1.
    10030    2    1    2    0    0  0.00000000000E+00  0.00000000000E+00  0.32176758706E+03  0.18288462077E+04  0.18003177696E+04 0.  0.
        5    1    3    3  502    0  0.88605186314E+03 -0.12987193964E+03  0.68283936731E+02  0.89813106555E+03  0.46999998093E+01 0. -1.
       -5    1    3    3    0  502 -0.88605186314E+03  0.12987193964E+03  0.25348365033E+03  0.93071514217E+03  0.46999998093E+01 0.  1.
</event>
<event>
 5   0  0.4983159E-06  0.1800296E+04  0.7818609E-02  0.8706142E-01
       -1   -1    0    0    0  501  0.00000000000E+00  0.00000000000E+00  0.58242550810E+03  0.58242550812E+03  0.50400001928E-02 0. -1.
        1   -1    0    0  501    0  0.00000000000E+00  0.00000000000E+00 -0.13911925601E+04  0.13911925601E+04  0.50400001928E-02 0.  1.
    10030    2    1    2    0    0  0.00000000000E+00  0.00000000000E+00 -0.80876705199E+03  0.19736180682E+04  0.18002955687E+04 0.  0.
        4    1    3    3  502    0 -0.85509855910E+03 -0.28090774279E+03 -0.41832454644E+03  0.99252191149E+03  0.12699999809E+01 0. -1.
       -4    1    3    3    0  502  0.85509855910E+03  0.28090774279E+03 -0.39044250556E+03  0.98109615674E+03  0.12699999809E+01 0.  1.
</event>
<event>
 5   0  0.9589963E-06  0.1800164E+04  0.7818609E-02  0.8706212E-01
       -2   -1    0    0    0  501  0.00000000000E+00  0.00000000000E+00  0.63928756542E+03  0.63928756542E+03  0.25500000920E-02 0. -1.
        2   -1    0    0  501    0  0.00000000000E+00  0.00000000000E+00 -0.12672657825E+04  0.12672657825E+04  0.25500000920E-02 0.  1.
    10030    2    1    2    0    0  0.00000000000E+00  0.00000000000E+00 -0.62797821705E+03  0.19065533479E+04  0.18001636112E+04 0.  0.
        2    1    3    3  502    0 -0.84175874721E+03 -0.19826729872E+01 -0.65155062119E+03  0.10644622734E+04  0.25500000920E-02 0.  1.
       -2    1    3    3    0  502  0.84175874721E+03  0.19826729872E+01  0.23572404146E+02  0.84209107449E+03  0.25500000920E-02 0. -1.
</event>
<event>
 5   0  0.4994123E-06  0.1809140E+04  0.7818609E-02  0.8701454E-01
        1   -1    0    0  501    0  0.00000000000E+00  0.00000000000E+00  0.23410535278E+04  0.23410535278E+04  0.50400001928E-02 0. -1.
       -1   -1    0    0    0  501  0.00000000000E+00  0.00000000000E+00 -0.34952075586E+03  0.34952075590E+03  0.50400001928E-02 0.  1.
    10030    2    1    2    0    0  0.00000000000E+00  0.00000000000E+00  0.19915327719E+04  0.26905742837E+04  0.18091399046E+04 0.  0.
        1    1    3    3  502    0  0.16812776362E+03  0.76135829823E+03  0.31373195231E+03  0.84045293807E+03  0.50400001928E-02 0. -1.
       -1    1    3    3    0  502 -0.16812776362E+03 -0.76135829823E+03  0.16778008196E+04  0.18501213456E+04  0.50400001928E-02 0.  1.
</event>
<event>
 5   0  0.1035018E-05  0.1799896E+04  0.7818609E-02  0.8706355E-01
        2   -1    0    0  501    0  0.00000000000E+00  0.00000000000E+00  0.50855976594E+03  0.50855976595E+03  0.25500000920E-02 0. -1.
       -2   -1    0    0    0  501  0.00000000000E+00  0.00000000000E+00 -0.15925484019E+04  0.15925484019E+04  0.25500000920E-02 0.  1.
    10030    2    1    2    0    0  0.00000000000E+00  0.00000000000E+00 -0.10839886360E+04  0.21011081679E+04  0.17998955998E+04 0.  0.
        3    1    3    3  502    0  0.36536413006E+02  0.50836782708E+03  0.32384051356E+03  0.60385879600E+03  0.10100000352E+00 0. -1.
       -3    1    3    3    0  502 -0.36536413006E+02 -0.50836782708E+03 -0.14078291495E+04  0.14972493719E+04  0.10100000352E+00 0.  1.
</event>
<event>
 5   0  0.1000316E-05  0.1800139E+04  0.7818609E-02  0.8706226E-01
       -2   -1    0    0    0  501  0.00000000000E+00  0.00000000000E+00  0.93808941244E+03  0.93808941244E+03  0.25500000920E-02 0.  1.
        2   -1    0    0  501    0  0.00000000000E+00  0.00000000000E+00 -0.86359036564E+03  0.86359036565E+03  0.25500000920E-02 0. -1.
    10030    2    1    2    0    0  0.00000000000E+00  0.00000000000E+00  0.74499046793E+02  0.18016797781E+04  0.18001388599E+04 0.  0.
        5    1    3    3  502    0  0.15828133190E+03 -0.26226407107E+03  0.88429984063E+03  0.93586522595E+03  0.46999998093E+01 0.  1.
       -5    1    3    3    0  502 -0.15828133190E+03  0.26226407107E+03 -0.80980079384E+03  0.86581455214E+03  0.46999998093E+01 0. -1.
</event>
<event>
 5   0  0.4994123E-06  0.1799789E+04  0.7818609E-02  0.8706412E-01
        1   -1    0    0  501    0  0.00000000000E+00  0.00000000000E+00  0.95818317725E+03  0.95818317727E+03  0.50400001928E-02 0.  1.
       -1   -1    0    0    0  501  0.00000000000E+00  0.00000000000E+00 -0.84515131329E+03  0.84515131330E+03  0.50400001928E-02 0. -1.
    10030    2    1    2    0    0  0.00000000000E+00  0.00000000000E+00  0.11303186397E+03  0.18033344906E+04  0.17997886216E+04 0.  0.
        1    1    3    3  502    0  0.65113824163E+03  0.35565387086E+03 -0.45374083662E+03  0.86968467413E+03  0.50400001928E-02 0. -1.
       -1    1    3    3    0  502 -0.65113824163E+03 -0.35565387086E+03  0.56677270059E+03  0.93364981644E+03  0.50400001928E-02 0.  1.
</event>
<event>
 5   0  0.4983159E-06  0.1800488E+04  0.7818609E-02  0.8706040E-01
        1   -1    0    0  501    0  0.00000000000E+00  0.00000000000E+00  0.93936741199E+03  0.93936741200E+03  0.50400001928E-02 0.  1.
       -1   -1    0    0    0  501  0.00000000000E+00  0.00000000000E+00 -0.86275024718E+03  0.86275024719E+03  0.50400001928E-02 0. -1.
    10030    2    1    2    0    0  0.00000000000E+00  0.00000000000E+00  0.76617164810E+02  0.18021176592E+04  0.18004882304E+04 0.  0.
        4    1    3    3  502    0 -0.43961572002E+03 -0.78536995911E+03  0.57558773759E+02  0.90187725290E+03  0.12699999809E+01 0.  1.
       -4    1    3    3    0  502  0.43961572002E+03  0.78536995911E+03  0.19058391051E+02  0.90024040630E+03  0.12699999809E+01 0. -1.
</event>
<event>
 5   0  0.3626125E-06  0.1799952E+04  0.7818609E-02  0.8706325E-01
       -3   -1    0    0    0  501  0.00000000000E+00  0.00000000000E+00  0.14754698435E+04  0.14754698469E+04  0.10100000352E+00 0.  1.
        3   -1    0    0  501    0  0.00000000000E+00  0.00000000000E+00 -0.54894834479E+03  0.54894835408E+03  0.10100000352E+00 0. -1.
    10030    2    1    2    0    0  0.00000000000E+00  0.00000000000E+00  0.92652149869E+03  0.20244182010E+04  0.17999519341E+04 0.  0.
        2    1    3    3  502    0  0.46249416763E+03  0.58164985808E+03  0.10342522872E+04  0.12735364958E+04  0.25500000920E-02 0.  1.
       -2    1    3    3    0  502 -0.46249416763E+03 -0.58164985808E+03 -0.10773078849E+03  0.75088170526E+03  0.25500000920E-02 0. -1.
</event>
<event>
 5   0  0.4981384E-06  0.1800000E+04  0.7818609E-02  0.8706299E-01
       -1   -1    0    0    0  501  0.00000000000E+00  0.00000000000E+00  0.58998437345E+03  0.58998437347E+03  0.50400001928E-02 0.  1.
        1   -1    0    0  501    0  0.00000000000E+00  0.00000000000E+00 -0.13729184468E+04  0.13729184468E+04  0.50400001928E-02 0. -1.
    10030    2    1    2    0    0  0.00000000000E+00  0.00000000000E+00 -0.78293407335E+03  0.19629028203E+04  0.18000004774E+04 0.  0.
        5    1    3    3  502    0 -0.25829729623E+03 -0.85899734014E+03 -0.47148647234E+03  0.10133683966E+04  0.46999998093E+01 0. -1.
       -5    1    3    3    0  502  0.25829729623E+03  0.85899734014E+03 -0.31144760101E+03  0.94953442369E+03  0.46999998093E+01 0.  1.
</event>
<event>
 5   0  0.1000316E-05  0.1797989E+04  0.7818609E-02  0.8707370E-01
       -2   -1    0    0    0  501  0.00000000000E+00  0.00000000000E+00  0.32760345939E+03  0.32760345940E+03  0.25500000920E-02 0. -1.
        2   -1    0    0  501    0  0.00000000000E+00  0.00000000000E+00 -0.24669787778E+04  0.24669787778E+04  0.25500000920E-02 0.  1.
    10030    2    1    2    0    0  0.00000000000E+00  0.00000000000E+00 -0.21393753184E+04  0.27945822372E+04  0.17979886338E+04 0.  0.
        5    1    3    3  502    0 -0.82592575102E+02 -0.87011035732E+03 -0.74271477691E+03  0.11469790309E+04  0.46999998093E+01 0. -1.
       -5    1    3    3    0  502  0.82592575102E+02  0.87011035732E+03 -0.13966605415E+04  0.16476032063E+04  0.46999998093E+01 0.  1.
</event>
<event>
 5   0  0.1000316E-05  0.1806992E+04  0.7818609E-02  0.8702590E-01
        2   -1    0    0  501    0  0.00000000000E+00  0.00000000000E+00  0.14845173661E+04  0.14845173661E+04  0.25500000920E-02 0.  1.
       -2   -1    0    0    0  501  0.00000000000E+00  0.00000000000E+00 -0.54987882135E+03  0.54987882136E+03  0.25500000920E-02 0. -1.
    10030    2    1    2    0    0  0.00000000000E+00  0.00000000000E+00  0.93463854477E+03  0.20343961875E+04  0.18069915988E+04 0.  0.
        5    1    3    3  502    0  0.44186358041E+03 -0.48975188623E+03  0.11624167722E+04  0.13365385053E+04  0.46999998093E+01 0.  1.
       -5    1    3    3    0  502 -0.44186358041E+03  0.48975188623E+03 -0.22777822742E+03  0.69785768223E+03  0.46999998093E+01 0. -1.
</event>
<event>
 5   0  0.1035018E-05  0.1800629E+04  0.7818609E-02  0.8705965E-01
       -2   -1    0    0    0  501  0.00000000000E+00  0.00000000000E+00  0.50082391812E+03  0.50082391813E+03  0.25500000920E-02 0. -1.
        2   -1    0    0  501    0  0.00000000000E+00  0.00000000000E+00 -0.16184657665E+04  0.16184657665E+04  0.25500000920E-02 0.  1.
    10030    2    1    2    0    0  0.00000000000E+00  0.00000000000E+00 -0.11176418484E+04  0.21192896847E+04  0.18006291862E+04 0.  0.
        3    1    3    3  502    0 -0.72314365444E+03 -0.32186809177E+03 -0.10637274601E+04  0.13259155075E+04  0.10100000352E+00 0.  1.
       -3    1    3    3    0  502  0.72314365444E+03  0.32186809177E+03 -0.53914388258E+02  0.79337417712E+03  0.10100000352E+00 0. -1.
</event>
<event>
 5   0  0.1000316E-05  0.1801159E+04  0.7818609E-02  0.8705683E-01
        2   -1    0    0  501    0  0.00000000000E+00  0.00000000000E+00  0.15261153736E+04  0.15261153736E+04  0.25500000920E-02 0.  1.
       -2   -1    0    0    0  501  0.00000000000E+00  0.00000000000E+00 -0.53144293583E+03  0.53144293583E+03  0.25500000920E-02 0. -1.
    10030    2    1    2    0    0  0.00000000000E+00  0.00000000000E+00  0.99467243778E+03  0.20575583094E+04  0.18011587765E+04 0.  0.
        5    1    3    3  502    0 -0.59301809455E+03 -0.53900955178E+03  0.96670187930E+03  0.12556816359E+04  0.46999998093E+01 0.  1.
       -5    1    3    3    0  502  0.59301809455E+03  0.53900955178E+03  0.27970558479E+02  0.80187667351E+03  0.46999998093E+01 0. -1.
</event>
<event>
 5   0  0.4953155E-06  0.1799521E+04  0.7818609E-02  0.8706554E-01
       -1   -1    0    0    0  501  0.00000000000E+00  0.00000000000E+00  0.75257893190E+03  0.75257893192E+03  0.50400001928E-02 0. -1.
        1   -1    0    0  501    0  0.00000000000E+00  0.00000000000E+00 -0.10757258559E+04  0.10757258559E+04  0.50400001928E-02 0.  1.
    10030    2    1    2    0    0  0.00000000000E+00  0.00000000000E+00 -0.32314692401E+03  0.18283047878E+04  0.17995206203E+04 0.  0.
        2    1    3    3  502    0  0.12880512451E+03 -0.31493985465E+03 -0.10078377607E+04  0.10637268559E+04  0.25500000920E-02 0.  1.
       -2    1    3    3    0  502 -0.12880512451E+03  0.31493985465E+03  0.68469083667E+03  0.76457793192E+03  0.25500000920E-02 0. -1.
</event>
<event>
 5   0  0.1035018E-05  0.1799364E+04  0.7818609E-02  0.8706638E-01
        2   -1    0    0  501    0  0.00000000000E+00  0.00000000000E+00  0.70111328226E+03  0.70111328226E+03  0.25500000920E-02 0. -1.
       -2   -1    0    0    0  501  0.00000000000E+00  0.00000000000E+00 -0.11544885701E+04  0.11544885701E+04  0.25500000920E-02 0.  1.
    10030    2    1    2    0    0  0.00000000000E+00  0.00000000000E+00 -0.45337528785E+03  0.18556018524E+04  0.17993635216E+04 0.  0.
        3    1    3    3  502    0 -0.36311626605E+03  0.71310694622E+03  0.19732270299E+03  0.82420337219E+03  0.10100000352E+00 0. -1.
       -3    1    3    3    0  502  0.36311626605E+03 -0.71310694622E+03 -0.65069799084E+03  0.10313984802E+04  0.10100000352E+00 0.  1.
</event>
<event>
 5   0  0.9589963E-06  0.1799496E+04  0.7818609E-02  0.8706568E-01
       -2   -1    0    0    0  501  0.00000000000E+00  0.00000000000E+00  0.49795634700E+03  0.49795634700E+03  0.25500000920E-02 0. -1.
        2   -1    0    0  501    0  0.00000000000E+00  0.00000000000E+00 -0.16257375360E+04  0.16257375360E+04  0.25500000920E-02 0.  1.
    10030    2    1    2    0    0  0.00000000000E+00  0.00000000000E+00 -0.11277811890E+04  0.21236938830E+04  0.17994958456E+04 0.  0.
        2    1    3    3  502    0 -0.11083520110E+03  0.81684540050E+03 -0.13833599252E+03  0.83585746210E+03  0.25500000920E-02 0. -1.
       -2    1    3    3    0  502  0.11083520110E+03 -0.81684540050E+03 -0.98944519644E+03  0.12878364209E+04  0.25500000920E-02 0.  1.
</event>
<event>
 5   0  0.1035018E-05  0.1800036E+04  0.7818609E-02  0.8706280E-01
        2   -1    0    0  501    0  0.00000000000E+00  0.00000000000E+00  0.14110185000E+04  0.14110185000E+04  0.25500000920E-02 0. -1.
       -2   -1    0    0    0  501  0.00000000000E+00  0.00000000000E+00 -0.57407655397E+03  0.57407655398E+03  0.25500000920E-02 0.  1.
    10030    2    1    2    0    0  0.00000000000E+00  0.00000000000E+00  0.83694194607E+03  0.19850950540E+04  0.18000362642E+04 0.  0.
        3    1    3    3  502    0  0.28585843675E+03  0.64364641094E+03  0.10364736829E+04  0.12531055238E+04  0.10100000352E+00 0. -1.
       -3    1    3    3    0  502 -0.28585843675E+03 -0.64364641094E+03 -0.19953173683E+03  0.73198953024E+03  0.10100000352E+00 0.  1.
</event>
<event>
 5   0  0.4953155E-06  0.1801446E+04  0.7818609E-02  0.8705531E-01
        1   -1    0    0  501    0  0.00000000000E+00  0.00000000000E+00  0.11991190372E+04  0.11991190373E+04  0.50400001928E-02 0.  1.
       -1   -1    0    0    0  501  0.00000000000E+00  0.00000000000E+00 -0.67658178330E+03  0.67658178332E+03  0.50400001928E-02 0. -1.
    10030    2    1    2    0    0  0.00000000000E+00  0.00000000000E+00  0.52253725394E+03  0.18757008206E+04  0.18014461931E+04 0.  0.
        2    1    3    3  502    0 -0.38938387374E+02  0.55585284691E+03  0.99812067011E+03  0.11431244278E+04  0.25500000920E-02 0.  1.
       -2    1    3    3    0  502  0.38938387374E+02 -0.55585284691E+03 -0.47558341617E+03  0.73257639273E+03  0.25500000920E-02 0. -1.
</event>
<event>
 5   0  0.9589963E-06  0.1799900E+04  0.7818609E-02  0.8706353E-01
       -2   -1    0    0    0  501  0.00000000000E+00  0.00000000000E+00  0.70251935200E+03  0.70251935201E+03  0.25500000920E-02 0. -1.
        2   -1    0    0  501    0  0.00000000000E+00  0.00000000000E+00 -0.11528644428E+04  0.11528644428E+04  0.25500000920E-02 0.  1.
    10030    2    1    2    0    0  0.00000000000E+00  0.00000000000E+00 -0.45034509083E+03  0.18553837948E+04  0.17998995320E+04 0.  0.
        2    1    3    3  502    0 -0.20934470690E+03  0.87190653248E+03 -0.30410566732E+03  0.94685081433E+03  0.25500000920E-02 0.  1.
       -2    1    3    3    0  502  0.20934470690E+03 -0.87190653248E+03 -0.14623942351E+03  0.90853298052E+03  0.25500000920E-02 0. -1.
</event>
<event>
 5   0  0.4983159E-06  0.1797512E+04  0.7818609E-02  0.8707624E-01
       -1   -1    0    0    0  501  0.00000000000E+00  0.00000000000E+00  0.64715547213E+03  0.64715547215E+03  0.50400001928E-02 0.  1.
        1   -1    0    0  501    0  0.00000000000E+00  0.00000000000E+00 -0.12481739241E+04  0.12481739241E+04  0.50400001928E-02 0. -1.
    10030    2    1    2    0    0  0.00000000000E+00  0.00000000000E+00 -0.60101845200E+03  0.18953293963E+04  0.17975122644E+04 0.  0.
        4    1    3    3  502    0  0.12577604538E+03 -0.81051006971E+03 -0.68794837472E+03  0.10705235943E+04  0.12699999809E+01 0. -1.
       -4    1    3    3    0  502 -0.12577604538E+03  0.81051006971E+03  0.86929922726E+02  0.82480580203E+03  0.12699999809E+01 0.  1.
</event>
<event>
 5   0  0.4983159E-06  0.1800479E+04  0.7818609E-02  0.8706045E-01
        1   -1    0    0  501    0  0.00000000000E+00  0.00000000000E+00  0.12278168940E+04  0.12278168941E+04  0.50400001928E-02 0.  1.
       -1   -1    0    0    0  501  0.00000000000E+00  0.00000000000E+00 -0.66005871968E+03  0.66005871970E+03  0.50400001928E-02 0. -1.
    10030    2    1    2    0    0  0.00000000000E+00  0.00000000000E+00  0.56775817437E+03  0.18878756138E+04  0.18004790997E+04 0.  0.
        4    1    3    3  502    0 -0.48858041945E+03  0.19965565470E+02  0.10764261777E+04  0.11822877733E+04  0.12699999809E+01 0.  1.
       -4    1    3    3    0  502  0.48858041945E+03 -0.19965565470E+02 -0.50866800331E+03  0.70558784043E+03  0.12699999809E+01 0. -1.
</event>
<event>
 5   0  0.1036381E-05  0.1799834E+04  0.7818609E-02  0.8706388E-01
        2   -1    0    0  501    0  0.00000000000E+00  0.00000000000E+00  0.14840174255E+04  0.14840174255E+04  0.25500000920E-02 0.  1.
       -2   -1    0    0    0  501  0.00000000000E+00  0.00000000000E+00 -0.54571515249E+03  0.54571515249E+03  0.25500000920E-02 0. -1.
    10030    2    1    2    0    0  0.00000000000E+00  0.00000000000E+00  0.93830227298E+03  0.20297325780E+04  0.17998342097E+04 0.  0.
        4    1    3    3  502    0  0.65933122764E+03 -0.52464670444E+03  0.11274938744E+03  0.85010932796E+03  0.12699999809E+01 0. -1.
       -4    1    3    3    0  502 -0.65933122764E+03  0.52464670444E+03  0.82555288555E+03  0.11796232500E+04  0.12699999809E+01 0.  1.
</event>
<event>
 5   0  0.4987456E-06  0.1800599E+04  0.7818609E-02  0.8705981E-01
       -1   -1    0    0    0  501  0.00000000000E+00  0.00000000000E+00  0.71266717117E+03  0.71266717119E+03  0.50400001928E-02 0. -1.
        1   -1    0    0  501    0  0.00000000000E+00  0.00000000000E+00 -0.11373326217E+04  0.11373326217E+04  0.50400001928E-02 0.  1.
    10030    2    1    2    0    0  0.00000000000E+00  0.00000000000E+00 -0.42466545051E+03  0.18499997929E+04  0.18005994804E+04 0.  0.
        3    1    3    3  502    0 -0.45387692979E+03  0.68564490286E+03 -0.58903380275E+03  0.10114712211E+04  0.10100000352E+00 0. -1.
       -3    1    3    3    0  502  0.45387692979E+03 -0.68564490286E+03  0.16436835224E+03  0.83852857174E+03  0.10100000352E+00 0.  1.
</event>
<event>
 5   0  0.4953155E-06  0.1800243E+04  0.7818609E-02  0.8706170E-01
        1   -1    0    0  501    0  0.00000000000E+00  0.00000000000E+00  0.13362462232E+04  0.13362462233E+04  0.50400001928E-02 0.  1.
       -1   -1    0    0    0  501  0.00000000000E+00  0.00000000000E+00 -0.60633960118E+03  0.60633960120E+03  0.50400001928E-02 0. -1.
    10030    2    1    2    0    0  0.00000000000E+00  0.00000000000E+00  0.72990662206E+03  0.19425858245E+04  0.18002433192E+04 0.  0.
        2    1    3    3  502    0 -0.48112868831E+03 -0.61385710575E+03  0.84983059418E+03  0.11534805589E+04  0.25500000920E-02 0.  1.
       -2    1    3    3    0  502  0.48112868831E+03  0.61385710575E+03 -0.11992397212E+03  0.78910526553E+03  0.25500000920E-02 0. -1.
</event>
<event>
 5   0  0.1035018E-05  0.1799714E+04  0.7818609E-02  0.8706451E-01
       -2   -1    0    0    0  501  0.00000000000E+00  0.00000000000E+00  0.39067236131E+03  0.39067236132E+03  0.25500000920E-02 0.  1.
        2   -1    0    0  501    0  0.00000000000E+00  0.00000000000E+00 -0.20726902460E+04  0.20726902460E+04  0.25500000920E-02 0. -1.
    10030    2    1    2    0    0  0.00000000000E+00  0.00000000000E+00 -0.16820178847E+04  0.24633626073E+04  0.17997141914E+04 0.  0.
        3    1    3    3  502    0 -0.25347508668E+03  0.60563464820E+03 -0.16833197283E+04  0.18068226987E+04  0.10100000352E+00 0. -1.
       -3    1    3    3    0  502  0.25347508668E+03 -0.60563464820E+03  0.13018435597E+01  0.65653990866E+03  0.10100000352E+00 0.  1.
</event>
<event>
 5   0  0.1035018E-05  0.1796324E+04  0.7818609E-02  0.8708257E-01
        2   -1    0    0  501    0  0.00000000000E+00  0.00000000000E+00  0.70863106714E+03  0.70863106714E+03  0.25500000920E-02 0.  1.
       -2   -1    0    0    0  501  0.00000000000E+00  0.00000000000E+00 -0.11383849830E+04  0.11383849830E+04  0.25500000920E-02 0. -1.
    10030    2    1    2    0    0  0.00000000000E+00  0.00000000000E+00 -0.42975391584E+03  0.18470160501E+04  0.17963239856E+04 0.  0.
        3    1    3    3  502    0 -0.38205552164E+02  0.54197960002E+03 -0.95024714552E+03  0.10946100670E+04  0.10100000352E+00 0. -1.
       -3    1    3    3    0  502  0.38205552164E+02 -0.54197960002E+03  0.52049322968E+03  0.75240598310E+03  0.10100000352E+00 0.  1.
</event>
<event>
 5   0  0.9589963E-06  0.1796964E+04  0.7818609E-02  0.8707916E-01
       -2   -1    0    0    0  501  0.00000000000E+00  0.00000000000E+00  0.39417374181E+03  0.39417374182E+03  0.25500000920E-02 0. -1.
        2   -1    0    0  501    0  0.00000000000E+00  0.00000000000E+00 -0.20480041980E+04  0.20480041980E+04  0.25500000920E-02 0.  1.
    10030    2    1    2    0    0  0.00000000000E+00  0.00000000000E+00 -0.16538304562E+04  0.24421779398E+04  0.17969635255E+04 0.  0.
        2    1    3    3  502    0 -0.17889912110E+03 -0.27286010228E+03 -0.19646441293E+04  0.19915531842E+04  0.25500000920E-02 0.  1.
       -2    1    3    3    0  502  0.17889912110E+03  0.27286010228E+03  0.31081367310E+03  0.45062475558E+03  0.25500000920E-02 0. -1.
</event>
<event>
 5   0  0.4994123E-06  0.1800316E+04  0.7818609E-02  0.8706132E-01
        1   -1    0    0  501    0  0.00000000000E+00  0.00000000000E+00  0.12447320704E+04  0.12447320704E+04  0.50400001928E-02 0.  1.
       -1   -1    0    0    0  501  0.00000000000E+00  0.00000000000E+00 -0.65097071489E+03  0.65097071491E+03  0.50400001928E-02 0. -1.
    10030    2    1    2    0    0  0.00000000000E+00  0.00000000000E+00  0.59376135547E+03  0.18957027853E+04  0.18003156676E+04 0.  0.
        1    1    3    3  502    0 -0.87351962438E+03 -0.96604118100E+02  0.50191589762E+03  0.10120713701E+04  0.50400001928E-02 0.  1.
       -1    1    3    3    0  502  0.87351962438E+03  0.96604118100E+02  0.91845457856E+02  0.88363141522E+03  0.50400001928E-02 0. -1.
</event>
<event>
 5   0  0.1036381E-05  0.1801215E+04  0.7818609E-02  0.8705654E-01
        2   -1    0    0  501    0  0.00000000000E+00  0.00000000000E+00  0.83214572149E+03  0.83214572150E+03  0.25500000920E-02 0.  1.
       -2   -1    0    0    0  501  0.00000000000E+00  0.00000000000E+00 -0.97470168838E+03  0.97470168839E+03  0.25500000920E-02 0. -1.
    10030    2    1    2    0    0  0.00000000000E+00  0.00000000000E+00 -0.14255596689E+03  0.18068474099E+04  0.18012149674E+04 0.  0.
        4    1    3    3  502    0 -0.66338238901E+03  0.44559625561E+03 -0.48785963127E+03  0.93629100700E+03  0.12699999809E+01 0. -1.
       -4    1    3    3    0  502  0.66338238901E+03 -0.44559625561E+03  0.34530366438E+03  0.87055640288E+03  0.12699999809E+01 0.  1.
</event>
<event>
 5   0  0.4987456E-06  0.1791735E+04  0.7818609E-02  0.8710707E-01
       -1   -1    0    0    0  501  0.00000000000E+00  0.00000000000E+00  0.44856121207E+03  0.44856121210E+03  0.50400001928E-02 0. -1.
        1   -1    0    0  501    0  0.00000000000E+00  0.00000000000E+00 -0.17892279079E+04  0.17892279079E+04  0.50400001928E-02 0.  1.
    10030    2    1    2    0    0  0.00000000000E+00  0.00000000000E+00 -0.13406666959E+04  0.22377891200E+04  0.17917346222E+04 0.  0.
        3    1    3    3  502    0 -0.85458352933E+03 -0.17680724571E+03 -0.92324031832E+03  0.12704119435E+04  0.10100000352E+00 0.  1.
       -3    1    3    3    0  502  0.85458352933E+03  0.17680724571E+03 -0.41742637753E+03  0.96737717649E+03  0.10100000352E+00 0. -1.
</event>
<event>
 5   0  0.1035018E-05  0.1800073E+04  0.7818609E-02  0.8706261E-01
        2   -1    0    0  501    0  0.00000000000E+00  0.00000000000E+00  0.25969020138E+04  0.25969020138E+04  0.25500000920E-02 0. -1.
       -2   -1    0    0    0  501  0.00000000000E+00  0.00000000000E+00 -0.31193547201E+03  0.31193547202E+03  0.25500000920E-02 0.  1.
    10030    2    1    2    0    0  0.00000000000E+00  0.00000000000E+00  0.22849665418E+04  0.29088374858E+04  0.18000731712E+04 0.  0.
        3    1    3    3  502    0  0.61359022467E+03  0.36529910843E+03  0.25719726302E+03  0.75900385027E+03  0.10100000352E+00 0.  1.
       -3    1    3    3    0  502 -0.61359022467E+03 -0.36529910843E+03  0.20277692787E+04  0.21498336355E+04  0.10100000352E+00 0. -1.
</event>
<event>
 5   0  0.1035018E-05  0.1800057E+04  0.7818609E-02  0.8706269E-01
        2   -1    0    0  501    0  0.00000000000E+00  0.00000000000E+00  0.17324919581E+04  0.17324919581E+04  0.25500000920E-02 0.  1.
       -2   -1    0    0    0  501  0.00000000000E+00  0.00000000000E+00 -0.46756425716E+03  0.46756425717E+03  0.25500000920E-02 0. -1.
    10030    2    1    2    0    0  0.00000000000E+00  0.00000000000E+00  0.12649277009E+04  0.22000562152E+04  0.18000570162E+04 0.  0.
        3    1    3    3  502    0  0.65993063228E+03 -0.22727356146E+03 -0.62039813050E+02  0.70072152797E+03  0.10100000352E+00 0. -1.
       -3    1    3    3    0  502 -0.65993063228E+03  0.22727356146E+03  0.13269675139E+04  0.14993346873E+04  0.10100000352E+00 0.  1.
</event>
<event>
 5   0  0.4983159E-06  0.1798529E+04  0.7818609E-02  0.8707082E-01
        1   -1    0    0  501    0  0.00000000000E+00  0.00000000000E+00  0.10224189260E+04  0.10224189261E+04  0.50400001928E-02 0.  1.
       -1   -1    0    0    0  501  0.00000000000E+00  0.00000000000E+00 -0.79094472906E+03  0.79094472907E+03  0.50400001928E-02 0. -1.
    10030    2    1    2    0    0  0.00000000000E+00  0.00000000000E+00  0.23147419699E+03  0.18133636551E+04  0.17985292441E+04 0.  0.
        4    1    3    3  502    0  0.73080588623E+03 -0.30602734624E+03  0.54462225689E+03  0.96142862221E+03  0.12699999809E+01 0.  1.
       -4    1    3    3    0  502 -0.73080588623E+03  0.30602734624E+03 -0.31314805990E+03  0.85193503292E+03  0.12699999809E+01 0. -1.
</event>
<event>
 5   0  0.4994123E-06  0.1800191E+04  0.7818609E-02  0.8706198E-01
       -1   -1    0    0    0  501  0.00000000000E+00  0.00000000000E+00  0.16393868868E+04  0.16393868868E+04  0.50400001928E-02 0.  1.
        1   -1    0    0  501    0  0.00000000000E+00  0.00000000000E+00 -0.49419218206E+03  0.49419218209E+03  0.50400001928E-02 0. -1.
    10030    2    1    2    0    0  0.00000000000E+00  0.00000000000E+00  0.11451947047E+04  0.21335790689E+04  0.18001913041E+04 0.  0.
        1    1    3    3  502    0  0.20350444525E+01 -0.88900161605E+03  0.40563962243E+03  0.97717527499E+03  0.50400001928E-02 0. -1.
       -1    1    3    3    0  502 -0.20350444525E+01  0.88900161605E+03  0.73955508229E+03  0.11564037939E+04  0.50400001928E-02 0.  1.
</event>
<event>
 5   0  0.9999162E-06  0.1800782E+04  0.7818609E-02  0.8705884E-01
       -2   -1    0    0    0  501  0.00000000000E+00  0.00000000000E+00  0.49715727488E+03  0.49715727489E+03  0.25500000920E-02 0. -1.
        2   -1    0    0  501    0  0.00000000000E+00  0.00000000000E+00 -0.16306788048E+04  0.16306788048E+04  0.25500000920E-02 0.  1.
    10030    2    1    2    0    0  0.00000000000E+00  0.00000000000E+00 -0.11335215299E+04  0.21278360797E+04  0.18007818644E+04 0.  0.
        1    1    3    3  502    0 -0.66528500570E+03  0.60636200160E+03 -0.54240639049E+03  0.10509441985E+04  0.50400001928E-02 0. -1.
       -1    1    3    3    0  502  0.66528500570E+03 -0.60636200160E+03 -0.59111513944E+03  0.10768918812E+04  0.50400001928E-02 0.  1.
</event>
<event>
 5   0  0.4983159E-06  0.1800079E+04  0.7818609E-02  0.8706257E-01
       -1   -1    0    0    0  501  0.00000000000E+00  0.00000000000E+00  0.47415019041E+03  0.47415019044E+03  0.50400001928E-02 0. -1.
        1   -1    0    0  501    0  0.00000000000E+00  0.00000000000E+00 -0.17084698151E+04  0.17084698151E+04  0.50400001928E-02 0.  1.
    10030    2    1    2    0    0  0.00000000000E+00  0.00000000000E+00 -0.12343196247E+04  0.21826200055E+04  0.18000792073E+04 0.  0.
        4    1    3    3  502    0  0.20649856255E+03 -0.27128873856E+03  0.39282115705E+03  0.52014354781E+03  0.12699999809E+01 0. -1.
       -4    1    3    3    0  502 -0.20649856255E+03  0.27128873856E+03 -0.16271407817E+04  0.16624764577E+04  0.12699999809E+01 0.  1.
</event>
<event>
 5   0  0.1000316E-05  0.1801589E+04  0.7818609E-02  0.8705455E-01
       -2   -1    0    0    0  501  0.00000000000E+00  0.00000000000E+00  0.68224529149E+03  0.68224529150E+03  0.25500000920E-02 0.  1.
        2   -1    0    0  501    0  0.00000000000E+00  0.00000000000E+00 -0.11893530686E+04  0.11893530686E+04  0.25500000920E-02 0. -1.
    10030    2    1    2    0    0  0.00000000000E+00  0.00000000000E+00 -0.50710777708E+03  0.18715983601E+04  0.18015887777E+04 0.  0.
        5    1    3    3  502    0 -0.15931265562E+03  0.10631340523E+03  0.66083487275E+03  0.68804642388E+03  0.46999998093E+01 0.  1.
       -5    1    3    3    0  502  0.15931265562E+03 -0.10631340523E+03 -0.11679426498E+04  0.11835519362E+04  0.46999998093E+01 0. -1.
</event>
<event>
 5   0  0.4953155E-06  0.1799825E+04  0.7818609E-02  0.8706392E-01
        1   -1    0    0  501    0  0.00000000000E+00  0.00000000000E+00  0.72172216313E+03  0.72172216314E+03  0.50400001928E-02 0. -1.
       -1   -1    0    0    0  501  0.00000000000E+00  0.00000000000E+00 -0.11220978063E+04  0.11220978063E+04  0.50400001928E-02 0.  1.
    10030    2    1    2    0    0  0.00000000000E+00  0.00000000000E+00 -0.40037564320E+03  0.18438199695E+04  0.17998253871E+04 0.  0.
        2    1    3    3  502    0  0.25989368512E+03 -0.13994955350E+03 -0.10710929526E+04  0.11110223752E+04  0.25500000920E-02 0.  1.
       -2    1    3    3    0  502 -0.25989368512E+03  0.13994955350E+03  0.67071730938E+03  0.73279759429E+03  0.25500000920E-02 0. -1.
</event>
<event>
 5   0  0.4981384E-06  0.1799346E+04  0.7818609E-02  0.8706647E-01
       -1   -1    0    0    0  501  0.00000000000E+00  0.00000000000E+00  0.73016056946E+03  0.73016056948E+03  0.50400001928E-02 0.  1.
        1   -1    0    0  501    0  0.00000000000E+00  0.00000000000E+00 -0.11085390045E+04  0.11085390045E+04  0.50400001928E-02 0. -1.
    10030    2    1    2    0    0  0.00000000000E+00  0.00000000000E+00 -0.37837843502E+03  0.18386995740E+04  0.17993459598E+04 0.  0.
        5    1    3    3  502    0 -0.39238021647E+03  0.50034411854E+03  0.46119210787E+03  0.78551048471E+03  0.46999998093E+01 0.  1.
       -5    1    3    3    0  502  0.39238021647E+03 -0.50034411854E+03 -0.83957054289E+03  0.10531890893E+04  0.46999998093E+01 0. -1.
</event>
<event>
 5   0  0.4994123E-06  0.1808206E+04  0.7818609E-02  0.8701948E-01
       -1   -1    0    0    0  501  0.00000000000E+00  0.00000000000E+00  0.95966385226E+03  0.95966385227E+03  0.50400001928E-02 0.  1.
        1   -1    0    0  501    0  0.00000000000E+00  0.00000000000E+00 -0.85175867147E+03  0.85175867148E+03  0.50400001928E-02 0. -1.
    10030    2    1    2    0    0  0.00000000000E+00  0.00000000000E+00  0.10790518079E+03  0.18114225238E+04  0.18082057492E+04 0.  0.
        1    1    3    3  502    0  0.24757947616E+03 -0.66667873533E+03 -0.50529305234E+03  0.87239738762E+03  0.50400001928E-02 0. -1.
       -1    1    3    3    0  502 -0.24757947616E+03  0.66667873533E+03  0.61319823312E+03  0.93902513613E+03  0.50400001928E-02 0.  1.
</event>
<event>
 5   0  0.1000316E-05  0.1801569E+04  0.7818609E-02  0.8705466E-01
       -2   -1    0    0    0  501  0.00000000000E+00  0.00000000000E+00  0.61359858412E+03  0.61359858413E+03  0.25500000920E-02 0.  1.
        2   -1    0    0  501    0  0.00000000000E+00  0.00000000000E+00 -0.13223832838E+04  0.13223832838E+04  0.25500000920E-02 0. -1.
    10030    2    1    2    0    0  0.00000000000E+00  0.00000000000E+00 -0.70878469969E+03  0.19359818679E+04  0.18015687726E+04 0.  0.
        5    1    3    3  502    0 -0.33030624674E+03  0.74116521173E+03 -0.77467618766E+03  0.11218615661E+04  0.46999998093E+01 0. -1.
       -5    1    3    3    0  502  0.33030624674E+03 -0.74116521173E+03  0.65891487966E+02  0.81412030186E+03  0.46999998093E+01 0.  1.
</event>
<event>
 5   0  0.4953155E-06  0.1792848E+04  0.7818609E-02  0.8710112E-01
       -1   -1    0    0    0  501  0.00000000000E+00  0.00000000000E+00  0.85552991751E+03  0.85552991753E+03  0.50400001928E-02 0. -1.
        1   -1    0    0  501    0  0.00000000000E+00  0.00000000000E+00 -0.93927295092E+03  0.93927295093E+03  0.50400001928E-02 0.  1.
    10030    2    1    2    0    0  0.00000000000E+00  0.00000000000E+00 -0.83743033405E+02  0.17948028685E+04  0.17928481366E+04 0.  0.
        2    1    3    3  502    0 -0.66903202365E+03  0.12040241925E+03 -0.62686770683E+03  0.92469655190E+03  0.25500000920E-02 0.  1.
       -2    1    3    3    0  502  0.66903202365E+03 -0.12040241925E+03  0.54312467342E+03  0.87010631656E+03  0.25500000920E-02 0. -1.
</event>
<event>
 5   0  0.4987456E-06  0.1799920E+04  0.7818609E-02  0.8706342E-01
       -1   -1    0    0    0  501  0.00000000000E+00  0.00000000000E+00  0.62332168384E+03  0.62332168386E+03  0.50400001928E-02 0.  1.
        1   -1    0    0  501    0  0.00000000000E+00  0.00000000000E+00 -0.12993735585E+04  0.12993735585E+04  0.50400001928E-02 0. -1.
    10030    2    1    2    0    0  0.00000000000E+00  0.00000000000E+00 -0.67605187464E+03  0.19226952423E+04  0.17999196809E+04 0.  0.
        3    1    3    3  502    0 -0.18185090139E+03  0.28168997596E+03  0.55411227981E+03  0.64765687037E+03  0.10100000352E+00 0.  1.
       -3    1    3    3    0  502  0.18185090139E+03 -0.28168997596E+03 -0.12301641545E+04  0.12750383720E+04  0.10100000352E+00 0. -1.
</event>
<event>
 5   0  0.1035018E-05  0.1801727E+04  0.7818609E-02  0.8705382E-01
       -2   -1    0    0    0  501  0.00000000000E+00  0.00000000000E+00  0.48694740597E+03  0.48694740598E+03  0.25500000920E-02 0. -1.
        2   -1    0    0  501    0  0.00000000000E+00  0.00000000000E+00 -0.16666173631E+04  0.16666173631E+04  0.25500000920E-02 0.  1.
    10030    2    1    2    0    0  0.00000000000E+00  0.00000000000E+00 -0.11796699571E+04  0.21535647690E+04  0.18017269512E+04 0.  0.
        3    1    3    3  502    0 -0.66711820677E+03  0.67747915905E+02  0.12924030334E+03  0.68289058283E+03  0.10100000352E+00 0. -1.
       -3    1    3    3    0  502  0.66711820677E+03 -0.67747915905E+02 -0.13089102604E+04  0.14706741862E+04  0.10100000352E+00 0.  1.
</event>
<event>
 5   0  0.1000316E-05  0.1800667E+04  0.7818609E-02  0.8705945E-01
       -2   -1    0    0    0  501  0.00000000000E+00  0.00000000000E+00  0.14727977239E+04  0.14727977239E+04  0.25500000920E-02 0.  1.
        2   -1    0    0  501    0  0.00000000000E+00  0.00000000000E+00 -0.55038139185E+03  0.55038139186E+03  0.25500000920E-02 0. -1.
    10030    2    1    2    0    0  0.00000000000E+00  0.00000000000E+00  0.92241633201E+03  0.20231791157E+04  0.18006670555E+04 0.  0.
        5    1    3    3  502    0  0.68307284515E+03  0.61523614373E+02  0.11165547979E+04  0.13103779507E+04  0.46999998093E+01 0.  1.
       -5    1    3    3    0  502 -0.68307284515E+03 -0.61523614373E+02 -0.19413846591E+03  0.71280116502E+03  0.46999998093E+01 0. -1.
</event>
<event>
 5   0  0.9999162E-06  0.1800118E+04  0.7818609E-02  0.8706237E-01
       -2   -1    0    0    0  501  0.00000000000E+00  0.00000000000E+00  0.62253160079E+03  0.62253160080E+03  0.25500000920E-02 0.  1.
        2   -1    0    0  501    0  0.00000000000E+00  0.00000000000E+00 -0.13013097934E+04  0.13013097934E+04  0.25500000920E-02 0. -1.
    10030    2    1    2    0    0  0.00000000000E+00  0.00000000000E+00 -0.67877819265E+03  0.19238413942E+04  0.18001182948E+04 0.  0.
        1    1    3    3  502    0 -0.32361831706E+02 -0.79929703294E+03  0.10149746406E+03  0.80636515937E+03  0.50400001928E-02 0.  1.
       -1    1    3    3    0  502  0.32361831706E+02  0.79929703294E+03 -0.78027565670E+03  0.11174762349E+04  0.50400001928E-02 0. -1.
</event>
<event>
 5   0  0.4983159E-06  0.1798174E+04  0.7818609E-02  0.8707271E-01
       -1   -1    0    0    0  501  0.00000000000E+00  0.00000000000E+00  0.10632769639E+04  0.10632769639E+04  0.50400001928E-02 0. -1.
        1   -1    0    0  501    0  0.00000000000E+00  0.00000000000E+00 -0.76025080770E+03  0.76025080772E+03  0.50400001928E-02 0.  1.
    10030    2    1    2    0    0  0.00000000000E+00  0.00000000000E+00  0.30302615623E+03  0.18235277717E+04  0.17981737076E+04 0.  0.
        4    1    3    3  502    0  0.34083146591E+03 -0.22444604942E+03  0.96394156383E+03  0.10467698260E+04  0.12699999809E+01 0. -1.
       -4    1    3    3    0  502 -0.34083146591E+03  0.22444604942E+03 -0.66091540760E+03  0.77675794566E+03  0.12699999809E+01 0.  1.
</event>
<event>
 5   0  0.4981384E-06  0.1800298E+04  0.7818609E-02  0.8706141E-01
       -1   -1    0    0    0  501  0.00000000000E+00  0.00000000000E+00  0.16175690646E+04  0.16175690646E+04  0.50400001928E-02 0.  1.
        1   -1    0    0  501    0  0.00000000000E+00  0.00000000000E+00 -0.50091720397E+03  0.50091720399E+03  0.50400001928E-02 0. -1.
    10030    2    1    2    0    0  0.00000000000E+00  0.00000000000E+00  0.11166518607E+04  0.21184862686E+04  0.18002979455E+04 0.  0.
        5    1    3    3  502    0 -0.39732016503E+03  0.50882661076E+03  0.12964708465E+04  0.14483185351E+04  0.46999998093E+01 0.  1.
       -5    1    3    3    0  502  0.39732016503E+03 -0.50882661076E+03 -0.17981898585E+03  0.67016773350E+03  0.46999998093E+01 0. -1.
</event>
<event>
 5   0  0.4994123E-06  0.1799445E+04  0.7818609E-02  0.8706595E-01
       -1   -1    0    0    0  501  0.00000000000E+00  0.00000000000E+00  0.17823104947E+04  0.17823104947E+04  0.50400001928E-02 0. -1.
        1   -1    0    0  501    0  0.00000000000E+00  0.00000000000E+00 -0.45418619148E+03  0.45418619151E+03  0.50400001928E-02 0.  1.
    10030    2    1    2    0    0  0.00000000000E+00  0.00000000000E+00  0.13281243032E+04  0.22364966862E+04  0.17994452652E+04 0.  0.
        1    1    3    3  502    0 -0.35356981247E+03  0.56722508258E+03  0.14126284679E+04  0.15627780057E+04  0.50400001928E-02 0. -1.
       -1    1    3    3    0  502  0.35356981247E+03 -0.56722508258E+03 -0.84504164731E+02  0.67371868051E+03  0.50400001928E-02 0.  1.
</event>
<event>
 5   0  0.9589963E-06  0.1800302E+04  0.7818609E-02  0.8706139E-01
       -2   -1    0    0    0  501  0.00000000000E+00  0.00000000000E+00  0.80488306620E+03  0.80488306620E+03  0.25500000920E-02 0.  1.
        2   -1    0    0  501    0  0.00000000000E+00  0.00000000000E+00 -0.10066954482E+04  0.10066954482E+04  0.25500000920E-02 0. -1.
    10030    2    1    2    0    0  0.00000000000E+00  0.00000000000E+00 -0.20181238204E+03  0.18115785144E+04  0.18003023292E+04 0.  0.
        2    1    3    3  502    0  0.30569194808E+03  0.59351133529E+03 -0.70848342888E+03  0.97347421190E+03  0.25500000920E-02 0. -1.
       -2    1    3    3    0  502 -0.30569194808E+03 -0.59351133529E+03  0.50667104683E+03  0.83810430254E+03  0.25500000920E-02 0.  1.
</event>
<event>
 5   0  0.4987456E-06  0.1800310E+04  0.7818609E-02  0.8706135E-01
       -1   -1    0    0    0  501  0.00000000000E+00  0.00000000000E+00  0.13057576207E+04  0.13057576207E+04  0.50400001928E-02 0.  1.
        1   -1    0    0  501    0  0.00000000000E+00  0.00000000000E+00 -0.62054304926E+03  0.62054304928E+03  0.50400001928E-02 0. -1.
    10030    2    1    2    0    0  0.00000000000E+00  0.00000000000E+00  0.68521457142E+03  0.19263006700E+04  0.18003097684E+04 0.  0.
        3    1    3    3  502    0 -0.85586570478E+03  0.67404757552E+02  0.63215442420E+03  0.10661466748E+04  0.10100000352E+00 0.  1.
       -3    1    3    3    0  502  0.85586570478E+03 -0.67404757552E+02  0.53060147218E+02  0.86015399516E+03  0.10100000352E+00 0. -1.
</event>
<event>
 5   0  0.4953155E-06  0.1799846E+04  0.7818609E-02  0.8706382E-01
        1   -1    0    0  501    0  0.00000000000E+00  0.00000000000E+00  0.10533011395E+04  0.10533011396E+04  0.50400001928E-02 0. -1.
       -1   -1    0    0    0  501  0.00000000000E+00  0.00000000000E+00 -0.76887893230E+03  0.76887893232E+03  0.50400001928E-02 0.  1.
    10030    2    1    2    0    0  0.00000000000E+00  0.00000000000E+00  0.28442220724E+03  0.18221800719E+04  0.17998456107E+04 0.  0.
        2    1    3    3  502    0  0.30495080402E+03 -0.14997965588E+03 -0.70141923836E+03  0.77940864634E+03  0.25500000920E-02 0.  1.
       -2    1    3    3    0  502 -0.30495080402E+03  0.14997965588E+03  0.98584144559E+03  0.10427714255E+04  0.25500000920E-02 0. -1.
</event>
<event>
 5   0  0.4983159E-06  0.1800017E+04  0.7818609E-02  0.8706290E-01
       -1   -1    0    0    0  501  0.00000000000E+00  0.00000000000E+00  0.57187418138E+03  0.57187418140E+03  0.50400001928E-02 0.  1.
        1   -1    0    0  501    0  0.00000000000E+00  0.00000000000E+00 -0.14164229935E+04  0.14164229936E+04  0.50400001928E-02 0. -1.
    10030    2    1    2    0    0  0.00000000000E+00  0.00000000000E+00 -0.84454881216E+03  0.19882971750E+04  0.18000174887E+04 0.  0.
        4    1    3    3  502    0  0.63519218200E+03 -0.25310975157E+02  0.28147239889E+03  0.69522519932E+03  0.12699999809E+01 0.  1.
       -4    1    3    3    0  502 -0.63519218200E+03  0.25310975157E+02 -0.11260212110E+04  0.12930719756E+04  0.12699999809E+01 0. -1.
</event>
<event>
 5   0  0.9999162E-06  0.1800173E+04  0.7818609E-02  0.8706208E-01
        2   -1    0    0  501    0  0.00000000000E+00  0.00000000000E+00  0.13000571037E+04  0.13000571037E+04  0.25500000920E-02 0.  1.
       -2   -1    0    0    0  501  0.00000000000E+00  0.00000000000E+00 -0.62316923260E+03  0.62316923260E+03  0.25500000920E-02 0. -1.
    10030    2    1    2    0    0  0.00000000000E+00  0.00000000000E+00  0.67688787109E+03  0.19232263363E+04  0.18001728669E+04 0.  0.
        1    1    3    3  502    0 -0.10381584791E+03 -0.16183230366E+03 -0.60097386313E+03  0.63098098939E+03  0.50400001928E-02 0. -1.
       -1    1    3    3    0  502  0.10381584791E+03  0.16183230366E+03  0.12778617342E+04  0.12922453469E+04  0.50400001928E-02 0.  1.
</event>
<event>
 5   0  0.1035018E-05  0.1800217E+04  0.7818609E-02  0.8706184E-01
        2   -1    0    0  501    0  0.00000000000E+00  0.00000000000E+00  0.10242708388E+04  0.10242708388E+04  0.25500000920E-02 0. -1.
       -2   -1    0    0    0  501  0.00000000000E+00  0.00000000000E+00 -0.79099734828E+03  0.79099734828E+03  0.25500000920E-02 0.  1.
    10030    2    1    2    0    0  0.00000000000E+00  0.00000000000E+00  0.23327349053E+03  0.18152681871E+04  0.18002172285E+04 0.  0.
        3    1    3    3  502    0 -0.29706083594E+03 -0.48031324821E+03  0.82338861479E+03  0.99845619725E+03  0.10100000352E+00 0. -1.
       -3    1    3    3    0  502  0.29706083594E+03  0.48031324821E+03 -0.59011512427E+03  0.81681198984E+03  0.10100000352E+00 0.  1.
</event>
<event>
 5   0  0.4953155E-06  0.1802184E+04  0.7818609E-02  0.8705139E-01
       -1   -1    0    0    0  501  0.00000000000E+00  0.00000000000E+00  0.72951817515E+03  0.72951817516E+03  0.50400001928E-02 0. -1.
        1   -1    0    0  501    0  0.00000000000E+00  0.00000000000E+00 -0.11130179036E+04  0.11130179036E+04  0.50400001928E-02 0.  1.
    10030    2    1    2    0    0  0.00000000000E+00  0.00000000000E+00 -0.38349972845E+03  0.18425360788E+04  0.18021839972E+04 0.  0.
        2    1    3    3  502    0  0.15259329224E+03  0.11813100438E+03 -0.10916436598E+04  0.11085691350E+04  0.25500000920E-02 0.  1.
       -2    1    3    3    0  502 -0.15259329224E+03 -0.11813100438E+03  0.70814393136E+03  0.73396694378E+03  0.25500000920E-02 0. -1.
</event>
<event>
 5   0  0.4981384E-06  0.1800496E+04  0.7818609E-02  0.8706036E-01
        1   -1    0    0  501    0  0.00000000000E+00  0.00000000000E+00  0.17514501200E+04  0.17514501200E+04  0.50400001928E-02 0. -1.
       -1   -1    0    0    0  501  0.00000000000E+00  0.00000000000E+00 -0.46272872475E+03  0.46272872478E+03  0.50400001928E-02 0.  1.
    10030    2    1    2    0    0  0.00000000000E+00  0.00000000000E+00  0.12887213952E+04  0.22141788448E+04  0.18004957990E+04 0.  0.
        5    1    3    3  502    0 -0.60448069312E+03 -0.62990618036E+03  0.91447583808E+03  0.12643048892E+04  0.46999998093E+01 0. -1.
       -5    1    3    3    0  502  0.60448069312E+03  0.62990618036E+03  0.37424555713E+03  0.94987395556E+03  0.46999998093E+01 0.  1.
</event>
<event>
 5   0  0.1000316E-05  0.1798110E+04  0.7818609E-02  0.8707305E-01
        2   -1    0    0  501    0  0.00000000000E+00  0.00000000000E+00  0.16247645820E+04  0.16247645820E+04  0.25500000920E-02 0. -1.
       -2   -1    0    0    0  501  0.00000000000E+00  0.00000000000E+00 -0.49748756561E+03  0.49748756561E+03  0.25500000920E-02 0.  1.
    10030    2    1    2    0    0  0.00000000000E+00  0.00000000000E+00  0.11272770164E+04  0.21222521476E+04  0.17981103154E+04 0.  0.
        5    1    3    3  502    0 -0.28720952165E+03  0.84614868092E+03  0.68060531676E+03  0.11232553524E+04  0.46999998093E+01 0. -1.
       -5    1    3    3    0  502  0.28720952165E+03 -0.84614868092E+03  0.44667169965E+03  0.99899679520E+03  0.46999998093E+01 0.  1.
</event>
<event>
 5   0  0.9999162E-06  0.1800150E+04  0.7818609E-02  0.8706220E-01
        2   -1    0    0  501    0  0.00000000000E+00  0.00000000000E+00  0.15754678913E+04  0.15754678913E+04  0.25500000920E-02 0.  1.
       -2   -1    0    0    0  501  0.00000000000E+00  0.00000000000E+00 -0.51421872034E+03  0.51421872035E+03  0.25500000920E-02 0. -1.
    10030    2    1    2    0    0  0.00000000000E+00  0.00000000000E+00  0.10612491710E+04  0.20896866117E+04  0.18001500860E+04 0.  0.
        1    1    3    3  502    0 -0.88732098325E+03  0.25683028757E+02  0.35790912445E+03  0.95712960808E+03  0.50400001928E-02 0.  1.
       -1    1    3    3    0  502  0.88732098325E+03 -0.25683028757E+02  0.70334004652E+03  0.11325570036E+04  0.50400001928E-02 0. -1.
</event>
<event>
 5   0  0.3626125E-06  0.1800613E+04  0.7818609E-02  0.8705974E-01
       -3   -1    0    0    0  501  0.00000000000E+00  0.00000000000E+00  0.70625564915E+03  0.70625565637E+03  0.10100000352E+00 0.  1.
        3   -1    0    0  501    0  0.00000000000E+00  0.00000000000E+00 -0.11476746394E+04  0.11476746438E+04  0.10100000352E+00 0. -1.
    10030    2    1    2    0    0  0.00000000000E+00  0.00000000000E+00 -0.44141899023E+03  0.18539303002E+04  0.18006129048E+04 0.  0.
        2    1    3    3  502    0  0.38857746270E+02 -0.29351344283E+03  0.65469676124E+03  0.71853177713E+03  0.25500000920E-02 0.  1.
       -2    1    3    3    0  502 -0.38857746270E+02  0.29351344283E+03 -0.10961157515E+04  0.11353985231E+04  0.25500000920E-02 0. -1.
</event>
<event>
 5   0  0.4983159E-06  0.1800360E+04  0.7818609E-02  0.8706108E-01
        1   -1    0    0  501    0  0.00000000000E+00  0.00000000000E+00  0.96296906882E+03  0.96296906884E+03  0.50400001928E-02 0.  1.
       -1   -1    0    0    0  501  0.00000000000E+00  0.00000000000E+00 -0.84148477219E+03  0.84148477221E+03  0.50400001928E-02 0. -1.
    10030    2    1    2    0    0  0.00000000000E+00  0.00000000000E+00  0.12148429663E+03  0.18044538410E+04  0.18003597502E+04 0.  0.
        4    1    3    3  502    0  0.58273173305E+03  0.62504776349E+03  0.34433649626E+03  0.92131982227E+03  0.12699999809E+01 0.  1.
       -4    1    3    3    0  502 -0.58273173305E+03 -0.62504776349E+03 -0.22285219963E+03  0.88313401878E+03  0.12699999809E+01 0. -1.
</event>
<event>
 5   0  0.1036381E-05  0.1799648E+04  0.7818609E-02  0.8706487E-01
        2   -1    0    0  501    0  0.00000000000E+00  0.00000000000E+00  0.23681849837E+04  0.23681849837E+04  0.25500000920E-02 0.  1.
       -2   -1    0    0    0  501  0.00000000000E+00  0.00000000000E+00 -0.34190019169E+03  0.34190019170E+03  0.25500000920E-02 0. -1.
    10030    2    1    2    0    0  0.00000000000E+00  0.00000000000E+00  0.20262847920E+04  0.27100851754E+04  0.17996476321E+04 0.  0.
        4    1    3    3  502    0 -0.72052307200E+03 -0.35868896948E+03  0.16190112983E+04  0.18080405060E+04  0.12699999809E+01 0.  1.
       -4    1    3    3    0  502  0.72052307200E+03  0.35868896948E+03  0.40727349363E+03  0.90204466942E+03  0.12699999809E+01 0. -1.
</event>
<event>
 5   0  0.1035018E-05  0.1798378E+04  0.7818609E-02  0.8707162E-01
        2   -1    0    0  501    0  0.00000000000E+00  0.00000000000E+00  0.80059601693E+03  0.80059601694E+03  0.25500000920E-02 0. -1.
       -2   -1    0    0    0  501  0.00000000000E+00  0.00000000000E+00 -0.10099239110E+04  0.10099239110E+04  0.25500000920E-02 0.  1.
    10030    2    1    2    0    0  0.00000000000E+00  0.00000000000E+00 -0.20932789403E+03  0.18105199279E+04  0.17983782255E+04 0.  0.
        3    1    3    3  502    0  0.12823907314E+03 -0.58407883793E+02  0.78941089415E+03  0.80188921353E+03  0.10100000352E+00 0. -1.
       -3    1    3    3    0  502 -0.12823907314E+03  0.58407883793E+02 -0.99873878818E+03  0.10086307144E+04  0.10100000352E+00 0.  1.
</event>
<event>
 5   0  0.1000316E-05  0.1799701E+04  0.7818609E-02  0.8706459E-01
       -2   -1    0    0    0  501  0.00000000000E+00  0.00000000000E+00  0.21222330983E+04  0.21222330983E+04  0.25500000920E-02 0. -1.
        2   -1    0    0  501    0  0.00000000000E+00  0.00000000000E+00 -0.38154654810E+03  0.38154654811E+03  0.25500000920E-02 0.  1.
    10030    2    1    2    0    0  0.00000000000E+00  0.00000000000E+00  0.17406865502E+04  0.25037796464E+04  0.17997007673E+04 0.  0.
        5    1    3    3  502    0  0.24847895386E+03 -0.58497466025E+03 -0.15866552830E+02  0.63577588909E+03  0.46999998093E+01 0.  1.
       -5    1    3    3    0  502 -0.24847895386E+03  0.58497466025E+03  0.17565531030E+04  0.18680037573E+04  0.46999998093E+01 0. -1.
</event>
<event>
 5   0  0.1000316E-05  0.1799375E+04  0.7818609E-02  0.8706632E-01
       -2   -1    0    0    0  501  0.00000000000E+00  0.00000000000E+00  0.63125824483E+03  0.63125824483E+03  0.25500000920E-02 0. -1.
        2   -1    0    0  501    0  0.00000000000E+00  0.00000000000E+00 -0.12822600547E+04  0.12822600547E+04  0.25500000920E-02 0.  1.
    10030    2    1    2    0    0  0.00000000000E+00  0.00000000000E+00 -0.65100180983E+03  0.19135182995E+04  0.17993745930E+04 0.  0.
        5    1    3    3  502    0 -0.39074398624E+03 -0.77544474022E+03 -0.75153408395E+02  0.87158793745E+03  0.46999998093E+01 0. -1.
       -5    1    3    3    0  502  0.39074398624E+03  0.77544474022E+03 -0.57584840144E+03  0.10419303620E+04  0.46999998093E+01 0.  1.
</event>
<event>
 5   0  0.1000316E-05  0.1799751E+04  0.7818609E-02  0.8706432E-01
        2   -1    0    0  501    0  0.00000000000E+00  0.00000000000E+00  0.23293180032E+04  0.23293180032E+04  0.25500000920E-02 0. -1.
       -2   -1    0    0    0  501  0.00000000000E+00  0.00000000000E+00 -0.34764520388E+03  0.34764520389E+03  0.25500000920E-02 0.  1.
    10030    2    1    2    0    0  0.00000000000E+00  0.00000000000E+00  0.19816727993E+04  0.26769632071E+04  0.17997513519E+04 0.  0.
        5    1    3    3  502    0 -0.75544059413E+03 -0.15025181237E+03  0.29877145442E+03  0.82616739851E+03  0.46999998093E+01 0.  1.
       -5    1    3    3    0  502  0.75544059413E+03  0.15025181237E+03  0.16829013449E+04  0.18507958086E+04  0.46999998093E+01 0. -1.
</event>
<event>
 5   0  0.4981384E-06  0.1800150E+04  0.7818609E-02  0.8706219E-01
        1   -1    0    0  501    0  0.00000000000E+00  0.00000000000E+00  0.15170984274E+04  0.15170984274E+04  0.50400001928E-02 0. -1.
       -1   -1    0    0    0  501  0.00000000000E+00  0.00000000000E+00 -0.53400322005E+03  0.53400322007E+03  0.50400001928E-02 0.  1.
    10030    2    1    2    0    0  0.00000000000E+00  0.00000000000E+00  0.98309520731E+03  0.20511016474E+04  0.18001504886E+04 0.  0.
        5    1    3    3  502    0 -0.45193943326E+03  0.53284771832E+03  0.11380410040E+04  0.13354158000E+04  0.46999998093E+01 0. -1.
       -5    1    3    3    0  502  0.45193943326E+03 -0.53284771832E+03 -0.15494579668E+03  0.71568584739E+03  0.46999998093E+01 0.  1.
</event>
<event>
 5   0  0.9999162E-06  0.1799538E+04  0.7818609E-02  0.8706545E-01
       -2   -1    0    0    0  501  0.00000000000E+00  0.00000000000E+00  0.60394486779E+03  0.60394486779E+03  0.25500000920E-02 0.  1.
        2   -1    0    0  501    0  0.00000000000E+00  0.00000000000E+00 -0.13404929198E+04  0.13404929198E+04  0.25500000920E-02 0. -1.
    10030    2    1    2    0    0  0.00000000000E+00  0.00000000000E+00 -0.73654805197E+03  0.19444377876E+04  0.17995375175E+04 0.  0.
        1    1    3    3  502    0  0.38068252952E+02  0.18462378012E+03  0.58236860523E+03  0.61211790077E+03  0.50400001928E-02 0.  1.
       -1    1    3    3    0  502 -0.38068252952E+02 -0.18462378012E+03 -0.13189166572E+04  0.13323198868E+04  0.50400001928E-02 0. -1.
</event>
<event>
 5   0  0.4953155E-06  0.1797488E+04  0.7818609E-02  0.8707636E-01
        1   -1    0    0  501    0  0.00000000000E+00  0.00000000000E+00  0.15980991083E+04  0.15980991084E+04  0.50400001928E-02 0. -1.
       -1   -1    0    0    0  501  0.00000000000E+00  0.00000000000E+00 -0.50543857691E+03  0.50543857694E+03  0.50400001928E-02 0.  1.
    10030    2    1    2    0    0  0.00000000000E+00  0.00000000000E+00  0.10926605314E+04  0.21035376853E+04  0.17974881798E+04 0.  0.
        2    1    3    3  502    0 -0.39655125579E+03  0.14431553149E+03  0.14749494994E+04  0.15341303389E+04  0.25500000920E-02 0. -1.
       -2    1    3    3    0  502  0.39655125579E+03 -0.14431553149E+03 -0.38228896793E+03  0.56940734637E+03  0.25500000920E-02 0.  1.
</event>
<event>
 5   0  0.4953155E-06  0.1799957E+04  0.7818609E-02  0.8706322E-01
       -1   -1    0    0    0  501  0.00000000000E+00  0.00000000000E+00  0.81528309554E+03  0.81528309555E+03  0.50400001928E-02 0. -1.
        1   -1    0    0  501    0  0.00000000000E+00  0.00000000000E+00 -0.99347219060E+03  0.99347219061E+03  0.50400001928E-02 0.  1.
    10030    2    1    2    0    0  0.00000000000E+00  0.00000000000E+00 -0.17818909506E+03  0.18087552862E+04  0.17999567583E+04 0.  0.
        2    1    3    3  502    0 -0.20028310280E+03 -0.20370014753E+03 -0.94670289549E+03  0.98886472468E+03  0.25500000920E-02 0.  1.
       -2    1    3    3    0  502  0.20028310280E+03  0.20370014753E+03  0.76851380043E+03  0.81989056149E+03  0.25500000920E-02 0. -1.
</event>
<event>
 5   0  0.4987456E-06  0.1792149E+04  0.7818609E-02  0.8710486E-01
        1   -1    0    0  501    0  0.00000000000E+00  0.00000000000E+00  0.93166597260E+03  0.93166597262E+03  0.50400001928E-02 0. -1.
       -1   -1    0    0    0  501  0.00000000000E+00  0.00000000000E+00 -0.86184221600E+03  0.86184221601E+03  0.50400001928E-02 0.  1.
    10030    2    1    2    0    0  0.00000000000E+00  0.00000000000E+00  0.69823756605E+02  0.17935081886E+04  0.17921485055E+04 0.  0.
        3    1    3    3  502    0 -0.16687841848E+03  0.87875865173E+03 -0.18830649395E+02  0.89466182331E+03  0.10100000352E+00 0. -1.
       -3    1    3    3    0  502  0.16687841848E+03 -0.87875865173E+03  0.88654406000E+02  0.89884636532E+03  0.10100000352E+00 0.  1.
</event>
<event>
 5   0  0.9999162E-06  0.1800015E+04  0.7818609E-02  0.8706291E-01
        2   -1    0    0  501    0  0.00000000000E+00  0.00000000000E+00  0.59670391616E+03  0.59670391616E+03  0.25500000920E-02 0.  1.
       -2   -1    0    0    0  501  0.00000000000E+00  0.00000000000E+00 -0.13574799720E+04  0.13574799720E+04  0.25500000920E-02 0. -1.
    10030    2    1    2    0    0  0.00000000000E+00  0.00000000000E+00 -0.76077605582E+03  0.19541838881E+04  0.18000151281E+04 0.  0.
        1    1    3    3  502    0 -0.11629912733E+02  0.73136210895E+03  0.18891829469E+03  0.75545741863E+03  0.50400001928E-02 0. -1.
       -1    1    3    3    0  502  0.11629912733E+02 -0.73136210895E+03 -0.94969435051E+03  0.11987264695E+04  0.50400001928E-02 0.  1.
</event>
<event>
 5   0  0.4983159E-06  0.1800263E+04  0.7818609E-02  0.8706160E-01
       -1   -1    0    0    0  501  0.00000000000E+00  0.00000000000E+00  0.65820076592E+03  0.65820076594E+03  0.50400001928E-02 0. -1.
        1   -1    0    0  501    0  0.00000000000E+00  0.00000000000E+00 -0.12309865452E+04  0.12309865452E+04  0.50400001928E-02 0.  1.
    10030    2    1    2    0    0  0.00000000000E+00  0.00000000000E+00 -0.57278577926E+03  0.18891873111E+04  0.18002625219E+04 0.  0.
        4    1    3    3  502    0  0.26411887553E+03  0.28443669136E+02 -0.11889137683E+04  0.12182304314E+04  0.12699999809E+01 0.  1.
       -4    1    3    3    0  502 -0.26411887553E+03 -0.28443669136E+02  0.61612798901E+03  0.67095687973E+03  0.12699999809E+01 0. -1.
</event>
<event>
 5   0  0.4983159E-06  0.1799390E+04  0.7818609E-02  0.8706624E-01
       -1   -1    0    0    0  501  0.00000000000E+00  0.00000000000E+00  0.71359110925E+03  0.71359110927E+03  0.50400001928E-02 0. -1.
        1   -1    0    0  501    0  0.00000000000E+00  0.00000000000E+00 -0.11343349378E+04  0.11343349378E+04  0.50400001928E-02 0.  1.
    10030    2    1    2    0    0  0.00000000000E+00  0.00000000000E+00 -0.42074382855E+03  0.18479260471E+04  0.17993902596E+04 0.  0.
        4    1    3    3  502    0 -0.61742319073E+03  0.42882871832E+03  0.29727328251E+03  0.80838016026E+03  0.12699999809E+01 0. -1.
       -4    1    3    3    0  502  0.61742319073E+03 -0.42882871832E+03 -0.71801711106E+03  0.10395458868E+04  0.12699999809E+01 0.  1.
</event>
<event>
 5   0  0.4981384E-06  0.1814171E+04  0.7818609E-02  0.8698800E-01
        1   -1    0    0  501    0  0.00000000000E+00  0.00000000000E+00  0.52679567645E+03  0.52679567648E+03  0.50400001928E-02 0.  1.
       -1   -1    0    0    0  501  0.00000000000E+00  0.00000000000E+00 -0.15619031705E+04  0.15619031705E+04  0.50400001928E-02 0. -1.
    10030    2    1    2    0    0  0.00000000000E+00  0.00000000000E+00 -0.10351074940E+04  0.20886988470E+04  0.18141707056E+04 0.  0.
        5    1    3    3  502    0  0.87141365749E+02  0.87742938367E+03 -0.76261497721E+03  0.11657957087E+04  0.46999998093E+01 0. -1.
       -5    1    3    3    0  502 -0.87141365749E+02 -0.87742938367E+03 -0.27249251684E+03  0.92290313829E+03  0.46999998093E+01 0.  1.
</event>
<event>
 5   0  0.9589963E-06  0.1797862E+04  0.7818609E-02  0.8707437E-01
       -2   -1    0    0    0  501  0.00000000000E+00  0.00000000000E+00  0.51868767977E+03  0.51868767978E+03  0.25500000920E-02 0.  1.
        2   -1    0    0  501    0  0.00000000000E+00  0.00000000000E+00 -0.15579257340E+04  0.15579257340E+04  0.25500000920E-02 0. -1.
    10030    2    1    2    0    0  0.00000000000E+00  0.00000000000E+00 -0.10392380542E+04  0.20766134137E+04  0.17978619349E+04 0.  0.
        2    1    3    3  502    0 -0.83712579089E+03  0.32687708513E+03 -0.54408490078E+03  0.10505506165E+04  0.25500000920E-02 0.  1.
       -2    1    3    3    0  502  0.83712579089E+03 -0.32687708513E+03 -0.49515315341E+03  0.10260627972E+04  0.25500000920E-02 0. -1.
</event>
<event>
 5   0  0.1036381E-05  0.1799029E+04  0.7818609E-02  0.8706816E-01
       -2   -1    0    0    0  501  0.00000000000E+00  0.00000000000E+00  0.95546930612E+03  0.95546930613E+03  0.25500000920E-02 0.  1.
        2   -1    0    0  501    0  0.00000000000E+00  0.00000000000E+00 -0.84683685068E+03  0.84683685069E+03  0.25500000920E-02 0. -1.
    10030    2    1    2    0    0  0.00000000000E+00  0.00000000000E+00  0.10863245544E+03  0.18023061568E+04  0.17990293140E+04 0.  0.
        4    1    3    3  502    0  0.47093367606E+03 -0.85137779871E+02 -0.70871273681E+03  0.85516216300E+03  0.12699999809E+01 0. -1.
       -4    1    3    3    0  502 -0.47093367606E+03  0.85137779871E+02  0.81734519225E+03  0.94714399381E+03  0.12699999809E+01 0.  1.
</event>
<event>
 5   0  0.1000316E-05  0.1799134E+04  0.7818609E-02  0.8706760E-01
        2   -1    0    0  501    0  0.00000000000E+00  0.00000000000E+00  0.13792023192E+04  0.13792023192E+04  0.25500000920E-02 0. -1.
       -2   -1    0    0    0  501  0.00000000000E+00  0.00000000000E+00 -0.58673099012E+03  0.58673099013E+03  0.25500000920E-02 0.  1.
    10030    2    1    2    0    0  0.00000000000E+00  0.00000000000E+00  0.79247132908E+03  0.19659333093E+04  0.17991339498E+04 0.  0.
        5    1    3    3  502    0 -0.18925092009E+03  0.15388844620E+02 -0.56457102448E+03  0.59566371299E+03  0.46999998093E+01 0.  1.
       -5    1    3    3    0  502  0.18925092009E+03 -0.15388844620E+02  0.13570423536E+04  0.13702695963E+04  0.46999998093E+01 0. -1.
</event>
<event>
 5   0  0.1035018E-05  0.1799647E+04  0.7818609E-02  0.8706487E-01
       -2   -1    0    0    0  501  0.00000000000E+00  0.00000000000E+00  0.94541159327E+03  0.94541159328E+03  0.25500000920E-02 0.  1.
        2   -1    0    0  501    0  0.00000000000E+00  0.00000000000E+00 -0.85643406068E+03  0.85643406069E+03  0.25500000920E-02 0. -1.
    10030    2    1    2    0    0  0.00000000000E+00  0.00000000000E+00  0.88977532591E+02  0.18018456540E+04  0.17996473986E+04 0.  0.
        3    1    3    3  502    0  0.54186923206E+03  0.71498383816E+03 -0.25299504343E+02  0.89747658945E+03  0.10100000352E+00 0. -1.
       -3    1    3    3    0  502 -0.54186923206E+03 -0.71498383816E+03  0.11427703693E+03  0.90436906452E+03  0.10100000352E+00 0.  1.
</event>
<event>
 5   0  0.1000316E-05  0.1799988E+04  0.7818609E-02  0.8706306E-01
       -2   -1    0    0    0  501  0.00000000000E+00  0.00000000000E+00  0.65327501601E+03  0.65327501601E+03  0.25500000920E-02 0. -1.
        2   -1    0    0  501    0  0.00000000000E+00  0.00000000000E+00 -0.12398896838E+04  0.12398896838E+04  0.25500000920E-02 0.  1.
    10030    2    1    2    0    0  0.00000000000E+00  0.00000000000E+00 -0.58661466784E+03  0.18931646999E+04  0.17999877256E+04 0.  0.
        5    1    3    3  502    0  0.56753785251E+03 -0.79862476901E+02  0.43650689286E+03  0.72044263253E+03  0.46999998093E+01 0. -1.
       -5    1    3    3    0  502 -0.56753785251E+03  0.79862476901E+02 -0.10231215607E+04  0.11727220673E+04  0.46999998093E+01 0.  1.
</event>
<event>
 5   0  0.9589963E-06  0.1799832E+04  0.7818609E-02  0.8706389E-01
       -2   -1    0    0    0  501  0.00000000000E+00  0.00000000000E+00  0.39754851578E+03  0.39754851579E+03  0.25500000920E-02 0. -1.
        2   -1    0    0  501    0  0.00000000000E+00  0.00000000000E+00 -0.20371060273E+04  0.20371060273E+04  0.25500000920E-02 0.  1.
    10030    2    1    2    0    0  0.00000000000E+00  0.00000000000E+00 -0.16395575115E+04  0.24346545431E+04  0.17998316340E+04 0.  0.
        2    1    3    3  502    0  0.86990081792E+03  0.11576945457E+03 -0.55019000539E+03  0.10357794368E+04  0.25500000920E-02 0. -1.
       -2    1    3    3    0  502 -0.86990081792E+03 -0.11576945457E+03 -0.10893675061E+04  0.13988751063E+04  0.25500000920E-02 0.  1.
</event>
<event>
 5   0  0.4994123E-06  0.1808573E+04  0.7818609E-02  0.8701754E-01
        1   -1    0    0  501    0  0.00000000000E+00  0.00000000000E+00  0.17206550685E+04  0.17206550685E+04  0.50400001928E-02 0.  1.
       -1   -1    0    0    0  501  0.00000000000E+00  0.00000000000E+00 -0.47524559660E+03  0.47524559663E+03  0.50400001928E-02 0. -1.
    10030    2    1    2    0    0  0.00000000000E+00  0.00000000000E+00  0.12454094719E+04  0.21959006652E+04  0.18085726357E+04 0.  0.
        1    1    3    3  502    0  0.26099302099E+03 -0.53994329144E+03  0.14444671555E+04  0.15640145390E+04  0.50400001928E-02 0.  1.
       -1    1    3    3    0  502 -0.26099302099E+03  0.53994329144E+03 -0.19905768358E+03  0.63188612613E+03  0.50400001928E-02 0. -1.
</event>
<event>
 5   0  0.4983159E-06  0.1802946E+04  0.7818609E-02  0.8704735E-01
       -1   -1    0    0    0  501  0.00000000000E+00  0.00000000000E+00  0.97181924568E+03  0.97181924569E+03  0.50400001928E-02 0.  1.
        1   -1    0    0  501    0  0.00000000000E+00  0.00000000000E+00 -0.83621861274E+03  0.83621861276E+03  0.50400001928E-02 0. -1.
    10030    2    1    2    0    0  0.00000000000E+00  0.00000000000E+00  0.13560063293E+03  0.18080378584E+04  0.18029457468E+04 0.  0.
        4    1    3    3  502    0  0.46020434569E+03 -0.77075510682E+03 -0.14896241202E+02  0.89781678832E+03  0.12699999809E+01 0. -1.
       -4    1    3    3    0  502 -0.46020434569E+03  0.77075510682E+03  0.15049687413E+03  0.91022107013E+03  0.12699999809E+01 0.  1.
</event>
<event>
 5   0  0.1036381E-05  0.1800275E+04  0.7818609E-02  0.8706153E-01
       -2   -1    0    0    0  501  0.00000000000E+00  0.00000000000E+00  0.10623467235E+04  0.10623467235E+04  0.25500000920E-02 0.  1.
        2   -1    0    0  501    0  0.00000000000E+00  0.00000000000E+00 -0.76269569617E+03  0.76269569617E+03  0.25500000920E-02 0. -1.
    10030    2    1    2    0    0  0.00000000000E+00  0.00000000000E+00  0.29965102737E+03  0.18250424197E+04  0.18002747278E+04 0.  0.
        4    1    3    3  502    0  0.11847471995E+03  0.32532166710E+03  0.99214485679E+03  0.10508203824E+04  0.12699999809E+01 0.  1.
       -4    1    3    3    0  502 -0.11847471995E+03 -0.32532166710E+03 -0.69249382942E+03  0.77422203730E+03  0.12699999809E+01 0. -1.
</event>
<event>
 5   0  0.1036381E-05  0.1798536E+04  0.7818609E-02  0.8707078E-01
        2   -1    0    0  501    0  0.00000000000E+00  0.00000000000E+00  0.14637242407E+04  0.14637242407E+04  0.25500000920E-02 0.  1.
       -2   -1    0    0    0  501  0.00000000000E+00  0.00000000000E+00 -0.55248312998E+03  0.55248312998E+03  0.25500000920E-02 0. -1.
    10030    2    1    2    0    0  0.00000000000E+00  0.00000000000E+00  0.91124111073E+03  0.20162073707E+04  0.17985360157E+04 0.  0.
        4    1    3    3  502    0 -0.54319019842E+03 -0.39384480673E+03  0.11268452341E+04  0.13114690686E+04  0.12699999809E+01 0.  1.
       -4    1    3    3    0  502  0.54319019842E+03  0.39384480673E+03 -0.21560412340E+03  0.70473830205E+03  0.12699999809E+01 0. -1.
</event>
<event>
 5   0  0.4953155E-06  0.1798731E+04  0.7818609E-02  0.8706974E-01
       -1   -1    0    0    0  501  0.00000000000E+00  0.00000000000E+00  0.73411241160E+03  0.73411241162E+03  0.50400001928E-02 0.  1.
        1   -1    0    0  501    0  0.00000000000E+00  0.00000000000E+00 -0.11018186375E+04  0.11018186375E+04  0.50400001928E-02 0. -1.
    10030    2    1    2    0    0  0.00000000000E+00  0.00000000000E+00 -0.36770622590E+03  0.18359310491E+04  0.17987314832E+04 0.  0.
        2    1    3    3  502    0  0.61848776710E+03  0.10375223655E+03 -0.84182995012E+03  0.10497472599E+04  0.25500000920E-02 0. -1.
       -2    1    3    3    0  502 -0.61848776710E+03 -0.10375223655E+03  0.47412372422E+03  0.78618378927E+03  0.25500000920E-02 0.  1.
</event>
<event>
 5   0  0.4953155E-06  0.1799871E+04  0.7818609E-02  0.8706368E-01
        1   -1    0    0  501    0  0.00000000000E+00  0.00000000000E+00  0.12472478133E+04  0.12472478133E+04  0.50400001928E-02 0. -1.
       -1   -1    0    0    0  501  0.00000000000E+00  0.00000000000E+00 -0.64933707811E+03  0.64933707813E+03  0.50400001928E-02 0.  1.
    10030    2    1    2    0    0  0.00000000000E+00  0.00000000000E+00  0.59791073515E+03  0.18965848914E+04  0.17998713852E+04 0.  0.
        2    1    3    3  502    0 -0.88131270297E+03  0.12266011846E+03  0.44082510885E+03  0.99301780531E+03  0.25500000920E-02 0. -1.
       -2    1    3    3    0  502  0.88131270297E+03 -0.12266011846E+03  0.15708562630E+03  0.90356708609E+03  0.25500000920E-02 0.  1.
</event>
<event>
 5   0  0.9589963E-06  0.1800387E+04  0.7818609E-02  0.8706094E-01
       -2   -1    0    0    0  501  0.00000000000E+00  0.00000000000E+00  0.87444755717E+03  0.87444755717E+03  0.25500000920E-02 0.  1.
        2   -1    0    0  501    0  0.00000000000E+00  0.00000000000E+00 -0.92669746828E+03  0.92669746828E+03  0.25500000920E-02 0. -1.
    10030    2    1    2    0    0  0.00000000000E+00  0.00000000000E+00 -0.52249911111E+02  0.18011450255E+04  0.18003869999E+04 0.  0.
        2    1    3    3  502    0  0.47685984694E+03  0.16234717815E+03  0.72024305625E+03  0.87892091792E+03  0.25500000920E-02 0.  1.
       -2    1    3    3    0  502 -0.47685984694E+03 -0.16234717815E+03 -0.77249296737E+03  0.92222410753E+03  0.25500000920E-02 0. -1.
</event>
<event>
 5   0  0.1035018E-05  0.1798069E+04  0.7818609E-02  0.8707327E-01
       -2   -1    0    0    0  501  0.00000000000E+00  0.00000000000E+00  0.39972692235E+03  0.39972692236E+03  0.25500000920E-02 0. -1.
        2   -1    0    0  501    0  0.00000000000E+00  0.00000000000E+00 -0.20220391061E+04  0.20220391061E+04  0.25500000920E-02 0.  1.
    10030    2    1    2    0    0  0.00000000000E+00  0.00000000000E+00 -0.16223121838E+04  0.24217660285E+04  0.17980694856E+04 0.  0.
        3    1    3    3  502    0  0.72517411999E+03 -0.52044664752E+03 -0.66658703459E+03  0.11140379267E+04  0.10100000352E+00 0. -1.
       -3    1    3    3    0  502 -0.72517411999E+03  0.52044664752E+03 -0.95572514920E+03  0.13077281018E+04  0.10100000352E+00 0.  1.
</event>
<event>
 5   0  0.9589963E-06  0.1800229E+04  0.7818609E-02  0.8706178E-01
        2   -1    0    0  501    0  0.00000000000E+00  0.00000000000E+00  0.13757801812E+04  0.13757801812E+04  0.25500000920E-02 0.  1.
       -2   -1    0    0    0  501  0.00000000000E+00  0.00000000000E+00 -0.58890641526E+03  0.58890641527E+03  0.25500000920E-02 0. -1.
    10030    2    1    2    0    0  0.00000000000E+00  0.00000000000E+00  0.78687376598E+03  0.19646865965E+04  0.18002286241E+04 0.  0.
        2    1    3    3  502    0 -0.19859400353E+03 -0.38518579975E+03 -0.46755636816E+03  0.63750814581E+03  0.25500000920E-02 0. -1.
       -2    1    3    3    0  502  0.19859400353E+03  0.38518579975E+03  0.12544301341E+04  0.13271784507E+04  0.25500000920E-02 0.  1.
</event>
<event>
 5   0  0.9999162E-06  0.1800378E+04  0.7818609E-02  0.8706099E-01
        2   -1    0    0  501    0  0.00000000000E+00  0.00000000000E+00  0.11567006090E+04  0.11567006090E+04  0.25500000920E-02 0.  1.
       -2   -1    0    0    0  501  0.00000000000E+00  0.00000000000E+00 -0.70056171371E+03  0.70056171371E+03  0.25500000920E-02 0. -1.
    10030    2    1    2    0    0  0.00000000000E+00  0.00000000000E+00  0.45613889531E+03  0.18572623227E+04  0.18003779169E+04 0.  0.
        1    1    3    3  502    0  0.51395277864E+03 -0.51738794761E+03 -0.31633799399E+03  0.79492608051E+03  0.50400001928E-02 0. -1.
       -1    1    3    3    0  502 -0.51395277864E+03  0.51738794761E+03  0.77247688930E+03  0.10623362422E+04  0.50400001928E-02 0.  1.
</event>
<event>
 5   0  0.4981384E-06  0.1799721E+04  0.7818609E-02  0.8706448E-01
        1   -1    0    0  501    0  0.00000000000E+00  0.00000000000E+00  0.82040192160E+03  0.82040192162E+03  0.50400001928E-02 0.  1.
       -1   -1    0    0    0  501  0.00000000000E+00  0.00000000000E+00 -0.98701543428E+03  0.98701543429E+03  0.50400001928E-02 0. -1.
    10030    2    1    2    0    0  0.00000000000E+00  0.00000000000E+00 -0.16661351267E+03  0.18074173559E+04  0.17997214884E+04 0.  0.
        5    1    3    3  502    0 -0.63058715377E+03  0.63527767901E+03  0.93340083770E+01  0.89516875596E+03  0.46999998093E+01 0.  1.
       -5    1    3    3    0  502  0.63058715377E+03 -0.63527767901E+03 -0.17594752105E+03  0.91224859995E+03  0.46999998093E+01 0. -1.
</event>
<event>
 5   0  0.1000316E-05  0.1800340E+04  0.7818609E-02  0.8706118E-01
       -2   -1    0    0    0  501  0.00000000000E+00  0.00000000000E+00  0.46344461246E+03  0.46344461247E+03  0.25500000920E-02 0.  1.
        2   -1    0    0  501    0  0.00000000000E+00  0.00000000000E+00 -0.17484427832E+04  0.17484427832E+04  0.25500000920E-02 0. -1.
    10030    2    1    2    0    0  0.00000000000E+00  0.00000000000E+00 -0.12849981708E+04  0.22118873957E+04  0.18003403990E+04 0.  0.
        5    1    3    3  502    0 -0.40407226623E+03 -0.80387422526E+03 -0.60783331566E+03  0.10858045846E+04  0.46999998093E+01 0.  1.
       -5    1    3    3    0  502  0.40407226623E+03  0.80387422526E+03 -0.67716485510E+03  0.11260828111E+04  0.46999998093E+01 0. -1.
</event>
<event>
 5   0  0.1036381E-05  0.1802779E+04  0.7818609E-02  0.8704823E-01
       -2   -1    0    0    0  501  0.00000000000E+00  0.00000000000E+00  0.56058132975E+03  0.56058132975E+03  0.25500000920E-02 0.  1.
        2   -1    0    0  501    0  0.00000000000E+00  0.00000000000E+00 -0.14493938711E+04  0.14493938711E+04  0.25500000920E-02 0. -1.
    10030    2    1    2    0    0  0.00000000000E+00  0.00000000000E+00 -0.88881254134E+03  0.20099752008E+04  0.18027791252E+04 0.  0.
        4    1    3    3  502    0  0.92674431718E+02 -0.53685336902E+03 -0.12450648300E+04  0.13590394159E+04  0.12699999809E+01 0. -1.
       -4    1    3    3    0  502 -0.92674431718E+02  0.53685336902E+03  0.35625228863E+03  0.65093578499E+03  0.12699999809E+01 0.  1.
</event>
<event>
 5   0  0.9589963E-06  0.1800797E+04  0.7818609E-02  0.8705876E-01
       -2   -1    0    0    0  501  0.00000000000E+00  0.00000000000E+00  0.58164694976E+03  0.58164694977E+03  0.25500000920E-02 0.  1.
        2   -1    0    0  501    0  0.00000000000E+00  0.00000000000E+00 -0.13938314333E+04  0.13938314333E+04  0.25500000920E-02 0. -1.
    10030    2    1    2    0    0  0.00000000000E+00  0.00000000000E+00 -0.81218448355E+03  0.19754783831E+04  0.18007973808E+04 0.  0.
        2    1    3    3  502    0 -0.44481565626E+03 -0.77824346360E+03 -0.31304768162E+03  0.94948549629E+03  0.25500000920E-02 0.  1.
       -2    1    3    3    0  502  0.44481565626E+03  0.77824346360E+03 -0.49913680192E+03  0.10259928868E+04  0.25500000920E-02 0. -1.
</event>
<event>
 5   0  0.4987456E-06  0.1800758E+04  0.7818609E-02  0.8705896E-01
        1   -1    0    0  501    0  0.00000000000E+00  0.00000000000E+00  0.13163490166E+04  0.13163490166E+04  0.50400001928E-02 0.  1.
       -1   -1    0    0    0  501  0.00000000000E+00  0.00000000000E+00 -0.61585700958E+03  0.61585700960E+03  0.50400001928E-02 0. -1.
    10030    2    1    2    0    0  0.00000000000E+00  0.00000000000E+00  0.70049200702E+03  0.19322060262E+04  0.18007584724E+04 0.  0.
        3    1    3    3  502    0  0.26609186976E+03 -0.36358134848E+03  0.11866917020E+04  0.12693437225E+04  0.10100000352E+00 0.  1.
       -3    1    3    3    0  502 -0.26609186976E+03  0.36358134848E+03 -0.48619969495E+03  0.66286230371E+03  0.10100000352E+00 0. -1.
</event>
<event>
 5   0  0.4981384E-06  0.1800718E+04  0.7818609E-02  0.8705918E-01
       -1   -1    0    0    0  501  0.00000000000E+00  0.00000000000E+00  0.11249884452E+04  0.11249884452E+04  0.50400001928E-02 0. -1.
        1   -1    0    0  501    0  0.00000000000E+00  0.00000000000E+00 -0.72058193055E+03  0.72058193057E+03  0.50400001928E-02 0.  1.
    10030    2    1    2    0    0  0.00000000000E+00  0.00000000000E+00  0.40440651468E+03  0.18455703758E+04  0.18007180187E+04 0.  0.
        5    1    3    3  502    0 -0.60639952092E+03 -0.34141937272E+02 -0.47898535821E+03  0.77352124356E+03  0.46999998093E+01 0.  1.
       -5    1    3    3    0  502  0.60639952092E+03  0.34141937272E+02  0.88339187289E+03  0.10720491322E+04  0.46999998093E+01 0. -1.
</event>
<event>
 5   0  0.9999162E-06  0.1800395E+04  0.7818609E-02  0.8706090E-01
       -2   -1    0    0    0  501  0.00000000000E+00  0.00000000000E+00  0.12572693307E+04  0.12572693307E+04  0.25500000920E-02 0.  1.
        2   -1    0    0  501    0  0.00000000000E+00  0.00000000000E+00 -0.64453592385E+03  0.64453592386E+03  0.25500000920E-02 0. -1.
    10030    2    1    2    0    0  0.00000000000E+00  0.00000000000E+00  0.61273340688E+03  0.19018052546E+04  0.18003946785E+04 0.  0.
        1    1    3    3  502    0 -0.15931396816E+03 -0.88490484535E+03  0.26010822394E+03  0.93599883225E+03  0.50400001928E-02 0. -1.
       -1    1    3    3    0  502  0.15931396816E+03  0.88490484535E+03  0.35262518295E+03  0.96580642235E+03  0.50400001928E-02 0.  1.
</event>
<event>
 5   0  0.1000316E-05  0.1799100E+04  0.7818609E-02  0.8706778E-01
        2   -1    0    0  501    0  0.00000000000E+00  0.00000000000E+00  0.17016158609E+04  0.17016158609E+04  0.25500000920E-02 0.  1.
       -2   -1    0    0    0  501  0.00000000000E+00  0.00000000000E+00 -0.47554246899E+03  0.47554246899E+03  0.25500000920E-02 0. -1.
    10030    2    1    2    0    0  0.00000000000E+00  0.00000000000E+00  0.12260733919E+04  0.21771583299E+04  0.17991004505E+04 0.  0.
        5    1    3    3  502    0 -0.66264671691E+03 -0.20380749848E+03  0.13066578811E+04  0.14791940630E+04  0.46999998093E+01 0.  1.
       -5    1    3    3    0  502  0.66264671691E+03  0.20380749848E+03 -0.80584489228E+02  0.69796426683E+03  0.46999998093E+01 0. -1.
</event>
<event>
 5   0  0.1000316E-05  0.1805372E+04  0.7818609E-02  0.8703448E-01
        2   -1    0    0  501    0  0.00000000000E+00  0.00000000000E+00  0.59192786764E+03  0.59192786764E+03  0.25500000920E-02 0. -1.
       -2   -1    0    0    0  501  0.00000000000E+00  0.00000000000E+00 -0.13765897509E+04  0.13765897509E+04  0.25500000920E-02 0.  1.
    10030    2    1    2    0    0  0.00000000000E+00  0.00000000000E+00 -0.78466188330E+03  0.19685176186E+04  0.18053718020E+04 0.  0.
        5    1    3    3  502    0 -0.24043426728E+03 -0.79366014552E+03 -0.35808453770E+01  0.82930089589E+03  0.46999998093E+01 0.  1.
       -5    1    3    3    0  502  0.24043426728E+03  0.79366014552E+03 -0.78108103792E+03  0.11392167227E+04  0.46999998093E+01 0. -1.
</event>
<event>
 5   0  0.4983159E-06  0.1800260E+04  0.7818609E-02  0.8706161E-01
        1   -1    0    0  501    0  0.00000000000E+00  0.00000000000E+00  0.93912109625E+03  0.93912109626E+03  0.50400001928E-02 0. -1.
       -1   -1    0    0    0  501  0.00000000000E+00  0.00000000000E+00 -0.86275809871E+03  0.86275809872E+03  0.50400001928E-02 0.  1.
    10030    2    1    2    0    0  0.00000000000E+00  0.00000000000E+00  0.76362997544E+02  0.18018791950E+04  0.18002603495E+04 0.  0.
        4    1    3    3  502    0 -0.77233817981E+03 -0.94158256599E+01 -0.42444382260E+03  0.88133370139E+03  0.12699999809E+01 0. -1.
       -4    1    3    3    0  502  0.77233817981E+03  0.94158256599E+01  0.50080682014E+03  0.92054549359E+03  0.12699999809E+01 0.  1.
</event>
<event>
 5   0  0.4983159E-06  0.1801090E+04  0.7818609E-02  0.8705720E-01
       -1   -1    0    0    0  501  0.00000000000E+00  0.00000000000E+00  0.92361465549E+03  0.92361465550E+03  0.50400001928E-02 0. -1.
        1   -1    0    0  501    0  0.00000000000E+00  0.00000000000E+00 -0.87805152887E+03  0.87805152889E+03  0.50400001928E-02 0.  1.
    10030    2    1    2    0    0  0.00000000000E+00  0.00000000000E+00  0.45563126616E+02  0.18016661844E+04  0.18010899593E+04 0.  0.
        4    1    3    3  502    0 -0.41095292460E+03 -0.41651693207E+03  0.70755224110E+03  0.91815055831E+03  0.12699999809E+01 0. -1.
       -4    1    3    3    0  502  0.41095292460E+03  0.41651693207E+03 -0.66198911448E+03  0.88351562608E+03  0.12699999809E+01 0.  1.
</event>
<event>
 5   0  0.4953155E-06  0.1800484E+04  0.7818609E-02  0.8706042E-01
       -1   -1    0    0    0  501  0.00000000000E+00  0.00000000000E+00  0.12988632319E+04  0.12988632320E+04  0.50400001928E-02 0. -1.
        1   -1    0    0  501    0  0.00000000000E+00  0.00000000000E+00 -0.62395774996E+03  0.62395774998E+03  0.50400001928E-02 0.  1.
    10030    2    1    2    0    0  0.00000000000E+00  0.00000000000E+00  0.67490548199E+03  0.19228209819E+04  0.18004841346E+04 0.  0.
        2    1    3    3  502    0 -0.49265916319E+03  0.61201113631E+03 -0.13191569698E+03  0.79666331230E+03  0.25500000920E-02 0.  1.
       -2    1    3    3    0  502  0.49265916319E+03 -0.61201113631E+03  0.80682117897E+03  0.11261576696E+04  0.25500000920E-02 0. -1.
</event>
<event>
 5   0  0.9999162E-06  0.1799831E+04  0.7818609E-02  0.8706389E-01
        2   -1    0    0  501    0  0.00000000000E+00  0.00000000000E+00  0.17401643548E+04  0.17401643548E+04  0.25500000920E-02 0.  1.
       -2   -1    0    0    0  501  0.00000000000E+00  0.00000000000E+00 -0.46538580744E+03  0.46538580744E+03  0.25500000920E-02 0. -1.
    10030    2    1    2    0    0  0.00000000000E+00  0.00000000000E+00  0.12747785473E+04  0.22055501622E+04  0.17998308735E+04 0.  0.
        1    1    3    3  502    0 -0.53359214939E+03  0.23442401832E+02  0.15249337803E+04  0.16157639563E+04  0.50400001928E-02 0.  1.
       -1    1    3    3    0  502  0.53359214939E+03 -0.23442401832E+02 -0.25015523297E+03  0.58978620593E+03  0.50400001928E-02 0. -1.
</event>
<event>
 5   0  0.1000316E-05  0.1799930E+04  0.7818609E-02  0.8706337E-01
        2   -1    0    0  501    0  0.00000000000E+00  0.00000000000E+00  0.88239796476E+03  0.88239796476E+03  0.25500000920E-02 0. -1.
       -2   -1    0    0    0  501  0.00000000000E+00  0.00000000000E+00 -0.91788131069E+03  0.91788131070E+03  0.25500000920E-02 0.  1.
    10030    2    1    2    0    0  0.00000000000E+00  0.00000000000E+00 -0.35483345937E+02  0.18002792755E+04  0.17999295547E+04 0.  0.
        5    1    3    3  502    0  0.31192882595E+03 -0.80349449087E+03  0.24117446002E+03  0.89503642355E+03  0.46999998093E+01 0. -1.
       -5    1    3    3    0  502 -0.31192882595E+03  0.80349449087E+03 -0.27665780595E+03  0.90524285190E+03  0.46999998093E+01 0.  1.
</event>
<event>
 5   0  0.1035018E-05  0.1799806E+04  0.7818609E-02  0.8706402E-01
        2   -1    0    0  501    0  0.00000000000E+00  0.00000000000E+00  0.27255009125E+04  0.27255009125E+04  0.25500000920E-02 0. -1.
       -2   -1    0    0    0  501  0.00000000000E+00  0.00000000000E+00 -0.29712915822E+03  0.29712915823E+03  0.25500000920E-02 0.  1.
    10030    2    1    2    0    0  0.00000000000E+00  0.00000000000E+00  0.24283717543E+04  0.30226300708E+04  0.17998064250E+04 0.  0.
        3    1    3    3  502    0 -0.78229136613E+03  0.12605568173E+03  0.19305640580E+04  0.20868510749E+04  0.10100000352E+00 0. -1.
       -3    1    3    3    0  502  0.78229136613E+03 -0.12605568173E+03  0.49780769628E+03  0.93577899586E+03  0.10100000352E+00 0.  1.
</event>
<event>
 5   0  0.4983159E-06  0.1800519E+04  0.7818609E-02  0.8706024E-01
        1   -1    0    0  501    0  0.00000000000E+00  0.00000000000E+00  0.18658610861E+04  0.18658610861E+04  0.50400001928E-02 0. -1.
       -1   -1    0    0    0  501  0.00000000000E+00  0.00000000000E+00 -0.43436617468E+03  0.43436617471E+03  0.50400001928E-02 0.  1.
    10030    2    1    2    0    0  0.00000000000E+00  0.00000000000E+00  0.14314949114E+04  0.23002272608E+04  0.18005187502E+04 0.  0.
        4    1    3    3  502    0  0.56840408590E+03  0.45914771144E+03  0.43897794673E+02  0.73200304307E+03  0.12699999809E+01 0.  1.
       -4    1    3    3    0  502 -0.56840408590E+03 -0.45914771144E+03  0.13875971167E+04  0.15682242177E+04  0.12699999809E+01 0. -1.
</event>
<event>
 5   0  0.9999162E-06  0.1799766E+04  0.7818609E-02  0.8706424E-01
        2   -1    0    0  501    0  0.00000000000E+00  0.00000000000E+00  0.23198546089E+04  0.23198546089E+04  0.25500000920E-02 0. -1.
       -2   -1    0    0    0  501  0.00000000000E+00  0.00000000000E+00 -0.34906899128E+03  0.34906899129E+03  0.25500000920E-02 0.  1.
    10030    2    1    2    0    0  0.00000000000E+00  0.00000000000E+00  0.19707856176E+04  0.26689236002E+04  0.17997658829E+04 0.  0.
        1    1    3    3  502    0 -0.63812037753E+03 -0.38801688323E+02  0.46234199269E+02  0.64096863296E+03  0.50400001928E-02 0.  1.
       -1    1    3    3    0  502  0.63812037753E+03  0.38801688323E+02  0.19245514184E+04  0.20279549673E+04  0.50400001928E-02 0. -1.
</event>
<event>
 5   0  0.4983159E-06  0.1799455E+04  0.7818609E-02  0.8706590E-01
        1   -1    0    0  501    0  0.00000000000E+00  0.00000000000E+00  0.88306611366E+03  0.88306611367E+03  0.50400001928E-02 0. -1.
       -1   -1    0    0    0  501  0.00000000000E+00  0.00000000000E+00 -0.91670281603E+03  0.91670281604E+03  0.50400001928E-02 0.  1.
    10030    2    1    2    0    0  0.00000000000E+00  0.00000000000E+00 -0.33636702371E+02  0.17997689297E+04  0.17994545764E+04 0.  0.
        4    1    3    3  502    0  0.60213290033E+03 -0.39077464092E+03  0.52571417582E+03  0.88974482702E+03  0.12699999809E+01 0. -1.
       -4    1    3    3    0  502 -0.60213290033E+03  0.39077464092E+03 -0.55935087819E+03  0.91002410269E+03  0.12699999809E+01 0.  1.
</event>
<event>
 5   0  0.1035018E-05  0.1799993E+04  0.7818609E-02  0.8706303E-01
       -2   -1    0    0    0  501  0.00000000000E+00  0.00000000000E+00  0.12972339679E+04  0.12972339679E+04  0.25500000920E-02 0.  1.
        2   -1    0    0  501    0  0.00000000000E+00  0.00000000000E+00 -0.62440073289E+03  0.62440073290E+03  0.25500000920E-02 0. -1.
    10030    2    1    2    0    0  0.00000000000E+00  0.00000000000E+00  0.67283323497E+03  0.19216347008E+04  0.17999931558E+04 0.  0.
        3    1    3    3  502    0 -0.38959390356E+03  0.81089636379E+03  0.36379137978E+03  0.97040223655E+03  0.10100000352E+00 0.  1.
       -3    1    3    3    0  502  0.38959390356E+03 -0.81089636379E+03  0.30904185518E+03  0.95123246420E+03  0.10100000352E+00 0. -1.
</event>
<event>
 5   0  0.1036381E-05  0.1799867E+04  0.7818609E-02  0.8706370E-01
        2   -1    0    0  501    0  0.00000000000E+00  0.00000000000E+00  0.16224608343E+04  0.16224608343E+04  0.25500000920E-02 0. -1.
       -2   -1    0    0    0  501  0.00000000000E+00  0.00000000000E+00 -0.49916773420E+03  0.49916773421E+03  0.25500000920E-02 0.  1.
    10030    2    1    2    0    0  0.00000000000E+00  0.00000000000E+00  0.11232931001E+04  0.21216285685E+04  0.17998667712E+04 0.  0.
        4    1    3    3  502    0  0.80084011357E+03 -0.27648720163E+02  0.78826782169E+02  0.80518607397E+03  0.12699999809E+01 0.  1.
       -4    1    3    3    0  502 -0.80084011357E+03  0.27648720163E+02  0.10444663179E+04  0.13164424945E+04  0.12699999809E+01 0. -1.
</event>
<event>
 5   0  0.4994123E-06  0.1800116E+04  0.7818609E-02  0.8706238E-01
        1   -1    0    0  501    0  0.00000000000E+00  0.00000000000E+00  0.17727710311E+04  0.17727710311E+04  0.50400001928E-02 0. -1.
       -1   -1    0    0    0  501  0.00000000000E+00  0.00000000000E+00 -0.45697079401E+03  0.45697079404E+03  0.50400001928E-02 0.  1.
    10030    2    1    2    0    0  0.00000000000E+00  0.00000000000E+00  0.13158002371E+04  0.22297418251E+04  0.18001162026E+04 0.  0.
        1    1    3    3  502    0 -0.76921193090E+03  0.42736495323E+02  0.81433151619E+02  0.77469010635E+03  0.50400001928E-02 0.  1.
       -1    1    3    3    0  502  0.76921193090E+03 -0.42736495323E+02  0.12343670855E+04  0.14550517188E+04  0.50400001928E-02 0. -1.
</event>
<event>
 5   0  0.9999162E-06  0.1798331E+04  0.7818609E-02  0.8707187E-01
       -2   -1    0    0    0  501  0.00000000000E+00  0.00000000000E+00  0.84657437515E+03  0.84657437515E+03  0.25500000920E-02 0. -1.
        2   -1    0    0  501    0  0.00000000000E+00  0.00000000000E+00 -0.95502384961E+03  0.95502384961E+03  0.25500000920E-02 0.  1.
    10030    2    1    2    0    0  0.00000000000E+00  0.00000000000E+00 -0.10844947446E+03  0.18015982248E+04  0.17983311361E+04 0.  0.
        1    1    3    3  502    0 -0.28122901242E+03  0.27067792335E+03 -0.86572252574E+03  0.94964824394E+03  0.50400001928E-02 0.  1.
       -1    1    3    3    0  502  0.28122901242E+03 -0.27067792335E+03  0.75727305127E+03  0.85194998083E+03  0.50400001928E-02 0. -1.
</event>
<event>
 5   0  0.4981384E-06  0.1797751E+04  0.7818609E-02  0.8707496E-01
       -1   -1    0    0    0  501  0.00000000000E+00  0.00000000000E+00  0.61503987079E+03  0.61503987082E+03  0.50400001928E-02 0.  1.
        1   -1    0    0  501    0  0.00000000000E+00  0.00000000000E+00 -0.13136992510E+04  0.13136992510E+04  0.50400001928E-02 0. -1.
    10030    2    1    2    0    0  0.00000000000E+00  0.00000000000E+00 -0.69865938017E+03  0.19287391218E+04  0.17977512816E+04 0.  0.
        5    1    3    3  502    0  0.32639999624E+03  0.57137110313E+02  0.54710656169E+03  0.63964778336E+03  0.46999998093E+01 0.  1.
       -5    1    3    3    0  502 -0.32639999624E+03 -0.57137110313E+02 -0.12457659419E+04  0.12890913384E+04  0.46999998093E+01 0. -1.
</event>
<event>
 5   0  0.4981384E-06  0.1800018E+04  0.7818609E-02  0.8706290E-01
        1   -1    0    0  501    0  0.00000000000E+00  0.00000000000E+00  0.11016332066E+04  0.11016332066E+04  0.50400001928E-02 0.  1.
       -1   -1    0    0    0  501  0.00000000000E+00  0.00000000000E+00 -0.73528666352E+03  0.73528666354E+03  0.50400001928E-02 0. -1.
    10030    2    1    2    0    0  0.00000000000E+00  0.00000000000E+00  0.36634654304E+03  0.18369198701E+04  0.18000180054E+04 0.  0.
        5    1    3    3  502    0  0.44937211090E+02 -0.45994398065E+03  0.97129219301E+03  0.10756386161E+04  0.46999998093E+01 0.  1.
       -5    1    3    3    0  502 -0.44937211090E+02  0.45994398065E+03 -0.60494564996E+03  0.76128125400E+03  0.46999998093E+01 0. -1.
</event>
<event>
 5   0  0.4983159E-06  0.1803063E+04  0.7818609E-02  0.8704673E-01
        1   -1    0    0  501    0  0.00000000000E+00  0.00000000000E+00  0.10117551299E+04  0.10117551299E+04  0.50400001928E-02 0. -1.
       -1   -1    0    0    0  501  0.00000000000E+00  0.00000000000E+00 -0.80331556223E+03  0.80331556224E+03  0.50400001928E-02 0.  1.
    10030    2    1    2    0    0  0.00000000000E+00  0.00000000000E+00  0.20843956764E+03  0.18150706921E+04  0.18030625513E+04 0.  0.
        4    1    3    3  502    0  0.47526809630E+03 -0.19197336485E+03  0.85079465908E+03  0.99327070881E+03  0.12699999809E+01 0. -1.
       -4    1    3    3    0  502 -0.47526809630E+03  0.19197336485E+03 -0.64235509144E+03  0.82179998331E+03  0.12699999809E+01 0.  1.
</event>
<event>
 5   0  0.4987456E-06  0.1799507E+04  0.7818609E-02  0.8706562E-01
        1   -1    0    0  501    0  0.00000000000E+00  0.00000000000E+00  0.15647084757E+04  0.15647084757E+04  0.50400001928E-02 0. -1.
       -1   -1    0    0    0  501  0.00000000000E+00  0.00000000000E+00 -0.51738495334E+03  0.51738495336E+03  0.50400001928E-02 0.  1.
    10030    2    1    2    0    0  0.00000000000E+00  0.00000000000E+00  0.10473235224E+04  0.20820934291E+04  0.17995072900E+04 0.  0.
        3    1    3    3  502    0 -0.68970520502E+03 -0.19193345462E+03  0.11542458751E+04  0.13582397694E+04  0.10100000352E+00 0. -1.
       -3    1    3    3    0  502  0.68970520502E+03  0.19193345462E+03 -0.10692235277E+03  0.72385365963E+03  0.10100000352E+00 0.  1.
</event>
<event>
 5   0  0.4987456E-06  0.1798166E+04  0.7818609E-02  0.8707276E-01
       -1   -1    0    0    0  501  0.00000000000E+00  0.00000000000E+00  0.16442309821E+04  0.16442309821E+04  0.50400001928E-02 0. -1.
        1   -1    0    0  501    0  0.00000000000E+00  0.00000000000E+00 -0.49162791503E+03  0.49162791505E+03  0.50400001928E-02 0.  1.
    10030    2    1    2    0    0  0.00000000000E+00  0.00000000000E+00  0.11526030671E+04  0.21358588972E+04  0.17981655648E+04 0.  0.
        3    1    3    3  502    0 -0.51685762614E+03 -0.72132235177E+03  0.74802823461E+03  0.11606007026E+04  0.10100000352E+00 0. -1.
       -3    1    3    3    0  502  0.51685762614E+03  0.72132235177E+03  0.40457483251E+03  0.97525819462E+03  0.10100000352E+00 0.  1.
</event>
<event>
 5   0  0.4983159E-06  0.1800483E+04  0.7818609E-02  0.8706043E-01
        1   -1    0    0  501    0  0.00000000000E+00  0.00000000000E+00  0.14282425874E+04  0.14282425874E+04  0.50400001928E-02 0. -1.
       -1   -1    0    0    0  501  0.00000000000E+00  0.00000000000E+00 -0.56743481079E+03  0.56743481081E+03  0.50400001928E-02 0.  1.
    10030    2    1    2    0    0  0.00000000000E+00  0.00000000000E+00  0.86080777656E+03  0.19956773982E+04  0.18004827823E+04 0.  0.
        4    1    3    3  502    0  0.67097584516E+03 -0.56635317051E+03  0.65060849830E+03  0.10928209046E+04  0.12699999809E+01 0. -1.
       -4    1    3    3    0  502 -0.67097584516E+03  0.56635317051E+03  0.21019927826E+03  0.90285649359E+03  0.12699999809E+01 0.  1.
</event>
<event>
 5   0  0.4987456E-06  0.1800260E+04  0.7818609E-02  0.8706161E-01
       -1   -1    0    0    0  501  0.00000000000E+00  0.00000000000E+00  0.53280520057E+03  0.53280520060E+03  0.50400001928E-02 0.  1.
        1   -1    0    0  501    0  0.00000000000E+00  0.00000000000E+00 -0.15206944125E+04  0.15206944125E+04  0.50400001928E-02 0. -1.
    10030    2    1    2    0    0  0.00000000000E+00  0.00000000000E+00 -0.98788921190E+03  0.20534996131E+04  0.18002598607E+04 0.  0.
        3    1    3    3  502    0  0.63449321014E+03  0.50587486866E+03 -0.93828271909E+03  0.12405101723E+04  0.10100000352E+00 0. -1.
       -3    1    3    3    0  502 -0.63449321014E+03 -0.50587486866E+03 -0.49606492802E+02  0.81298944076E+03  0.10100000352E+00 0.  1.
</event>
<event>
 5   0  0.4994123E-06  0.1800582E+04  0.7818609E-02  0.8705990E-01
        1   -1    0    0  501    0  0.00000000000E+00  0.00000000000E+00  0.99716368320E+03  0.99716368322E+03  0.50400001928E-02 0. -1.
       -1   -1    0    0    0  501  0.00000000000E+00  0.00000000000E+00 -0.81282907959E+03  0.81282907960E+03  0.50400001928E-02 0.  1.
    10030    2    1    2    0    0  0.00000000000E+00  0.00000000000E+00  0.18433460362E+03  0.18099927628E+04  0.18005817269E+04 0.  0.
        1    1    3    3  502    0 -0.22952203606E+03  0.30435301316E+03 -0.72770120852E+03  0.82149873436E+03  0.50400001928E-02 0.  1.
       -1    1    3    3    0  502  0.22952203606E+03 -0.30435301316E+03  0.91203581213E+03  0.98849402846E+03  0.50400001928E-02 0. -1.
</event>
<event>
 5   0  0.4981384E-06  0.1799991E+04  0.7818609E-02  0.8706304E-01
        1   -1    0    0  501    0  0.00000000000E+00  0.00000000000E+00  0.99286696310E+03  0.99286696311E+03  0.50400001928E-02 0.  1.
       -1   -1    0    0    0  501  0.00000000000E+00  0.00000000000E+00 -0.81581082805E+03  0.81581082807E+03  0.50400001928E-02 0. -1.
    10030    2    1    2    0    0  0.00000000000E+00  0.00000000000E+00  0.17705613504E+03  0.18086777912E+04  0.17999906881E+04 0.  0.
        5    1    3    3  502    0  0.24325177108E+03  0.38775853737E+03  0.86714934917E+03  0.98056014155E+03  0.46999998093E+01 0.  1.
       -5    1    3    3    0  502 -0.24325177108E+03 -0.38775853737E+03 -0.69009321413E+03  0.82811764962E+03  0.46999998093E+01 0. -1.
</event>
<event>
 5   0  0.1035018E-05  0.1798617E+04  0.7818609E-02  0.8707036E-01
        2   -1    0    0  501    0  0.00000000000E+00  0.00000000000E+00  0.98116276525E+03  0.98116276525E+03  0.25500000920E-02 0. -1.
       -2   -1    0    0    0  501  0.00000000000E+00  0.00000000000E+00 -0.82428256290E+03  0.82428256290E+03  0.25500000920E-02 0.  1.
    10030    2    1    2    0    0  0.00000000000E+00  0.00000000000E+00  0.15688020235E+03  0.18054453282E+04  0.17986165336E+04 0.  0.
        3    1    3    3  502    0 -0.17280327664E+03 -0.77809382293E+03  0.49651193862E+03  0.93905009722E+03  0.10100000352E+00 0. -1.
       -3    1    3    3    0  502  0.17280327664E+03  0.77809382293E+03 -0.33963173627E+03  0.86639523093E+03  0.10100000352E+00 0.  1.
</event>
<event>
 5   0  0.9589963E-06  0.1799915E+04  0.7818609E-02  0.8706344E-01
        2   -1    0    0  501    0  0.00000000000E+00  0.00000000000E+00  0.59939912146E+03  0.59939912147E+03  0.25500000920E-02 0.  1.
       -2   -1    0    0    0  501  0.00000000000E+00  0.00000000000E+00 -0.13512263677E+04  0.13512263677E+04  0.25500000920E-02 0. -1.
    10030    2    1    2    0    0  0.00000000000E+00  0.00000000000E+00 -0.75182724620E+03  0.19506254891E+04  0.17999154399E+04 0.  0.
        2    1    3    3  502    0  0.51623389269E+03 -0.21818028397E+03 -0.11390207158E+04  0.12694361974E+04  0.25500000920E-02 0. -1.
       -2    1    3    3    0  502 -0.51623389269E+03  0.21818028397E+03  0.38719346959E+03  0.68118929173E+03  0.25500000920E-02 0.  1.
</event>
<event>
 5   0  0.4981384E-06  0.1799672E+04  0.7818609E-02  0.8706474E-01
       -1   -1    0    0    0  501  0.00000000000E+00  0.00000000000E+00  0.13219619077E+04  0.13219619077E+04  0.50400001928E-02 0.  1.
        1   -1    0    0  501    0  0.00000000000E+00  0.00000000000E+00 -0.61250256612E+03  0.61250256614E+03  0.50400001928E-02 0. -1.
    10030    2    1    2    0    0  0.00000000000E+00  0.00000000000E+00  0.70945934156E+03  0.19344644738E+04  0.17996722599E+04 0.  0.
        5    1    3    3  502    0 -0.41700779806E+03  0.11360971508E+03 -0.49360972113E+03  0.65610617875E+03  0.46999998093E+01 0. -1.
       -5    1    3    3    0  502  0.41700779806E+03 -0.11360971508E+03  0.12030690627E+04  0.12783582951E+04  0.46999998093E+01 0.  1.
</event>
<event>
 5   0  0.1035018E-05  0.1799447E+04  0.7818609E-02  0.8706593E-01
       -2   -1    0    0    0  501  0.00000000000E+00  0.00000000000E+00  0.93511979950E+03  0.93511979951E+03  0.25500000920E-02 0. -1.
        2   -1    0    0  501    0  0.00000000000E+00  0.00000000000E+00 -0.86566726974E+03  0.86566726974E+03  0.25500000920E-02 0.  1.
    10030    2    1    2    0    0  0.00000000000E+00  0.00000000000E+00  0.69452529768E+02  0.18007870692E+04  0.17994472526E+04 0.  0.
        3    1    3    3  502    0  0.62838638773E+03  0.58361494613E+03  0.30700739402E+03  0.91089483905E+03  0.10100000352E+00 0. -1.
       -3    1    3    3    0  502 -0.62838638773E+03 -0.58361494613E+03 -0.23755486425E+03  0.88989223019E+03  0.10100000352E+00 0.  1.
</event>
<event>
 5   0  0.9999162E-06  0.1799446E+04  0.7818609E-02  0.8706594E-01
       -2   -1    0    0    0  501  0.00000000000E+00  0.00000000000E+00  0.44722501201E+03  0.44722501201E+03  0.25500000920E-02 0. -1.
        2   -1    0    0  501    0  0.00000000000E+00  0.00000000000E+00 -0.18100535056E+04  0.18100535056E+04  0.25500000920E-02 0.  1.
    10030    2    1    2    0    0  0.00000000000E+00  0.00000000000E+00 -0.13628284936E+04  0.22572785176E+04  0.17994456933E+04 0.  0.
        1    1    3    3  502    0  0.14640820425E+03 -0.76339816992E+03 -0.11304663668E+03  0.78548817317E+03  0.50400001928E-02 0. -1.
       -1    1    3    3    0  502 -0.14640820425E+03  0.76339816992E+03 -0.12497818569E+04  0.14717903445E+04  0.50400001928E-02 0.  1.
</event>
<event>
 5   0  0.1036381E-05  0.1800059E+04  0.7818609E-02  0.8706268E-01
        2   -1    0    0  501    0  0.00000000000E+00  0.00000000000E+00  0.10888185640E+04  0.10888185640E+04  0.25500000920E-02 0. -1.
       -2   -1    0    0    0  501  0.00000000000E+00  0.00000000000E+00 -0.74397459398E+03  0.74397459398E+03  0.25500000920E-02 0.  1.
    10030    2    1    2    0    0  0.00000000000E+00  0.00000000000E+00  0.34484397000E+03  0.18327931580E+04  0.18000592758E+04 0.  0.
        4    1    3    3  502    0 -0.43479435519E+03 -0.11169398215E+03  0.96669108304E+03  0.10658400161E+04  0.12699999809E+01 0. -1.
       -4    1    3    3    0  502  0.43479435519E+03  0.11169398215E+03 -0.62184711304E+03  0.76695314189E+03  0.12699999809E+01 0.  1.
</event>
<event>
 5   0  0.9589963E-06  0.1800086E+04  0.7818609E-02  0.8706254E-01
       -2   -1    0    0    0  501  0.00000000000E+00  0.00000000000E+00  0.83669207633E+03  0.83669207634E+03  0.25500000920E-02 0.  1.
        2   -1    0    0  501    0  0.00000000000E+00  0.00000000000E+00 -0.96819025094E+03  0.96819025094E+03  0.25500000920E-02 0. -1.
    10030    2    1    2    0    0  0.00000000000E+00  0.00000000000E+00 -0.13149817461E+03  0.18048823273E+04  0.18000856772E+04 0.  0.
        2    1    3    3  502    0 -0.33110247119E+03  0.78505376520E+00  0.77340856062E+03  0.84130271863E+03  0.25500000920E-02 0.  1.
       -2    1    3    3    0  502  0.33110247119E+03 -0.78505376520E+00 -0.90490673522E+03  0.96357960865E+03  0.25500000920E-02 0. -1.
</event>
<event>
 5   0  0.4981384E-06  0.1796121E+04  0.7818609E-02  0.8708365E-01
       -1   -1    0    0    0  501  0.00000000000E+00  0.00000000000E+00  0.19440687923E+04  0.19440687923E+04  0.50400001928E-02 0. -1.
        1   -1    0    0  501    0  0.00000000000E+00  0.00000000000E+00 -0.41485814062E+03  0.41485814065E+03  0.50400001928E-02 0.  1.
    10030    2    1    2    0    0  0.00000000000E+00  0.00000000000E+00  0.15292106517E+04  0.23589269330E+04  0.17961211145E+04 0.  0.
        5    1    3    3  502    0  0.12058486197E+03  0.43221317145E+03  0.17862677613E+04  0.18417718478E+04  0.46999998093E+01 0. -1.
       -5    1    3    3    0  502 -0.12058486197E+03 -0.43221317145E+03 -0.25705710957E+03  0.51715508515E+03  0.46999998093E+01 0.  1.
</event>
<event>
 5   0  0.9589963E-06  0.1799808E+04  0.7818609E-02  0.8706402E-01
       -2   -1    0    0    0  501  0.00000000000E+00  0.00000000000E+00  0.55428276027E+03  0.55428276028E+03  0.25500000920E-02 0. -1.
        2   -1    0    0  501    0  0.00000000000E+00  0.00000000000E+00 -0.14610357008E+04  0.14610357008E+04  0.25500000920E-02 0.  1.
    10030    2    1    2    0    0  0.00000000000E+00  0.00000000000E+00 -0.90675294052E+03  0.20153184611E+04  0.17998076576E+04 0.  0.
        2    1    3    3  502    0 -0.82943147300E+03 -0.34365097645E+03 -0.38458445300E+03  0.97670761413E+03  0.25500000920E-02 0. -1.
       -2    1    3    3    0  502  0.82943147300E+03  0.34365097645E+03 -0.52216848752E+03  0.10386108469E+04  0.25500000920E-02 0.  1.
</event>
<event>
 5   0  0.4981384E-06  0.1800206E+04  0.7818609E-02  0.8706190E-01
        1   -1    0    0  501    0  0.00000000000E+00  0.00000000000E+00  0.61119592365E+03  0.61119592367E+03  0.50400001928E-02 0. -1.
       -1   -1    0    0    0  501  0.00000000000E+00  0.00000000000E+00 -0.13255737149E+04  0.13255737149E+04  0.50400001928E-02 0.  1.
    10030    2    1    2    0    0  0.00000000000E+00  0.00000000000E+00 -0.71437779122E+03  0.19367696386E+04  0.18002058227E+04 0.  0.
        5    1    3    3  502    0 -0.38941329609E+03  0.11113265652E+03  0.50763801409E+03  0.64939327519E+03  0.46999998093E+01 0. -1.
       -5    1    3    3    0  502  0.38941329609E+03 -0.11113265652E+03 -0.12220158053E+04  0.12873763634E+04  0.46999998093E+01 0.  1.
</event>
<event>
 5   0  0.4983159E-06  0.1799865E+04  0.7818609E-02  0.8706371E-01
       -1   -1    0    0    0  501  0.00000000000E+00  0.00000000000E+00  0.96089460822E+03  0.96089460823E+03  0.50400001928E-02 0. -1.
        1   -1    0    0  501    0  0.00000000000E+00  0.00000000000E+00 -0.84283840927E+03  0.84283840928E+03  0.50400001928E-02 0.  1.
    10030    2    1    2    0    0  0.00000000000E+00  0.00000000000E+00  0.11805619895E+03  0.18037330175E+04  0.17998654206E+04 0.  0.
        4    1    3    3  502    0 -0.49903175291E+03  0.45823788087E+03 -0.53458130879E+03  0.86301415659E+03  0.12699999809E+01 0.  1.
       -4    1    3    3    0  502  0.49903175291E+03 -0.45823788087E+03  0.65263750774E+03  0.94071886092E+03  0.12699999809E+01 0. -1.
</event>
<event>
 5   0  0.4953155E-06  0.1801224E+04  0.7818609E-02  0.8705649E-01
       -1   -1    0    0    0  501  0.00000000000E+00  0.00000000000E+00  0.68950711702E+03  0.68950711704E+03  0.50400001928E-02 0. -1.
        1   -1    0    0  501    0  0.00000000000E+00  0.00000000000E+00 -0.11763508118E+04  0.11763508118E+04  0.50400001928E-02 0.  1.
    10030    2    1    2    0    0  0.00000000000E+00  0.00000000000E+00 -0.48684369481E+03  0.18658579289E+04  0.18012243135E+04 0.  0.
        2    1    3    3  502    0 -0.59168619708E+03 -0.34242742558E+03  0.36392127930E+03  0.77445967948E+03  0.25500000920E-02 0. -1.
       -2    1    3    3    0  502  0.59168619708E+03  0.34242742558E+03 -0.85076497412E+03  0.10913982494E+04  0.25500000920E-02 0.  1.
</event>
<event>
 5   0  0.4983159E-06  0.1800241E+04  0.7818609E-02  0.8706171E-01
        1   -1    0    0  501    0  0.00000000000E+00  0.00000000000E+00  0.81769962708E+03  0.81769962710E+03  0.50400001928E-02 0. -1.
       -1   -1    0    0    0  501  0.00000000000E+00  0.00000000000E+00 -0.99084896364E+03  0.99084896365E+03  0.50400001928E-02 0.  1.
    10030    2    1    2    0    0  0.00000000000E+00  0.00000000000E+00 -0.17314933656E+03  0.18085485907E+04  0.18002409040E+04 0.  0.
        4    1    3    3  502    0  0.26517903713E+03 -0.14712786815E+03 -0.93798119630E+03  0.98578743592E+03  0.12699999809E+01 0.  1.
       -4    1    3    3    0  502 -0.26517903713E+03  0.14712786815E+03  0.76483185974E+03  0.82276115482E+03  0.12699999809E+01 0. -1.
</event>
<event>
 5   0  0.9999162E-06  0.1799515E+04  0.7818609E-02  0.8706557E-01
       -2   -1    0    0    0  501  0.00000000000E+00  0.00000000000E+00  0.97908669929E+03  0.97908669930E+03  0.25500000920E-02 0. -1.
        2   -1    0    0  501    0  0.00000000000E+00  0.00000000000E+00 -0.82685582349E+03  0.82685582349E+03  0.25500000920E-02 0.  1.
    10030    2    1    2    0    0  0.00000000000E+00  0.00000000000E+00  0.15223087580E+03  0.18059425228E+04  0.17995149780E+04 0.  0.
        1    1    3    3  502    0  0.27579179638E+03 -0.13081225609E+03  0.92553721457E+03  0.97457277659E+03  0.50400001928E-02 0. -1.
       -1    1    3    3    0  502 -0.27579179638E+03  0.13081225609E+03 -0.77330633877E+03  0.83136974620E+03  0.50400001928E-02 0.  1.
</event>
<event>
 5   0  0.1036381E-05  0.1799816E+04  0.7818609E-02  0.8706397E-01
       -2   -1    0    0    0  501  0.00000000000E+00  0.00000000000E+00  0.91207480897E+03  0.91207480898E+03  0.25500000920E-02 0. -1.
        2   -1    0    0  501    0  0.00000000000E+00  0.00000000000E+00 -0.88790340989E+03  0.88790340989E+03  0.25500000920E-02 0.  1.
    10030    2    1    2    0    0  0.00000000000E+00  0.00000000000E+00  0.24171399086E+02  0.17999782189E+04  0.17998159161E+04 0.  0.
        4    1    3    3  502    0 -0.12593689304E+02 -0.89981603199E+03  0.14372308243E+02  0.90001981566E+03  0.12699999809E+01 0. -1.
       -4    1    3    3    0  502  0.12593689304E+02  0.89981603199E+03  0.97990908430E+01  0.89995840321E+03  0.12699999809E+01 0.  1.
</event>
<event>
 5   0  0.4987456E-06  0.1799967E+04  0.7818609E-02  0.8706317E-01
       -1   -1    0    0    0  501  0.00000000000E+00  0.00000000000E+00  0.60355190017E+03  0.60355190019E+03  0.50400001928E-02 0. -1.
        1   -1    0    0  501    0  0.00000000000E+00  0.00000000000E+00 -0.13420063594E+04  0.13420063594E+04  0.50400001928E-02 0.  1.
    10030    2    1    2    0    0  0.00000000000E+00  0.00000000000E+00 -0.73845445922E+03  0.19455582596E+04  0.17999672089E+04 0.  0.
        3    1    3    3  502    0 -0.79188617814E+02  0.86554322673E+03 -0.11681199244E+03  0.87697261434E+03  0.10100000352E+00 0. -1.
       -3    1    3    3    0  502  0.79188617814E+02 -0.86554322673E+03 -0.62164246679E+03  0.10685856453E+04  0.10100000352E+00 0.  1.
</event>
<event>
 5   0  0.1035018E-05  0.1800115E+04  0.7818609E-02  0.8706238E-01
        2   -1    0    0  501    0  0.00000000000E+00  0.00000000000E+00  0.14064234231E+04  0.14064234231E+04  0.25500000920E-02 0. -1.
       -2   -1    0    0    0  501  0.00000000000E+00  0.00000000000E+00 -0.57600252286E+03  0.57600252286E+03  0.25500000920E-02 0.  1.
    10030    2    1    2    0    0  0.00000000000E+00  0.00000000000E+00  0.83042090027E+03  0.19824259460E+04  0.18001149296E+04 0.  0.
        3    1    3    3  502    0 -0.58396475846E+02  0.74201924694E+03  0.97252725391E+03  0.12246681106E+04  0.10100000352E+00 0. -1.
       -3    1    3    3    0  502  0.58396475846E+02 -0.74201924694E+03 -0.14210635364E+03  0.75775783544E+03  0.10100000352E+00 0.  1.
</event>
<event>
 5   0  0.4987456E-06  0.1798940E+04  0.7818609E-02  0.8706864E-01
       -1   -1    0    0    0  501  0.00000000000E+00  0.00000000000E+00  0.86714828782E+03  0.86714828783E+03  0.50400001928E-02 0.  1.
        1   -1    0    0  501    0  0.00000000000E+00  0.00000000000E+00 -0.93299611865E+03  0.93299611866E+03  0.50400001928E-02 0. -1.
    10030    2    1    2    0    0  0.00000000000E+00  0.00000000000E+00 -0.65847830826E+02  0.18001444065E+04  0.17989396731E+04 0.  0.
        3    1    3    3  502    0  0.76678443196E+03  0.29488044811E+03  0.33356325829E+03  0.88666639795E+03  0.10100000352E+00 0.  1.
       -3    1    3    3    0  502 -0.76678443196E+03 -0.29488044811E+03 -0.39941108911E+03  0.91347800854E+03  0.10100000352E+00 0. -1.
</event>
<event>
 5   0  0.4953155E-06  0.1800239E+04  0.7818609E-02  0.8706172E-01
       -1   -1    0    0    0  501  0.00000000000E+00  0.00000000000E+00  0.14558277025E+04  0.14558277025E+04  0.50400001928E-02 0.  1.
        1   -1    0    0  501    0  0.00000000000E+00  0.00000000000E+00 -0.55653250491E+03  0.55653250494E+03  0.50400001928E-02 0. -1.
    10030    2    1    2    0    0  0.00000000000E+00  0.00000000000E+00  0.89929519759E+03  0.20123602075E+04  0.18002393597E+04 0.  0.
        2    1    3    3  502    0 -0.71406236450E+03 -0.50157395793E+03  0.20282760446E+03  0.89587975354E+03  0.25500000920E-02 0.  1.
       -2    1    3    3    0  502  0.71406236450E+03  0.50157395793E+03  0.69646759313E+03  0.11164804539E+04  0.25500000920E-02 0. -1.
</event>
<event>
 5   0  0.9589963E-06  0.1800851E+04  0.7818609E-02  0.8705847E-01
       -2   -1    0    0    0  501  0.00000000000E+00  0.00000000000E+00  0.10060211332E+04  0.10060211332E+04  0.25500000920E-02 0. -1.
        2   -1    0    0  501    0  0.00000000000E+00  0.00000000000E+00 -0.80591355204E+03  0.80591355204E+03  0.25500000920E-02 0.  1.
    10030    2    1    2    0    0  0.00000000000E+00  0.00000000000E+00  0.20010758113E+03  0.18119346852E+04  0.18008509820E+04 0.  0.
        2    1    3    3  502    0 -0.25774466640E+03  0.19262162978E+02  0.96789515962E+03  0.10018105529E+04  0.25500000920E-02 0. -1.
       -2    1    3    3    0  502  0.25774466640E+03 -0.19262162978E+02 -0.76778757849E+03  0.81012413226E+03  0.25500000920E-02 0.  1.
</event>
<event>
 5   0  0.4981384E-06  0.1800459E+04  0.7818609E-02  0.8706055E-01
        1   -1    0    0  501    0  0.00000000000E+00  0.00000000000E+00  0.86044994657E+03  0.86044994659E+03  0.50400001928E-02 0.  1.
       -1   -1    0    0    0  501  0.00000000000E+00  0.00000000000E+00 -0.94184842560E+03  0.94184842561E+03  0.50400001928E-02 0. -1.
    10030    2    1    2    0    0  0.00000000000E+00  0.00000000000E+00 -0.81398479026E+02  0.18022983722E+04  0.18004593053E+04 0.  0.
        5    1    3    3  502    0  0.60364392135E+03  0.44833963990E+03  0.45477798247E+03  0.87877159708E+03  0.46999998093E+01 0.  1.
       -5    1    3    3    0  502 -0.60364392135E+03 -0.44833963990E+03 -0.53617646150E+03  0.92352677512E+03  0.46999998093E+01 0. -1.
</event>
<event>
 5   0  0.4994123E-06  0.1798513E+04  0.7818609E-02  0.8707091E-01
       -1   -1    0    0    0  501  0.00000000000E+00  0.00000000000E+00  0.73607948496E+03  0.73607948498E+03  0.50400001928E-02 0. -1.
        1   -1    0    0  501    0  0.00000000000E+00  0.00000000000E+00 -0.10986075369E+04  0.10986075369E+04  0.50400001928E-02 0.  1.
    10030    2    1    2    0    0  0.00000000000E+00  0.00000000000E+00 -0.36252805194E+03  0.18346870219E+04  0.17985132415E+04 0.  0.
        1    1    3    3  502    0  0.70447694521E+03  0.44991687643E+03 -0.51951962511E+03  0.98418169203E+03  0.50400001928E-02 0.  1.
       -1    1    3    3    0  502 -0.70447694521E+03 -0.44991687643E+03  0.15699157317E+03  0.85050532985E+03  0.50400001928E-02 0. -1.
</event>
<event>
 5   0  0.1036381E-05  0.1799186E+04  0.7818609E-02  0.8706733E-01
        2   -1    0    0  501    0  0.00000000000E+00  0.00000000000E+00  0.22225839647E+04  0.22225839647E+04  0.25500000920E-02 0.  1.
       -2   -1    0    0    0  501  0.00000000000E+00  0.00000000000E+00 -0.36411107939E+03  0.36411107940E+03  0.25500000920E-02 0. -1.
    10030    2    1    2    0    0  0.00000000000E+00  0.00000000000E+00  0.18584728853E+04  0.25866950441E+04  0.17991858675E+04 0.  0.
        4    1    3    3  502    0 -0.16840441985E+03 -0.74448363402E+03  0.16136947032E+04  0.17851129202E+04  0.12699999809E+01 0.  1.
       -4    1    3    3    0  502  0.16840441985E+03  0.74448363402E+03  0.24477818210E+03  0.80158212386E+03  0.12699999809E+01 0. -1.
</event>
<event>
 5   0  0.4994123E-06  0.1799464E+04  0.7818609E-02  0.8706585E-01
       -1   -1    0    0    0  501  0.00000000000E+00  0.00000000000E+00  0.12152555747E+04  0.12152555747E+04  0.50400001928E-02 0. -1.
        1   -1    0    0  501    0  0.00000000000E+00  0.00000000000E+00 -0.66612955606E+03  0.66612955608E+03  0.50400001928E-02 0.  1.
    10030    2    1    2    0    0  0.00000000000E+00  0.00000000000E+00  0.54912601868E+03  0.18813851308E+04  0.17994639830E+04 0.  0.
        1    1    3    3  502    0  0.37414367160E+03  0.43261786202E+03 -0.45158871757E+03  0.72874829084E+03  0.50400001928E-02 0.  1.
       -1    1    3    3    0  502 -0.37414367160E+03 -0.43261786202E+03  0.10007147362E+04  0.11526368400E+04  0.50400001928E-02 0. -1.
</event>
<event>
 5   0  0.1036381E-05  0.1808728E+04  0.7818609E-02  0.8701672E-01
       -2   -1    0    0    0  501  0.00000000000E+00  0.00000000000E+00  0.31010521521E+03  0.31010521522E+03  0.25500000920E-02 0. -1.
        2   -1    0    0  501    0  0.00000000000E+00  0.00000000000E+00 -0.26374079959E+04  0.26374079959E+04  0.25500000920E-02 0.  1.
    10030    2    1    2    0    0  0.00000000000E+00  0.00000000000E+00 -0.23273027807E+04  0.29475132111E+04  0.18087277011E+04 0.  0.
        4    1    3    3  502    0  0.83191030756E+03 -0.11849294773E+03 -0.61887286196E+03  0.10436093956E+04  0.12699999809E+01 0. -1.
       -4    1    3    3    0  502 -0.83191030756E+03  0.11849294773E+03 -0.17084299187E+04  0.19039038154E+04  0.12699999809E+01 0.  1.
</event>
<event>
 5   0  0.1000316E-05  0.1799961E+04  0.7818609E-02  0.8706320E-01
        2   -1    0    0  501    0  0.00000000000E+00  0.00000000000E+00  0.11270081270E+04  0.11270081270E+04  0.25500000920E-02 0. -1.
       -2   -1    0    0    0  501  0.00000000000E+00  0.00000000000E+00 -0.71868622775E+03  0.71868622775E+03  0.25500000920E-02 0.  1.
    10030    2    1    2    0    0  0.00000000000E+00  0.00000000000E+00  0.40832189925E+03  0.18456943548E+04  0.17999613545E+04 0.  0.
        5    1    3    3  502    0 -0.39048651556E+02 -0.66707660983E+03  0.82232717742E+03  0.10596037360E+04  0.46999998093E+01 0. -1.
       -5    1    3    3    0  502  0.39048651556E+02  0.66707660983E+03 -0.41400527817E+03  0.78609061878E+03  0.46999998093E+01 0.  1.
</event>
<event>
 5   0  0.4983159E-06  0.1798407E+04  0.7818609E-02  0.8707147E-01
       -1   -1    0    0    0  501  0.00000000000E+00  0.00000000000E+00  0.16839743981E+04  0.16839743981E+04  0.50400001928E-02 0. -1.
        1   -1    0    0  501    0  0.00000000000E+00  0.00000000000E+00 -0.48015371269E+03  0.48015371272E+03  0.50400001928E-02 0.  1.
    10030    2    1    2    0    0  0.00000000000E+00  0.00000000000E+00  0.12038206854E+04  0.21641281108E+04  0.17984065829E+04 0.  0.
        4    1    3    3  502    0  0.22401836408E+03  0.78834899017E+03  0.10471312323E+04  0.13297231999E+04  0.12699999809E+01 0.  1.
       -4    1    3    3    0  502 -0.22401836408E+03 -0.78834899017E+03  0.15668945309E+03  0.83440491092E+03  0.12699999809E+01 0. -1.
</event>
<event>
 5   0  0.1000316E-05  0.1797046E+04  0.7818609E-02  0.8707872E-01
        2   -1    0    0  501    0  0.00000000000E+00  0.00000000000E+00  0.10944204351E+04  0.10944204351E+04  0.25500000920E-02 0.  1.
       -2   -1    0    0    0  501  0.00000000000E+00  0.00000000000E+00 -0.73769014564E+03  0.73769014564E+03  0.25500000920E-02 0. -1.
    10030    2    1    2    0    0  0.00000000000E+00  0.00000000000E+00  0.35673028945E+03  0.18321105807E+04  0.17970455422E+04 0.  0.
        5    1    3    3  502    0 -0.56532452542E+03 -0.94517045729E+02  0.88381761815E+03  0.10534139562E+04  0.46999998093E+01 0.  1.
       -5    1    3    3    0  502  0.56532452542E+03  0.94517045729E+02 -0.52708732870E+03  0.77869662453E+03  0.46999998093E+01 0. -1.
</event>
<event>
 5   0  0.4953155E-06  0.1800567E+04  0.7818609E-02  0.8705998E-01
        1   -1    0    0  501    0  0.00000000000E+00  0.00000000000E+00  0.96487724766E+03  0.96487724767E+03  0.50400001928E-02 0.  1.
       -1   -1    0    0    0  501  0.00000000000E+00  0.00000000000E+00 -0.84001353742E+03  0.84001353744E+03  0.50400001928E-02 0. -1.
    10030    2    1    2    0    0  0.00000000000E+00  0.00000000000E+00  0.12486371024E+03  0.18048907851E+04  0.18005665220E+04 0.  0.
        2    1    3    3  502    0  0.58184792242E+03  0.40548816119E+03  0.61832866659E+03  0.94090275461E+03  0.25500000920E-02 0.  1.
       -2    1    3    3    0  502 -0.58184792242E+03 -0.40548816119E+03 -0.49346495636E+03  0.86398803050E+03  0.25500000920E-02 0. -1.
</event>
<event>
 5   0  0.9589963E-06  0.1798836E+04  0.7818609E-02  0.8706919E-01
       -2   -1    0    0    0  501  0.00000000000E+00  0.00000000000E+00  0.86273349873E+03  0.86273349874E+03  0.25500000920E-02 0. -1.
        2   -1    0    0  501    0  0.00000000000E+00  0.00000000000E+00 -0.93766254392E+03  0.93766254392E+03  0.25500000920E-02 0.  1.
    10030    2    1    2    0    0  0.00000000000E+00  0.00000000000E+00 -0.74929045188E+02  0.18003960427E+04  0.17988361650E+04 0.  0.
        2    1    3    3  502    0 -0.45397552829E+02  0.50482914294E+03  0.70617336867E+03  0.86924923238E+03  0.25500000920E-02 0. -1.
       -2    1    3    3    0  502  0.45397552829E+02 -0.50482914294E+03 -0.78110241386E+03  0.93114681028E+03  0.25500000920E-02 0.  1.
</event>
<event>
 5   0  0.4981384E-06  0.1799461E+04  0.7818609E-02  0.8706586E-01
        1   -1    0    0  501    0  0.00000000000E+00  0.00000000000E+00  0.79861906115E+03  0.79861906116E+03  0.50400001928E-02 0. -1.
       -1   -1    0    0    0  501  0.00000000000E+00  0.00000000000E+00 -0.10136437617E+04  0.10136437617E+04  0.50400001928E-02 0.  1.
    10030    2    1    2    0    0  0.00000000000E+00  0.00000000000E+00 -0.21502470053E+03  0.18122628229E+04  0.17994612853E+04 0.  0.
        5    1    3    3  502    0 -0.16370263707E+03  0.60894471402E+03  0.53883282547E+03  0.82944265740E+03  0.46999998093E+01 0. -1.
       -5    1    3    3    0  502  0.16370263707E+03 -0.60894471402E+03 -0.75385752600E+03  0.98282016545E+03  0.46999998093E+01 0.  1.
</event>
</LesHouchesEvents>
